God Rules Over Mankind, Animals, Cosmos and Such
43801
    1ASP      N    1   4.925   5.162   1.349
    1ASP     H1    2   4.981   5.174   1.431
    1ASP     H2    3   4.926   5.066   1.322
    1ASP     H3    4   4.963   5.218   1.275
    1ASP     CA    5   4.786   5.205   1.377
    1ASP     HA    6   4.795   5.302   1.400
    1ASP     CB    7   4.702   5.186   1.251
    1ASP    HB1    8   4.668   5.093   1.247
    1ASP    HB2    9   4.758   5.205   1.170
    1ASP     CG   10   4.584   5.283   1.255
    1ASP    OD1   11   4.609   5.395   1.303
    1ASP    OD2   12   4.473   5.239   1.220
    1ASP      C   13   4.721   5.141   1.502
    1ASP      O   14   4.631   5.197   1.561
    2SER      N   15   4.769   5.026   1.550
    2SER      H   16   4.853   4.989   1.511
    2SER     CA   17   4.703   4.951   1.660
    2SER     HA   18   4.606   4.971   1.644
    2SER     CB   19   4.736   4.802   1.645
    2SER    HB1   20   4.671   4.746   1.695
    2SER    HB2   21   4.829   4.782   1.678
    2SER     OG   22   4.730   4.765   1.509
    2SER     HG   23   4.752   4.668   1.499
    2SER      C   24   4.732   5.000   1.803
    2SER      O   25   4.678   4.943   1.898
    3HIS      N   26   4.814   5.104   1.822
    3HIS      H   27   4.853   5.149   1.743
    3HIS     CA   28   4.849   5.154   1.957
    3HIS     HA   29   4.846   5.073   2.016
    3HIS     CB   30   4.992   5.210   1.956
    3HIS    HB1   31   4.989   5.304   1.920
    3HIS    HB2   32   5.049   5.154   1.897
    3HIS     CG   33   5.054   5.214   2.093
    3HIS    ND1   34   5.063   5.109   2.182
    3HIS    CE1   35   5.127   5.151   2.292
    3HIS    HE1   36   5.147   5.095   2.372
    3HIS    NE2   37   5.160   5.280   2.279
    3HIS    HE2   38   5.207   5.336   2.347
    3HIS    CD2   39   5.116   5.321   2.153
    3HIS    HD2   40   5.128   5.412   2.113
    3HIS      C   41   4.744   5.252   2.013
    3HIS      O   42   4.712   5.247   2.131
    4ALA      N   43   4.680   5.333   1.927
    4ALA      H   44   4.706   5.328   1.830
    4ALA     CA   45   4.576   5.428   1.967
    4ALA     HA   46   4.611   5.476   2.047
    4ALA     CB   47   4.553   5.525   1.849
    4ALA    HB1   48   4.482   5.591   1.874
    4ALA    HB2   49   4.638   5.573   1.829
    4ALA    HB3   50   4.524   5.473   1.769
    4ALA      C   51   4.445   5.359   2.010
    4ALA      O   52   4.380   5.400   2.106
    5LYS      N   53   4.409   5.246   1.946
    5LYS      H   54   4.468   5.213   1.872
    5LYS     CA   55   4.288   5.168   1.980
    5LYS     HA   56   4.214   5.235   1.982
    5LYS     CB   57   4.261   5.064   1.870
    5LYS    HB1   58   4.191   5.000   1.903
    5LYS    HB2   59   4.345   5.013   1.852
    5LYS     CG   60   4.213   5.130   1.740
    5LYS    HG1   61   4.283   5.194   1.709
    5LYS    HG2   62   4.128   5.180   1.759
    5LYS     CD   63   4.185   5.028   1.628
    5LYS    HD1   64   4.114   4.964   1.658
    5LYS    HD2   65   4.269   4.978   1.608
    5LYS     CE   66   4.138   5.103   1.503
    5LYS    HE1   67   4.203   5.176   1.481
    5LYS    HE2   68   4.048   5.144   1.521
    5LYS     NZ   69   4.125   5.016   1.384
    5LYS    HZ1   70   4.094   5.070   1.306
    5LYS    HZ2   71   4.214   4.975   1.363
    5LYS    HZ3   72   4.059   4.943   1.402
    5LYS      C   73   4.296   5.104   2.118
    5LYS      O   74   4.198   5.104   2.192
    6ARG      N   75   4.415   5.057   2.158
    6ARG      H   76   4.491   5.058   2.093
    6ARG     CA   77   4.438   5.005   2.293
    6ARG     HA   78   4.363   4.941   2.314
    6ARG     CB   79   4.571   4.927   2.295
    6ARG    HB1   80   4.646   4.993   2.290
    6ARG    HB2   81   4.574   4.868   2.215
    6ARG     CG   82   4.589   4.841   2.421
    6ARG    HG1   83   4.505   4.791   2.440
    6ARG    HG2   84   4.611   4.900   2.499
    6ARG     CD   85   4.704   4.741   2.400
    6ARG    HD1   86   4.785   4.789   2.368
    6ARG    HD2   87   4.677   4.673   2.332
    6ARG     NE   88   4.738   4.669   2.525
    6ARG     HE   89   4.726   4.720   2.610
    6ARG     CZ   90   4.784   4.545   2.536
    6ARG    NH1   91   4.794   4.465   2.434
    6ARG   HH11   92   4.768   4.496   2.343
    6ARG   HH12   93   4.829   4.372   2.447
    6ARG    NH2   94   4.820   4.499   2.652
    6ARG   HH21   95   4.814   4.557   2.733
    6ARG   HH22   96   4.854   4.405   2.661
    6ARG      C   97   4.430   5.115   2.399
    6ARG      O   98   4.400   5.084   2.514
    7HIS      N   99   4.450   5.241   2.360
    7HIS      H  100   4.465   5.258   2.263
    7HIS     CA  101   4.449   5.355   2.450
    7HIS     HA  102   4.484   5.318   2.537
    7HIS     CB  103   4.548   5.463   2.399
    7HIS    HB1  104   4.496   5.533   2.350
    7HIS    HB2  105   4.613   5.419   2.337
    7HIS     CG  106   4.628   5.533   2.507
    7HIS    ND1  107   4.717   5.474   2.596
    7HIS    CE1  108   4.766   5.570   2.677
    7HIS    HE1  109   4.835   5.555   2.747
    7HIS    NE2  110   4.708   5.688   2.648
    7HIS    HE2  111   4.722   5.774   2.697
    7HIS    CD2  112   4.625   5.666   2.538
    7HIS    HD2  113   4.573   5.736   2.489
    7HIS      C  114   4.307   5.409   2.482
    7HIS      O  115   4.281   5.464   2.589
    8HIS      N  116   4.209   5.389   2.394
    8HIS      H  117   4.230   5.345   2.306
    8HIS     CA  118   4.070   5.428   2.423
    8HIS     HA  119   4.078   5.509   2.481
    8HIS     CB  120   3.999   5.466   2.293
    8HIS    HB1  121   3.900   5.458   2.306
    8HIS    HB2  122   4.028   5.403   2.220
    8HIS     CG  123   4.033   5.607   2.252
    8HIS    ND1  124   3.982   5.721   2.309
    8HIS    CE1  125   4.038   5.827   2.248
    8HIS    HE1  126   4.017   5.922   2.269
    8HIS    NE2  127   4.125   5.786   2.155
    8HIS    HE2  128   4.181   5.844   2.096
    8HIS    CD2  129   4.122   5.646   2.156
    8HIS    HD2  130   4.176   5.586   2.097
    8HIS      C  131   3.993   5.325   2.507
    8HIS      O  132   3.907   5.362   2.586
    9GLY      N  133   4.028   5.196   2.497
    9GLY      H  134   4.103   5.171   2.436
    9GLY     CA  135   3.960   5.089   2.572
    9GLY    HA1  136   3.991   5.002   2.535
    9GLY    HA2  137   3.862   5.099   2.555
    9GLY      C  138   3.985   5.093   2.723
    9GLY      O  139   3.893   5.071   2.802
   10TYR      N  140   4.108   5.124   2.766
   10TYR      H  141   4.178   5.147   2.699
   10TYR     CA  142   4.143   5.126   2.909
   10TYR     HA  143   4.093   5.049   2.948
   10TYR     CB  144   4.294   5.103   2.929
   10TYR    HB1  145   4.326   5.037   2.860
   10TYR    HB2  146   4.309   5.066   3.020
   10TYR     CG  147   4.377   5.228   2.915
   10TYR    CD1  148   4.413   5.274   2.788
   10TYR    HD1  149   4.392   5.220   2.706
   10TYR    CE1  150   4.479   5.397   2.776
   10TYR    HE1  151   4.503   5.431   2.685
   10TYR     CZ  152   4.513   5.474   2.887
   10TYR     OH  153   4.568   5.597   2.871
   10TYR     HH  154   4.586   5.637   2.961
   10TYR    CE2  155   4.477   5.428   3.014
   10TYR    HE2  156   4.500   5.482   3.095
   10TYR    CD2  157   4.409   5.306   3.028
   10TYR    HD2  158   4.382   5.274   3.119
   10TYR      C  159   4.094   5.253   2.981
   10TYR      O  160   4.048   5.244   3.095
   11LYS      N  161   4.096   5.369   2.914
   11LYS      H  162   4.137   5.371   2.822
   11LYS     CA  163   4.042   5.495   2.968
   11LYS     HA  164   4.085   5.505   3.058
   11LYS     CB  165   4.078   5.614   2.878
   11LYS    HB1  166   4.011   5.687   2.891
   11LYS    HB2  167   4.076   5.585   2.782
   11LYS     CG  168   4.218   5.668   2.911
   11LYS    HG1  169   4.284   5.595   2.897
   11LYS    HG2  170   4.219   5.697   3.007
   11LYS     CD  171   4.258   5.788   2.824
   11LYS    HD1  172   4.183   5.854   2.820
   11LYS    HD2  173   4.279   5.756   2.732
   11LYS     CE  174   4.382   5.857   2.883
   11LYS    HE1  175   4.455   5.789   2.896
   11LYS    HE2  176   4.359   5.897   2.972
   11LYS     NZ  177   4.435   5.966   2.797
   11LYS    HZ1  178   4.515   6.007   2.840
   11LYS    HZ2  179   4.461   5.928   2.708
   11LYS    HZ3  180   4.365   6.035   2.784
   11LYS      C  181   3.891   5.487   2.990
   11LYS      O  182   3.843   5.537   3.091
   12ARG      N  183   3.818   5.419   2.901
   12ARG      H  184   3.864   5.381   2.821
   12ARG     CA  185   3.673   5.398   2.914
   12ARG     HA  186   3.633   5.488   2.932
   12ARG     CB  187   3.615   5.341   2.783
   12ARG    HB1  188   3.641   5.245   2.775
   12ARG    HB2  189   3.652   5.393   2.706
   12ARG     CG  190   3.462   5.352   2.782
   12ARG    HG1  191   3.437   5.448   2.799
   12ARG    HG2  192   3.425   5.295   2.855
   12ARG     CD  193   3.400   5.308   2.649
   12ARG    HD1  194   3.452   5.348   2.573
   12ARG    HD2  195   3.305   5.338   2.644
   12ARG     NE  196   3.402   5.161   2.633
   12ARG     HE  197   3.476   5.111   2.679
   12ARG     CZ  198   3.315   5.090   2.564
   12ARG    NH1  199   3.221   5.145   2.493
   12ARG   HH11  200   3.213   5.244   2.489
   12ARG   HH12  201   3.157   5.087   2.442
   12ARG    NH2  202   3.320   4.959   2.566
   12ARG   HH21  203   3.390   4.913   2.620
   12ARG   HH22  204   3.254   4.906   2.513
   12ARG      C  205   3.639   5.310   3.035
   12ARG      O  206   3.555   5.349   3.115
   13LYS      N  207   3.711   5.199   3.054
   13LYS      H  208   3.781   5.175   2.986
   13LYS     CA  209   3.693   5.110   3.171
   13LYS     HA  210   3.596   5.090   3.176
   13LYS     CB  211   3.774   4.982   3.149
   13LYS    HB1  212   3.872   5.003   3.157
   13LYS    HB2  213   3.755   4.947   3.057
   13LYS     CG  214   3.738   4.873   3.251
   13LYS    HG1  215   3.639   4.858   3.248
   13LYS    HG2  216   3.764   4.904   3.342
   13LYS     CD  217   3.809   4.740   3.221
   13LYS    HD1  218   3.907   4.752   3.229
   13LYS    HD2  219   3.787   4.711   3.128
   13LYS     CE  220   3.761   4.634   3.321
   13LYS    HE1  221   3.662   4.624   3.314
   13LYS    HE2  222   3.786   4.662   3.413
   13LYS     NZ  223   3.823   4.501   3.295
   13LYS    HZ1  224   3.789   4.435   3.362
   13LYS    HZ2  225   3.798   4.470   3.203
   13LYS    HZ3  226   3.922   4.508   3.303
   13LYS      C  227   3.730   5.179   3.303
   13LYS      O  228   3.669   5.150   3.406
   14PHE      N  229   3.828   5.270   3.302
   14PHE      H  230   3.879   5.283   3.217
   14PHE     CA  231   3.863   5.351   3.418
   14PHE     HA  232   3.870   5.288   3.496
   14PHE     CB  233   4.000   5.416   3.395
   14PHE    HB1  234   3.992   5.479   3.318
   14PHE    HB2  235   4.066   5.345   3.373
   14PHE     CG  236   4.053   5.494   3.514
   14PHE    CD1  237   4.046   5.635   3.515
   14PHE    HD1  238   4.006   5.683   3.438
   14PHE    CE1  239   4.095   5.707   3.625
   14PHE    HE1  240   4.090   5.807   3.626
   14PHE     CZ  241   4.152   5.639   3.734
   14PHE     HZ  242   4.187   5.690   3.813
   14PHE    CE2  243   4.159   5.498   3.733
   14PHE    HE2  244   4.200   5.450   3.811
   14PHE    CD2  245   4.109   5.426   3.623
   14PHE    HD2  246   4.114   5.326   3.623
   14PHE      C  247   3.752   5.452   3.451
   14PHE      O  248   3.702   5.449   3.563
   15HIS      N  249   3.706   5.533   3.355
   15HIS      H  250   3.747   5.527   3.264
   15HIS     CA  251   3.598   5.629   3.378
   15HIS     HA  252   3.630   5.687   3.453
   15HIS     CB  253   3.575   5.714   3.252
   15HIS    HB1  254   3.479   5.707   3.224
   15HIS    HB2  255   3.633   5.679   3.178
   15HIS     CG  256   3.607   5.860   3.271
   15HIS    ND1  257   3.732   5.913   3.292
   15HIS    CE1  258   3.718   6.046   3.307
   15HIS    HE1  259   3.794   6.110   3.324
   15HIS    NE2  260   3.590   6.081   3.295
   15HIS    HE2  261   3.553   6.174   3.301
   15HIS    CD2  262   3.518   5.963   3.274
   15HIS    HD2  263   3.419   5.956   3.263
   15HIS      C  264   3.467   5.562   3.424
   15HIS      O  265   3.403   5.609   3.518
   16GLU      N  266   3.430   5.449   3.364
   16GLU      H  267   3.489   5.412   3.292
   16GLU     CA  268   3.308   5.374   3.398
   16GLU     HA  269   3.231   5.438   3.391
   16GLU     CB  270   3.295   5.261   3.294
   16GLU    HB1  271   3.365   5.192   3.315
   16GLU    HB2  272   3.313   5.300   3.204
   16GLU     CG  273   3.159   5.191   3.290
   16GLU    HG1  274   3.087   5.259   3.283
   16GLU    HG2  275   3.147   5.138   3.374
   16GLU     CD  276   3.156   5.098   3.168
   16GLU    OE1  277   3.193   4.979   3.184
   16GLU    OE2  278   3.131   5.148   3.056
   16GLU      C  279   3.308   5.322   3.543
   16GLU      O  280   3.206   5.331   3.611
   17LYS      N  281   3.424   5.280   3.595
   17LYS      H  282   3.504   5.278   3.536
   17LYS     CA  283   3.440   5.235   3.735
   17LYS     HA  284   3.363   5.174   3.753
   17LYS     CB  285   3.574   5.161   3.747
   17LYS    HB1  286   3.648   5.227   3.734
   17LYS    HB2  287   3.579   5.091   3.676
   17LYS     CG  288   3.592   5.093   3.884
   17LYS    HG1  289   3.515   5.031   3.899
   17LYS    HG2  290   3.593   5.163   3.955
   17LYS     CD  291   3.722   5.012   3.893
   17LYS    HD1  292   3.800   5.072   3.878
   17LYS    HD2  293   3.722   4.940   3.824
   17LYS     CE  294   3.730   4.950   4.033
   17LYS    HE1  295   3.654   4.886   4.045
   17LYS    HE2  296   3.722   5.023   4.102
   17LYS     NZ  297   3.857   4.877   4.056
   17LYS    HZ1  298   3.857   4.839   4.149
   17LYS    HZ2  299   3.865   4.803   3.990
   17LYS    HZ3  300   3.934   4.940   4.046
   17LYS      C  301   3.427   5.349   3.837
   17LYS      O  302   3.396   5.323   3.953
   18HIS      N  303   3.451   5.474   3.797
   18HIS      H  304   3.472   5.489   3.701
   18HIS     CA  305   3.449   5.590   3.887
   18HIS     HA  306   3.460   5.552   3.979
   18HIS     CB  307   3.567   5.682   3.853
   18HIS    HB1  308   3.552   5.772   3.895
   18HIS    HB2  309   3.574   5.693   3.754
   18HIS     CG  310   3.698   5.627   3.904
   18HIS    ND1  311   3.739   5.625   4.035
   18HIS    CE1  312   3.860   5.567   4.041
   18HIS    HE1  313   3.912   5.553   4.125
   18HIS    NE2  314   3.900   5.529   3.919
   18HIS    HE2  315   3.984   5.481   3.896
   18HIS    CD2  316   3.800   5.571   3.831
   18HIS    HD2  317   3.802   5.561   3.731
   18HIS      C  318   3.314   5.664   3.889
   18HIS      O  319   3.290   5.743   3.981
   19HIS      N  320   3.224   5.638   3.794
   19HIS      H  321   3.250   5.575   3.720
   19HIS     CA  322   3.090   5.696   3.793
   19HIS     HA  323   3.099   5.782   3.843
   19HIS     CB  324   3.047   5.723   3.648
   19HIS    HB1  325   2.949   5.742   3.646
   19HIS    HB2  326   3.067   5.643   3.592
   19HIS     CG  327   3.120   5.841   3.589
   19HIS    ND1  328   3.110   5.972   3.632
   19HIS    CE1  329   3.191   6.047   3.555
   19HIS    HE1  330   3.203   6.146   3.565
   19HIS    NE2  331   3.251   5.971   3.463
   19HIS    HE2  332   3.316   6.002   3.393
   19HIS    CD2  333   3.206   5.840   3.483
   19HIS    HD2  334   3.233   5.760   3.430
   19HIS      C  335   2.985   5.614   3.870
   19HIS      O  336   2.881   5.668   3.907
   20SER      N  337   3.013   5.487   3.901
   20SER      H  338   3.102   5.451   3.875
   20SER     CA  339   2.920   5.398   3.971
   20SER     HA  340   2.829   5.427   3.939
   20SER     CB  341   2.949   5.253   3.931
   20SER    HB1  342   2.941   5.241   3.832
   20SER    HB2  343   2.886   5.190   3.977
   20SER     OG  344   3.081   5.217   3.968
   20SER     HG  345   3.098   5.122   3.941
   20SER      C  346   2.916   5.415   4.124
   20SER      O  347   2.862   5.330   4.193
   21HIS      N  348   2.975   5.522   4.179
   21HIS      H  349   3.014   5.592   4.118
   21HIS     CA  350   2.987   5.541   4.324
   21HIS     HA  351   2.921   5.478   4.364
   21HIS     CB  352   3.130   5.505   4.370
   21HIS    HB1  353   3.186   5.588   4.371
   21HIS    HB2  354   3.169   5.439   4.306
   21HIS     CG  355   3.133   5.444   4.508
   21HIS    ND1  356   3.063   5.332   4.548
   21HIS    CE1  357   3.093   5.308   4.676
   21HIS    HE1  358   3.055   5.234   4.731
   21HIS    NE2  359   3.182   5.398   4.721
   21HIS    HE2  360   3.223   5.402   4.812
   21HIS    CD2  361   3.206   5.487   4.616
   21HIS    HD2  362   3.265   5.567   4.619
   21HIS      C  363   2.942   5.680   4.373
   21HIS      O  364   2.983   5.724   4.480
   22ARG      N  365   2.859   5.751   4.295
   22ARG      H  366   2.828   5.710   4.209
   22ARG     CA  367   2.813   5.887   4.329
   22ARG     HA  368   2.849   5.906   4.420
   22ARG     CB  369   2.875   5.988   4.230
   22ARG    HB1  370   2.812   6.000   4.153
   22ARG    HB2  371   2.962   5.953   4.198
   22ARG     CG  372   2.897   6.124   4.298
   22ARG    HG1  373   2.954   6.111   4.380
   22ARG    HG2  374   2.808   6.162   4.325
   22ARG     CD  375   2.967   6.221   4.203
   22ARG    HD1  376   2.917   6.225   4.116
   22ARG    HD2  377   3.061   6.191   4.187
   22ARG     NE  378   2.971   6.356   4.261
   22ARG     HE  379   2.927   6.368   4.350
   22ARG     CZ  380   3.027   6.463   4.207
   22ARG    NH1  381   3.093   6.457   4.095
   22ARG   HH11  382   3.102   6.370   4.047
   22ARG   HH12  383   3.134   6.540   4.056
   22ARG    NH2  384   3.017   6.579   4.266
   22ARG   HH21  385   2.967   6.587   4.352
   22ARG   HH22  386   3.060   6.660   4.225
   22ARG      C  387   2.662   5.899   4.347
   22ARG      O  388   2.605   6.004   4.322
   23GLY      N  389   2.598   5.791   4.392
   23GLY      H  390   2.650   5.707   4.407
   23GLY     CA  391   2.454   5.790   4.421
   23GLY    HA1  392   2.406   5.771   4.336
   23GLY    HA2  393   2.429   5.882   4.454
   23GLY      C  394   2.418   5.687   4.526
   23GLY      O  395   2.361   5.585   4.489
   24TYR      N  396   2.456   5.712   4.651
   24TYR      H  397   2.541   5.764   4.662
   24TYR     CA  398   2.389   5.673   4.776
   24TYR     HA  399   2.291   5.683   4.758
   24TYR     CB  400   2.412   5.526   4.815
   24TYR    HB1  401   2.409   5.518   4.915
   24TYR    HB2  402   2.502   5.498   4.782
   24TYR     CG  403   2.309   5.432   4.756
   24TYR    CD1  404   2.178   5.429   4.809
   24TYR    HD1  405   2.156   5.485   4.889
   24TYR    CE1  406   2.080   5.347   4.750
   24TYR    HE1  407   1.987   5.345   4.788
   24TYR     CZ  408   2.112   5.269   4.637
   24TYR     OH  409   2.017   5.193   4.577
   24TYR     HH  410   2.057   5.145   4.499
   24TYR    CE2  411   2.243   5.271   4.585
   24TYR    HE2  412   2.266   5.215   4.505
   24TYR    CD2  413   2.341   5.350   4.646
   24TYR    HD2  414   2.435   5.350   4.611
   24TYR      C  415   2.436   5.767   4.887
   24TYR    OC1  416   2.349   5.805   4.967
   24TYR    OC2  417   2.555   5.805   4.882
   25SOL     OW  418   1.736   0.839   0.257
   25SOL    HW2  419   1.777   0.781   0.322
   25SOL    HW3  420   1.643   0.831   0.274
   25SOL    MW4  421   1.730   0.831   0.267
   26SOL     OW  422   1.602   0.771   1.252
   26SOL    HW2  423   1.557   0.838   1.303
   26SOL    HW3  424   1.690   0.807   1.238
   26SOL    MW4  425   1.608   0.784   1.256
   27SOL     OW  426   0.530   1.022   0.486
   27SOL    HW2  427   0.620   0.997   0.470
   27SOL    HW3  428   0.526   1.115   0.463
   27SOL    MW4  429   0.542   1.031   0.481
   28SOL     OW  430   1.646   1.725   0.628
   28SOL    HW2  431   1.658   1.671   0.706
   28SOL    HW3  432   1.683   1.673   0.557
   28SOL    MW4  433   1.652   1.710   0.629
   29SOL     OW  434   1.025   1.610   1.629
   29SOL    HW2  435   1.066   1.646   1.550
   29SOL    HW3  436   1.060   1.521   1.636
   29SOL    MW4  437   1.036   1.603   1.620
   30SOL     OW  438   1.582   1.165   1.233
   30SOL    HW2  439   1.503   1.130   1.191
   30SOL    HW3  440   1.609   1.237   1.177
   30SOL    MW4  441   1.575   1.170   1.220
   31SOL     OW  442   0.814   0.478   0.499
   31SOL    HW2  443   0.789   0.566   0.527
   31SOL    HW3  444   0.811   0.481   0.403
   31SOL    MW4  445   0.810   0.490   0.491
   32SOL     OW  446   0.256   0.506   0.427
   32SOL    HW2  447   0.288   0.594   0.409
   32SOL    HW3  448   0.244   0.504   0.522
   32SOL    MW4  449   0.259   0.518   0.439
   33SOL     OW  450   0.334   0.919   1.328
   33SOL    HW2  451   0.397   0.866   1.279
   33SOL    HW3  452   0.315   0.993   1.271
   33SOL    MW4  453   0.340   0.921   1.315
   34SOL     OW  454   0.655   0.261   0.514
   34SOL    HW2  455   0.713   0.337   0.516
   34SOL    HW3  456   0.590   0.282   0.447
   34SOL    MW4  457   0.654   0.273   0.505
   35SOL     OW  458   0.742   1.188   0.689
   35SOL    HW2  459   0.822   1.191   0.741
   35SOL    HW3  460   0.770   1.155   0.603
   35SOL    MW4  461   0.756   1.184   0.684
   36SOL     OW  462   0.767   1.529   1.592
   36SOL    HW2  463   0.851   1.555   1.631
   36SOL    HW3  464   0.791   1.473   1.518
   36SOL    MW4  465   0.781   1.525   1.587
   37SOL     OW  466   0.519   0.692   0.680
   37SOL    HW2  467   0.504   0.612   0.731
   37SOL    HW3  468   0.601   0.727   0.714
   37SOL    MW4  469   0.527   0.684   0.692
   38SOL     OW  470   0.856   1.378   1.365
   38SOL    HW2  471   0.820   1.444   1.305
   38SOL    HW3  472   0.784   1.316   1.378
   38SOL    MW4  473   0.842   1.378   1.359
   39SOL     OW  474   0.661   0.518   1.057
   39SOL    HW2  475   0.567   0.514   1.075
   39SOL    HW3  476   0.691   0.427   1.066
   39SOL    MW4  477   0.652   0.506   1.060
   40SOL     OW  478   0.407   0.932   0.961
   40SOL    HW2  479   0.362   0.939   0.877
   40SOL    HW3  480   0.387   1.015   1.005
   40SOL    MW4  481   0.399   0.944   0.955
   41SOL     OW  482   0.104   1.778   0.836
   41SOL    HW2  483   0.193   1.770   0.871
   41SOL    HW3  484   0.068   1.690   0.841
   41SOL    MW4  485   0.111   1.765   0.841
   42SOL     OW  486   1.369   1.170   0.205
   42SOL    HW2  487   1.287   1.206   0.171
   42SOL    HW3  488   1.437   1.213   0.154
   42SOL    MW4  489   1.367   1.180   0.193
   43SOL     OW  490   0.368   1.305   0.871
   43SOL    HW2  491   0.344   1.358   0.947
   43SOL    HW3  492   0.424   1.363   0.819
   43SOL    MW4  493   0.372   1.320   0.874
   44SOL     OW  494   0.930   0.949   0.681
   44SOL    HW2  495   0.844   0.936   0.721
   44SOL    HW3  496   0.983   0.876   0.713
   44SOL    MW4  497   0.926   0.938   0.690
   45SOL     OW  498   0.338   1.601   1.466
   45SOL    HW2  499   0.246   1.577   1.451
   45SOL    HW3  500   0.382   1.518   1.483
   45SOL    MW4  501   0.332   1.586   1.465
   46SOL     OW  502   0.921   1.311   0.398
   46SOL    HW2  503   0.898   1.373   0.466
   46SOL    HW3  504   0.878   1.229   0.424
   46SOL    MW4  505   0.913   1.307   0.409
   47SOL     OW  506   1.794   0.312   0.854
   47SOL    HW2  507   1.731   0.292   0.923
   47SOL    HW3  508   1.784   0.241   0.791
   47SOL    MW4  509   1.784   0.299   0.855
   48SOL     OW  510   0.418   0.284   0.366
   48SOL    HW2  511   0.392   0.246   0.282
   48SOL    HW3  512   0.355   0.354   0.382
   48SOL    MW4  513   0.407   0.287   0.357
   49SOL     OW  514   0.253   1.245   0.403
   49SOL    HW2  515   0.201   1.313   0.359
   49SOL    HW3  516   0.250   1.171   0.343
   49SOL    MW4  517   0.245   1.244   0.390
   50SOL     OW  518   0.915   1.708   0.181
   50SOL    HW2  519   0.870   1.724   0.264
   50SOL    HW3  520   0.846   1.673   0.123
   50SOL    MW4  521   0.901   1.705   0.183
   51SOL     OW  522   1.850   0.481   0.156
   51SOL    HW2  523   1.759   0.483   0.184
   51SOL    HW3  524   1.895   0.543   0.214
   51SOL    MW4  525   1.843   0.489   0.166
   52SOL     OW  526   1.595   1.084   0.506
   52SOL    HW2  527   1.505   1.084   0.541
   52SOL    HW3  528   1.588   1.130   0.423
   52SOL    MW4  529   1.582   1.090   0.500
   53SOL     OW  530   1.395   0.719   1.578
   53SOL    HW2  531   1.464   0.657   1.555
   53SOL    HW3  532   1.320   0.693   1.525
   53SOL    MW4  533   1.395   0.706   1.569
   54SOL     OW  534   0.136   1.599   1.130
   54SOL    HW2  535   0.119   1.545   1.207
   54SOL    HW3  536   0.124   1.689   1.160
   54SOL    MW4  537   0.133   1.603   1.144
   55SOL     OW  538   1.131   1.106   1.570
   55SOL    HW2  539   1.116   1.199   1.555
   55SOL    HW3  540   1.226   1.096   1.570
   55SOL    MW4  541   1.140   1.116   1.567
   56SOL     OW  542   0.927   0.530   1.771
   56SOL    HW2  543   1.017   0.531   1.738
   56SOL    HW3  544   0.886   0.455   1.729
   56SOL    MW4  545   0.933   0.520   1.762
   57SOL     OW  546   1.502   1.062   0.898
   57SOL    HW2  547   1.505   0.996   0.829
   57SOL    HW3  548   1.587   1.105   0.894
   57SOL    MW4  549   1.514   1.058   0.889
   58SOL     OW  550   1.122   0.665   0.467
   58SOL    HW2  551   1.148   0.689   0.378
   58SOL    HW3  552   1.104   0.572   0.463
   58SOL    MW4  553   1.124   0.657   0.454
   59SOL     OW  554   1.787   1.285   0.318
   59SOL    HW2  555   1.743   1.326   0.393
   59SOL    HW3  556   1.844   1.353   0.283
   59SOL    MW4  557   1.789   1.299   0.323
   60SOL     OW  558   0.707   0.334   1.721
   60SOL    HW2  559   0.717   0.260   1.661
   60SOL    HW3  560   0.743   0.303   1.804
   60SOL    MW4  561   0.713   0.320   1.723
   61SOL     OW  562   0.443   1.701   0.636
   61SOL    HW2  563   0.475   1.789   0.614
   61SOL    HW3  564   0.396   1.673   0.558
   61SOL    MW4  565   0.442   1.709   0.623
   62SOL     OW  566   1.827   0.063   0.685
   62SOL    HW2  567   1.881   0.014   0.747
   62SOL    HW3  568   1.770  -0.003   0.646
   62SOL    MW4  569   1.827   0.047   0.687
   63SOL     OW  570   0.159   1.761   0.213
   63SOL    HW2  571   0.188   1.851   0.205
   63SOL    HW3  572   0.109   1.744   0.134
   63SOL    MW4  573   0.157   1.769   0.202
   64SOL     OW  574   0.946   0.016   1.098
   64SOL    HW2  575   0.905   0.094   1.060
   64SOL    HW3  576   1.040   0.034   1.093
   64SOL    MW4  577   0.952   0.028   1.093
   65SOL     OW  578   1.563   1.569   0.184
   65SOL    HW2  579   1.611   1.638   0.230
   65SOL    HW3  580   1.484   1.613   0.153
   65SOL    MW4  581   1.558   1.583   0.187
   66SOL     OW  582   0.961   0.694   0.128
   66SOL    HW2  583   0.963   0.641   0.049
   66SOL    HW3  584   1.049   0.731   0.134
   66SOL    MW4  585   0.973   0.693   0.117
   67SOL     OW  586   1.575   0.620   0.464
   67SOL    HW2  587   1.614   0.620   0.551
   67SOL    HW3  588   1.516   0.696   0.464
   67SOL    MW4  589   1.572   0.631   0.475
   68SOL     OW  590   0.892   0.987   1.593
   68SOL    HW2  591   0.869   0.967   1.683
   68SOL    HW3  592   0.977   1.031   1.598
   68SOL    MW4  593   0.899   0.990   1.605
   69SOL     OW  594   0.972   0.124   1.353
   69SOL    HW2  595   0.978   0.086   1.266
   69SOL    HW3  596   0.961   0.218   1.338
   69SOL    MW4  597   0.973   0.132   1.341
   70SOL     OW  598   1.061   0.613   1.187
   70SOL    HW2  599   1.136   0.642   1.134
   70SOL    HW3  600   0.993   0.678   1.171
   70SOL    MW4  601   1.062   0.625   1.177
   71SOL     OW  602   1.611   0.581   1.464
   71SOL    HW2  603   1.592   0.490   1.443
   71SOL    HW3  604   1.589   0.630   1.385
   71SOL    MW4  605   1.606   0.574   1.451
   72SOL     OW  606   1.753   1.675   1.368
   72SOL    HW2  607   1.681   1.637   1.419
   72SOL    HW3  608   1.770   1.760   1.409
   72SOL    MW4  609   1.747   1.680   1.380
   73SOL     OW  610   1.058   0.319   1.570
   73SOL    HW2  611   1.024   0.358   1.489
   73SOL    HW3  612   1.036   0.227   1.563
   73SOL    MW4  613   1.051   0.312   1.560
   74SOL     OW  614   1.467   1.133   1.646
   74SOL    HW2  615   1.549   1.174   1.676
   74SOL    HW3  616   1.430   1.095   1.726
   74SOL    MW4  617   1.473   1.134   1.661
   75SOL     OW  618   1.762   0.506   0.630
   75SOL    HW2  619   1.851   0.475   0.647
   75SOL    HW3  620   1.705   0.446   0.678
   75SOL    MW4  621   1.765   0.494   0.639
   76SOL     OW  622   0.188   0.220   0.659
   76SOL    HW2  623   0.179   0.160   0.585
   76SOL    HW3  624   0.121   0.191   0.722
   76SOL    MW4  625   0.178   0.207   0.657
   77SOL     OW  626   1.131   1.313   0.220
   77SOL    HW2  627   1.081   1.315   0.302
   77SOL    HW3  628   1.065   1.331   0.152
   77SOL    MW4  629   1.117   1.315   0.222
   78SOL     OW  630   0.135   0.393   1.022
   78SOL    HW2  631   0.107   0.484   1.031
   78SOL    HW3  632   0.072   0.354   0.961
   78SOL    MW4  633   0.122   0.399   1.016
   79SOL     OW  634   0.594   1.731   0.328
   79SOL    HW2  635   0.515   1.689   0.361
   79SOL    HW3  636   0.660   1.714   0.395
   79SOL    MW4  637   0.593   1.723   0.341
   80SOL     OW  638   1.722   1.251   1.725
   80SOL    HW2  639   1.772   1.177   1.757
   80SOL    HW3  640   1.668   1.278   1.800
   80SOL    MW4  641   1.722   1.245   1.738
   81SOL     OW  642   0.730   1.146   0.035
   81SOL    HW2  643   0.652   1.092   0.022
   81SOL    HW3  644   0.701   1.219   0.088
   81SOL    MW4  645   0.716   1.148   0.040
   82SOL     OW  646   1.856   0.886   1.227
   82SOL    HW2  647   1.872   0.924   1.140
   82SOL    HW3  648   1.890   0.952   1.288
   82SOL    MW4  649   1.863   0.899   1.223
   83SOL     OW  650   1.648   1.595   0.896
   83SOL    HW2  651   1.677   1.662   0.957
   83SOL    HW3  652   1.629   1.519   0.951
   83SOL    MW4  653   1.650   1.595   0.911
   84SOL     OW  654   1.311   1.662   0.103
   84SOL    HW2  655   1.237   1.625   0.153
   84SOL    HW3  656   1.319   1.752   0.136
   84SOL    MW4  657   1.302   1.669   0.115
   85SOL     OW  658   0.119   0.668   1.192
   85SOL    HW2  659   0.181   0.698   1.258
   85SOL    HW3  660   0.053   0.737   1.186
   85SOL    MW4  661   0.118   0.681   1.199
   86SOL     OW  662   1.535   1.336   0.045
   86SOL    HW2  663   1.482   1.385  -0.019
   86SOL    HW3  664   1.566   1.402   0.106
   86SOL    MW4  665   1.533   1.350   0.043
   87SOL     OW  666   0.760   0.225   0.100
   87SOL    HW2  667   0.708   0.145   0.088
   87SOL    HW3  668   0.847   0.202   0.068
   87SOL    MW4  669   0.763   0.211   0.094
   88SOL     OW  670   0.214   1.777   1.644
   88SOL    HW2  671   0.188   1.845   1.582
   88SOL    HW3  672   0.262   1.714   1.592
   88SOL    MW4  673   0.216   1.777   1.630
   89SOL     OW  674   0.266   1.096   1.151
   89SOL    HW2  675   0.319   1.171   1.176
   89SOL    HW3  676   0.185   1.134   1.117
   89SOL    MW4  677   0.262   1.111   1.151
   90SOL     OW  678   0.806   1.000   1.139
   90SOL    HW2  679   0.834   0.909   1.151
   90SOL    HW3  680   0.735   0.994   1.075
   90SOL    MW4  681   0.799   0.988   1.134
   91SOL     OW  682   0.121   0.865   0.557
   91SOL    HW2  683   0.212   0.880   0.584
   91SOL    HW3  684   0.124   0.786   0.503
   91SOL    MW4  685   0.133   0.857   0.555
   92SOL     OW  686   0.357   0.573   1.811
   92SOL    HW2  687   0.304   0.653   1.818
   92SOL    HW3  688   0.427   0.585   1.876
   92SOL    MW4  689   0.359   0.586   1.819
   93SOL     OW  690   0.743   0.123   1.518
   93SOL    HW2  691   0.720   0.031   1.520
   93SOL    HW3  692   0.829   0.125   1.475
   93SOL    MW4  693   0.750   0.113   1.514
   94SOL     OW  694   0.427   0.647   1.557
   94SOL    HW2  695   0.507   0.697   1.543
   94SOL    HW3  696   0.418   0.641   1.652
   94SOL    MW4  697   0.436   0.653   1.567
   95SOL     OW  698   0.748   1.797   0.931
   95SOL    HW2  699   0.837   1.812   0.961
   95SOL    HW3  700   0.743   1.844   0.847
   95SOL    MW4  701   0.758   1.805   0.924
   96SOL     OW  702   1.404   0.172   1.828
   96SOL    HW2  703   1.460   0.099   1.854
   96SOL    HW3  704   1.374   0.210   1.910
   96SOL    MW4  705   1.408   0.167   1.841
   97SOL     OW  706   0.129   1.477   0.596
   97SOL    HW2  707   0.101   1.516   0.678
   97SOL    HW3  708   0.149   1.386   0.618
   97SOL    MW4  709   0.127   1.469   0.609
   98SOL     OW  710   0.962   1.520   0.631
   98SOL    HW2  711   1.045   1.474   0.615
   98SOL    HW3  712   0.952   1.519   0.727
   98SOL    MW4  713   0.972   1.513   0.641
   99SOL     OW  714   1.794   0.665   0.945
   99SOL    HW2  715   1.883   0.695   0.927
   99SOL    HW3  716   1.774   0.605   0.874
   99SOL    MW4  717   1.803   0.662   0.934
  100SOL     OW  718   1.645   0.844   1.825
  100SOL    HW2  719   1.700   0.768   1.806
  100SOL    HW3  720   1.647   0.852   1.920
  100SOL    MW4  721   1.653   0.835   1.833
  101SOL     OW  722   0.695   1.577   0.036
  101SOL    HW2  723   0.635   1.646   0.006
  101SOL    HW3  724   0.640   1.519   0.089
  101SOL    MW4  725   0.679   1.579   0.038
  102SOL     OW  726   1.133   0.222   0.259
  102SOL    HW2  727   1.066   0.198   0.196
  102SOL    HW3  728   1.198   0.271   0.208
  102SOL    MW4  729   1.133   0.224   0.244
  103SOL     OW  730   0.940   0.406   1.344
  103SOL    HW2  731   0.859   0.447   1.372
  103SOL    HW3  732   0.987   0.474   1.296
  103SOL    MW4  733   0.935   0.421   1.342
  104SOL     OW  734   1.200   0.744   0.967
  104SOL    HW2  735   1.213   0.838   0.977
  104SOL    HW3  736   1.161   0.734   0.881
  104SOL    MW4  737   1.196   0.755   0.957
  105SOL     OW  738   0.652   0.939   0.771
  105SOL    HW2  739   0.563   0.930   0.804
  105SOL    HW3  740   0.656   1.029   0.739
  105SOL    MW4  741   0.641   0.950   0.771
  106SOL     OW  742   1.451   0.522   0.766
  106SOL    HW2  743   1.396   0.443   0.765
  106SOL    HW3  744   1.433   0.563   0.850
  106SOL    MW4  745   1.441   0.517   0.775
  107SOL     OW  746   0.422   0.209   1.583
  107SOL    HW2  747   0.343   0.227   1.635
  107SOL    HW3  748   0.417   0.271   1.510
  107SOL    MW4  749   0.412   0.219   1.580
  108SOL     OW  750   1.070   0.726   0.723
  108SOL    HW2  751   1.007   0.658   0.747
  108SOL    HW3  752   1.090   0.707   0.631
  108SOL    MW4  753   1.064   0.713   0.715
  109SOL     OW  754   0.326   1.621   0.425
  109SOL    HW2  755   0.287   1.668   0.351
  109SOL    HW3  756   0.260   1.556   0.450
  109SOL    MW4  757   0.313   1.619   0.419
  110SOL     OW  758   0.818   1.030   0.449
  110SOL    HW2  759   0.820   1.004   0.356
  110SOL    HW3  760   0.876   0.967   0.492
  110SOL    MW4  761   0.826   1.019   0.443
  111SOL     OW  762   1.371   1.590   1.221
  111SOL    HW2  763   1.296   1.636   1.259
  111SOL    HW3  764   1.353   1.497   1.238
  111SOL    MW4  765   1.360   1.584   1.229
  112SOL     OW  766   1.375   1.798   0.651
  112SOL    HW2  767   1.318   1.751   0.590
  112SOL    HW3  768   1.461   1.759   0.638
  112SOL    MW4  769   1.378   1.789   0.641
  113SOL     OW  770   1.328   0.274   0.782
  113SOL    HW2  771   1.356   0.206   0.843
  113SOL    HW3  772   1.242   0.245   0.752
  113SOL    MW4  773   1.321   0.261   0.786
  114SOL     OW  774   0.133   1.208   0.716
  114SOL    HW2  775   0.197   1.240   0.779
  114SOL    HW3  776   0.182   1.144   0.664
  114SOL    MW4  777   0.148   1.204   0.717
  115SOL     OW  778   0.633   1.284   1.698
  115SOL    HW2  779   0.681   1.367   1.685
  115SOL    HW3  780   0.690   1.232   1.754
  115SOL    MW4  781   0.647   1.288   1.704
  116SOL     OW  782   0.209   1.526   1.838
  116SOL    HW2  783   0.265   1.450   1.853
  116SOL    HW3  784   0.158   1.504   1.760
  116SOL    MW4  785   0.209   1.513   1.829
  117SOL     OW  786   1.308   0.378   0.117
  117SOL    HW2  787   1.281   0.444   0.053
  117SOL    HW3  788   1.378   0.421   0.167
  117SOL    MW4  789   1.313   0.391   0.114
  118SOL     OW  790   0.976   0.083   0.054
  118SOL    HW2  791   1.032   0.075  -0.024
  118SOL    HW3  792   0.953  -0.007   0.076
  118SOL    MW4  793   0.981   0.070   0.047
  119SOL     OW  794   1.481   0.934   0.259
  119SOL    HW2  795   1.448   1.023   0.249
  119SOL    HW3  796   1.446   0.905   0.344
  119SOL    MW4  797   1.471   0.943   0.270
  120SOL     OW  798   1.094   1.363   1.447
  120SOL    HW2  799   1.005   1.369   1.415
  120SOL    HW3  800   1.138   1.442   1.415
  120SOL    MW4  801   1.089   1.373   1.439
  121SOL     OW  802   0.387   0.031   1.789
  121SOL    HW2  803   0.315  -0.004   1.737
  121SOL    HW3  804   0.445   0.072   1.724
  121SOL    MW4  805   0.385   0.032   1.774
  122SOL     OW  806   0.411   1.521   1.088
  122SOL    HW2  807   0.456   1.583   1.145
  122SOL    HW3  808   0.318   1.540   1.101
  122SOL    MW4  809   0.404   1.531   1.095
  123SOL     OW  810   1.851   1.050   1.442
  123SOL    HW2  811   1.766   1.063   1.401
  123SOL    HW3  812   1.831   1.014   1.529
  123SOL    MW4  813   1.838   1.046   1.447
  124SOL     OW  814   0.833   1.589   1.196
  124SOL    HW2  815   0.857   1.578   1.105
  124SOL    HW3  816   0.756   1.646   1.194
  124SOL    MW4  817   0.825   1.594   1.185
  125SOL     OW  818   0.475   0.972   0.051
  125SOL    HW2  819   0.398   0.985   0.107
  125SOL    HW3  820   0.439   0.936  -0.030
  125SOL    MW4  821   0.461   0.968   0.048
  126SOL     OW  822   1.128   0.945   0.294
  126SOL    HW2  823   1.038   0.966   0.269
  126SOL    HW3  824   1.155   1.018   0.350
  126SOL    MW4  825   1.120   0.957   0.297
  127SOL     OW  826   0.628   1.294   0.986
  127SOL    HW2  827   0.621   1.273   1.080
  127SOL    HW3  828   0.546   1.262   0.949
  127SOL    MW4  829   0.616   1.288   0.993
  128SOL     OW  830   1.492   0.304   1.388
  128SOL    HW2  831   1.439   0.306   1.468
  128SOL    HW3  832   1.477   0.217   1.351
  128SOL    MW4  833   1.484   0.294   1.393
  129SOL     OW  834   1.828   0.228   1.261
  129SOL    HW2  835   1.809   0.295   1.196
  129SOL    HW3  836   1.885   0.166   1.216
  129SOL    MW4  837   1.832   0.229   1.247
  130SOL     OW  838   0.074   1.386   1.649
  130SOL    HW2  839   0.118   1.319   1.595
  130SOL    HW3  840  -0.011   1.348   1.669
  130SOL    MW4  841   0.069   1.372   1.645
  131SOL     OW  842   0.757   0.061   0.701
  131SOL    HW2  843   0.686   0.122   0.683
  131SOL    HW3  844   0.808   0.058   0.620
  131SOL    MW4  845   0.753   0.067   0.688
  132SOL     OW  846   0.515   1.301   0.450
  132SOL    HW2  847   0.508   1.333   0.540
  132SOL    HW3  848   0.425   1.285   0.422
  132SOL    MW4  849   0.503   1.303   0.457
  133SOL     OW  850   1.110   1.694   1.359
  133SOL    HW2  851   1.030   1.679   1.309
  133SOL    HW3  852   1.117   1.789   1.366
  133SOL    MW4  853   1.101   1.705   1.353
  134SOL     OW  854   1.224   1.659   0.849
  134SOL    HW2  855   1.271   1.732   0.808
  134SOL    HW3  856   1.145   1.698   0.885
  134SOL    MW4  857   1.219   1.674   0.848
  135SOL     OW  858   1.632   1.754   1.124
  135SOL    HW2  859   1.675   1.724   1.204
  135SOL    HW3  860   1.551   1.702   1.121
  135SOL    MW4  861   1.627   1.743   1.134
  136SOL     OW  862   0.717   0.718   1.831
  136SOL    HW2  863   0.787   0.660   1.803
  136SOL    HW3  864   0.660   0.663   1.886
  136SOL    MW4  865   0.719   0.705   1.835
  137SOL     OW  866   1.504   0.930   1.464
  137SOL    HW2  867   1.509   0.983   1.544
  137SOL    HW3  868   1.466   0.847   1.492
  137SOL    MW4  869   1.500   0.925   1.479
  138SOL     OW  870   1.144   0.065   1.710
  138SOL    HW2  871   1.139  -0.028   1.691
  138SOL    HW3  872   1.227   0.076   1.756
  138SOL    MW4  873   1.152   0.054   1.714
  139SOL     OW  874   0.518   0.585   0.164
  139SOL    HW2  875   0.484   0.641   0.234
  139SOL    HW3  876   0.589   0.535   0.204
  139SOL    MW4  877   0.524   0.586   0.178
  140SOL     OW  878   1.614   1.336   0.986
  140SOL    HW2  879   1.649   1.318   0.899
  140SOL    HW3  880   1.519   1.337   0.973
  140SOL    MW4  881   1.606   1.333   0.973
  141SOL     OW  882   1.043   0.984   1.355
  141SOL    HW2  883   1.086   1.019   1.433
  141SOL    HW3  884   1.026   1.061   1.301
  141SOL    MW4  885   1.046   0.999   1.358
  142SOL     OW  886   1.574   0.471   0.228
  142SOL    HW2  887   1.566   0.542   0.165
  142SOL    HW3  888   1.592   0.515   0.311
  142SOL    MW4  889   1.575   0.485   0.230
  143SOL     OW  890   0.434   0.126   0.657
  143SOL    HW2  891   0.484   0.169   0.588
  143SOL    HW3  892   0.349   0.170   0.657
  143SOL    MW4  893   0.431   0.139   0.648
  144SOL     OW  894   0.193   1.188   1.517
  144SOL    HW2  895   0.221   1.141   1.595
  144SOL    HW3  896   0.114   1.143   1.488
  144SOL    MW4  897   0.186   1.177   1.523
  145SOL     OW  898   0.701   0.515   1.484
  145SOL    HW2  899   0.673   0.603   1.508
  145SOL    HW3  900   0.670   0.459   1.555
  145SOL    MW4  901   0.693   0.518   1.496
  146SOL     OW  902   1.243   0.733   0.203
  146SOL    HW2  903   1.290   0.751   0.122
  146SOL    HW3  904   1.209   0.817   0.231
  146SOL    MW4  905   1.245   0.747   0.196
  147SOL     OW  906   0.356   0.911   0.697
  147SOL    HW2  907   0.414   0.967   0.645
  147SOL    HW3  908   0.400   0.826   0.699
  147SOL    MW4  909   0.369   0.908   0.690
  148SOL     OW  910   1.496   0.263   0.534
  148SOL    HW2  911   1.418   0.213   0.559
  148SOL    HW3  912   1.467   0.354   0.534
  148SOL    MW4  913   1.482   0.267   0.537
  149SOL     OW  914   1.082   0.225   0.693
  149SOL    HW2  915   1.102   0.300   0.637
  149SOL    HW3  916   1.062   0.264   0.778
  149SOL    MW4  917   1.083   0.241   0.697
  150SOL     OW  918   0.978   1.475   0.025
  150SOL    HW2  919   1.005   1.553  -0.023
  150SOL    HW3  920   0.885   1.490   0.044
  150SOL    MW4  921   0.969   1.488   0.021
  151SOL     OW  922   1.842   0.998   1.712
  151SOL    HW2  923   1.755   0.978   1.748
  151SOL    HW3  924   1.896   0.924   1.737
  151SOL    MW4  925   1.837   0.987   1.720
  152SOL     OW  926   0.063   1.511   0.869
  152SOL    HW2  927   0.095   1.515   0.960
  152SOL    HW3  928  -0.032   1.519   0.877
  152SOL    MW4  929   0.055   1.514   0.882
  153SOL     OW  930   0.018   0.637   0.416
  153SOL    HW2  931  -0.042   0.609   0.486
  153SOL    HW3  932   0.092   0.577   0.422
  153SOL    MW4  933   0.020   0.626   0.425
  154SOL     OW  934   1.586   1.849   1.850
  154SOL    HW2  935   1.631   1.773   1.815
  154SOL    HW3  936   1.624   1.862   1.937
  154SOL    MW4  937   1.596   1.842   1.856
  155SOL     OW  938   1.186   1.368   0.576
  155SOL    HW2  939   1.209   1.319   0.654
  155SOL    HW3  940   1.267   1.410   0.548
  155SOL    MW4  941   1.199   1.368   0.583
  156SOL     OW  942   0.444   0.376   1.305
  156SOL    HW2  943   0.477   0.457   1.345
  156SOL    HW3  944   0.417   0.402   1.217
  156SOL    MW4  945   0.443   0.390   1.299
  157SOL     OW  946   0.398   0.343   1.041
  157SOL    HW2  947   0.428   0.257   1.012
  157SOL    HW3  948   0.303   0.336   1.044
  157SOL    MW4  949   0.390   0.332   1.039
  158SOL     OW  950   1.227   0.552   1.732
  158SOL    HW2  951   1.279   0.487   1.685
  158SOL    HW3  952   1.185   0.603   1.662
  158SOL    MW4  953   1.228   0.549   1.715
  159SOL     OW  954   1.326   0.347   1.593
  159SOL    HW2  955   1.233   0.331   1.580
  159SOL    HW3  956   1.352   0.285   1.661
  159SOL    MW4  957   1.316   0.337   1.600
  160SOL     OW  958   0.541   0.121   0.932
  160SOL    HW2  959   0.551   0.030   0.958
  160SOL    HW3  960   0.497   0.117   0.847
  160SOL    MW4  961   0.537   0.109   0.924
  161SOL     OW  962   0.635   1.736   1.478
  161SOL    HW2  963   0.552   1.721   1.523
  161SOL    HW3  964   0.694   1.669   1.513
  161SOL    MW4  965   0.633   1.726   1.488
  162SOL     OW  966   1.692   0.443   1.103
  162SOL    HW2  967   1.625   0.476   1.163
  162SOL    HW3  968   1.735   0.521   1.069
  162SOL    MW4  969   1.690   0.458   1.107
  163SOL     OW  970   1.870   1.163   1.073
  163SOL    HW2  971   1.863   1.103   0.998
  163SOL    HW3  972   1.796   1.223   1.062
  163SOL    MW4  973   1.860   1.163   1.062
  164SOL     OW  974   1.252   1.025   0.991
  164SOL    HW2  975   1.266   0.997   1.082
  164SOL    HW3  976   1.338   1.056   0.963
  164SOL    MW4  977   1.265   1.026   1.000
  165SOL     OW  978   1.335   0.520   1.270
  165SOL    HW2  979   1.356   0.521   1.177
  165SOL    HW3  980   1.380   0.442   1.303
  165SOL    MW4  981   1.342   0.510   1.262
  166SOL     OW  982   1.828   0.651   1.812
  166SOL    HW2  983   1.865   0.596   1.881
  166SOL    HW3  984   1.853   0.608   1.730
  166SOL    MW4  985   1.835   0.639   1.811
  167SOL     OW  986   1.375   0.949   1.863
  167SOL    HW2  987   1.441   0.897   1.817
  167SOL    HW3  988   1.395   0.936   1.956
  167SOL    MW4  989   1.386   0.940   1.870
  168SOL     OW  990   1.326   0.035   0.212
  168SOL    HW2  991   1.400   0.079   0.255
  168SOL    HW3  992   1.250   0.089   0.234
  168SOL    MW4  993   1.326   0.047   0.220
  169SOL     OW  994   1.386   0.810   0.490
  169SOL    HW2  995   1.301   0.780   0.460
  169SOL    HW3  996   1.378   0.817   0.585
  169SOL    MW4  997   1.374   0.808   0.499
  170SOL     OW  998   0.462   1.273   1.221
  170SOL    HW2  999   0.474   1.300   1.312
  170SOL    HW3 1000   0.443   1.354   1.174
  170SOL    MW4 1001   0.461   1.288   1.226
  171SOL     OW 1002   0.746   0.253   1.044
  171SOL    HW2 1003   0.719   0.255   1.135
  171SOL    HW3 1004   0.676   0.205   0.999
  171SOL    MW4 1005   0.734   0.249   1.051
  172SOL     OW 1006   0.600   1.745   1.206
  172SOL    HW2 1007   0.652   1.822   1.183
  172SOL    HW3 1008   0.609   1.737   1.301
  172SOL    MW4 1009   0.609   1.752   1.217
  173SOL     OW 1010   1.502   1.330   1.438
  173SOL    HW2 1011   1.487   1.259   1.501
  173SOL    HW3 1012   1.548   1.288   1.366
  173SOL    MW4 1013   1.508   1.314   1.438
  174SOL     OW 1014   0.576   1.061   1.555
  174SOL    HW2 1015   0.613   1.066   1.467
  174SOL    HW3 1016   0.615   1.134   1.602
  174SOL    MW4 1017   0.586   1.071   1.550
  175SOL     OW 1018   0.756   1.104   1.367
  175SOL    HW2 1019   0.815   1.050   1.420
  175SOL    HW3 1020   0.771   1.076   1.277
  175SOL    MW4 1021   0.766   1.093   1.363
  176SOL     OW 1022   0.759   0.476   0.216
  176SOL    HW2 1023   0.832   0.525   0.179
  176SOL    HW3 1024   0.775   0.385   0.190
  176SOL    MW4 1025   0.771   0.471   0.209
  177SOL     OW 1026   1.567   1.593   1.539
  177SOL    HW2 1027   1.609   1.578   1.624
  177SOL    HW3 1028   1.558   1.506   1.501
  177SOL    MW4 1029   1.571   1.581   1.546
  178SOL     OW 1030   1.227   0.072   1.130
  178SOL    HW2 1031   1.282   0.081   1.052
  178SOL    HW3 1032   1.282   0.106   1.201
  178SOL    MW4 1033   1.241   0.077   1.129
  179SOL     OW 1034   0.234   0.985   0.314
  179SOL    HW2 1035   0.171   1.001   0.243
  179SOL    HW3 1036   0.181   0.948   0.385
  179SOL    MW4 1037   0.219   0.982   0.314
  180SOL     OW 1038   0.590   1.339   0.173
  180SOL    HW2 1039   0.605   1.315   0.265
  180SOL    HW3 1040   0.498   1.317   0.157
  180SOL    MW4 1041   0.580   1.332   0.183
  181SOL     OW 1042   1.129   1.570   0.325
  181SOL    HW2 1043   1.137   1.488   0.276
  181SOL    HW3 1044   1.048   1.609   0.292
  181SOL    MW4 1045   1.119   1.565   0.315
  182SOL     OW 1046   0.388   1.728   0.894
  182SOL    HW2 1047   0.392   1.639   0.929
  182SOL    HW3 1048   0.414   1.719   0.803
  182SOL    MW4 1049   0.391   1.716   0.886
  183SOL     OW 1050   1.005   1.206   1.137
  183SOL    HW2 1051   0.937   1.140   1.153
  183SOL    HW3 1052   1.023   1.200   1.044
  183SOL    MW4 1053   0.998   1.197   1.128
  184SOL     OW 1054   0.094   1.481   1.388
  184SOL    HW2 1055   0.084   1.439   1.474
  184SOL    HW3 1056   0.015   1.534   1.378
  184SOL    MW4 1057   0.083   1.482   1.399
  185SOL     OW 1058   0.998   0.345   0.958
  185SOL    HW2 1059   0.928   0.297   1.003
  185SOL    HW3 1060   1.030   0.408   1.022
  185SOL    MW4 1061   0.993   0.347   0.972
  186SOL     OW 1062   0.649   0.781   1.578
  186SOL    HW2 1063   0.642   0.876   1.566
  186SOL    HW3 1064   0.658   0.770   1.673
  186SOL    MW4 1065   0.650   0.793   1.588
  187SOL     OW 1066   0.370   1.296   1.836
  187SOL    HW2 1067   0.442   1.298   1.773
  187SOL    HW3 1068   0.340   1.205   1.835
  187SOL    MW4 1069   0.375   1.285   1.828
  188SOL     OW 1070   1.454   0.059   1.303
  188SOL    HW2 1071   1.525   0.005   1.267
  188SOL    HW3 1072   1.453   0.038   1.396
  188SOL    MW4 1073   1.463   0.050   1.311
  189SOL     OW 1074   1.654   1.589   1.787
  189SOL    HW2 1075   1.627   1.586   1.878
  189SOL    HW3 1076   1.750   1.593   1.790
  189SOL    MW4 1077   1.664   1.589   1.799
  190SOL     OW 1078   0.465   0.451   0.771
  190SOL    HW2 1079   0.536   0.399   0.734
  190SOL    HW3 1080   0.451   0.416   0.858
  190SOL    MW4 1081   0.473   0.440   0.778
  191SOL     OW 1082   0.020   1.786   1.843
  191SOL    HW2 1083   0.070   1.764   1.765
  191SOL    HW3 1084   0.028   1.881   1.851
  191SOL    MW4 1085   0.028   1.795   1.834
  192SOL     OW 1086   0.781   1.544   0.847
  192SOL    HW2 1087   0.709   1.481   0.860
  192SOL    HW3 1088   0.742   1.629   0.865
  192SOL    MW4 1089   0.765   1.547   0.850
  193SOL     OW 1090   1.101   0.392   0.495
  193SOL    HW2 1091   1.123   0.329   0.427
  193SOL    HW3 1092   1.006   0.384   0.506
  193SOL    MW4 1093   1.091   0.383   0.487
  194SOL     OW 1094   0.186   0.082   0.427
  194SOL    HW2 1095   0.257   0.103   0.366
  194SOL    HW3 1096   0.140   0.010   0.385
  194SOL    MW4 1097   0.190   0.076   0.413
  195SOL     OW 1098   0.017   0.549   1.570
  195SOL    HW2 1099   0.081   0.615   1.545
  195SOL    HW3 1100  -0.064   0.576   1.527
  195SOL    MW4 1101   0.015   0.561   1.562
  196SOL     OW 1102   1.755   1.456   0.527
  196SOL    HW2 1103   1.725   1.389   0.588
  196SOL    HW3 1104   1.849   1.462   0.541
  196SOL    MW4 1105   1.763   1.448   0.537
  197SOL     OW 1106   1.311   1.133   0.457
  197SOL    HW2 1107   1.283   1.219   0.490
  197SOL    HW3 1108   1.339   1.149   0.367
  197SOL    MW4 1109   1.311   1.147   0.449
  198SOL     OW 1110   0.973   0.053   0.510
  198SOL    HW2 1111   1.010   0.112   0.575
  198SOL    HW3 1112   0.950   0.109   0.436
  198SOL    MW4 1113   0.974   0.068   0.509
  199SOL     OW 1114   1.826   0.935   0.932
  199SOL    HW2 1115   1.817   0.967   0.843
  199SOL    HW3 1116   1.779   0.851   0.932
  199SOL    MW4 1117   1.819   0.928   0.922
  200SOL     OW 1118   0.202   0.775   1.511
  200SOL    HW2 1119   0.223   0.844   1.449
  200SOL    HW3 1120   0.282   0.722   1.516
  200SOL    MW4 1121   0.215   0.776   1.505
  201SOL     OW 1122   1.738   0.866   0.633
  201SOL    HW2 1123   1.832   0.855   0.621
  201SOL    HW3 1124   1.714   0.938   0.574
  201SOL    MW4 1125   1.748   0.874   0.624
  202SOL     OW 1126   0.187   0.790   1.778
  202SOL    HW2 1127   0.113   0.734   1.804
  202SOL    HW3 1128   0.182   0.793   1.683
  202SOL    MW4 1129   0.176   0.783   1.768
  203SOL     OW 1130   0.353   0.077   1.228
  203SOL    HW2 1131   0.396   0.161   1.248
  203SOL    HW3 1132   0.426   0.015   1.221
  203SOL    MW4 1133   0.368   0.080   1.229
  204SOL     OW 1134   0.394   0.744   0.406
  204SOL    HW2 1135   0.394   0.839   0.391
  204SOL    HW3 1136   0.471   0.728   0.460
  204SOL    MW4 1137   0.404   0.755   0.411
  205SOL     OW 1138   1.170   0.603   1.470
  205SOL    HW2 1139   1.206   0.576   1.386
  205SOL    HW3 1140   1.083   0.637   1.449
  205SOL    MW4 1141   1.164   0.604   1.457
  206SOL     OW 1142   0.153   0.475   0.695
  206SOL    HW2 1143   0.215   0.482   0.768
  206SOL    HW3 1144   0.153   0.382   0.672
  206SOL    MW4 1145   0.161   0.464   0.702
  207SOL     OW 1146   1.700   1.815   0.227
  207SOL    HW2 1147   1.767   1.848   0.167
  207SOL    HW3 1148   1.657   1.894   0.261
  207SOL    MW4 1149   1.702   1.830   0.223
  208SOL     OW 1150   0.835   0.736   1.179
  208SOL    HW2 1151   0.793   0.654   1.155
  208SOL    HW3 1152   0.836   0.735   1.275
  208SOL    MW4 1153   0.828   0.725   1.188
  209SOL     OW 1154   1.506   1.869   1.578
  209SOL    HW2 1155   1.509   1.775   1.561
  209SOL    HW3 1156   1.529   1.877   1.670
  209SOL    MW4 1157   1.509   1.857   1.588
  210SOL     OW 1158   0.639   0.206   1.284
  210SOL    HW2 1159   0.570   0.269   1.305
  210SOL    HW3 1160   0.666   0.170   1.369
  210SOL    MW4 1161   0.633   0.209   1.297
  211SOL     OW 1162   0.022   1.047   0.153
  211SOL    HW2 1163  -0.009   1.112   0.216
  211SOL    HW3 1164  -0.029   0.969   0.172
  211SOL    MW4 1165   0.012   1.044   0.163
  212SOL     OW 1166   1.434   0.059   0.901
  212SOL    HW2 1167   1.522   0.068   0.938
  212SOL    HW3 1168   1.444   0.000   0.827
  212SOL    MW4 1169   1.448   0.053   0.895
  213SOL     OW 1170   1.466   0.798   0.745
  213SOL    HW2 1171   1.546   0.813   0.694
  213SOL    HW3 1172   1.459   0.703   0.751
  213SOL    MW4 1173   1.475   0.787   0.740
  214SOL     OW 1174   0.606   1.847   0.095
  214SOL    HW2 1175   0.511   1.847   0.087
  214SOL    HW3 1176   0.622   1.793   0.173
  214SOL    MW4 1177   0.596   1.841   0.104
  215SOL     OW 1178   0.916   0.724   1.442
  215SOL    HW2 1179   0.985   0.791   1.439
  215SOL    HW3 1180   0.849   0.762   1.498
  215SOL    MW4 1181   0.917   0.737   1.449
  216SOL     OW 1182   0.334   1.024   1.690
  216SOL    HW2 1183   0.288   0.940   1.692
  216SOL    HW3 1184   0.391   1.018   1.614
  216SOL    MW4 1185   0.336   1.012   1.682
  217SOL     OW 1186   1.451   0.667   0.011
  217SOL    HW2 1187   1.379   0.643  -0.047
  217SOL    HW3 1188   1.517   0.704  -0.047
  217SOL    MW4 1189   1.450   0.669  -0.004
  218SOL     OW 1190   0.585   1.399   0.691
  218SOL    HW2 1191   0.650   1.332   0.712
  218SOL    HW3 1192   0.637   1.476   0.668
  218SOL    MW4 1193   0.600   1.401   0.690
  219SOL     OW 1194   0.846   0.564   0.821
  219SOL    HW2 1195   0.786   0.582   0.893
  219SOL    HW3 1196   0.880   0.476   0.840
  219SOL    MW4 1197   0.842   0.554   0.834
  220SOL     OW 1198   1.787   0.063   1.490
  220SOL    HW2 1199   1.708   0.109   1.518
  220SOL    HW3 1200   1.822   0.117   1.419
  220SOL    MW4 1201   1.781   0.076   1.484
  221SOL     OW 1202   1.071   1.147   0.840
  221SOL    HW2 1203   1.163   1.128   0.858
  221SOL    HW3 1204   1.044   1.077   0.780
  221SOL    MW4 1205   1.079   1.135   0.834
  222SOL     OW 1206   0.864   0.967   0.195
  222SOL    HW2 1207   0.850   0.879   0.160
  222SOL    HW3 1208   0.815   1.024   0.136
  222SOL    MW4 1209   0.856   0.962   0.183
  223SOL     OW 1210   1.345   1.385   0.936
  223SOL    HW2 1211   1.318   1.469   0.901
  223SOL    HW3 1212   1.305   1.380   1.023
  223SOL    MW4 1213   1.338   1.394   0.942
  224SOL     OW 1214   1.264   1.333   1.204
  224SOL    HW2 1215   1.275   1.300   1.293
  224SOL    HW3 1216   1.183   1.292   1.173
  224SOL    MW4 1217   1.254   1.325   1.210
  225SOL     OW 1218   0.277   0.691   0.974
  225SOL    HW2 1219   0.227   0.690   1.055
  225SOL    HW3 1220   0.297   0.783   0.958
  225SOL    MW4 1221   0.273   0.703   0.982
  226SOL     OW 1222   1.344   1.455   1.736
  226SOL    HW2 1223   1.344   1.549   1.752
  226SOL    HW3 1224   1.389   1.445   1.652
  226SOL    MW4 1225   1.350   1.465   1.727
  227SOL     OW 1226   1.583   0.173   0.297
  227SOL    HW2 1227   1.576   0.177   0.392
  227SOL    HW3 1228   1.595   0.264   0.270
  227SOL    MW4 1229   1.584   0.186   0.305
  228SOL     OW 1230   0.872   0.736   0.411
  228SOL    HW2 1231   0.852   0.722   0.318
  228SOL    HW3 1232   0.965   0.715   0.418
  228SOL    MW4 1233   0.882   0.731   0.400
  229SOL     OW 1234   0.199   0.359   1.715
  229SOL    HW2 1235   0.156   0.418   1.652
  229SOL    HW3 1236   0.267   0.414   1.755
  229SOL    MW4 1237   0.203   0.374   1.712
  230SOL     OW 1238   1.311   0.979   1.260
  230SOL    HW2 1239   1.374   0.976   1.333
  230SOL    HW3 1240   1.227   0.997   1.302
  230SOL    MW4 1241   1.307   0.981   1.275
  231SOL     OW 1242   0.855   1.694   0.449
  231SOL    HW2 1243   0.913   1.765   0.476
  231SOL    HW3 1244   0.878   1.622   0.507
  231SOL    MW4 1245   0.866   1.694   0.460
  232SOL     OW 1246   1.650   0.156   1.039
  232SOL    HW2 1247   1.695   0.074   1.058
  232SOL    HW3 1248   1.670   0.212   1.115
  232SOL    MW4 1249   1.660   0.152   1.051
  233SOL     OW 1250   0.098  -0.001   1.138
  233SOL    HW2 1251   0.089   0.000   1.043
  233SOL    HW3 1252   0.192   0.011   1.153
  233SOL    MW4 1253   0.110   0.002   1.129
  234SOL     OW 1254   1.735   1.192   0.758
  234SOL    HW2 1255   1.714   1.138   0.681
  234SOL    HW3 1256   1.831   1.190   0.762
  234SOL    MW4 1257   1.744   1.185   0.747
  235SOL     OW 1258   0.427   1.337   1.501
  235SOL    HW2 1259   0.348   1.287   1.524
  235SOL    HW3 1260   0.497   1.296   1.551
  235SOL    MW4 1261   0.425   1.325   1.511
  236SOL     OW 1262   0.311   0.126   0.184
  236SOL    HW2 1263   0.240   0.181   0.152
  236SOL    HW3 1264   0.353   0.092   0.105
  236SOL    MW4 1265   0.307   0.128   0.170
  237SOL     OW 1266   1.435   0.623   1.020
  237SOL    HW2 1267   1.358   0.669   0.986
  237SOL    HW3 1268   1.492   0.692   1.054
  237SOL    MW4 1269   1.432   0.638   1.020
  238SOL     OW 1270   0.067   0.225   0.033
  238SOL    HW2 1271   0.034   0.304   0.077
  238SOL    HW3 1272   0.122   0.258  -0.038
  238SOL    MW4 1273   0.070   0.239   0.030
  239SOL     OW 1274   0.101   1.482   0.222
  239SOL    HW2 1275   0.118   1.566   0.264
  239SOL    HW3 1276   0.136   1.491   0.134
  239SOL    MW4 1277   0.106   1.495   0.216
  240SOL     OW 1278   1.373   1.571   0.439
  240SOL    HW2 1279   1.436   1.561   0.368
  240SOL    HW3 1280   1.290   1.591   0.394
  240SOL    MW4 1281   1.370   1.572   0.424
  241SOL     OW 1282   1.736   0.839   2.125
  241SOL    HW2 1283   1.777   0.781   2.190
  241SOL    HW3 1284   1.643   0.831   2.142
  241SOL    MW4 1285   1.730   0.831   2.135
  242SOL     OW 1286   1.602   0.771   3.120
  242SOL    HW2 1287   1.557   0.838   3.171
  242SOL    HW3 1288   1.690   0.807   3.106
  242SOL    MW4 1289   1.608   0.784   3.124
  243SOL     OW 1290   0.530   1.022   2.354
  243SOL    HW2 1291   0.620   0.997   2.338
  243SOL    HW3 1292   0.526   1.115   2.331
  243SOL    MW4 1293   0.542   1.031   2.349
  244SOL     OW 1294   1.646   1.725   2.496
  244SOL    HW2 1295   1.658   1.671   2.574
  244SOL    HW3 1296   1.683   1.673   2.425
  244SOL    MW4 1297   1.652   1.710   2.497
  245SOL     OW 1298   1.025   1.610   3.497
  245SOL    HW2 1299   1.066   1.646   3.418
  245SOL    HW3 1300   1.060   1.521   3.504
  245SOL    MW4 1301   1.036   1.603   3.488
  246SOL     OW 1302   1.582   1.165   3.101
  246SOL    HW2 1303   1.503   1.130   3.059
  246SOL    HW3 1304   1.609   1.237   3.045
  246SOL    MW4 1305   1.575   1.170   3.088
  247SOL     OW 1306   0.814   0.478   2.367
  247SOL    HW2 1307   0.789   0.566   2.395
  247SOL    HW3 1308   0.811   0.481   2.271
  247SOL    MW4 1309   0.810   0.490   2.359
  248SOL     OW 1310   0.256   0.506   2.295
  248SOL    HW2 1311   0.288   0.594   2.277
  248SOL    HW3 1312   0.244   0.504   2.390
  248SOL    MW4 1313   0.259   0.518   2.307
  249SOL     OW 1314   0.334   0.919   3.196
  249SOL    HW2 1315   0.397   0.866   3.147
  249SOL    HW3 1316   0.315   0.993   3.139
  249SOL    MW4 1317   0.340   0.921   3.183
  250SOL     OW 1318   0.655   0.261   2.382
  250SOL    HW2 1319   0.713   0.337   2.384
  250SOL    HW3 1320   0.590   0.282   2.315
  250SOL    MW4 1321   0.654   0.273   2.373
  251SOL     OW 1322   0.742   1.188   2.557
  251SOL    HW2 1323   0.822   1.191   2.609
  251SOL    HW3 1324   0.770   1.155   2.471
  251SOL    MW4 1325   0.756   1.184   2.552
  252SOL     OW 1326   0.767   1.529   3.460
  252SOL    HW2 1327   0.851   1.555   3.499
  252SOL    HW3 1328   0.791   1.473   3.386
  252SOL    MW4 1329   0.781   1.525   3.455
  253SOL     OW 1330   0.519   0.692   2.548
  253SOL    HW2 1331   0.504   0.612   2.599
  253SOL    HW3 1332   0.601   0.727   2.582
  253SOL    MW4 1333   0.527   0.684   2.560
  254SOL     OW 1334   0.856   1.378   3.233
  254SOL    HW2 1335   0.820   1.444   3.173
  254SOL    HW3 1336   0.784   1.316   3.246
  254SOL    MW4 1337   0.842   1.378   3.227
  255SOL     OW 1338   0.661   0.518   2.925
  255SOL    HW2 1339   0.567   0.514   2.943
  255SOL    HW3 1340   0.691   0.427   2.934
  255SOL    MW4 1341   0.652   0.506   2.928
  256SOL     OW 1342   0.407   0.932   2.829
  256SOL    HW2 1343   0.362   0.939   2.745
  256SOL    HW3 1344   0.387   1.015   2.873
  256SOL    MW4 1345   0.399   0.944   2.823
  257SOL     OW 1346   0.104   1.778   2.704
  257SOL    HW2 1347   0.193   1.770   2.739
  257SOL    HW3 1348   0.068   1.690   2.709
  257SOL    MW4 1349   0.111   1.765   2.709
  258SOL     OW 1350   1.369   1.170   2.073
  258SOL    HW2 1351   1.287   1.206   2.039
  258SOL    HW3 1352   1.437   1.213   2.022
  258SOL    MW4 1353   1.367   1.180   2.061
  259SOL     OW 1354   0.368   1.305   2.739
  259SOL    HW2 1355   0.344   1.358   2.815
  259SOL    HW3 1356   0.424   1.363   2.687
  259SOL    MW4 1357   0.372   1.320   2.742
  260SOL     OW 1358   0.930   0.949   2.549
  260SOL    HW2 1359   0.844   0.936   2.589
  260SOL    HW3 1360   0.983   0.876   2.581
  260SOL    MW4 1361   0.926   0.938   2.558
  261SOL     OW 1362   0.338   1.601   3.334
  261SOL    HW2 1363   0.246   1.577   3.319
  261SOL    HW3 1364   0.382   1.518   3.351
  261SOL    MW4 1365   0.332   1.586   3.333
  262SOL     OW 1366   0.921   1.311   2.266
  262SOL    HW2 1367   0.898   1.373   2.334
  262SOL    HW3 1368   0.878   1.229   2.292
  262SOL    MW4 1369   0.913   1.307   2.277
  263SOL     OW 1370   1.794   0.312   2.722
  263SOL    HW2 1371   1.731   0.292   2.791
  263SOL    HW3 1372   1.784   0.241   2.659
  263SOL    MW4 1373   1.784   0.299   2.723
  264SOL     OW 1374   0.418   0.284   2.234
  264SOL    HW2 1375   0.392   0.246   2.150
  264SOL    HW3 1376   0.355   0.354   2.250
  264SOL    MW4 1377   0.407   0.287   2.225
  265SOL     OW 1378   0.253   1.245   2.271
  265SOL    HW2 1379   0.201   1.313   2.227
  265SOL    HW3 1380   0.250   1.171   2.211
  265SOL    MW4 1381   0.245   1.244   2.258
  266SOL     OW 1382   0.915   1.708   2.049
  266SOL    HW2 1383   0.870   1.724   2.132
  266SOL    HW3 1384   0.846   1.673   1.991
  266SOL    MW4 1385   0.901   1.705   2.051
  267SOL     OW 1386   1.850   0.481   2.024
  267SOL    HW2 1387   1.759   0.483   2.052
  267SOL    HW3 1388   1.895   0.543   2.082
  267SOL    MW4 1389   1.843   0.489   2.034
  268SOL     OW 1390   1.595   1.084   2.374
  268SOL    HW2 1391   1.505   1.084   2.409
  268SOL    HW3 1392   1.588   1.130   2.291
  268SOL    MW4 1393   1.582   1.090   2.368
  269SOL     OW 1394   1.395   0.719   3.446
  269SOL    HW2 1395   1.464   0.657   3.423
  269SOL    HW3 1396   1.320   0.693   3.393
  269SOL    MW4 1397   1.395   0.706   3.437
  270SOL     OW 1398   0.136   1.599   2.998
  270SOL    HW2 1399   0.119   1.545   3.075
  270SOL    HW3 1400   0.124   1.689   3.028
  270SOL    MW4 1401   0.133   1.603   3.012
  271SOL     OW 1402   1.131   1.106   3.438
  271SOL    HW2 1403   1.116   1.199   3.423
  271SOL    HW3 1404   1.226   1.096   3.438
  271SOL    MW4 1405   1.140   1.116   3.435
  272SOL     OW 1406   0.927   0.530   3.639
  272SOL    HW2 1407   1.017   0.531   3.606
  272SOL    HW3 1408   0.886   0.455   3.597
  272SOL    MW4 1409   0.933   0.520   3.630
  273SOL     OW 1410   1.502   1.062   2.766
  273SOL    HW2 1411   1.505   0.996   2.697
  273SOL    HW3 1412   1.587   1.105   2.762
  273SOL    MW4 1413   1.514   1.058   2.757
  274SOL     OW 1414   1.122   0.665   2.335
  274SOL    HW2 1415   1.148   0.689   2.246
  274SOL    HW3 1416   1.104   0.572   2.331
  274SOL    MW4 1417   1.124   0.657   2.322
  275SOL     OW 1418   1.787   1.285   2.186
  275SOL    HW2 1419   1.743   1.326   2.261
  275SOL    HW3 1420   1.844   1.353   2.151
  275SOL    MW4 1421   1.789   1.299   2.191
  276SOL     OW 1422   0.707   0.334   3.589
  276SOL    HW2 1423   0.717   0.260   3.529
  276SOL    HW3 1424   0.743   0.303   3.672
  276SOL    MW4 1425   0.713   0.320   3.591
  277SOL     OW 1426   0.443   1.701   2.504
  277SOL    HW2 1427   0.475   1.789   2.482
  277SOL    HW3 1428   0.396   1.673   2.426
  277SOL    MW4 1429   0.442   1.709   2.491
  278SOL     OW 1430   1.827   0.063   2.553
  278SOL    HW2 1431   1.881   0.014   2.615
  278SOL    HW3 1432   1.770  -0.003   2.514
  278SOL    MW4 1433   1.827   0.047   2.555
  279SOL     OW 1434   0.159   1.761   2.081
  279SOL    HW2 1435   0.188   1.851   2.073
  279SOL    HW3 1436   0.109   1.744   2.002
  279SOL    MW4 1437   0.157   1.769   2.070
  280SOL     OW 1438   0.946   0.016   2.966
  280SOL    HW2 1439   0.905   0.094   2.928
  280SOL    HW3 1440   1.040   0.034   2.961
  280SOL    MW4 1441   0.952   0.028   2.961
  281SOL     OW 1442   1.563   1.569   2.052
  281SOL    HW2 1443   1.611   1.638   2.098
  281SOL    HW3 1444   1.484   1.613   2.021
  281SOL    MW4 1445   1.558   1.583   2.055
  282SOL     OW 1446   0.961   0.694   1.996
  282SOL    HW2 1447   0.963   0.641   1.917
  282SOL    HW3 1448   1.049   0.731   2.002
  282SOL    MW4 1449   0.973   0.693   1.985
  283SOL     OW 1450   1.575   0.620   2.332
  283SOL    HW2 1451   1.614   0.620   2.419
  283SOL    HW3 1452   1.516   0.696   2.332
  283SOL    MW4 1453   1.572   0.631   2.343
  284SOL     OW 1454   0.892   0.987   3.461
  284SOL    HW2 1455   0.869   0.967   3.551
  284SOL    HW3 1456   0.977   1.031   3.466
  284SOL    MW4 1457   0.899   0.990   3.473
  285SOL     OW 1458   0.972   0.124   3.221
  285SOL    HW2 1459   0.978   0.086   3.134
  285SOL    HW3 1460   0.961   0.218   3.206
  285SOL    MW4 1461   0.973   0.132   3.209
  286SOL     OW 1462   1.061   0.613   3.055
  286SOL    HW2 1463   1.136   0.642   3.002
  286SOL    HW3 1464   0.993   0.678   3.039
  286SOL    MW4 1465   1.062   0.625   3.045
  287SOL     OW 1466   1.611   0.581   3.332
  287SOL    HW2 1467   1.592   0.490   3.311
  287SOL    HW3 1468   1.589   0.630   3.253
  287SOL    MW4 1469   1.606   0.574   3.319
  288SOL     OW 1470   1.753   1.675   3.236
  288SOL    HW2 1471   1.681   1.637   3.287
  288SOL    HW3 1472   1.770   1.760   3.277
  288SOL    MW4 1473   1.747   1.680   3.248
  289SOL     OW 1474   1.058   0.319   3.438
  289SOL    HW2 1475   1.024   0.358   3.357
  289SOL    HW3 1476   1.036   0.227   3.431
  289SOL    MW4 1477   1.051   0.312   3.428
  290SOL     OW 1478   1.467   1.133   3.514
  290SOL    HW2 1479   1.549   1.174   3.544
  290SOL    HW3 1480   1.430   1.095   3.594
  290SOL    MW4 1481   1.473   1.134   3.529
  291SOL     OW 1482   1.762   0.506   2.498
  291SOL    HW2 1483   1.851   0.475   2.515
  291SOL    HW3 1484   1.705   0.446   2.546
  291SOL    MW4 1485   1.765   0.494   2.507
  292SOL     OW 1486   0.188   0.220   2.527
  292SOL    HW2 1487   0.179   0.160   2.453
  292SOL    HW3 1488   0.121   0.191   2.590
  292SOL    MW4 1489   0.178   0.207   2.525
  293SOL     OW 1490   1.131   1.313   2.088
  293SOL    HW2 1491   1.081   1.315   2.170
  293SOL    HW3 1492   1.065   1.331   2.020
  293SOL    MW4 1493   1.117   1.315   2.090
  294SOL     OW 1494   0.135   0.393   2.890
  294SOL    HW2 1495   0.107   0.484   2.899
  294SOL    HW3 1496   0.072   0.354   2.829
  294SOL    MW4 1497   0.122   0.399   2.884
  295SOL     OW 1498   0.594   1.731   2.196
  295SOL    HW2 1499   0.515   1.689   2.229
  295SOL    HW3 1500   0.660   1.714   2.263
  295SOL    MW4 1501   0.593   1.723   2.209
  296SOL     OW 1502   1.722   1.251   3.593
  296SOL    HW2 1503   1.772   1.177   3.625
  296SOL    HW3 1504   1.668   1.278   3.668
  296SOL    MW4 1505   1.722   1.245   3.606
  297SOL     OW 1506   0.730   1.146   1.903
  297SOL    HW2 1507   0.652   1.092   1.890
  297SOL    HW3 1508   0.701   1.219   1.956
  297SOL    MW4 1509   0.716   1.148   1.908
  298SOL     OW 1510   1.856   0.886   3.095
  298SOL    HW2 1511   1.872   0.924   3.008
  298SOL    HW3 1512   1.890   0.952   3.156
  298SOL    MW4 1513   1.863   0.899   3.091
  299SOL     OW 1514   1.648   1.595   2.764
  299SOL    HW2 1515   1.677   1.662   2.825
  299SOL    HW3 1516   1.629   1.519   2.819
  299SOL    MW4 1517   1.650   1.595   2.779
  300SOL     OW 1518   1.311   1.662   1.971
  300SOL    HW2 1519   1.237   1.625   2.021
  300SOL    HW3 1520   1.319   1.752   2.004
  300SOL    MW4 1521   1.302   1.669   1.983
  301SOL     OW 1522   0.119   0.668   3.060
  301SOL    HW2 1523   0.181   0.698   3.126
  301SOL    HW3 1524   0.053   0.737   3.054
  301SOL    MW4 1525   0.118   0.681   3.067
  302SOL     OW 1526   1.535   1.336   1.913
  302SOL    HW2 1527   1.482   1.385   1.849
  302SOL    HW3 1528   1.566   1.402   1.974
  302SOL    MW4 1529   1.533   1.350   1.911
  303SOL     OW 1530   0.760   0.225   1.968
  303SOL    HW2 1531   0.708   0.145   1.956
  303SOL    HW3 1532   0.847   0.202   1.936
  303SOL    MW4 1533   0.763   0.211   1.962
  304SOL     OW 1534   0.214   1.777   3.512
  304SOL    HW2 1535   0.188   1.845   3.450
  304SOL    HW3 1536   0.262   1.714   3.460
  304SOL    MW4 1537   0.216   1.777   3.498
  305SOL     OW 1538   0.266   1.096   3.019
  305SOL    HW2 1539   0.319   1.171   3.044
  305SOL    HW3 1540   0.185   1.134   2.985
  305SOL    MW4 1541   0.262   1.111   3.019
  306SOL     OW 1542   0.806   1.000   3.007
  306SOL    HW2 1543   0.834   0.909   3.019
  306SOL    HW3 1544   0.735   0.994   2.943
  306SOL    MW4 1545   0.799   0.988   3.002
  307SOL     OW 1546   0.121   0.865   2.425
  307SOL    HW2 1547   0.212   0.880   2.452
  307SOL    HW3 1548   0.124   0.786   2.371
  307SOL    MW4 1549   0.133   0.857   2.423
  308SOL     OW 1550   0.357   0.573   3.679
  308SOL    HW2 1551   0.304   0.653   3.686
  308SOL    HW3 1552   0.427   0.585   3.744
  308SOL    MW4 1553   0.359   0.586   3.687
  309SOL     OW 1554   0.743   0.123   3.386
  309SOL    HW2 1555   0.720   0.031   3.388
  309SOL    HW3 1556   0.829   0.125   3.343
  309SOL    MW4 1557   0.750   0.113   3.382
  310SOL     OW 1558   0.427   0.647   3.425
  310SOL    HW2 1559   0.507   0.697   3.411
  310SOL    HW3 1560   0.418   0.641   3.520
  310SOL    MW4 1561   0.436   0.653   3.435
  311SOL     OW 1562   0.748   1.797   2.799
  311SOL    HW2 1563   0.837   1.812   2.829
  311SOL    HW3 1564   0.743   1.844   2.715
  311SOL    MW4 1565   0.758   1.805   2.792
  312SOL     OW 1566   1.404   0.172   3.696
  312SOL    HW2 1567   1.460   0.099   3.722
  312SOL    HW3 1568   1.374   0.210   3.778
  312SOL    MW4 1569   1.408   0.167   3.709
  313SOL     OW 1570   0.129   1.477   2.464
  313SOL    HW2 1571   0.101   1.516   2.546
  313SOL    HW3 1572   0.149   1.386   2.486
  313SOL    MW4 1573   0.127   1.469   2.477
  314SOL     OW 1574   0.962   1.520   2.499
  314SOL    HW2 1575   1.045   1.474   2.483
  314SOL    HW3 1576   0.952   1.519   2.595
  314SOL    MW4 1577   0.972   1.513   2.509
  315SOL     OW 1578   1.794   0.665   2.813
  315SOL    HW2 1579   1.883   0.695   2.795
  315SOL    HW3 1580   1.774   0.605   2.742
  315SOL    MW4 1581   1.803   0.662   2.802
  316SOL     OW 1582   1.645   0.844   3.693
  316SOL    HW2 1583   1.700   0.768   3.674
  316SOL    HW3 1584   1.647   0.852   3.788
  316SOL    MW4 1585   1.653   0.835   3.701
  317SOL     OW 1586   0.695   1.577   1.904
  317SOL    HW2 1587   0.635   1.646   1.874
  317SOL    HW3 1588   0.640   1.519   1.957
  317SOL    MW4 1589   0.679   1.579   1.906
  318SOL     OW 1590   1.133   0.222   2.127
  318SOL    HW2 1591   1.066   0.198   2.064
  318SOL    HW3 1592   1.198   0.271   2.076
  318SOL    MW4 1593   1.133   0.224   2.112
  319SOL     OW 1594   0.940   0.406   3.212
  319SOL    HW2 1595   0.859   0.447   3.240
  319SOL    HW3 1596   0.987   0.474   3.164
  319SOL    MW4 1597   0.935   0.421   3.210
  320SOL     OW 1598   1.200   0.744   2.835
  320SOL    HW2 1599   1.213   0.838   2.845
  320SOL    HW3 1600   1.161   0.734   2.749
  320SOL    MW4 1601   1.196   0.755   2.825
  321SOL     OW 1602   0.652   0.939   2.639
  321SOL    HW2 1603   0.563   0.930   2.672
  321SOL    HW3 1604   0.656   1.029   2.607
  321SOL    MW4 1605   0.641   0.950   2.639
  322SOL     OW 1606   1.451   0.522   2.634
  322SOL    HW2 1607   1.396   0.443   2.633
  322SOL    HW3 1608   1.433   0.563   2.718
  322SOL    MW4 1609   1.441   0.517   2.643
  323SOL     OW 1610   0.422   0.209   3.451
  323SOL    HW2 1611   0.343   0.227   3.503
  323SOL    HW3 1612   0.417   0.271   3.378
  323SOL    MW4 1613   0.412   0.219   3.448
  324SOL     OW 1614   1.070   0.726   2.591
  324SOL    HW2 1615   1.007   0.658   2.615
  324SOL    HW3 1616   1.090   0.707   2.499
  324SOL    MW4 1617   1.064   0.713   2.583
  325SOL     OW 1618   0.326   1.621   2.293
  325SOL    HW2 1619   0.287   1.668   2.219
  325SOL    HW3 1620   0.260   1.556   2.318
  325SOL    MW4 1621   0.313   1.619   2.287
  326SOL     OW 1622   0.818   1.030   2.317
  326SOL    HW2 1623   0.820   1.004   2.224
  326SOL    HW3 1624   0.876   0.967   2.360
  326SOL    MW4 1625   0.826   1.019   2.311
  327SOL     OW 1626   1.371   1.590   3.089
  327SOL    HW2 1627   1.296   1.636   3.127
  327SOL    HW3 1628   1.353   1.497   3.106
  327SOL    MW4 1629   1.360   1.584   3.097
  328SOL     OW 1630   1.375   1.798   2.519
  328SOL    HW2 1631   1.318   1.751   2.458
  328SOL    HW3 1632   1.461   1.759   2.506
  328SOL    MW4 1633   1.378   1.789   2.509
  329SOL     OW 1634   1.328   0.274   2.650
  329SOL    HW2 1635   1.356   0.206   2.711
  329SOL    HW3 1636   1.242   0.245   2.620
  329SOL    MW4 1637   1.321   0.261   2.654
  330SOL     OW 1638   0.133   1.208   2.584
  330SOL    HW2 1639   0.197   1.240   2.647
  330SOL    HW3 1640   0.182   1.144   2.532
  330SOL    MW4 1641   0.148   1.204   2.585
  331SOL     OW 1642   0.633   1.284   3.566
  331SOL    HW2 1643   0.681   1.367   3.553
  331SOL    HW3 1644   0.690   1.232   3.622
  331SOL    MW4 1645   0.647   1.288   3.572
  332SOL     OW 1646   0.209   1.526   3.706
  332SOL    HW2 1647   0.265   1.450   3.721
  332SOL    HW3 1648   0.158   1.504   3.628
  332SOL    MW4 1649   0.209   1.513   3.697
  333SOL     OW 1650   1.308   0.378   1.985
  333SOL    HW2 1651   1.281   0.444   1.921
  333SOL    HW3 1652   1.378   0.421   2.035
  333SOL    MW4 1653   1.313   0.391   1.982
  334SOL     OW 1654   0.976   0.083   1.922
  334SOL    HW2 1655   1.032   0.075   1.844
  334SOL    HW3 1656   0.953  -0.007   1.944
  334SOL    MW4 1657   0.981   0.070   1.915
  335SOL     OW 1658   1.481   0.934   2.127
  335SOL    HW2 1659   1.448   1.023   2.117
  335SOL    HW3 1660   1.446   0.905   2.212
  335SOL    MW4 1661   1.471   0.943   2.138
  336SOL     OW 1662   1.094   1.363   3.315
  336SOL    HW2 1663   1.005   1.369   3.283
  336SOL    HW3 1664   1.138   1.442   3.283
  336SOL    MW4 1665   1.089   1.373   3.307
  337SOL     OW 1666   0.387   0.031   3.657
  337SOL    HW2 1667   0.315  -0.004   3.605
  337SOL    HW3 1668   0.445   0.072   3.592
  337SOL    MW4 1669   0.385   0.032   3.642
  338SOL     OW 1670   0.411   1.521   2.956
  338SOL    HW2 1671   0.456   1.583   3.013
  338SOL    HW3 1672   0.318   1.540   2.969
  338SOL    MW4 1673   0.404   1.531   2.963
  339SOL     OW 1674   1.851   1.050   3.310
  339SOL    HW2 1675   1.766   1.063   3.269
  339SOL    HW3 1676   1.831   1.014   3.397
  339SOL    MW4 1677   1.838   1.046   3.315
  340SOL     OW 1678   0.833   1.589   3.064
  340SOL    HW2 1679   0.857   1.578   2.973
  340SOL    HW3 1680   0.756   1.646   3.062
  340SOL    MW4 1681   0.825   1.594   3.053
  341SOL     OW 1682   0.475   0.972   1.919
  341SOL    HW2 1683   0.398   0.985   1.975
  341SOL    HW3 1684   0.439   0.936   1.838
  341SOL    MW4 1685   0.461   0.968   1.916
  342SOL     OW 1686   1.128   0.945   2.162
  342SOL    HW2 1687   1.038   0.966   2.137
  342SOL    HW3 1688   1.155   1.018   2.218
  342SOL    MW4 1689   1.120   0.957   2.165
  343SOL     OW 1690   0.628   1.294   2.854
  343SOL    HW2 1691   0.621   1.273   2.948
  343SOL    HW3 1692   0.546   1.262   2.817
  343SOL    MW4 1693   0.616   1.288   2.861
  344SOL     OW 1694   1.492   0.304   3.256
  344SOL    HW2 1695   1.439   0.306   3.336
  344SOL    HW3 1696   1.477   0.217   3.219
  344SOL    MW4 1697   1.484   0.294   3.261
  345SOL     OW 1698   1.828   0.228   3.129
  345SOL    HW2 1699   1.809   0.295   3.064
  345SOL    HW3 1700   1.885   0.166   3.084
  345SOL    MW4 1701   1.832   0.229   3.115
  346SOL     OW 1702   0.074   1.386   3.517
  346SOL    HW2 1703   0.118   1.319   3.463
  346SOL    HW3 1704  -0.011   1.348   3.537
  346SOL    MW4 1705   0.069   1.372   3.513
  347SOL     OW 1706   0.757   0.061   2.569
  347SOL    HW2 1707   0.686   0.122   2.551
  347SOL    HW3 1708   0.808   0.058   2.488
  347SOL    MW4 1709   0.753   0.067   2.556
  348SOL     OW 1710   0.515   1.301   2.318
  348SOL    HW2 1711   0.508   1.333   2.408
  348SOL    HW3 1712   0.425   1.285   2.290
  348SOL    MW4 1713   0.503   1.303   2.325
  349SOL     OW 1714   1.110   1.694   3.227
  349SOL    HW2 1715   1.030   1.679   3.177
  349SOL    HW3 1716   1.117   1.789   3.234
  349SOL    MW4 1717   1.101   1.705   3.221
  350SOL     OW 1718   1.224   1.659   2.717
  350SOL    HW2 1719   1.271   1.732   2.676
  350SOL    HW3 1720   1.145   1.698   2.753
  350SOL    MW4 1721   1.219   1.674   2.716
  351SOL     OW 1722   1.632   1.754   2.992
  351SOL    HW2 1723   1.675   1.724   3.072
  351SOL    HW3 1724   1.551   1.702   2.989
  351SOL    MW4 1725   1.627   1.743   3.002
  352SOL     OW 1726   0.717   0.718   3.699
  352SOL    HW2 1727   0.787   0.660   3.671
  352SOL    HW3 1728   0.660   0.663   3.754
  352SOL    MW4 1729   0.719   0.705   3.703
  353SOL     OW 1730   1.504   0.930   3.332
  353SOL    HW2 1731   1.509   0.983   3.412
  353SOL    HW3 1732   1.466   0.847   3.360
  353SOL    MW4 1733   1.500   0.925   3.347
  354SOL     OW 1734   1.144   0.065   3.578
  354SOL    HW2 1735   1.139  -0.028   3.559
  354SOL    HW3 1736   1.227   0.076   3.624
  354SOL    MW4 1737   1.152   0.054   3.582
  355SOL     OW 1738   0.518   0.585   2.032
  355SOL    HW2 1739   0.484   0.641   2.102
  355SOL    HW3 1740   0.589   0.535   2.072
  355SOL    MW4 1741   0.524   0.586   2.046
  356SOL     OW 1742   1.614   1.336   2.854
  356SOL    HW2 1743   1.649   1.318   2.767
  356SOL    HW3 1744   1.519   1.337   2.841
  356SOL    MW4 1745   1.606   1.333   2.841
  357SOL     OW 1746   1.043   0.984   3.223
  357SOL    HW2 1747   1.086   1.019   3.301
  357SOL    HW3 1748   1.026   1.061   3.169
  357SOL    MW4 1749   1.046   0.999   3.226
  358SOL     OW 1750   1.574   0.471   2.096
  358SOL    HW2 1751   1.566   0.542   2.033
  358SOL    HW3 1752   1.592   0.515   2.179
  358SOL    MW4 1753   1.575   0.485   2.098
  359SOL     OW 1754   0.434   0.126   2.525
  359SOL    HW2 1755   0.484   0.169   2.456
  359SOL    HW3 1756   0.349   0.170   2.525
  359SOL    MW4 1757   0.431   0.139   2.516
  360SOL     OW 1758   0.193   1.188   3.385
  360SOL    HW2 1759   0.221   1.141   3.463
  360SOL    HW3 1760   0.114   1.143   3.356
  360SOL    MW4 1761   0.186   1.177   3.391
  361SOL     OW 1762   0.701   0.515   3.352
  361SOL    HW2 1763   0.673   0.603   3.376
  361SOL    HW3 1764   0.670   0.459   3.423
  361SOL    MW4 1765   0.693   0.518   3.364
  362SOL     OW 1766   1.243   0.733   2.071
  362SOL    HW2 1767   1.290   0.751   1.990
  362SOL    HW3 1768   1.209   0.817   2.099
  362SOL    MW4 1769   1.245   0.747   2.064
  363SOL     OW 1770   0.356   0.911   2.565
  363SOL    HW2 1771   0.414   0.967   2.513
  363SOL    HW3 1772   0.400   0.826   2.567
  363SOL    MW4 1773   0.369   0.908   2.558
  364SOL     OW 1774   1.496   0.263   2.402
  364SOL    HW2 1775   1.418   0.213   2.427
  364SOL    HW3 1776   1.467   0.354   2.402
  364SOL    MW4 1777   1.482   0.267   2.405
  365SOL     OW 1778   1.082   0.225   2.561
  365SOL    HW2 1779   1.102   0.300   2.505
  365SOL    HW3 1780   1.062   0.264   2.646
  365SOL    MW4 1781   1.083   0.241   2.565
  366SOL     OW 1782   0.978   1.475   1.893
  366SOL    HW2 1783   1.005   1.553   1.845
  366SOL    HW3 1784   0.885   1.490   1.912
  366SOL    MW4 1785   0.969   1.488   1.889
  367SOL     OW 1786   1.842   0.998   3.580
  367SOL    HW2 1787   1.755   0.978   3.616
  367SOL    HW3 1788   1.896   0.924   3.605
  367SOL    MW4 1789   1.837   0.987   3.588
  368SOL     OW 1790   0.063   1.511   2.737
  368SOL    HW2 1791   0.095   1.515   2.828
  368SOL    HW3 1792  -0.032   1.519   2.745
  368SOL    MW4 1793   0.055   1.514   2.750
  369SOL     OW 1794   0.018   0.637   2.284
  369SOL    HW2 1795  -0.042   0.609   2.354
  369SOL    HW3 1796   0.092   0.577   2.290
  369SOL    MW4 1797   0.020   0.626   2.293
  370SOL     OW 1798   1.586   1.849   3.718
  370SOL    HW2 1799   1.631   1.773   3.683
  370SOL    HW3 1800   1.624   1.862   3.805
  370SOL    MW4 1801   1.596   1.842   3.724
  371SOL     OW 1802   1.186   1.368   2.444
  371SOL    HW2 1803   1.209   1.319   2.522
  371SOL    HW3 1804   1.267   1.410   2.416
  371SOL    MW4 1805   1.199   1.368   2.451
  372SOL     OW 1806   0.444   0.376   3.173
  372SOL    HW2 1807   0.477   0.457   3.213
  372SOL    HW3 1808   0.417   0.402   3.085
  372SOL    MW4 1809   0.443   0.390   3.167
  373SOL     OW 1810   0.398   0.343   2.909
  373SOL    HW2 1811   0.428   0.257   2.880
  373SOL    HW3 1812   0.303   0.336   2.912
  373SOL    MW4 1813   0.390   0.332   2.907
  374SOL     OW 1814   1.227   0.552   3.600
  374SOL    HW2 1815   1.279   0.487   3.553
  374SOL    HW3 1816   1.185   0.603   3.530
  374SOL    MW4 1817   1.228   0.549   3.583
  375SOL     OW 1818   1.326   0.347   3.461
  375SOL    HW2 1819   1.233   0.331   3.448
  375SOL    HW3 1820   1.352   0.285   3.529
  375SOL    MW4 1821   1.316   0.337   3.468
  376SOL     OW 1822   0.541   0.121   2.800
  376SOL    HW2 1823   0.551   0.030   2.826
  376SOL    HW3 1824   0.497   0.117   2.715
  376SOL    MW4 1825   0.537   0.109   2.792
  377SOL     OW 1826   0.635   1.736   3.346
  377SOL    HW2 1827   0.552   1.721   3.391
  377SOL    HW3 1828   0.694   1.669   3.381
  377SOL    MW4 1829   0.633   1.726   3.356
  378SOL     OW 1830   1.692   0.443   2.971
  378SOL    HW2 1831   1.625   0.476   3.031
  378SOL    HW3 1832   1.735   0.521   2.937
  378SOL    MW4 1833   1.690   0.458   2.975
  379SOL     OW 1834   1.870   1.163   2.941
  379SOL    HW2 1835   1.863   1.103   2.866
  379SOL    HW3 1836   1.796   1.223   2.930
  379SOL    MW4 1837   1.860   1.163   2.930
  380SOL     OW 1838   1.252   1.025   2.859
  380SOL    HW2 1839   1.266   0.997   2.950
  380SOL    HW3 1840   1.338   1.056   2.831
  380SOL    MW4 1841   1.265   1.026   2.868
  381SOL     OW 1842   1.335   0.520   3.138
  381SOL    HW2 1843   1.356   0.521   3.045
  381SOL    HW3 1844   1.380   0.442   3.171
  381SOL    MW4 1845   1.342   0.510   3.130
  382SOL     OW 1846   1.828   0.651   3.680
  382SOL    HW2 1847   1.865   0.596   3.749
  382SOL    HW3 1848   1.853   0.608   3.598
  382SOL    MW4 1849   1.835   0.639   3.679
  383SOL     OW 1850   1.375   0.949   3.731
  383SOL    HW2 1851   1.441   0.897   3.685
  383SOL    HW3 1852   1.395   0.936   3.824
  383SOL    MW4 1853   1.386   0.940   3.738
  384SOL     OW 1854   1.326   0.035   2.080
  384SOL    HW2 1855   1.400   0.079   2.123
  384SOL    HW3 1856   1.250   0.089   2.102
  384SOL    MW4 1857   1.326   0.047   2.088
  385SOL     OW 1858   1.386   0.810   2.358
  385SOL    HW2 1859   1.301   0.780   2.328
  385SOL    HW3 1860   1.378   0.817   2.453
  385SOL    MW4 1861   1.374   0.808   2.367
  386SOL     OW 1862   0.462   1.273   3.089
  386SOL    HW2 1863   0.474   1.300   3.180
  386SOL    HW3 1864   0.443   1.354   3.042
  386SOL    MW4 1865   0.461   1.288   3.094
  387SOL     OW 1866   0.746   0.253   2.912
  387SOL    HW2 1867   0.719   0.255   3.003
  387SOL    HW3 1868   0.676   0.205   2.867
  387SOL    MW4 1869   0.734   0.249   2.919
  388SOL     OW 1870   0.600   1.745   3.074
  388SOL    HW2 1871   0.652   1.822   3.051
  388SOL    HW3 1872   0.609   1.737   3.169
  388SOL    MW4 1873   0.609   1.752   3.085
  389SOL     OW 1874   1.502   1.330   3.306
  389SOL    HW2 1875   1.487   1.259   3.369
  389SOL    HW3 1876   1.548   1.288   3.234
  389SOL    MW4 1877   1.508   1.314   3.306
  390SOL     OW 1878   0.576   1.061   3.423
  390SOL    HW2 1879   0.613   1.066   3.335
  390SOL    HW3 1880   0.615   1.134   3.470
  390SOL    MW4 1881   0.586   1.071   3.418
  391SOL     OW 1882   0.756   1.104   3.235
  391SOL    HW2 1883   0.815   1.050   3.288
  391SOL    HW3 1884   0.771   1.076   3.145
  391SOL    MW4 1885   0.766   1.093   3.231
  392SOL     OW 1886   0.759   0.476   2.084
  392SOL    HW2 1887   0.832   0.525   2.047
  392SOL    HW3 1888   0.775   0.385   2.058
  392SOL    MW4 1889   0.771   0.471   2.077
  393SOL     OW 1890   1.567   1.593   3.407
  393SOL    HW2 1891   1.609   1.578   3.492
  393SOL    HW3 1892   1.558   1.506   3.369
  393SOL    MW4 1893   1.571   1.581   3.414
  394SOL     OW 1894   1.227   0.072   2.998
  394SOL    HW2 1895   1.282   0.081   2.920
  394SOL    HW3 1896   1.282   0.106   3.069
  394SOL    MW4 1897   1.241   0.077   2.997
  395SOL     OW 1898   0.234   0.985   2.182
  395SOL    HW2 1899   0.171   1.001   2.111
  395SOL    HW3 1900   0.181   0.948   2.253
  395SOL    MW4 1901   0.219   0.982   2.182
  396SOL     OW 1902   0.590   1.339   2.041
  396SOL    HW2 1903   0.605   1.315   2.133
  396SOL    HW3 1904   0.498   1.317   2.025
  396SOL    MW4 1905   0.580   1.332   2.051
  397SOL     OW 1906   1.129   1.570   2.193
  397SOL    HW2 1907   1.137   1.488   2.144
  397SOL    HW3 1908   1.048   1.609   2.160
  397SOL    MW4 1909   1.119   1.565   2.183
  398SOL     OW 1910   0.388   1.728   2.762
  398SOL    HW2 1911   0.392   1.639   2.797
  398SOL    HW3 1912   0.414   1.719   2.671
  398SOL    MW4 1913   0.391   1.716   2.754
  399SOL     OW 1914   1.005   1.206   3.005
  399SOL    HW2 1915   0.937   1.140   3.021
  399SOL    HW3 1916   1.023   1.200   2.912
  399SOL    MW4 1917   0.998   1.197   2.996
  400SOL     OW 1918   0.094   1.481   3.256
  400SOL    HW2 1919   0.084   1.439   3.342
  400SOL    HW3 1920   0.015   1.534   3.246
  400SOL    MW4 1921   0.083   1.482   3.267
  401SOL     OW 1922   0.998   0.345   2.826
  401SOL    HW2 1923   0.928   0.297   2.871
  401SOL    HW3 1924   1.030   0.408   2.890
  401SOL    MW4 1925   0.993   0.347   2.840
  402SOL     OW 1926   0.649   0.781   3.446
  402SOL    HW2 1927   0.642   0.876   3.434
  402SOL    HW3 1928   0.658   0.770   3.541
  402SOL    MW4 1929   0.650   0.793   3.456
  403SOL     OW 1930   0.370   1.296   3.704
  403SOL    HW2 1931   0.442   1.298   3.641
  403SOL    HW3 1932   0.340   1.205   3.703
  403SOL    MW4 1933   0.375   1.285   3.696
  404SOL     OW 1934   1.454   0.059   3.171
  404SOL    HW2 1935   1.525   0.005   3.135
  404SOL    HW3 1936   1.453   0.038   3.264
  404SOL    MW4 1937   1.463   0.050   3.179
  405SOL     OW 1938   1.654   1.589   3.655
  405SOL    HW2 1939   1.627   1.586   3.746
  405SOL    HW3 1940   1.750   1.593   3.658
  405SOL    MW4 1941   1.664   1.589   3.667
  406SOL     OW 1942   0.465   0.451   2.639
  406SOL    HW2 1943   0.536   0.399   2.602
  406SOL    HW3 1944   0.451   0.416   2.726
  406SOL    MW4 1945   0.473   0.440   2.646
  407SOL     OW 1946   0.020   1.786   3.711
  407SOL    HW2 1947   0.070   1.764   3.633
  407SOL    HW3 1948   0.028   1.881   3.719
  407SOL    MW4 1949   0.028   1.795   3.702
  408SOL     OW 1950   0.781   1.544   2.715
  408SOL    HW2 1951   0.709   1.481   2.728
  408SOL    HW3 1952   0.742   1.629   2.733
  408SOL    MW4 1953   0.765   1.547   2.718
  409SOL     OW 1954   1.101   0.392   2.363
  409SOL    HW2 1955   1.123   0.329   2.295
  409SOL    HW3 1956   1.006   0.384   2.374
  409SOL    MW4 1957   1.091   0.383   2.355
  410SOL     OW 1958   0.186   0.082   2.295
  410SOL    HW2 1959   0.257   0.103   2.234
  410SOL    HW3 1960   0.140   0.010   2.253
  410SOL    MW4 1961   0.190   0.076   2.281
  411SOL     OW 1962   0.017   0.549   3.438
  411SOL    HW2 1963   0.081   0.615   3.413
  411SOL    HW3 1964  -0.064   0.576   3.395
  411SOL    MW4 1965   0.015   0.561   3.430
  412SOL     OW 1966   1.755   1.456   2.395
  412SOL    HW2 1967   1.725   1.389   2.456
  412SOL    HW3 1968   1.849   1.462   2.409
  412SOL    MW4 1969   1.763   1.448   2.405
  413SOL     OW 1970   1.311   1.133   2.325
  413SOL    HW2 1971   1.283   1.219   2.358
  413SOL    HW3 1972   1.339   1.149   2.235
  413SOL    MW4 1973   1.311   1.147   2.317
  414SOL     OW 1974   0.973   0.053   2.378
  414SOL    HW2 1975   1.010   0.112   2.443
  414SOL    HW3 1976   0.950   0.109   2.304
  414SOL    MW4 1977   0.974   0.068   2.377
  415SOL     OW 1978   1.826   0.935   2.800
  415SOL    HW2 1979   1.817   0.967   2.711
  415SOL    HW3 1980   1.779   0.851   2.800
  415SOL    MW4 1981   1.819   0.928   2.790
  416SOL     OW 1982   0.202   0.775   3.379
  416SOL    HW2 1983   0.223   0.844   3.317
  416SOL    HW3 1984   0.282   0.722   3.384
  416SOL    MW4 1985   0.215   0.776   3.373
  417SOL     OW 1986   1.738   0.866   2.501
  417SOL    HW2 1987   1.832   0.855   2.489
  417SOL    HW3 1988   1.714   0.938   2.442
  417SOL    MW4 1989   1.748   0.874   2.492
  418SOL     OW 1990   0.187   0.790   3.646
  418SOL    HW2 1991   0.113   0.734   3.672
  418SOL    HW3 1992   0.182   0.793   3.551
  418SOL    MW4 1993   0.176   0.783   3.636
  419SOL     OW 1994   0.353   0.077   3.096
  419SOL    HW2 1995   0.396   0.161   3.116
  419SOL    HW3 1996   0.426   0.015   3.089
  419SOL    MW4 1997   0.368   0.080   3.097
  420SOL     OW 1998   0.394   0.744   2.274
  420SOL    HW2 1999   0.394   0.839   2.259
  420SOL    HW3 2000   0.471   0.728   2.328
  420SOL    MW4 2001   0.404   0.755   2.279
  421SOL     OW 2002   1.170   0.603   3.338
  421SOL    HW2 2003   1.206   0.576   3.254
  421SOL    HW3 2004   1.083   0.637   3.317
  421SOL    MW4 2005   1.164   0.604   3.325
  422SOL     OW 2006   0.153   0.475   2.563
  422SOL    HW2 2007   0.215   0.482   2.636
  422SOL    HW3 2008   0.153   0.382   2.540
  422SOL    MW4 2009   0.161   0.464   2.570
  423SOL     OW 2010   1.700   1.815   2.095
  423SOL    HW2 2011   1.767   1.848   2.035
  423SOL    HW3 2012   1.657   1.894   2.129
  423SOL    MW4 2013   1.702   1.830   2.091
  424SOL     OW 2014   0.835   0.736   3.047
  424SOL    HW2 2015   0.793   0.654   3.023
  424SOL    HW3 2016   0.836   0.735   3.143
  424SOL    MW4 2017   0.828   0.725   3.056
  425SOL     OW 2018   1.506   1.869   3.446
  425SOL    HW2 2019   1.509   1.775   3.429
  425SOL    HW3 2020   1.529   1.877   3.538
  425SOL    MW4 2021   1.509   1.857   3.456
  426SOL     OW 2022   0.639   0.206   3.152
  426SOL    HW2 2023   0.570   0.269   3.173
  426SOL    HW3 2024   0.666   0.170   3.237
  426SOL    MW4 2025   0.633   0.209   3.165
  427SOL     OW 2026   0.022   1.047   2.021
  427SOL    HW2 2027  -0.009   1.112   2.084
  427SOL    HW3 2028  -0.029   0.969   2.040
  427SOL    MW4 2029   0.012   1.044   2.031
  428SOL     OW 2030   1.434   0.059   2.769
  428SOL    HW2 2031   1.522   0.068   2.806
  428SOL    HW3 2032   1.444   0.000   2.695
  428SOL    MW4 2033   1.448   0.053   2.763
  429SOL     OW 2034   1.466   0.798   2.613
  429SOL    HW2 2035   1.546   0.813   2.562
  429SOL    HW3 2036   1.459   0.703   2.619
  429SOL    MW4 2037   1.475   0.787   2.608
  430SOL     OW 2038   0.606   1.847   1.963
  430SOL    HW2 2039   0.511   1.847   1.955
  430SOL    HW3 2040   0.622   1.793   2.041
  430SOL    MW4 2041   0.596   1.841   1.972
  431SOL     OW 2042   0.916   0.724   3.310
  431SOL    HW2 2043   0.985   0.791   3.307
  431SOL    HW3 2044   0.849   0.762   3.366
  431SOL    MW4 2045   0.917   0.737   3.317
  432SOL     OW 2046   0.334   1.024   3.558
  432SOL    HW2 2047   0.288   0.940   3.560
  432SOL    HW3 2048   0.391   1.018   3.482
  432SOL    MW4 2049   0.336   1.012   3.550
  433SOL     OW 2050   1.451   0.667   1.879
  433SOL    HW2 2051   1.379   0.643   1.821
  433SOL    HW3 2052   1.517   0.704   1.821
  433SOL    MW4 2053   1.450   0.669   1.864
  434SOL     OW 2054   0.585   1.399   2.559
  434SOL    HW2 2055   0.650   1.332   2.580
  434SOL    HW3 2056   0.637   1.476   2.536
  434SOL    MW4 2057   0.600   1.401   2.558
  435SOL     OW 2058   0.846   0.564   2.689
  435SOL    HW2 2059   0.786   0.582   2.761
  435SOL    HW3 2060   0.880   0.476   2.708
  435SOL    MW4 2061   0.842   0.554   2.702
  436SOL     OW 2062   1.787   0.063   3.358
  436SOL    HW2 2063   1.708   0.109   3.386
  436SOL    HW3 2064   1.822   0.117   3.287
  436SOL    MW4 2065   1.781   0.076   3.352
  437SOL     OW 2066   1.071   1.147   2.708
  437SOL    HW2 2067   1.163   1.128   2.726
  437SOL    HW3 2068   1.044   1.077   2.648
  437SOL    MW4 2069   1.079   1.135   2.702
  438SOL     OW 2070   0.864   0.967   2.063
  438SOL    HW2 2071   0.850   0.879   2.028
  438SOL    HW3 2072   0.815   1.024   2.004
  438SOL    MW4 2073   0.856   0.962   2.051
  439SOL     OW 2074   1.345   1.385   2.804
  439SOL    HW2 2075   1.318   1.469   2.769
  439SOL    HW3 2076   1.305   1.380   2.891
  439SOL    MW4 2077   1.338   1.394   2.810
  440SOL     OW 2078   1.264   1.333   3.072
  440SOL    HW2 2079   1.275   1.300   3.161
  440SOL    HW3 2080   1.183   1.292   3.041
  440SOL    MW4 2081   1.254   1.325   3.078
  441SOL     OW 2082   0.277   0.691   2.842
  441SOL    HW2 2083   0.227   0.690   2.923
  441SOL    HW3 2084   0.297   0.783   2.826
  441SOL    MW4 2085   0.273   0.703   2.850
  442SOL     OW 2086   1.344   1.455   3.604
  442SOL    HW2 2087   1.344   1.549   3.620
  442SOL    HW3 2088   1.389   1.445   3.520
  442SOL    MW4 2089   1.350   1.465   3.595
  443SOL     OW 2090   1.583   0.173   2.165
  443SOL    HW2 2091   1.576   0.177   2.260
  443SOL    HW3 2092   1.595   0.264   2.138
  443SOL    MW4 2093   1.584   0.186   2.173
  444SOL     OW 2094   0.872   0.736   2.279
  444SOL    HW2 2095   0.852   0.722   2.186
  444SOL    HW3 2096   0.965   0.715   2.286
  444SOL    MW4 2097   0.882   0.731   2.268
  445SOL     OW 2098   0.199   0.359   3.583
  445SOL    HW2 2099   0.156   0.418   3.520
  445SOL    HW3 2100   0.267   0.414   3.623
  445SOL    MW4 2101   0.203   0.374   3.580
  446SOL     OW 2102   1.311   0.979   3.128
  446SOL    HW2 2103   1.374   0.976   3.201
  446SOL    HW3 2104   1.227   0.997   3.170
  446SOL    MW4 2105   1.307   0.981   3.143
  447SOL     OW 2106   0.855   1.694   2.317
  447SOL    HW2 2107   0.913   1.765   2.344
  447SOL    HW3 2108   0.878   1.622   2.375
  447SOL    MW4 2109   0.866   1.694   2.328
  448SOL     OW 2110   1.650   0.156   2.907
  448SOL    HW2 2111   1.695   0.074   2.926
  448SOL    HW3 2112   1.670   0.212   2.983
  448SOL    MW4 2113   1.660   0.152   2.919
  449SOL     OW 2114   0.098  -0.001   3.006
  449SOL    HW2 2115   0.089   0.000   2.911
  449SOL    HW3 2116   0.192   0.011   3.021
  449SOL    MW4 2117   0.110   0.002   2.997
  450SOL     OW 2118   1.735   1.192   2.626
  450SOL    HW2 2119   1.714   1.138   2.549
  450SOL    HW3 2120   1.831   1.190   2.630
  450SOL    MW4 2121   1.744   1.185   2.615
  451SOL     OW 2122   0.427   1.337   3.369
  451SOL    HW2 2123   0.348   1.287   3.392
  451SOL    HW3 2124   0.497   1.296   3.419
  451SOL    MW4 2125   0.425   1.325   3.379
  452SOL     OW 2126   0.311   0.126   2.052
  452SOL    HW2 2127   0.240   0.181   2.020
  452SOL    HW3 2128   0.353   0.092   1.973
  452SOL    MW4 2129   0.307   0.128   2.038
  453SOL     OW 2130   1.435   0.623   2.888
  453SOL    HW2 2131   1.358   0.669   2.854
  453SOL    HW3 2132   1.492   0.692   2.922
  453SOL    MW4 2133   1.432   0.638   2.888
  454SOL     OW 2134   0.067   0.225   1.901
  454SOL    HW2 2135   0.034   0.304   1.945
  454SOL    HW3 2136   0.122   0.258   1.830
  454SOL    MW4 2137   0.070   0.239   1.898
  455SOL     OW 2138   0.101   1.482   2.090
  455SOL    HW2 2139   0.118   1.566   2.132
  455SOL    HW3 2140   0.136   1.491   2.002
  455SOL    MW4 2141   0.106   1.495   2.084
  456SOL     OW 2142   1.373   1.571   2.307
  456SOL    HW2 2143   1.436   1.561   2.236
  456SOL    HW3 2144   1.290   1.591   2.262
  456SOL    MW4 2145   1.370   1.572   2.292
  457SOL     OW 2146   1.736   0.839   3.993
  457SOL    HW2 2147   1.777   0.781   4.058
  457SOL    HW3 2148   1.643   0.831   4.010
  457SOL    MW4 2149   1.730   0.831   4.003
  458SOL     OW 2150   1.602   0.771   4.988
  458SOL    HW2 2151   1.557   0.838   5.039
  458SOL    HW3 2152   1.690   0.807   4.974
  458SOL    MW4 2153   1.608   0.784   4.992
  459SOL     OW 2154   0.530   1.022   4.222
  459SOL    HW2 2155   0.620   0.997   4.206
  459SOL    HW3 2156   0.526   1.115   4.199
  459SOL    MW4 2157   0.542   1.031   4.217
  460SOL     OW 2158   1.646   1.725   4.364
  460SOL    HW2 2159   1.658   1.671   4.442
  460SOL    HW3 2160   1.683   1.673   4.293
  460SOL    MW4 2161   1.652   1.710   4.365
  461SOL     OW 2162   1.025   1.610   5.365
  461SOL    HW2 2163   1.066   1.646   5.286
  461SOL    HW3 2164   1.060   1.521   5.372
  461SOL    MW4 2165   1.036   1.603   5.356
  462SOL     OW 2166   1.582   1.165   4.969
  462SOL    HW2 2167   1.503   1.130   4.927
  462SOL    HW3 2168   1.609   1.237   4.913
  462SOL    MW4 2169   1.575   1.170   4.956
  463SOL     OW 2170   0.814   0.478   4.235
  463SOL    HW2 2171   0.789   0.566   4.263
  463SOL    HW3 2172   0.811   0.481   4.139
  463SOL    MW4 2173   0.810   0.490   4.227
  464SOL     OW 2174   0.256   0.506   4.163
  464SOL    HW2 2175   0.288   0.594   4.145
  464SOL    HW3 2176   0.244   0.504   4.258
  464SOL    MW4 2177   0.259   0.518   4.175
  465SOL     OW 2178   0.334   0.919   5.064
  465SOL    HW2 2179   0.397   0.866   5.015
  465SOL    HW3 2180   0.315   0.993   5.007
  465SOL    MW4 2181   0.340   0.921   5.051
  466SOL     OW 2182   0.655   0.261   4.250
  466SOL    HW2 2183   0.713   0.337   4.252
  466SOL    HW3 2184   0.590   0.282   4.183
  466SOL    MW4 2185   0.654   0.273   4.241
  467SOL     OW 2186   0.742   1.188   4.425
  467SOL    HW2 2187   0.822   1.191   4.477
  467SOL    HW3 2188   0.770   1.155   4.339
  467SOL    MW4 2189   0.756   1.184   4.420
  468SOL     OW 2190   0.767   1.529   5.328
  468SOL    HW2 2191   0.851   1.555   5.367
  468SOL    HW3 2192   0.791   1.473   5.254
  468SOL    MW4 2193   0.781   1.525   5.323
  469SOL     OW 2194   0.519   0.692   4.416
  469SOL    HW2 2195   0.504   0.612   4.467
  469SOL    HW3 2196   0.601   0.727   4.450
  469SOL    MW4 2197   0.527   0.684   4.428
  470SOL     OW 2198   0.856   1.378   5.101
  470SOL    HW2 2199   0.820   1.444   5.041
  470SOL    HW3 2200   0.784   1.316   5.114
  470SOL    MW4 2201   0.842   1.378   5.095
  471SOL     OW 2202   0.661   0.518   4.793
  471SOL    HW2 2203   0.567   0.514   4.811
  471SOL    HW3 2204   0.691   0.427   4.802
  471SOL    MW4 2205   0.652   0.506   4.796
  472SOL     OW 2206   0.407   0.932   4.697
  472SOL    HW2 2207   0.362   0.939   4.613
  472SOL    HW3 2208   0.387   1.015   4.741
  472SOL    MW4 2209   0.399   0.944   4.691
  473SOL     OW 2210   0.104   1.778   4.572
  473SOL    HW2 2211   0.193   1.770   4.607
  473SOL    HW3 2212   0.068   1.690   4.577
  473SOL    MW4 2213   0.111   1.765   4.577
  474SOL     OW 2214   1.369   1.170   3.941
  474SOL    HW2 2215   1.287   1.206   3.907
  474SOL    HW3 2216   1.437   1.213   3.890
  474SOL    MW4 2217   1.367   1.180   3.929
  475SOL     OW 2218   0.368   1.305   4.607
  475SOL    HW2 2219   0.344   1.358   4.683
  475SOL    HW3 2220   0.424   1.363   4.555
  475SOL    MW4 2221   0.372   1.320   4.610
  476SOL     OW 2222   0.930   0.949   4.417
  476SOL    HW2 2223   0.844   0.936   4.457
  476SOL    HW3 2224   0.983   0.876   4.449
  476SOL    MW4 2225   0.926   0.938   4.426
  477SOL     OW 2226   0.338   1.601   5.202
  477SOL    HW2 2227   0.246   1.577   5.187
  477SOL    HW3 2228   0.382   1.518   5.219
  477SOL    MW4 2229   0.332   1.586   5.201
  478SOL     OW 2230   0.921   1.311   4.134
  478SOL    HW2 2231   0.898   1.373   4.202
  478SOL    HW3 2232   0.878   1.229   4.160
  478SOL    MW4 2233   0.913   1.307   4.145
  479SOL     OW 2234   1.794   0.312   4.590
  479SOL    HW2 2235   1.731   0.292   4.659
  479SOL    HW3 2236   1.784   0.241   4.527
  479SOL    MW4 2237   1.784   0.299   4.591
  480SOL     OW 2238   0.418   0.284   4.102
  480SOL    HW2 2239   0.392   0.246   4.018
  480SOL    HW3 2240   0.355   0.354   4.118
  480SOL    MW4 2241   0.407   0.287   4.093
  481SOL     OW 2242   0.253   1.245   4.139
  481SOL    HW2 2243   0.201   1.313   4.095
  481SOL    HW3 2244   0.250   1.171   4.079
  481SOL    MW4 2245   0.245   1.244   4.126
  482SOL     OW 2246   0.915   1.708   3.917
  482SOL    HW2 2247   0.870   1.724   4.000
  482SOL    HW3 2248   0.846   1.673   3.859
  482SOL    MW4 2249   0.901   1.705   3.919
  483SOL     OW 2250   1.850   0.481   3.892
  483SOL    HW2 2251   1.759   0.483   3.920
  483SOL    HW3 2252   1.895   0.543   3.950
  483SOL    MW4 2253   1.843   0.489   3.902
  484SOL     OW 2254   1.595   1.084   4.242
  484SOL    HW2 2255   1.505   1.084   4.277
  484SOL    HW3 2256   1.588   1.130   4.159
  484SOL    MW4 2257   1.582   1.090   4.236
  485SOL     OW 2258   1.395   0.719   5.314
  485SOL    HW2 2259   1.464   0.657   5.291
  485SOL    HW3 2260   1.320   0.693   5.261
  485SOL    MW4 2261   1.395   0.706   5.305
  486SOL     OW 2262   0.136   1.599   4.866
  486SOL    HW2 2263   0.119   1.545   4.943
  486SOL    HW3 2264   0.124   1.689   4.896
  486SOL    MW4 2265   0.133   1.603   4.880
  487SOL     OW 2266   1.131   1.106   5.306
  487SOL    HW2 2267   1.116   1.199   5.291
  487SOL    HW3 2268   1.226   1.096   5.306
  487SOL    MW4 2269   1.140   1.116   5.303
  488SOL     OW 2270   0.927   0.530   5.507
  488SOL    HW2 2271   1.017   0.531   5.474
  488SOL    HW3 2272   0.886   0.455   5.465
  488SOL    MW4 2273   0.933   0.520   5.498
  489SOL     OW 2274   1.502   1.062   4.634
  489SOL    HW2 2275   1.505   0.996   4.565
  489SOL    HW3 2276   1.587   1.105   4.630
  489SOL    MW4 2277   1.514   1.058   4.625
  490SOL     OW 2278   1.122   0.665   4.203
  490SOL    HW2 2279   1.148   0.689   4.114
  490SOL    HW3 2280   1.104   0.572   4.199
  490SOL    MW4 2281   1.124   0.657   4.190
  491SOL     OW 2282   1.787   1.285   4.054
  491SOL    HW2 2283   1.743   1.326   4.129
  491SOL    HW3 2284   1.844   1.353   4.019
  491SOL    MW4 2285   1.789   1.299   4.059
  492SOL     OW 2286   0.707   0.334   5.457
  492SOL    HW2 2287   0.717   0.260   5.397
  492SOL    HW3 2288   0.743   0.303   5.540
  492SOL    MW4 2289   0.713   0.320   5.459
  493SOL     OW 2290   0.443   1.701   4.372
  493SOL    HW2 2291   0.475   1.789   4.350
  493SOL    HW3 2292   0.396   1.673   4.294
  493SOL    MW4 2293   0.442   1.709   4.359
  494SOL     OW 2294   1.827   0.063   4.421
  494SOL    HW2 2295   1.881   0.014   4.483
  494SOL    HW3 2296   1.770  -0.003   4.382
  494SOL    MW4 2297   1.827   0.047   4.423
  495SOL     OW 2298   0.159   1.761   3.949
  495SOL    HW2 2299   0.188   1.851   3.941
  495SOL    HW3 2300   0.109   1.744   3.870
  495SOL    MW4 2301   0.157   1.769   3.938
  496SOL     OW 2302   0.946   0.016   4.834
  496SOL    HW2 2303   0.905   0.094   4.796
  496SOL    HW3 2304   1.040   0.034   4.829
  496SOL    MW4 2305   0.952   0.028   4.829
  497SOL     OW 2306   1.563   1.569   3.920
  497SOL    HW2 2307   1.611   1.638   3.966
  497SOL    HW3 2308   1.484   1.613   3.889
  497SOL    MW4 2309   1.558   1.583   3.923
  498SOL     OW 2310   0.961   0.694   3.864
  498SOL    HW2 2311   0.963   0.641   3.785
  498SOL    HW3 2312   1.049   0.731   3.870
  498SOL    MW4 2313   0.973   0.693   3.853
  499SOL     OW 2314   1.575   0.620   4.200
  499SOL    HW2 2315   1.614   0.620   4.287
  499SOL    HW3 2316   1.516   0.696   4.200
  499SOL    MW4 2317   1.572   0.631   4.211
  500SOL     OW 2318   0.892   0.987   5.329
  500SOL    HW2 2319   0.869   0.967   5.419
  500SOL    HW3 2320   0.977   1.031   5.334
  500SOL    MW4 2321   0.899   0.990   5.341
  501SOL     OW 2322   0.972   0.124   5.089
  501SOL    HW2 2323   0.978   0.086   5.002
  501SOL    HW3 2324   0.961   0.218   5.074
  501SOL    MW4 2325   0.973   0.132   5.077
  502SOL     OW 2326   1.061   0.613   4.923
  502SOL    HW2 2327   1.136   0.642   4.870
  502SOL    HW3 2328   0.993   0.678   4.907
  502SOL    MW4 2329   1.062   0.625   4.913
  503SOL     OW 2330   1.611   0.581   5.200
  503SOL    HW2 2331   1.592   0.490   5.179
  503SOL    HW3 2332   1.589   0.630   5.121
  503SOL    MW4 2333   1.606   0.574   5.187
  504SOL     OW 2334   1.753   1.675   5.104
  504SOL    HW2 2335   1.681   1.637   5.155
  504SOL    HW3 2336   1.770   1.760   5.145
  504SOL    MW4 2337   1.747   1.680   5.116
  505SOL     OW 2338   1.058   0.319   5.306
  505SOL    HW2 2339   1.024   0.358   5.225
  505SOL    HW3 2340   1.036   0.227   5.299
  505SOL    MW4 2341   1.051   0.312   5.296
  506SOL     OW 2342   1.467   1.133   5.382
  506SOL    HW2 2343   1.549   1.174   5.412
  506SOL    HW3 2344   1.430   1.095   5.462
  506SOL    MW4 2345   1.473   1.134   5.397
  507SOL     OW 2346   1.762   0.506   4.366
  507SOL    HW2 2347   1.851   0.475   4.383
  507SOL    HW3 2348   1.705   0.446   4.414
  507SOL    MW4 2349   1.765   0.494   4.375
  508SOL     OW 2350   0.188   0.220   4.395
  508SOL    HW2 2351   0.179   0.160   4.321
  508SOL    HW3 2352   0.121   0.191   4.458
  508SOL    MW4 2353   0.178   0.207   4.393
  509SOL     OW 2354   1.131   1.313   3.956
  509SOL    HW2 2355   1.081   1.315   4.038
  509SOL    HW3 2356   1.065   1.331   3.888
  509SOL    MW4 2357   1.117   1.315   3.958
  510SOL     OW 2358   0.135   0.393   4.758
  510SOL    HW2 2359   0.107   0.484   4.767
  510SOL    HW3 2360   0.072   0.354   4.697
  510SOL    MW4 2361   0.122   0.399   4.752
  511SOL     OW 2362   0.594   1.731   4.064
  511SOL    HW2 2363   0.515   1.689   4.097
  511SOL    HW3 2364   0.660   1.714   4.131
  511SOL    MW4 2365   0.593   1.723   4.077
  512SOL     OW 2366   1.722   1.251   5.461
  512SOL    HW2 2367   1.772   1.177   5.493
  512SOL    HW3 2368   1.668   1.278   5.536
  512SOL    MW4 2369   1.722   1.245   5.474
  513SOL     OW 2370   0.730   1.146   3.771
  513SOL    HW2 2371   0.652   1.092   3.758
  513SOL    HW3 2372   0.701   1.219   3.824
  513SOL    MW4 2373   0.716   1.148   3.776
  514SOL     OW 2374   1.856   0.886   4.963
  514SOL    HW2 2375   1.872   0.924   4.876
  514SOL    HW3 2376   1.890   0.952   5.024
  514SOL    MW4 2377   1.863   0.899   4.959
  515SOL     OW 2378   1.648   1.595   4.632
  515SOL    HW2 2379   1.677   1.662   4.693
  515SOL    HW3 2380   1.629   1.519   4.687
  515SOL    MW4 2381   1.650   1.595   4.647
  516SOL     OW 2382   1.311   1.662   3.839
  516SOL    HW2 2383   1.237   1.625   3.889
  516SOL    HW3 2384   1.319   1.752   3.872
  516SOL    MW4 2385   1.302   1.669   3.851
  517SOL     OW 2386   0.119   0.668   4.928
  517SOL    HW2 2387   0.181   0.698   4.994
  517SOL    HW3 2388   0.053   0.737   4.922
  517SOL    MW4 2389   0.118   0.681   4.935
  518SOL     OW 2390   1.535   1.336   3.781
  518SOL    HW2 2391   1.482   1.385   3.717
  518SOL    HW3 2392   1.566   1.402   3.842
  518SOL    MW4 2393   1.533   1.350   3.779
  519SOL     OW 2394   0.760   0.225   3.836
  519SOL    HW2 2395   0.708   0.145   3.824
  519SOL    HW3 2396   0.847   0.202   3.804
  519SOL    MW4 2397   0.763   0.211   3.830
  520SOL     OW 2398   0.214   1.777   5.380
  520SOL    HW2 2399   0.188   1.845   5.318
  520SOL    HW3 2400   0.262   1.714   5.328
  520SOL    MW4 2401   0.216   1.777   5.366
  521SOL     OW 2402   0.266   1.096   4.887
  521SOL    HW2 2403   0.319   1.171   4.912
  521SOL    HW3 2404   0.185   1.134   4.853
  521SOL    MW4 2405   0.262   1.111   4.887
  522SOL     OW 2406   0.806   1.000   4.875
  522SOL    HW2 2407   0.834   0.909   4.887
  522SOL    HW3 2408   0.735   0.994   4.811
  522SOL    MW4 2409   0.799   0.988   4.870
  523SOL     OW 2410   0.121   0.865   4.293
  523SOL    HW2 2411   0.212   0.880   4.320
  523SOL    HW3 2412   0.124   0.786   4.239
  523SOL    MW4 2413   0.133   0.857   4.291
  524SOL     OW 2414   0.357   0.573   5.547
  524SOL    HW2 2415   0.304   0.653   5.554
  524SOL    HW3 2416   0.427   0.585   5.612
  524SOL    MW4 2417   0.359   0.586   5.555
  525SOL     OW 2418   0.743   0.123   5.254
  525SOL    HW2 2419   0.720   0.031   5.256
  525SOL    HW3 2420   0.829   0.125   5.211
  525SOL    MW4 2421   0.750   0.113   5.250
  526SOL     OW 2422   0.427   0.647   5.293
  526SOL    HW2 2423   0.507   0.697   5.279
  526SOL    HW3 2424   0.418   0.641   5.388
  526SOL    MW4 2425   0.436   0.653   5.303
  527SOL     OW 2426   0.748   1.797   4.667
  527SOL    HW2 2427   0.837   1.812   4.697
  527SOL    HW3 2428   0.743   1.844   4.583
  527SOL    MW4 2429   0.758   1.805   4.660
  528SOL     OW 2430   1.404   0.172   5.564
  528SOL    HW2 2431   1.460   0.099   5.590
  528SOL    HW3 2432   1.374   0.210   5.646
  528SOL    MW4 2433   1.408   0.167   5.577
  529SOL     OW 2434   0.129   1.477   4.332
  529SOL    HW2 2435   0.101   1.516   4.414
  529SOL    HW3 2436   0.149   1.386   4.354
  529SOL    MW4 2437   0.127   1.469   4.345
  530SOL     OW 2438   0.962   1.520   4.367
  530SOL    HW2 2439   1.045   1.474   4.351
  530SOL    HW3 2440   0.952   1.519   4.463
  530SOL    MW4 2441   0.972   1.513   4.377
  531SOL     OW 2442   1.794   0.665   4.681
  531SOL    HW2 2443   1.883   0.695   4.663
  531SOL    HW3 2444   1.774   0.605   4.610
  531SOL    MW4 2445   1.803   0.662   4.670
  532SOL     OW 2446   1.645   0.844   5.561
  532SOL    HW2 2447   1.700   0.768   5.542
  532SOL    HW3 2448   1.647   0.852   5.656
  532SOL    MW4 2449   1.653   0.835   5.569
  533SOL     OW 2450   0.695   1.577   3.772
  533SOL    HW2 2451   0.635   1.646   3.742
  533SOL    HW3 2452   0.640   1.519   3.825
  533SOL    MW4 2453   0.679   1.579   3.774
  534SOL     OW 2454   1.133   0.222   3.995
  534SOL    HW2 2455   1.066   0.198   3.932
  534SOL    HW3 2456   1.198   0.271   3.944
  534SOL    MW4 2457   1.133   0.224   3.980
  535SOL     OW 2458   0.940   0.406   5.080
  535SOL    HW2 2459   0.859   0.447   5.108
  535SOL    HW3 2460   0.987   0.474   5.032
  535SOL    MW4 2461   0.935   0.421   5.078
  536SOL     OW 2462   1.200   0.744   4.703
  536SOL    HW2 2463   1.213   0.838   4.713
  536SOL    HW3 2464   1.161   0.734   4.617
  536SOL    MW4 2465   1.196   0.755   4.693
  537SOL     OW 2466   0.652   0.939   4.507
  537SOL    HW2 2467   0.563   0.930   4.540
  537SOL    HW3 2468   0.656   1.029   4.475
  537SOL    MW4 2469   0.641   0.950   4.507
  538SOL     OW 2470   1.451   0.522   4.502
  538SOL    HW2 2471   1.396   0.443   4.501
  538SOL    HW3 2472   1.433   0.563   4.586
  538SOL    MW4 2473   1.441   0.517   4.511
  539SOL     OW 2474   0.422   0.209   5.319
  539SOL    HW2 2475   0.343   0.227   5.371
  539SOL    HW3 2476   0.417   0.271   5.246
  539SOL    MW4 2477   0.412   0.219   5.316
  540SOL     OW 2478   1.070   0.726   4.459
  540SOL    HW2 2479   1.007   0.658   4.483
  540SOL    HW3 2480   1.090   0.707   4.367
  540SOL    MW4 2481   1.064   0.713   4.451
  541SOL     OW 2482   0.326   1.621   4.161
  541SOL    HW2 2483   0.287   1.668   4.087
  541SOL    HW3 2484   0.260   1.556   4.186
  541SOL    MW4 2485   0.313   1.619   4.155
  542SOL     OW 2486   0.818   1.030   4.185
  542SOL    HW2 2487   0.820   1.004   4.092
  542SOL    HW3 2488   0.876   0.967   4.228
  542SOL    MW4 2489   0.826   1.019   4.179
  543SOL     OW 2490   1.371   1.590   4.957
  543SOL    HW2 2491   1.296   1.636   4.995
  543SOL    HW3 2492   1.353   1.497   4.974
  543SOL    MW4 2493   1.360   1.584   4.965
  544SOL     OW 2494   1.375   1.798   4.387
  544SOL    HW2 2495   1.318   1.751   4.326
  544SOL    HW3 2496   1.461   1.759   4.374
  544SOL    MW4 2497   1.378   1.789   4.377
  545SOL     OW 2498   1.328   0.274   4.518
  545SOL    HW2 2499   1.356   0.206   4.579
  545SOL    HW3 2500   1.242   0.245   4.488
  545SOL    MW4 2501   1.321   0.261   4.522
  546SOL     OW 2502   0.133   1.208   4.452
  546SOL    HW2 2503   0.197   1.240   4.515
  546SOL    HW3 2504   0.182   1.144   4.400
  546SOL    MW4 2505   0.148   1.204   4.453
  547SOL     OW 2506   0.633   1.284   5.434
  547SOL    HW2 2507   0.681   1.367   5.421
  547SOL    HW3 2508   0.690   1.232   5.490
  547SOL    MW4 2509   0.647   1.288   5.440
  548SOL     OW 2510   0.209   1.526   5.574
  548SOL    HW2 2511   0.265   1.450   5.589
  548SOL    HW3 2512   0.158   1.504   5.496
  548SOL    MW4 2513   0.209   1.513   5.565
  549SOL     OW 2514   1.308   0.378   3.853
  549SOL    HW2 2515   1.281   0.444   3.789
  549SOL    HW3 2516   1.378   0.421   3.903
  549SOL    MW4 2517   1.313   0.391   3.850
  550SOL     OW 2518   0.976   0.083   3.790
  550SOL    HW2 2519   1.032   0.075   3.712
  550SOL    HW3 2520   0.953  -0.007   3.812
  550SOL    MW4 2521   0.981   0.070   3.783
  551SOL     OW 2522   1.481   0.934   3.995
  551SOL    HW2 2523   1.448   1.023   3.985
  551SOL    HW3 2524   1.446   0.905   4.080
  551SOL    MW4 2525   1.471   0.943   4.006
  552SOL     OW 2526   1.094   1.363   5.183
  552SOL    HW2 2527   1.005   1.369   5.151
  552SOL    HW3 2528   1.138   1.442   5.151
  552SOL    MW4 2529   1.089   1.373   5.175
  553SOL     OW 2530   0.387   0.031   5.525
  553SOL    HW2 2531   0.315  -0.004   5.473
  553SOL    HW3 2532   0.445   0.072   5.460
  553SOL    MW4 2533   0.385   0.032   5.510
  554SOL     OW 2534   0.411   1.521   4.824
  554SOL    HW2 2535   0.456   1.583   4.881
  554SOL    HW3 2536   0.318   1.540   4.837
  554SOL    MW4 2537   0.404   1.531   4.831
  555SOL     OW 2538   1.851   1.050   5.178
  555SOL    HW2 2539   1.766   1.063   5.137
  555SOL    HW3 2540   1.831   1.014   5.265
  555SOL    MW4 2541   1.838   1.046   5.183
  556SOL     OW 2542   0.833   1.589   4.932
  556SOL    HW2 2543   0.857   1.578   4.841
  556SOL    HW3 2544   0.756   1.646   4.930
  556SOL    MW4 2545   0.825   1.594   4.921
  557SOL     OW 2546   0.475   0.972   3.787
  557SOL    HW2 2547   0.398   0.985   3.843
  557SOL    HW3 2548   0.439   0.936   3.706
  557SOL    MW4 2549   0.461   0.968   3.784
  558SOL     OW 2550   1.128   0.945   4.030
  558SOL    HW2 2551   1.038   0.966   4.005
  558SOL    HW3 2552   1.155   1.018   4.086
  558SOL    MW4 2553   1.120   0.957   4.033
  559SOL     OW 2554   0.628   1.294   4.722
  559SOL    HW2 2555   0.621   1.273   4.816
  559SOL    HW3 2556   0.546   1.262   4.685
  559SOL    MW4 2557   0.616   1.288   4.729
  560SOL     OW 2558   1.492   0.304   5.124
  560SOL    HW2 2559   1.439   0.306   5.204
  560SOL    HW3 2560   1.477   0.217   5.087
  560SOL    MW4 2561   1.484   0.294   5.129
  561SOL     OW 2562   1.828   0.228   4.997
  561SOL    HW2 2563   1.809   0.295   4.932
  561SOL    HW3 2564   1.885   0.166   4.952
  561SOL    MW4 2565   1.832   0.229   4.983
  562SOL     OW 2566   0.074   1.386   5.385
  562SOL    HW2 2567   0.118   1.319   5.331
  562SOL    HW3 2568  -0.011   1.348   5.405
  562SOL    MW4 2569   0.069   1.372   5.381
  563SOL     OW 2570   0.757   0.061   4.437
  563SOL    HW2 2571   0.686   0.122   4.419
  563SOL    HW3 2572   0.808   0.058   4.356
  563SOL    MW4 2573   0.753   0.067   4.424
  564SOL     OW 2574   0.515   1.301   4.186
  564SOL    HW2 2575   0.508   1.333   4.276
  564SOL    HW3 2576   0.425   1.285   4.158
  564SOL    MW4 2577   0.503   1.303   4.193
  565SOL     OW 2578   1.110   1.694   5.095
  565SOL    HW2 2579   1.030   1.679   5.045
  565SOL    HW3 2580   1.117   1.789   5.102
  565SOL    MW4 2581   1.101   1.705   5.089
  566SOL     OW 2582   1.224   1.659   4.585
  566SOL    HW2 2583   1.271   1.732   4.544
  566SOL    HW3 2584   1.145   1.698   4.621
  566SOL    MW4 2585   1.219   1.674   4.584
  567SOL     OW 2586   1.632   1.754   4.860
  567SOL    HW2 2587   1.675   1.724   4.940
  567SOL    HW3 2588   1.551   1.702   4.857
  567SOL    MW4 2589   1.627   1.743   4.870
  568SOL     OW 2590   0.717   0.718   5.567
  568SOL    HW2 2591   0.787   0.660   5.539
  568SOL    HW3 2592   0.660   0.663   5.622
  568SOL    MW4 2593   0.719   0.705   5.571
  569SOL     OW 2594   1.504   0.930   5.200
  569SOL    HW2 2595   1.509   0.983   5.280
  569SOL    HW3 2596   1.466   0.847   5.228
  569SOL    MW4 2597   1.500   0.925   5.215
  570SOL     OW 2598   1.144   0.065   5.446
  570SOL    HW2 2599   1.139  -0.028   5.427
  570SOL    HW3 2600   1.227   0.076   5.492
  570SOL    MW4 2601   1.152   0.054   5.450
  571SOL     OW 2602   0.518   0.585   3.900
  571SOL    HW2 2603   0.484   0.641   3.970
  571SOL    HW3 2604   0.589   0.535   3.940
  571SOL    MW4 2605   0.524   0.586   3.914
  572SOL     OW 2606   1.614   1.336   4.722
  572SOL    HW2 2607   1.649   1.318   4.635
  572SOL    HW3 2608   1.519   1.337   4.709
  572SOL    MW4 2609   1.606   1.333   4.709
  573SOL     OW 2610   1.043   0.984   5.091
  573SOL    HW2 2611   1.086   1.019   5.169
  573SOL    HW3 2612   1.026   1.061   5.037
  573SOL    MW4 2613   1.046   0.999   5.094
  574SOL     OW 2614   1.574   0.471   3.964
  574SOL    HW2 2615   1.566   0.542   3.901
  574SOL    HW3 2616   1.592   0.515   4.047
  574SOL    MW4 2617   1.575   0.485   3.966
  575SOL     OW 2618   0.434   0.126   4.393
  575SOL    HW2 2619   0.484   0.169   4.324
  575SOL    HW3 2620   0.349   0.170   4.393
  575SOL    MW4 2621   0.431   0.139   4.384
  576SOL     OW 2622   0.193   1.188   5.253
  576SOL    HW2 2623   0.221   1.141   5.331
  576SOL    HW3 2624   0.114   1.143   5.224
  576SOL    MW4 2625   0.186   1.177   5.259
  577SOL     OW 2626   0.701   0.515   5.220
  577SOL    HW2 2627   0.673   0.603   5.244
  577SOL    HW3 2628   0.670   0.459   5.291
  577SOL    MW4 2629   0.693   0.518   5.232
  578SOL     OW 2630   1.243   0.733   3.939
  578SOL    HW2 2631   1.290   0.751   3.858
  578SOL    HW3 2632   1.209   0.817   3.967
  578SOL    MW4 2633   1.245   0.747   3.932
  579SOL     OW 2634   0.356   0.911   4.433
  579SOL    HW2 2635   0.414   0.967   4.381
  579SOL    HW3 2636   0.400   0.826   4.435
  579SOL    MW4 2637   0.369   0.908   4.426
  580SOL     OW 2638   1.496   0.263   4.270
  580SOL    HW2 2639   1.418   0.213   4.295
  580SOL    HW3 2640   1.467   0.354   4.270
  580SOL    MW4 2641   1.482   0.267   4.273
  581SOL     OW 2642   1.082   0.225   4.429
  581SOL    HW2 2643   1.102   0.300   4.373
  581SOL    HW3 2644   1.062   0.264   4.514
  581SOL    MW4 2645   1.083   0.241   4.433
  582SOL     OW 2646   0.978   1.475   3.761
  582SOL    HW2 2647   1.005   1.553   3.713
  582SOL    HW3 2648   0.885   1.490   3.780
  582SOL    MW4 2649   0.969   1.488   3.757
  583SOL     OW 2650   1.842   0.998   5.448
  583SOL    HW2 2651   1.755   0.978   5.484
  583SOL    HW3 2652   1.896   0.924   5.473
  583SOL    MW4 2653   1.837   0.987   5.456
  584SOL     OW 2654   0.063   1.511   4.605
  584SOL    HW2 2655   0.095   1.515   4.696
  584SOL    HW3 2656  -0.032   1.519   4.613
  584SOL    MW4 2657   0.055   1.514   4.618
  585SOL     OW 2658   0.018   0.637   4.152
  585SOL    HW2 2659  -0.042   0.609   4.222
  585SOL    HW3 2660   0.092   0.577   4.158
  585SOL    MW4 2661   0.020   0.626   4.161
  586SOL     OW 2662   1.586   1.849   5.586
  586SOL    HW2 2663   1.631   1.773   5.551
  586SOL    HW3 2664   1.624   1.862   5.673
  586SOL    MW4 2665   1.596   1.842   5.592
  587SOL     OW 2666   1.186   1.368   4.312
  587SOL    HW2 2667   1.209   1.319   4.390
  587SOL    HW3 2668   1.267   1.410   4.284
  587SOL    MW4 2669   1.199   1.368   4.319
  588SOL     OW 2670   0.444   0.376   5.041
  588SOL    HW2 2671   0.477   0.457   5.081
  588SOL    HW3 2672   0.417   0.402   4.953
  588SOL    MW4 2673   0.443   0.390   5.035
  589SOL     OW 2674   0.398   0.343   4.777
  589SOL    HW2 2675   0.428   0.257   4.748
  589SOL    HW3 2676   0.303   0.336   4.780
  589SOL    MW4 2677   0.390   0.332   4.775
  590SOL     OW 2678   1.227   0.552   5.468
  590SOL    HW2 2679   1.279   0.487   5.421
  590SOL    HW3 2680   1.185   0.603   5.398
  590SOL    MW4 2681   1.228   0.549   5.451
  591SOL     OW 2682   1.326   0.347   5.329
  591SOL    HW2 2683   1.233   0.331   5.316
  591SOL    HW3 2684   1.352   0.285   5.397
  591SOL    MW4 2685   1.316   0.337   5.336
  592SOL     OW 2686   0.541   0.121   4.668
  592SOL    HW2 2687   0.551   0.030   4.694
  592SOL    HW3 2688   0.497   0.117   4.583
  592SOL    MW4 2689   0.537   0.109   4.660
  593SOL     OW 2690   0.635   1.736   5.214
  593SOL    HW2 2691   0.552   1.721   5.259
  593SOL    HW3 2692   0.694   1.669   5.249
  593SOL    MW4 2693   0.633   1.726   5.224
  594SOL     OW 2694   1.692   0.443   4.839
  594SOL    HW2 2695   1.625   0.476   4.899
  594SOL    HW3 2696   1.735   0.521   4.805
  594SOL    MW4 2697   1.690   0.458   4.843
  595SOL     OW 2698   1.870   1.163   4.809
  595SOL    HW2 2699   1.863   1.103   4.734
  595SOL    HW3 2700   1.796   1.223   4.798
  595SOL    MW4 2701   1.860   1.163   4.798
  596SOL     OW 2702   1.252   1.025   4.727
  596SOL    HW2 2703   1.266   0.997   4.818
  596SOL    HW3 2704   1.338   1.056   4.699
  596SOL    MW4 2705   1.265   1.026   4.736
  597SOL     OW 2706   1.335   0.520   5.006
  597SOL    HW2 2707   1.356   0.521   4.913
  597SOL    HW3 2708   1.380   0.442   5.039
  597SOL    MW4 2709   1.342   0.510   4.998
  598SOL     OW 2710   1.828   0.651   5.548
  598SOL    HW2 2711   1.865   0.596   5.617
  598SOL    HW3 2712   1.853   0.608   5.466
  598SOL    MW4 2713   1.835   0.639   5.547
  599SOL     OW 2714   1.375   0.949   5.600
  599SOL    HW2 2715   1.441   0.897   5.554
  599SOL    HW3 2716   1.395   0.936   5.693
  599SOL    MW4 2717   1.386   0.940   5.607
  600SOL     OW 2718   1.326   0.035   3.948
  600SOL    HW2 2719   1.400   0.079   3.991
  600SOL    HW3 2720   1.250   0.089   3.970
  600SOL    MW4 2721   1.326   0.047   3.956
  601SOL     OW 2722   1.386   0.810   4.226
  601SOL    HW2 2723   1.301   0.780   4.196
  601SOL    HW3 2724   1.378   0.817   4.321
  601SOL    MW4 2725   1.374   0.808   4.235
  602SOL     OW 2726   0.462   1.273   4.957
  602SOL    HW2 2727   0.474   1.300   5.048
  602SOL    HW3 2728   0.443   1.354   4.910
  602SOL    MW4 2729   0.461   1.288   4.962
  603SOL     OW 2730   0.746   0.253   4.780
  603SOL    HW2 2731   0.719   0.255   4.871
  603SOL    HW3 2732   0.676   0.205   4.735
  603SOL    MW4 2733   0.734   0.249   4.787
  604SOL     OW 2734   0.600   1.745   4.942
  604SOL    HW2 2735   0.652   1.822   4.919
  604SOL    HW3 2736   0.609   1.737   5.037
  604SOL    MW4 2737   0.609   1.752   4.953
  605SOL     OW 2738   1.502   1.330   5.174
  605SOL    HW2 2739   1.487   1.259   5.237
  605SOL    HW3 2740   1.548   1.288   5.102
  605SOL    MW4 2741   1.508   1.314   5.174
  606SOL     OW 2742   0.576   1.061   5.291
  606SOL    HW2 2743   0.613   1.066   5.203
  606SOL    HW3 2744   0.615   1.134   5.338
  606SOL    MW4 2745   0.586   1.071   5.286
  607SOL     OW 2746   0.756   1.104   5.103
  607SOL    HW2 2747   0.815   1.050   5.156
  607SOL    HW3 2748   0.771   1.076   5.013
  607SOL    MW4 2749   0.766   1.093   5.099
  608SOL     OW 2750   0.759   0.476   3.952
  608SOL    HW2 2751   0.832   0.525   3.915
  608SOL    HW3 2752   0.775   0.385   3.926
  608SOL    MW4 2753   0.771   0.471   3.945
  609SOL     OW 2754   1.567   1.593   5.275
  609SOL    HW2 2755   1.609   1.578   5.360
  609SOL    HW3 2756   1.558   1.506   5.237
  609SOL    MW4 2757   1.571   1.581   5.282
  610SOL     OW 2758   1.227   0.072   4.866
  610SOL    HW2 2759   1.282   0.081   4.788
  610SOL    HW3 2760   1.282   0.106   4.937
  610SOL    MW4 2761   1.241   0.077   4.865
  611SOL     OW 2762   0.234   0.985   4.050
  611SOL    HW2 2763   0.171   1.001   3.979
  611SOL    HW3 2764   0.181   0.948   4.121
  611SOL    MW4 2765   0.219   0.982   4.050
  612SOL     OW 2766   0.590   1.339   3.909
  612SOL    HW2 2767   0.605   1.315   4.001
  612SOL    HW3 2768   0.498   1.317   3.893
  612SOL    MW4 2769   0.580   1.332   3.919
  613SOL     OW 2770   1.129   1.570   4.061
  613SOL    HW2 2771   1.137   1.488   4.012
  613SOL    HW3 2772   1.048   1.609   4.028
  613SOL    MW4 2773   1.119   1.565   4.051
  614SOL     OW 2774   0.388   1.728   4.630
  614SOL    HW2 2775   0.392   1.639   4.665
  614SOL    HW3 2776   0.414   1.719   4.539
  614SOL    MW4 2777   0.391   1.716   4.622
  615SOL     OW 2778   1.005   1.206   4.873
  615SOL    HW2 2779   0.937   1.140   4.889
  615SOL    HW3 2780   1.023   1.200   4.780
  615SOL    MW4 2781   0.998   1.197   4.864
  616SOL     OW 2782   0.094   1.481   5.124
  616SOL    HW2 2783   0.084   1.439   5.210
  616SOL    HW3 2784   0.015   1.534   5.114
  616SOL    MW4 2785   0.083   1.482   5.135
  617SOL     OW 2786   0.998   0.345   4.694
  617SOL    HW2 2787   0.928   0.297   4.739
  617SOL    HW3 2788   1.030   0.408   4.758
  617SOL    MW4 2789   0.993   0.347   4.708
  618SOL     OW 2790   0.649   0.781   5.314
  618SOL    HW2 2791   0.642   0.876   5.302
  618SOL    HW3 2792   0.658   0.770   5.409
  618SOL    MW4 2793   0.650   0.793   5.324
  619SOL     OW 2794   0.370   1.296   5.572
  619SOL    HW2 2795   0.442   1.298   5.509
  619SOL    HW3 2796   0.340   1.205   5.571
  619SOL    MW4 2797   0.375   1.285   5.564
  620SOL     OW 2798   1.454   0.059   5.039
  620SOL    HW2 2799   1.525   0.005   5.003
  620SOL    HW3 2800   1.453   0.038   5.132
  620SOL    MW4 2801   1.463   0.050   5.047
  621SOL     OW 2802   1.654   1.589   5.523
  621SOL    HW2 2803   1.627   1.586   5.614
  621SOL    HW3 2804   1.750   1.593   5.526
  621SOL    MW4 2805   1.664   1.589   5.535
  622SOL     OW 2806   0.465   0.451   4.507
  622SOL    HW2 2807   0.536   0.399   4.470
  622SOL    HW3 2808   0.451   0.416   4.594
  622SOL    MW4 2809   0.473   0.440   4.514
  623SOL     OW 2810   0.020   1.786   5.579
  623SOL    HW2 2811   0.070   1.764   5.501
  623SOL    HW3 2812   0.028   1.881   5.587
  623SOL    MW4 2813   0.028   1.795   5.570
  624SOL     OW 2814   0.781   1.544   4.583
  624SOL    HW2 2815   0.709   1.481   4.596
  624SOL    HW3 2816   0.742   1.629   4.601
  624SOL    MW4 2817   0.765   1.547   4.586
  625SOL     OW 2818   1.101   0.392   4.231
  625SOL    HW2 2819   1.123   0.329   4.163
  625SOL    HW3 2820   1.006   0.384   4.242
  625SOL    MW4 2821   1.091   0.383   4.223
  626SOL     OW 2822   0.186   0.082   4.163
  626SOL    HW2 2823   0.257   0.103   4.102
  626SOL    HW3 2824   0.140   0.010   4.121
  626SOL    MW4 2825   0.190   0.076   4.149
  627SOL     OW 2826   0.017   0.549   5.306
  627SOL    HW2 2827   0.081   0.615   5.281
  627SOL    HW3 2828  -0.064   0.576   5.263
  627SOL    MW4 2829   0.015   0.561   5.298
  628SOL     OW 2830   1.755   1.456   4.263
  628SOL    HW2 2831   1.725   1.389   4.324
  628SOL    HW3 2832   1.849   1.462   4.277
  628SOL    MW4 2833   1.763   1.448   4.273
  629SOL     OW 2834   1.311   1.133   4.193
  629SOL    HW2 2835   1.283   1.219   4.226
  629SOL    HW3 2836   1.339   1.149   4.103
  629SOL    MW4 2837   1.311   1.147   4.185
  630SOL     OW 2838   0.973   0.053   4.246
  630SOL    HW2 2839   1.010   0.112   4.311
  630SOL    HW3 2840   0.950   0.109   4.172
  630SOL    MW4 2841   0.974   0.068   4.245
  631SOL     OW 2842   1.826   0.935   4.668
  631SOL    HW2 2843   1.817   0.967   4.579
  631SOL    HW3 2844   1.779   0.851   4.668
  631SOL    MW4 2845   1.819   0.928   4.658
  632SOL     OW 2846   0.202   0.775   5.247
  632SOL    HW2 2847   0.223   0.844   5.185
  632SOL    HW3 2848   0.282   0.722   5.252
  632SOL    MW4 2849   0.215   0.776   5.241
  633SOL     OW 2850   1.738   0.866   4.369
  633SOL    HW2 2851   1.832   0.855   4.357
  633SOL    HW3 2852   1.714   0.938   4.310
  633SOL    MW4 2853   1.748   0.874   4.360
  634SOL     OW 2854   0.187   0.790   5.514
  634SOL    HW2 2855   0.113   0.734   5.540
  634SOL    HW3 2856   0.182   0.793   5.419
  634SOL    MW4 2857   0.176   0.783   5.504
  635SOL     OW 2858   0.353   0.077   4.964
  635SOL    HW2 2859   0.396   0.161   4.984
  635SOL    HW3 2860   0.426   0.015   4.957
  635SOL    MW4 2861   0.368   0.080   4.965
  636SOL     OW 2862   0.394   0.744   4.142
  636SOL    HW2 2863   0.394   0.839   4.127
  636SOL    HW3 2864   0.471   0.728   4.196
  636SOL    MW4 2865   0.404   0.755   4.147
  637SOL     OW 2866   1.170   0.603   5.206
  637SOL    HW2 2867   1.206   0.576   5.122
  637SOL    HW3 2868   1.083   0.637   5.185
  637SOL    MW4 2869   1.164   0.604   5.193
  638SOL     OW 2870   0.153   0.475   4.431
  638SOL    HW2 2871   0.215   0.482   4.504
  638SOL    HW3 2872   0.153   0.382   4.408
  638SOL    MW4 2873   0.161   0.464   4.438
  639SOL     OW 2874   1.700   1.815   3.963
  639SOL    HW2 2875   1.767   1.848   3.903
  639SOL    HW3 2876   1.657   1.894   3.997
  639SOL    MW4 2877   1.702   1.830   3.959
  640SOL     OW 2878   0.835   0.736   4.915
  640SOL    HW2 2879   0.793   0.654   4.891
  640SOL    HW3 2880   0.836   0.735   5.011
  640SOL    MW4 2881   0.828   0.725   4.924
  641SOL     OW 2882   1.506   1.869   5.314
  641SOL    HW2 2883   1.509   1.775   5.297
  641SOL    HW3 2884   1.529   1.877   5.406
  641SOL    MW4 2885   1.509   1.857   5.324
  642SOL     OW 2886   0.639   0.206   5.020
  642SOL    HW2 2887   0.570   0.269   5.041
  642SOL    HW3 2888   0.666   0.170   5.105
  642SOL    MW4 2889   0.633   0.209   5.033
  643SOL     OW 2890   0.022   1.047   3.889
  643SOL    HW2 2891  -0.009   1.112   3.952
  643SOL    HW3 2892  -0.029   0.969   3.908
  643SOL    MW4 2893   0.012   1.044   3.899
  644SOL     OW 2894   1.434   0.059   4.637
  644SOL    HW2 2895   1.522   0.068   4.674
  644SOL    HW3 2896   1.444   0.000   4.563
  644SOL    MW4 2897   1.448   0.053   4.631
  645SOL     OW 2898   1.466   0.798   4.481
  645SOL    HW2 2899   1.546   0.813   4.430
  645SOL    HW3 2900   1.459   0.703   4.487
  645SOL    MW4 2901   1.475   0.787   4.476
  646SOL     OW 2902   0.606   1.847   3.831
  646SOL    HW2 2903   0.511   1.847   3.823
  646SOL    HW3 2904   0.622   1.793   3.909
  646SOL    MW4 2905   0.596   1.841   3.840
  647SOL     OW 2906   0.916   0.724   5.178
  647SOL    HW2 2907   0.985   0.791   5.175
  647SOL    HW3 2908   0.849   0.762   5.234
  647SOL    MW4 2909   0.917   0.737   5.185
  648SOL     OW 2910   0.334   1.024   5.426
  648SOL    HW2 2911   0.288   0.940   5.428
  648SOL    HW3 2912   0.391   1.018   5.350
  648SOL    MW4 2913   0.336   1.012   5.418
  649SOL     OW 2914   1.451   0.667   3.747
  649SOL    HW2 2915   1.379   0.643   3.689
  649SOL    HW3 2916   1.517   0.704   3.689
  649SOL    MW4 2917   1.450   0.669   3.732
  650SOL     OW 2918   0.585   1.399   4.427
  650SOL    HW2 2919   0.650   1.332   4.448
  650SOL    HW3 2920   0.637   1.476   4.404
  650SOL    MW4 2921   0.600   1.401   4.426
  651SOL     OW 2922   0.846   0.564   4.557
  651SOL    HW2 2923   0.786   0.582   4.629
  651SOL    HW3 2924   0.880   0.476   4.576
  651SOL    MW4 2925   0.842   0.554   4.570
  652SOL     OW 2926   1.787   0.063   5.226
  652SOL    HW2 2927   1.708   0.109   5.254
  652SOL    HW3 2928   1.822   0.117   5.155
  652SOL    MW4 2929   1.781   0.076   5.220
  653SOL     OW 2930   1.071   1.147   4.576
  653SOL    HW2 2931   1.163   1.128   4.594
  653SOL    HW3 2932   1.044   1.077   4.516
  653SOL    MW4 2933   1.079   1.135   4.570
  654SOL     OW 2934   0.864   0.967   3.931
  654SOL    HW2 2935   0.850   0.879   3.896
  654SOL    HW3 2936   0.815   1.024   3.872
  654SOL    MW4 2937   0.856   0.962   3.919
  655SOL     OW 2938   1.345   1.385   4.672
  655SOL    HW2 2939   1.318   1.469   4.637
  655SOL    HW3 2940   1.305   1.380   4.759
  655SOL    MW4 2941   1.338   1.394   4.678
  656SOL     OW 2942   1.264   1.333   4.940
  656SOL    HW2 2943   1.275   1.300   5.029
  656SOL    HW3 2944   1.183   1.292   4.909
  656SOL    MW4 2945   1.254   1.325   4.946
  657SOL     OW 2946   0.277   0.691   4.710
  657SOL    HW2 2947   0.227   0.690   4.791
  657SOL    HW3 2948   0.297   0.783   4.694
  657SOL    MW4 2949   0.273   0.703   4.718
  658SOL     OW 2950   1.344   1.455   5.472
  658SOL    HW2 2951   1.344   1.549   5.488
  658SOL    HW3 2952   1.389   1.445   5.388
  658SOL    MW4 2953   1.350   1.465   5.463
  659SOL     OW 2954   1.583   0.173   4.033
  659SOL    HW2 2955   1.576   0.177   4.128
  659SOL    HW3 2956   1.595   0.264   4.006
  659SOL    MW4 2957   1.584   0.186   4.041
  660SOL     OW 2958   0.872   0.736   4.147
  660SOL    HW2 2959   0.852   0.722   4.054
  660SOL    HW3 2960   0.965   0.715   4.154
  660SOL    MW4 2961   0.882   0.731   4.136
  661SOL     OW 2962   0.199   0.359   5.451
  661SOL    HW2 2963   0.156   0.418   5.388
  661SOL    HW3 2964   0.267   0.414   5.491
  661SOL    MW4 2965   0.203   0.374   5.448
  662SOL     OW 2966   1.311   0.979   4.996
  662SOL    HW2 2967   1.374   0.976   5.069
  662SOL    HW3 2968   1.227   0.997   5.038
  662SOL    MW4 2969   1.307   0.981   5.011
  663SOL     OW 2970   0.855   1.694   4.185
  663SOL    HW2 2971   0.913   1.765   4.212
  663SOL    HW3 2972   0.878   1.622   4.243
  663SOL    MW4 2973   0.866   1.694   4.196
  664SOL     OW 2974   1.650   0.156   4.775
  664SOL    HW2 2975   1.695   0.074   4.794
  664SOL    HW3 2976   1.670   0.212   4.851
  664SOL    MW4 2977   1.660   0.152   4.787
  665SOL     OW 2978   0.098  -0.001   4.874
  665SOL    HW2 2979   0.089   0.000   4.779
  665SOL    HW3 2980   0.192   0.011   4.889
  665SOL    MW4 2981   0.110   0.002   4.865
  666SOL     OW 2982   1.735   1.192   4.494
  666SOL    HW2 2983   1.714   1.138   4.417
  666SOL    HW3 2984   1.831   1.190   4.498
  666SOL    MW4 2985   1.744   1.185   4.483
  667SOL     OW 2986   0.427   1.337   5.237
  667SOL    HW2 2987   0.348   1.287   5.260
  667SOL    HW3 2988   0.497   1.296   5.287
  667SOL    MW4 2989   0.425   1.325   5.247
  668SOL     OW 2990   0.311   0.126   3.920
  668SOL    HW2 2991   0.240   0.181   3.888
  668SOL    HW3 2992   0.353   0.092   3.841
  668SOL    MW4 2993   0.307   0.128   3.906
  669SOL     OW 2994   1.435   0.623   4.756
  669SOL    HW2 2995   1.358   0.669   4.722
  669SOL    HW3 2996   1.492   0.692   4.790
  669SOL    MW4 2997   1.432   0.638   4.756
  670SOL     OW 2998   0.067   0.225   3.769
  670SOL    HW2 2999   0.034   0.304   3.813
  670SOL    HW3 3000   0.122   0.258   3.698
  670SOL    MW4 3001   0.070   0.239   3.766
  671SOL     OW 3002   0.101   1.482   3.958
  671SOL    HW2 3003   0.118   1.566   4.000
  671SOL    HW3 3004   0.136   1.491   3.870
  671SOL    MW4 3005   0.106   1.495   3.952
  672SOL     OW 3006   1.373   1.571   4.175
  672SOL    HW2 3007   1.436   1.561   4.104
  672SOL    HW3 3008   1.290   1.591   4.130
  672SOL    MW4 3009   1.370   1.572   4.160
  673SOL     OW 3010   1.736   0.839   5.862
  673SOL    HW2 3011   1.777   0.781   5.927
  673SOL    HW3 3012   1.643   0.831   5.879
  673SOL    MW4 3013   1.730   0.831   5.872
  674SOL     OW 3014   0.530   1.022   6.091
  674SOL    HW2 3015   0.620   0.997   6.075
  674SOL    HW3 3016   0.526   1.115   6.068
  674SOL    MW4 3017   0.542   1.031   6.086
  675SOL     OW 3018   1.646   1.725   6.233
  675SOL    HW2 3019   1.658   1.671   6.311
  675SOL    HW3 3020   1.683   1.673   6.162
  675SOL    MW4 3021   1.652   1.710   6.234
  676SOL     OW 3022   0.814   0.478   6.104
  676SOL    HW2 3023   0.789   0.566   6.132
  676SOL    HW3 3024   0.811   0.481   6.008
  676SOL    MW4 3025   0.810   0.490   6.096
  677SOL     OW 3026   0.256   0.506   6.032
  677SOL    HW2 3027   0.288   0.594   6.014
  677SOL    HW3 3028   0.244   0.504   6.127
  677SOL    MW4 3029   0.259   0.518   6.044
  678SOL     OW 3030   0.655   0.261   6.119
  678SOL    HW2 3031   0.713   0.337   6.121
  678SOL    HW3 3032   0.590   0.282   6.052
  678SOL    MW4 3033   0.654   0.273   6.110
  679SOL     OW 3034   0.742   1.188   6.294
  679SOL    HW2 3035   0.822   1.191   6.346
  679SOL    HW3 3036   0.770   1.155   6.208
  679SOL    MW4 3037   0.756   1.184   6.289
  680SOL     OW 3038   0.519   0.692   6.285
  680SOL    HW2 3039   0.504   0.612   6.336
  680SOL    HW3 3040   0.601   0.727   6.319
  680SOL    MW4 3041   0.527   0.684   6.297
  681SOL     OW 3042   0.104   1.778   6.441
  681SOL    HW2 3043   0.193   1.770   6.476
  681SOL    HW3 3044   0.068   1.690   6.446
  681SOL    MW4 3045   0.111   1.765   6.446
  682SOL     OW 3046   1.369   1.170   5.810
  682SOL    HW2 3047   1.287   1.206   5.776
  682SOL    HW3 3048   1.437   1.213   5.759
  682SOL    MW4 3049   1.367   1.180   5.798
  683SOL     OW 3050   0.368   1.305   6.476
  683SOL    HW2 3051   0.344   1.358   6.552
  683SOL    HW3 3052   0.424   1.363   6.424
  683SOL    MW4 3053   0.372   1.320   6.479
  684SOL     OW 3054   0.930   0.949   6.286
  684SOL    HW2 3055   0.844   0.936   6.326
  684SOL    HW3 3056   0.983   0.876   6.318
  684SOL    MW4 3057   0.926   0.938   6.295
  685SOL     OW 3058   0.921   1.311   6.003
  685SOL    HW2 3059   0.898   1.373   6.071
  685SOL    HW3 3060   0.878   1.229   6.029
  685SOL    MW4 3061   0.913   1.307   6.014
  686SOL     OW 3062   1.794   0.312   6.459
  686SOL    HW2 3063   1.731   0.292   6.528
  686SOL    HW3 3064   1.784   0.241   6.396
  686SOL    MW4 3065   1.784   0.299   6.460
  687SOL     OW 3066   0.418   0.284   5.971
  687SOL    HW2 3067   0.392   0.246   5.887
  687SOL    HW3 3068   0.355   0.354   5.987
  687SOL    MW4 3069   0.407   0.287   5.962
  688SOL     OW 3070   0.253   1.245   6.008
  688SOL    HW2 3071   0.201   1.313   5.964
  688SOL    HW3 3072   0.250   1.171   5.948
  688SOL    MW4 3073   0.245   1.244   5.995
  689SOL     OW 3074   0.915   1.708   5.786
  689SOL    HW2 3075   0.870   1.724   5.869
  689SOL    HW3 3076   0.846   1.673   5.728
  689SOL    MW4 3077   0.901   1.705   5.788
  690SOL     OW 3078   1.850   0.481   5.761
  690SOL    HW2 3079   1.759   0.483   5.789
  690SOL    HW3 3080   1.895   0.543   5.819
  690SOL    MW4 3081   1.843   0.489   5.771
  691SOL     OW 3082   1.595   1.084   6.111
  691SOL    HW2 3083   1.505   1.084   6.146
  691SOL    HW3 3084   1.588   1.130   6.028
  691SOL    MW4 3085   1.582   1.090   6.105
  692SOL     OW 3086   1.502   1.062   6.503
  692SOL    HW2 3087   1.505   0.996   6.434
  692SOL    HW3 3088   1.587   1.105   6.499
  692SOL    MW4 3089   1.514   1.058   6.494
  693SOL     OW 3090   1.122   0.665   6.072
  693SOL    HW2 3091   1.148   0.689   5.983
  693SOL    HW3 3092   1.104   0.572   6.068
  693SOL    MW4 3093   1.124   0.657   6.059
  694SOL     OW 3094   1.787   1.285   5.923
  694SOL    HW2 3095   1.743   1.326   5.998
  694SOL    HW3 3096   1.844   1.353   5.888
  694SOL    MW4 3097   1.789   1.299   5.928
  695SOL     OW 3098   0.443   1.701   6.241
  695SOL    HW2 3099   0.475   1.789   6.219
  695SOL    HW3 3100   0.396   1.673   6.163
  695SOL    MW4 3101   0.442   1.709   6.228
  696SOL     OW 3102   1.827   0.063   6.290
  696SOL    HW2 3103   1.881   0.014   6.352
  696SOL    HW3 3104   1.770  -0.003   6.251
  696SOL    MW4 3105   1.827   0.047   6.292
  697SOL     OW 3106   0.159   1.761   5.818
  697SOL    HW2 3107   0.188   1.851   5.810
  697SOL    HW3 3108   0.109   1.744   5.739
  697SOL    MW4 3109   0.157   1.769   5.807
  698SOL     OW 3110   1.563   1.569   5.789
  698SOL    HW2 3111   1.611   1.638   5.835
  698SOL    HW3 3112   1.484   1.613   5.758
  698SOL    MW4 3113   1.558   1.583   5.792
  699SOL     OW 3114   0.961   0.694   5.733
  699SOL    HW2 3115   0.963   0.641   5.654
  699SOL    HW3 3116   1.049   0.731   5.739
  699SOL    MW4 3117   0.973   0.693   5.722
  700SOL     OW 3118   1.575   0.620   6.069
  700SOL    HW2 3119   1.614   0.620   6.156
  700SOL    HW3 3120   1.516   0.696   6.069
  700SOL    MW4 3121   1.572   0.631   6.080
  701SOL     OW 3122   1.762   0.506   6.235
  701SOL    HW2 3123   1.851   0.475   6.252
  701SOL    HW3 3124   1.705   0.446   6.283
  701SOL    MW4 3125   1.765   0.494   6.244
  702SOL     OW 3126   0.188   0.220   6.264
  702SOL    HW2 3127   0.179   0.160   6.190
  702SOL    HW3 3128   0.121   0.191   6.327
  702SOL    MW4 3129   0.178   0.207   6.262
  703SOL     OW 3130   1.131   1.313   5.825
  703SOL    HW2 3131   1.081   1.315   5.907
  703SOL    HW3 3132   1.065   1.331   5.757
  703SOL    MW4 3133   1.117   1.315   5.827
  704SOL     OW 3134   0.594   1.731   5.933
  704SOL    HW2 3135   0.515   1.689   5.966
  704SOL    HW3 3136   0.660   1.714   6.000
  704SOL    MW4 3137   0.593   1.723   5.946
  705SOL     OW 3138   0.730   1.146   5.640
  705SOL    HW2 3139   0.652   1.092   5.627
  705SOL    HW3 3140   0.701   1.219   5.693
  705SOL    MW4 3141   0.716   1.148   5.645
  706SOL     OW 3142   1.311   1.662   5.708
  706SOL    HW2 3143   1.237   1.625   5.758
  706SOL    HW3 3144   1.319   1.752   5.741
  706SOL    MW4 3145   1.302   1.669   5.720
  707SOL     OW 3146   1.535   1.336   5.650
  707SOL    HW2 3147   1.482   1.385   5.586
  707SOL    HW3 3148   1.566   1.402   5.711
  707SOL    MW4 3149   1.533   1.350   5.648
  708SOL     OW 3150   0.760   0.225   5.705
  708SOL    HW2 3151   0.708   0.145   5.693
  708SOL    HW3 3152   0.847   0.202   5.673
  708SOL    MW4 3153   0.763   0.211   5.699
  709SOL     OW 3154   0.121   0.865   6.162
  709SOL    HW2 3155   0.212   0.880   6.189
  709SOL    HW3 3156   0.124   0.786   6.108
  709SOL    MW4 3157   0.133   0.857   6.160
  710SOL     OW 3158   0.748   1.797   6.536
  710SOL    HW2 3159   0.837   1.812   6.566
  710SOL    HW3 3160   0.743   1.844   6.452
  710SOL    MW4 3161   0.758   1.805   6.529
  711SOL     OW 3162   0.129   1.477   6.201
  711SOL    HW2 3163   0.101   1.516   6.283
  711SOL    HW3 3164   0.149   1.386   6.223
  711SOL    MW4 3165   0.127   1.469   6.214
  712SOL     OW 3166   0.962   1.520   6.236
  712SOL    HW2 3167   1.045   1.474   6.220
  712SOL    HW3 3168   0.952   1.519   6.332
  712SOL    MW4 3169   0.972   1.513   6.246
  713SOL     OW 3170   0.695   1.577   5.641
  713SOL    HW2 3171   0.635   1.646   5.611
  713SOL    HW3 3172   0.640   1.519   5.694
  713SOL    MW4 3173   0.679   1.579   5.643
  714SOL     OW 3174   1.133   0.222   5.864
  714SOL    HW2 3175   1.066   0.198   5.801
  714SOL    HW3 3176   1.198   0.271   5.813
  714SOL    MW4 3177   1.133   0.224   5.849
  715SOL     OW 3178   0.652   0.939   6.376
  715SOL    HW2 3179   0.563   0.930   6.409
  715SOL    HW3 3180   0.656   1.029   6.344
  715SOL    MW4 3181   0.641   0.950   6.376
  716SOL     OW 3182   1.451   0.522   6.371
  716SOL    HW2 3183   1.396   0.443   6.370
  716SOL    HW3 3184   1.433   0.563   6.455
  716SOL    MW4 3185   1.441   0.517   6.380
  717SOL     OW 3186   1.070   0.726   6.328
  717SOL    HW2 3187   1.007   0.658   6.352
  717SOL    HW3 3188   1.090   0.707   6.236
  717SOL    MW4 3189   1.064   0.713   6.320
  718SOL     OW 3190   0.326   1.621   6.030
  718SOL    HW2 3191   0.287   1.668   5.956
  718SOL    HW3 3192   0.260   1.556   6.055
  718SOL    MW4 3193   0.313   1.619   6.024
  719SOL     OW 3194   0.818   1.030   6.054
  719SOL    HW2 3195   0.820   1.004   5.961
  719SOL    HW3 3196   0.876   0.967   6.097
  719SOL    MW4 3197   0.826   1.019   6.048
  720SOL     OW 3198   1.375   1.798   6.256
  720SOL    HW2 3199   1.318   1.751   6.195
  720SOL    HW3 3200   1.461   1.759   6.243
  720SOL    MW4 3201   1.378   1.789   6.246
  721SOL     OW 3202   1.328   0.274   6.387
  721SOL    HW2 3203   1.356   0.206   6.448
  721SOL    HW3 3204   1.242   0.245   6.357
  721SOL    MW4 3205   1.321   0.261   6.391
  722SOL     OW 3206   0.133   1.208   6.321
  722SOL    HW2 3207   0.197   1.240   6.384
  722SOL    HW3 3208   0.182   1.144   6.269
  722SOL    MW4 3209   0.148   1.204   6.322
  723SOL     OW 3210   1.308   0.378   5.722
  723SOL    HW2 3211   1.281   0.444   5.658
  723SOL    HW3 3212   1.378   0.421   5.772
  723SOL    MW4 3213   1.313   0.391   5.719
  724SOL     OW 3214   0.976   0.083   5.659
  724SOL    HW2 3215   1.032   0.075   5.581
  724SOL    HW3 3216   0.953  -0.007   5.681
  724SOL    MW4 3217   0.981   0.070   5.652
  725SOL     OW 3218   1.481   0.934   5.864
  725SOL    HW2 3219   1.448   1.023   5.854
  725SOL    HW3 3220   1.446   0.905   5.949
  725SOL    MW4 3221   1.471   0.943   5.875
  726SOL     OW 3222   0.475   0.972   5.656
  726SOL    HW2 3223   0.398   0.985   5.712
  726SOL    HW3 3224   0.439   0.936   5.575
  726SOL    MW4 3225   0.461   0.968   5.653
  727SOL     OW 3226   1.128   0.945   5.899
  727SOL    HW2 3227   1.038   0.966   5.874
  727SOL    HW3 3228   1.155   1.018   5.955
  727SOL    MW4 3229   1.120   0.957   5.902
  728SOL     OW 3230   0.757   0.061   6.306
  728SOL    HW2 3231   0.686   0.122   6.288
  728SOL    HW3 3232   0.808   0.058   6.225
  728SOL    MW4 3233   0.753   0.067   6.293
  729SOL     OW 3234   0.515   1.301   6.055
  729SOL    HW2 3235   0.508   1.333   6.145
  729SOL    HW3 3236   0.425   1.285   6.027
  729SOL    MW4 3237   0.503   1.303   6.062
  730SOL     OW 3238   1.224   1.659   6.454
  730SOL    HW2 3239   1.271   1.732   6.413
  730SOL    HW3 3240   1.145   1.698   6.490
  730SOL    MW4 3241   1.219   1.674   6.453
  731SOL     OW 3242   0.518   0.585   5.769
  731SOL    HW2 3243   0.484   0.641   5.839
  731SOL    HW3 3244   0.589   0.535   5.809
  731SOL    MW4 3245   0.524   0.586   5.783
  732SOL     OW 3246   1.574   0.471   5.833
  732SOL    HW2 3247   1.566   0.542   5.770
  732SOL    HW3 3248   1.592   0.515   5.916
  732SOL    MW4 3249   1.575   0.485   5.835
  733SOL     OW 3250   0.434   0.126   6.262
  733SOL    HW2 3251   0.484   0.169   6.193
  733SOL    HW3 3252   0.349   0.170   6.262
  733SOL    MW4 3253   0.431   0.139   6.253
  734SOL     OW 3254   1.243   0.733   5.808
  734SOL    HW2 3255   1.290   0.751   5.727
  734SOL    HW3 3256   1.209   0.817   5.836
  734SOL    MW4 3257   1.245   0.747   5.801
  735SOL     OW 3258   0.356   0.911   6.302
  735SOL    HW2 3259   0.414   0.967   6.250
  735SOL    HW3 3260   0.400   0.826   6.304
  735SOL    MW4 3261   0.369   0.908   6.295
  736SOL     OW 3262   1.496   0.263   6.139
  736SOL    HW2 3263   1.418   0.213   6.164
  736SOL    HW3 3264   1.467   0.354   6.139
  736SOL    MW4 3265   1.482   0.267   6.142
  737SOL     OW 3266   1.082   0.225   6.298
  737SOL    HW2 3267   1.102   0.300   6.242
  737SOL    HW3 3268   1.062   0.264   6.383
  737SOL    MW4 3269   1.083   0.241   6.302
  738SOL     OW 3270   0.978   1.475   5.630
  738SOL    HW2 3271   1.005   1.553   5.582
  738SOL    HW3 3272   0.885   1.490   5.649
  738SOL    MW4 3273   0.969   1.488   5.626
  739SOL     OW 3274   0.018   0.637   6.021
  739SOL    HW2 3275  -0.042   0.609   6.091
  739SOL    HW3 3276   0.092   0.577   6.027
  739SOL    MW4 3277   0.020   0.626   6.030
  740SOL     OW 3278   1.186   1.368   6.181
  740SOL    HW2 3279   1.209   1.319   6.259
  740SOL    HW3 3280   1.267   1.410   6.153
  740SOL    MW4 3281   1.199   1.368   6.188
  741SOL     OW 3282   0.541   0.121   6.537
  741SOL    HW2 3283   0.551   0.030   6.563
  741SOL    HW3 3284   0.497   0.117   6.452
  741SOL    MW4 3285   0.537   0.109   6.529
  742SOL     OW 3286   1.326   0.035   5.817
  742SOL    HW2 3287   1.400   0.079   5.860
  742SOL    HW3 3288   1.250   0.089   5.839
  742SOL    MW4 3289   1.326   0.047   5.825
  743SOL     OW 3290   1.386   0.810   6.095
  743SOL    HW2 3291   1.301   0.780   6.065
  743SOL    HW3 3292   1.378   0.817   6.190
  743SOL    MW4 3293   1.374   0.808   6.104
  744SOL     OW 3294   0.759   0.476   5.821
  744SOL    HW2 3295   0.832   0.525   5.784
  744SOL    HW3 3296   0.775   0.385   5.795
  744SOL    MW4 3297   0.771   0.471   5.814
  745SOL     OW 3298   0.234   0.985   5.919
  745SOL    HW2 3299   0.171   1.001   5.848
  745SOL    HW3 3300   0.181   0.948   5.990
  745SOL    MW4 3301   0.219   0.982   5.919
  746SOL     OW 3302   0.590   1.339   5.778
  746SOL    HW2 3303   0.605   1.315   5.870
  746SOL    HW3 3304   0.498   1.317   5.762
  746SOL    MW4 3305   0.580   1.332   5.788
  747SOL     OW 3306   1.129   1.570   5.930
  747SOL    HW2 3307   1.137   1.488   5.881
  747SOL    HW3 3308   1.048   1.609   5.897
  747SOL    MW4 3309   1.119   1.565   5.920
  748SOL     OW 3310   0.388   1.728   6.499
  748SOL    HW2 3311   0.392   1.639   6.534
  748SOL    HW3 3312   0.414   1.719   6.408
  748SOL    MW4 3313   0.391   1.716   6.491
  749SOL     OW 3314   0.465   0.451   6.376
  749SOL    HW2 3315   0.536   0.399   6.339
  749SOL    HW3 3316   0.451   0.416   6.463
  749SOL    MW4 3317   0.473   0.440   6.383
  750SOL     OW 3318   0.781   1.544   6.452
  750SOL    HW2 3319   0.709   1.481   6.465
  750SOL    HW3 3320   0.742   1.629   6.470
  750SOL    MW4 3321   0.765   1.547   6.455
  751SOL     OW 3322   1.101   0.392   6.100
  751SOL    HW2 3323   1.123   0.329   6.032
  751SOL    HW3 3324   1.006   0.384   6.111
  751SOL    MW4 3325   1.091   0.383   6.092
  752SOL     OW 3326   0.186   0.082   6.032
  752SOL    HW2 3327   0.257   0.103   5.971
  752SOL    HW3 3328   0.140   0.010   5.990
  752SOL    MW4 3329   0.190   0.076   6.018
  753SOL     OW 3330   1.755   1.456   6.132
  753SOL    HW2 3331   1.725   1.389   6.193
  753SOL    HW3 3332   1.849   1.462   6.146
  753SOL    MW4 3333   1.763   1.448   6.142
  754SOL     OW 3334   1.311   1.133   6.062
  754SOL    HW2 3335   1.283   1.219   6.095
  754SOL    HW3 3336   1.339   1.149   5.972
  754SOL    MW4 3337   1.311   1.147   6.054
  755SOL     OW 3338   0.973   0.053   6.115
  755SOL    HW2 3339   1.010   0.112   6.180
  755SOL    HW3 3340   0.950   0.109   6.041
  755SOL    MW4 3341   0.974   0.068   6.114
  756SOL     OW 3342   1.826   0.935   6.537
  756SOL    HW2 3343   1.817   0.967   6.448
  756SOL    HW3 3344   1.779   0.851   6.537
  756SOL    MW4 3345   1.819   0.928   6.527
  757SOL     OW 3346   1.738   0.866   6.238
  757SOL    HW2 3347   1.832   0.855   6.226
  757SOL    HW3 3348   1.714   0.938   6.179
  757SOL    MW4 3349   1.748   0.874   6.229
  758SOL     OW 3350   0.394   0.744   6.011
  758SOL    HW2 3351   0.394   0.839   5.996
  758SOL    HW3 3352   0.471   0.728   6.065
  758SOL    MW4 3353   0.404   0.755   6.016
  759SOL     OW 3354   0.153   0.475   6.300
  759SOL    HW2 3355   0.215   0.482   6.373
  759SOL    HW3 3356   0.153   0.382   6.277
  759SOL    MW4 3357   0.161   0.464   6.307
  760SOL     OW 3358   1.700   1.815   5.832
  760SOL    HW2 3359   1.767   1.848   5.772
  760SOL    HW3 3360   1.657   1.894   5.866
  760SOL    MW4 3361   1.702   1.830   5.828
  761SOL     OW 3362   0.022   1.047   5.758
  761SOL    HW2 3363  -0.009   1.112   5.821
  761SOL    HW3 3364  -0.029   0.969   5.777
  761SOL    MW4 3365   0.012   1.044   5.768
  762SOL     OW 3366   1.434   0.059   6.506
  762SOL    HW2 3367   1.522   0.068   6.543
  762SOL    HW3 3368   1.444   0.000   6.432
  762SOL    MW4 3369   1.448   0.053   6.500
  763SOL     OW 3370   1.466   0.798   6.350
  763SOL    HW2 3371   1.546   0.813   6.299
  763SOL    HW3 3372   1.459   0.703   6.356
  763SOL    MW4 3373   1.475   0.787   6.345
  764SOL     OW 3374   0.606   1.847   5.700
  764SOL    HW2 3375   0.511   1.847   5.692
  764SOL    HW3 3376   0.622   1.793   5.778
  764SOL    MW4 3377   0.596   1.841   5.709
  765SOL     OW 3378   1.451   0.667   5.615
  765SOL    HW2 3379   1.379   0.643   5.557
  765SOL    HW3 3380   1.517   0.704   5.557
  765SOL    MW4 3381   1.450   0.669   5.600
  766SOL     OW 3382   0.585   1.399   6.296
  766SOL    HW2 3383   0.650   1.332   6.317
  766SOL    HW3 3384   0.637   1.476   6.273
  766SOL    MW4 3385   0.600   1.401   6.295
  767SOL     OW 3386   0.846   0.564   6.426
  767SOL    HW2 3387   0.786   0.582   6.498
  767SOL    HW3 3388   0.880   0.476   6.445
  767SOL    MW4 3389   0.842   0.554   6.439
  768SOL     OW 3390   1.071   1.147   6.445
  768SOL    HW2 3391   1.163   1.128   6.463
  768SOL    HW3 3392   1.044   1.077   6.385
  768SOL    MW4 3393   1.079   1.135   6.439
  769SOL     OW 3394   0.864   0.967   5.800
  769SOL    HW2 3395   0.850   0.879   5.765
  769SOL    HW3 3396   0.815   1.024   5.741
  769SOL    MW4 3397   0.856   0.962   5.788
  770SOL     OW 3398   1.583   0.173   5.902
  770SOL    HW2 3399   1.576   0.177   5.997
  770SOL    HW3 3400   1.595   0.264   5.875
  770SOL    MW4 3401   1.584   0.186   5.910
  771SOL     OW 3402   0.872   0.736   6.016
  771SOL    HW2 3403   0.852   0.722   5.923
  771SOL    HW3 3404   0.965   0.715   6.023
  771SOL    MW4 3405   0.882   0.731   6.005
  772SOL     OW 3406   0.855   1.694   6.054
  772SOL    HW2 3407   0.913   1.765   6.081
  772SOL    HW3 3408   0.878   1.622   6.112
  772SOL    MW4 3409   0.866   1.694   6.065
  773SOL     OW 3410   1.735   1.192   6.363
  773SOL    HW2 3411   1.714   1.138   6.286
  773SOL    HW3 3412   1.831   1.190   6.367
  773SOL    MW4 3413   1.744   1.185   6.352
  774SOL     OW 3414   0.311   0.126   5.789
  774SOL    HW2 3415   0.240   0.181   5.757
  774SOL    HW3 3416   0.353   0.092   5.710
  774SOL    MW4 3417   0.307   0.128   5.775
  775SOL     OW 3418   0.067   0.225   5.638
  775SOL    HW2 3419   0.034   0.304   5.682
  775SOL    HW3 3420   0.122   0.258   5.567
  775SOL    MW4 3421   0.070   0.239   5.635
  776SOL     OW 3422   0.101   1.482   5.827
  776SOL    HW2 3423   0.118   1.566   5.869
  776SOL    HW3 3424   0.136   1.491   5.739
  776SOL    MW4 3425   0.106   1.495   5.821
  777SOL     OW 3426   1.373   1.571   6.044
  777SOL    HW2 3427   1.436   1.561   5.973
  777SOL    HW3 3428   1.290   1.591   5.999
  777SOL    MW4 3429   1.370   1.572   6.029
  778SOL     OW 3430   1.736   2.707   0.257
  778SOL    HW2 3431   1.777   2.649   0.322
  778SOL    HW3 3432   1.643   2.699   0.274
  778SOL    MW4 3433   1.730   2.699   0.267
  779SOL     OW 3434   1.602   2.639   1.252
  779SOL    HW2 3435   1.557   2.706   1.303
  779SOL    HW3 3436   1.690   2.675   1.238
  779SOL    MW4 3437   1.608   2.652   1.256
  780SOL     OW 3438   0.530   2.890   0.486
  780SOL    HW2 3439   0.620   2.865   0.470
  780SOL    HW3 3440   0.526   2.983   0.463
  780SOL    MW4 3441   0.542   2.899   0.481
  781SOL     OW 3442   1.646   3.593   0.628
  781SOL    HW2 3443   1.658   3.539   0.706
  781SOL    HW3 3444   1.683   3.541   0.557
  781SOL    MW4 3445   1.652   3.578   0.629
  782SOL     OW 3446   1.025   3.478   1.629
  782SOL    HW2 3447   1.066   3.514   1.550
  782SOL    HW3 3448   1.060   3.389   1.636
  782SOL    MW4 3449   1.036   3.471   1.620
  783SOL     OW 3450   1.582   3.033   1.233
  783SOL    HW2 3451   1.503   2.998   1.191
  783SOL    HW3 3452   1.609   3.105   1.177
  783SOL    MW4 3453   1.575   3.038   1.220
  784SOL     OW 3454   0.814   2.346   0.499
  784SOL    HW2 3455   0.789   2.434   0.527
  784SOL    HW3 3456   0.811   2.349   0.403
  784SOL    MW4 3457   0.810   2.358   0.491
  785SOL     OW 3458   0.256   2.374   0.427
  785SOL    HW2 3459   0.288   2.462   0.409
  785SOL    HW3 3460   0.244   2.372   0.522
  785SOL    MW4 3461   0.259   2.386   0.439
  786SOL     OW 3462   0.334   2.787   1.328
  786SOL    HW2 3463   0.397   2.734   1.279
  786SOL    HW3 3464   0.315   2.861   1.271
  786SOL    MW4 3465   0.340   2.789   1.315
  787SOL     OW 3466   0.655   2.129   0.514
  787SOL    HW2 3467   0.713   2.205   0.516
  787SOL    HW3 3468   0.590   2.150   0.447
  787SOL    MW4 3469   0.654   2.141   0.505
  788SOL     OW 3470   0.742   3.056   0.689
  788SOL    HW2 3471   0.822   3.059   0.741
  788SOL    HW3 3472   0.770   3.023   0.603
  788SOL    MW4 3473   0.756   3.052   0.684
  789SOL     OW 3474   0.767   3.397   1.592
  789SOL    HW2 3475   0.851   3.423   1.631
  789SOL    HW3 3476   0.791   3.341   1.518
  789SOL    MW4 3477   0.781   3.393   1.587
  790SOL     OW 3478   0.519   2.560   0.680
  790SOL    HW2 3479   0.504   2.480   0.731
  790SOL    HW3 3480   0.601   2.595   0.714
  790SOL    MW4 3481   0.527   2.552   0.692
  791SOL     OW 3482   0.856   3.246   1.365
  791SOL    HW2 3483   0.820   3.312   1.305
  791SOL    HW3 3484   0.784   3.184   1.378
  791SOL    MW4 3485   0.842   3.246   1.359
  792SOL     OW 3486   0.661   2.386   1.057
  792SOL    HW2 3487   0.567   2.382   1.075
  792SOL    HW3 3488   0.691   2.295   1.066
  792SOL    MW4 3489   0.652   2.374   1.060
  793SOL     OW 3490   0.407   2.800   0.961
  793SOL    HW2 3491   0.362   2.807   0.877
  793SOL    HW3 3492   0.387   2.883   1.005
  793SOL    MW4 3493   0.399   2.812   0.955
  794SOL     OW 3494   0.104   3.646   0.836
  794SOL    HW2 3495   0.193   3.638   0.871
  794SOL    HW3 3496   0.068   3.558   0.841
  794SOL    MW4 3497   0.111   3.633   0.841
  795SOL     OW 3498   1.369   3.038   0.205
  795SOL    HW2 3499   1.287   3.074   0.171
  795SOL    HW3 3500   1.437   3.081   0.154
  795SOL    MW4 3501   1.367   3.048   0.193
  796SOL     OW 3502   0.368   3.173   0.871
  796SOL    HW2 3503   0.344   3.226   0.947
  796SOL    HW3 3504   0.424   3.231   0.819
  796SOL    MW4 3505   0.372   3.188   0.874
  797SOL     OW 3506   0.930   2.817   0.681
  797SOL    HW2 3507   0.844   2.804   0.721
  797SOL    HW3 3508   0.983   2.744   0.713
  797SOL    MW4 3509   0.926   2.806   0.690
  798SOL     OW 3510   0.338   3.469   1.466
  798SOL    HW2 3511   0.246   3.445   1.451
  798SOL    HW3 3512   0.382   3.386   1.483
  798SOL    MW4 3513   0.332   3.454   1.465
  799SOL     OW 3514   0.921   3.179   0.398
  799SOL    HW2 3515   0.898   3.241   0.466
  799SOL    HW3 3516   0.878   3.097   0.424
  799SOL    MW4 3517   0.913   3.175   0.409
  800SOL     OW 3518   1.794   2.180   0.854
  800SOL    HW2 3519   1.731   2.160   0.923
  800SOL    HW3 3520   1.784   2.109   0.791
  800SOL    MW4 3521   1.784   2.167   0.855
  801SOL     OW 3522   0.418   2.152   0.366
  801SOL    HW2 3523   0.392   2.114   0.282
  801SOL    HW3 3524   0.355   2.222   0.382
  801SOL    MW4 3525   0.407   2.155   0.357
  802SOL     OW 3526   0.253   3.113   0.403
  802SOL    HW2 3527   0.201   3.181   0.359
  802SOL    HW3 3528   0.250   3.039   0.343
  802SOL    MW4 3529   0.245   3.112   0.390
  803SOL     OW 3530   0.915   3.576   0.181
  803SOL    HW2 3531   0.870   3.592   0.264
  803SOL    HW3 3532   0.846   3.541   0.123
  803SOL    MW4 3533   0.901   3.573   0.183
  804SOL     OW 3534   1.850   2.349   0.156
  804SOL    HW2 3535   1.759   2.351   0.184
  804SOL    HW3 3536   1.895   2.411   0.214
  804SOL    MW4 3537   1.843   2.357   0.166
  805SOL     OW 3538   1.595   2.952   0.506
  805SOL    HW2 3539   1.505   2.952   0.541
  805SOL    HW3 3540   1.588   2.998   0.423
  805SOL    MW4 3541   1.582   2.958   0.500
  806SOL     OW 3542   1.395   2.587   1.578
  806SOL    HW2 3543   1.464   2.525   1.555
  806SOL    HW3 3544   1.320   2.561   1.525
  806SOL    MW4 3545   1.395   2.574   1.569
  807SOL     OW 3546   0.136   3.467   1.130
  807SOL    HW2 3547   0.119   3.413   1.207
  807SOL    HW3 3548   0.124   3.557   1.160
  807SOL    MW4 3549   0.133   3.471   1.144
  808SOL     OW 3550   1.131   2.974   1.570
  808SOL    HW2 3551   1.116   3.067   1.555
  808SOL    HW3 3552   1.226   2.964   1.570
  808SOL    MW4 3553   1.140   2.984   1.567
  809SOL     OW 3554   0.927   2.398   1.771
  809SOL    HW2 3555   1.017   2.399   1.738
  809SOL    HW3 3556   0.886   2.323   1.729
  809SOL    MW4 3557   0.933   2.388   1.762
  810SOL     OW 3558   1.502   2.930   0.898
  810SOL    HW2 3559   1.505   2.864   0.829
  810SOL    HW3 3560   1.587   2.973   0.894
  810SOL    MW4 3561   1.514   2.926   0.889
  811SOL     OW 3562   1.122   2.533   0.467
  811SOL    HW2 3563   1.148   2.557   0.378
  811SOL    HW3 3564   1.104   2.440   0.463
  811SOL    MW4 3565   1.124   2.525   0.454
  812SOL     OW 3566   1.787   3.153   0.318
  812SOL    HW2 3567   1.743   3.194   0.393
  812SOL    HW3 3568   1.844   3.221   0.283
  812SOL    MW4 3569   1.789   3.167   0.323
  813SOL     OW 3570   0.707   2.202   1.721
  813SOL    HW2 3571   0.717   2.128   1.661
  813SOL    HW3 3572   0.743   2.171   1.804
  813SOL    MW4 3573   0.713   2.188   1.723
  814SOL     OW 3574   0.443   3.569   0.636
  814SOL    HW2 3575   0.475   3.657   0.614
  814SOL    HW3 3576   0.396   3.541   0.558
  814SOL    MW4 3577   0.442   3.577   0.623
  815SOL     OW 3578   1.827   1.931   0.685
  815SOL    HW2 3579   1.881   1.882   0.747
  815SOL    HW3 3580   1.770   1.865   0.646
  815SOL    MW4 3581   1.827   1.915   0.687
  816SOL     OW 3582   0.159   3.629   0.213
  816SOL    HW2 3583   0.188   3.719   0.205
  816SOL    HW3 3584   0.109   3.612   0.134
  816SOL    MW4 3585   0.157   3.637   0.202
  817SOL     OW 3586   0.946   1.884   1.098
  817SOL    HW2 3587   0.905   1.962   1.060
  817SOL    HW3 3588   1.040   1.902   1.093
  817SOL    MW4 3589   0.952   1.896   1.093
  818SOL     OW 3590   1.563   3.437   0.184
  818SOL    HW2 3591   1.611   3.506   0.230
  818SOL    HW3 3592   1.484   3.481   0.153
  818SOL    MW4 3593   1.558   3.451   0.187
  819SOL     OW 3594   0.961   2.562   0.128
  819SOL    HW2 3595   0.963   2.509   0.049
  819SOL    HW3 3596   1.049   2.599   0.134
  819SOL    MW4 3597   0.973   2.561   0.117
  820SOL     OW 3598   1.575   2.488   0.464
  820SOL    HW2 3599   1.614   2.488   0.551
  820SOL    HW3 3600   1.516   2.564   0.464
  820SOL    MW4 3601   1.572   2.499   0.475
  821SOL     OW 3602   0.892   2.855   1.593
  821SOL    HW2 3603   0.869   2.835   1.683
  821SOL    HW3 3604   0.977   2.899   1.598
  821SOL    MW4 3605   0.899   2.858   1.605
  822SOL     OW 3606   0.972   1.992   1.353
  822SOL    HW2 3607   0.978   1.954   1.266
  822SOL    HW3 3608   0.961   2.086   1.338
  822SOL    MW4 3609   0.973   2.000   1.341
  823SOL     OW 3610   1.061   2.481   1.187
  823SOL    HW2 3611   1.136   2.510   1.134
  823SOL    HW3 3612   0.993   2.546   1.171
  823SOL    MW4 3613   1.062   2.493   1.177
  824SOL     OW 3614   1.611   2.449   1.464
  824SOL    HW2 3615   1.592   2.358   1.443
  824SOL    HW3 3616   1.589   2.498   1.385
  824SOL    MW4 3617   1.606   2.442   1.451
  825SOL     OW 3618   1.753   3.543   1.368
  825SOL    HW2 3619   1.681   3.505   1.419
  825SOL    HW3 3620   1.770   3.628   1.409
  825SOL    MW4 3621   1.747   3.548   1.380
  826SOL     OW 3622   1.058   2.187   1.570
  826SOL    HW2 3623   1.024   2.226   1.489
  826SOL    HW3 3624   1.036   2.095   1.563
  826SOL    MW4 3625   1.051   2.180   1.560
  827SOL     OW 3626   1.467   3.001   1.646
  827SOL    HW2 3627   1.549   3.042   1.676
  827SOL    HW3 3628   1.430   2.963   1.726
  827SOL    MW4 3629   1.473   3.002   1.661
  828SOL     OW 3630   1.762   2.374   0.630
  828SOL    HW2 3631   1.851   2.343   0.647
  828SOL    HW3 3632   1.705   2.314   0.678
  828SOL    MW4 3633   1.765   2.362   0.639
  829SOL     OW 3634   0.188   2.088   0.659
  829SOL    HW2 3635   0.179   2.028   0.585
  829SOL    HW3 3636   0.121   2.059   0.722
  829SOL    MW4 3637   0.178   2.075   0.657
  830SOL     OW 3638   1.131   3.181   0.220
  830SOL    HW2 3639   1.081   3.183   0.302
  830SOL    HW3 3640   1.065   3.199   0.152
  830SOL    MW4 3641   1.117   3.183   0.222
  831SOL     OW 3642   0.135   2.261   1.022
  831SOL    HW2 3643   0.107   2.352   1.031
  831SOL    HW3 3644   0.072   2.222   0.961
  831SOL    MW4 3645   0.122   2.267   1.016
  832SOL     OW 3646   0.594   3.599   0.328
  832SOL    HW2 3647   0.515   3.557   0.361
  832SOL    HW3 3648   0.660   3.582   0.395
  832SOL    MW4 3649   0.593   3.591   0.341
  833SOL     OW 3650   1.722   3.119   1.725
  833SOL    HW2 3651   1.772   3.045   1.757
  833SOL    HW3 3652   1.668   3.146   1.800
  833SOL    MW4 3653   1.722   3.113   1.738
  834SOL     OW 3654   0.730   3.014   0.035
  834SOL    HW2 3655   0.652   2.960   0.022
  834SOL    HW3 3656   0.701   3.087   0.088
  834SOL    MW4 3657   0.716   3.016   0.040
  835SOL     OW 3658   1.856   2.754   1.227
  835SOL    HW2 3659   1.872   2.792   1.140
  835SOL    HW3 3660   1.890   2.820   1.288
  835SOL    MW4 3661   1.863   2.767   1.223
  836SOL     OW 3662   1.648   3.463   0.896
  836SOL    HW2 3663   1.677   3.530   0.957
  836SOL    HW3 3664   1.629   3.387   0.951
  836SOL    MW4 3665   1.650   3.463   0.911
  837SOL     OW 3666   1.311   3.530   0.103
  837SOL    HW2 3667   1.237   3.493   0.153
  837SOL    HW3 3668   1.319   3.620   0.136
  837SOL    MW4 3669   1.302   3.537   0.115
  838SOL     OW 3670   0.119   2.536   1.192
  838SOL    HW2 3671   0.181   2.566   1.258
  838SOL    HW3 3672   0.053   2.605   1.186
  838SOL    MW4 3673   0.118   2.549   1.199
  839SOL     OW 3674   1.535   3.204   0.045
  839SOL    HW2 3675   1.482   3.253  -0.019
  839SOL    HW3 3676   1.566   3.270   0.106
  839SOL    MW4 3677   1.533   3.218   0.043
  840SOL     OW 3678   0.760   2.093   0.100
  840SOL    HW2 3679   0.708   2.013   0.088
  840SOL    HW3 3680   0.847   2.070   0.068
  840SOL    MW4 3681   0.763   2.079   0.094
  841SOL     OW 3682   0.214   3.645   1.644
  841SOL    HW2 3683   0.188   3.713   1.582
  841SOL    HW3 3684   0.262   3.582   1.592
  841SOL    MW4 3685   0.216   3.645   1.630
  842SOL     OW 3686   0.266   2.964   1.151
  842SOL    HW2 3687   0.319   3.039   1.176
  842SOL    HW3 3688   0.185   3.002   1.117
  842SOL    MW4 3689   0.262   2.979   1.151
  843SOL     OW 3690   0.806   2.868   1.139
  843SOL    HW2 3691   0.834   2.777   1.151
  843SOL    HW3 3692   0.735   2.862   1.075
  843SOL    MW4 3693   0.799   2.856   1.134
  844SOL     OW 3694   0.121   2.733   0.557
  844SOL    HW2 3695   0.212   2.748   0.584
  844SOL    HW3 3696   0.124   2.654   0.503
  844SOL    MW4 3697   0.133   2.725   0.555
  845SOL     OW 3698   0.357   2.441   1.811
  845SOL    HW2 3699   0.304   2.521   1.818
  845SOL    HW3 3700   0.427   2.453   1.876
  845SOL    MW4 3701   0.359   2.454   1.819
  846SOL     OW 3702   0.743   1.991   1.518
  846SOL    HW2 3703   0.720   1.899   1.520
  846SOL    HW3 3704   0.829   1.993   1.475
  846SOL    MW4 3705   0.750   1.981   1.514
  847SOL     OW 3706   0.427   2.515   1.557
  847SOL    HW2 3707   0.507   2.565   1.543
  847SOL    HW3 3708   0.418   2.509   1.652
  847SOL    MW4 3709   0.436   2.521   1.567
  848SOL     OW 3710   0.748   3.665   0.931
  848SOL    HW2 3711   0.837   3.680   0.961
  848SOL    HW3 3712   0.743   3.712   0.847
  848SOL    MW4 3713   0.758   3.673   0.924
  849SOL     OW 3714   1.404   2.040   1.828
  849SOL    HW2 3715   1.460   1.967   1.854
  849SOL    HW3 3716   1.374   2.078   1.910
  849SOL    MW4 3717   1.408   2.035   1.841
  850SOL     OW 3718   0.129   3.345   0.596
  850SOL    HW2 3719   0.101   3.384   0.678
  850SOL    HW3 3720   0.149   3.254   0.618
  850SOL    MW4 3721   0.127   3.337   0.609
  851SOL     OW 3722   0.962   3.388   0.631
  851SOL    HW2 3723   1.045   3.342   0.615
  851SOL    HW3 3724   0.952   3.387   0.727
  851SOL    MW4 3725   0.972   3.381   0.641
  852SOL     OW 3726   1.794   2.533   0.945
  852SOL    HW2 3727   1.883   2.563   0.927
  852SOL    HW3 3728   1.774   2.473   0.874
  852SOL    MW4 3729   1.803   2.530   0.934
  853SOL     OW 3730   1.645   2.712   1.825
  853SOL    HW2 3731   1.700   2.636   1.806
  853SOL    HW3 3732   1.647   2.720   1.920
  853SOL    MW4 3733   1.653   2.703   1.833
  854SOL     OW 3734   0.695   3.445   0.036
  854SOL    HW2 3735   0.635   3.514   0.006
  854SOL    HW3 3736   0.640   3.387   0.089
  854SOL    MW4 3737   0.679   3.447   0.038
  855SOL     OW 3738   1.133   2.090   0.259
  855SOL    HW2 3739   1.066   2.066   0.196
  855SOL    HW3 3740   1.198   2.139   0.208
  855SOL    MW4 3741   1.133   2.092   0.244
  856SOL     OW 3742   0.940   2.274   1.344
  856SOL    HW2 3743   0.859   2.315   1.372
  856SOL    HW3 3744   0.987   2.342   1.296
  856SOL    MW4 3745   0.935   2.289   1.342
  857SOL     OW 3746   1.200   2.612   0.967
  857SOL    HW2 3747   1.213   2.706   0.977
  857SOL    HW3 3748   1.161   2.602   0.881
  857SOL    MW4 3749   1.196   2.623   0.957
  858SOL     OW 3750   0.652   2.807   0.771
  858SOL    HW2 3751   0.563   2.798   0.804
  858SOL    HW3 3752   0.656   2.897   0.739
  858SOL    MW4 3753   0.641   2.818   0.771
  859SOL     OW 3754   1.451   2.390   0.766
  859SOL    HW2 3755   1.396   2.311   0.765
  859SOL    HW3 3756   1.433   2.431   0.850
  859SOL    MW4 3757   1.441   2.385   0.775
  860SOL     OW 3758   0.422   2.077   1.583
  860SOL    HW2 3759   0.343   2.095   1.635
  860SOL    HW3 3760   0.417   2.139   1.510
  860SOL    MW4 3761   0.412   2.087   1.580
  861SOL     OW 3762   1.070   2.594   0.723
  861SOL    HW2 3763   1.007   2.526   0.747
  861SOL    HW3 3764   1.090   2.575   0.631
  861SOL    MW4 3765   1.064   2.581   0.715
  862SOL     OW 3766   0.326   3.489   0.425
  862SOL    HW2 3767   0.287   3.536   0.351
  862SOL    HW3 3768   0.260   3.424   0.450
  862SOL    MW4 3769   0.313   3.487   0.419
  863SOL     OW 3770   0.818   2.898   0.449
  863SOL    HW2 3771   0.820   2.872   0.356
  863SOL    HW3 3772   0.876   2.835   0.492
  863SOL    MW4 3773   0.826   2.887   0.443
  864SOL     OW 3774   1.371   3.458   1.221
  864SOL    HW2 3775   1.296   3.504   1.259
  864SOL    HW3 3776   1.353   3.365   1.238
  864SOL    MW4 3777   1.360   3.452   1.229
  865SOL     OW 3778   1.375   3.666   0.651
  865SOL    HW2 3779   1.318   3.619   0.590
  865SOL    HW3 3780   1.461   3.627   0.638
  865SOL    MW4 3781   1.378   3.657   0.641
  866SOL     OW 3782   1.328   2.142   0.782
  866SOL    HW2 3783   1.356   2.074   0.843
  866SOL    HW3 3784   1.242   2.113   0.752
  866SOL    MW4 3785   1.321   2.129   0.786
  867SOL     OW 3786   0.133   3.076   0.716
  867SOL    HW2 3787   0.197   3.108   0.779
  867SOL    HW3 3788   0.182   3.012   0.664
  867SOL    MW4 3789   0.148   3.072   0.717
  868SOL     OW 3790   0.633   3.152   1.698
  868SOL    HW2 3791   0.681   3.235   1.685
  868SOL    HW3 3792   0.690   3.100   1.754
  868SOL    MW4 3793   0.647   3.156   1.704
  869SOL     OW 3794   0.209   3.394   1.838
  869SOL    HW2 3795   0.265   3.318   1.853
  869SOL    HW3 3796   0.158   3.372   1.760
  869SOL    MW4 3797   0.209   3.381   1.829
  870SOL     OW 3798   1.308   2.246   0.117
  870SOL    HW2 3799   1.281   2.312   0.053
  870SOL    HW3 3800   1.378   2.289   0.167
  870SOL    MW4 3801   1.313   2.259   0.114
  871SOL     OW 3802   0.976   1.951   0.054
  871SOL    HW2 3803   1.032   1.943  -0.024
  871SOL    HW3 3804   0.953   1.861   0.076
  871SOL    MW4 3805   0.981   1.938   0.047
  872SOL     OW 3806   1.481   2.802   0.259
  872SOL    HW2 3807   1.448   2.891   0.249
  872SOL    HW3 3808   1.446   2.773   0.344
  872SOL    MW4 3809   1.471   2.811   0.270
  873SOL     OW 3810   1.094   3.231   1.447
  873SOL    HW2 3811   1.005   3.237   1.415
  873SOL    HW3 3812   1.138   3.310   1.415
  873SOL    MW4 3813   1.089   3.241   1.439
  874SOL     OW 3814   0.387   1.899   1.789
  874SOL    HW2 3815   0.315   1.864   1.737
  874SOL    HW3 3816   0.445   1.940   1.724
  874SOL    MW4 3817   0.385   1.900   1.774
  875SOL     OW 3818   0.411   3.389   1.088
  875SOL    HW2 3819   0.456   3.451   1.145
  875SOL    HW3 3820   0.318   3.408   1.101
  875SOL    MW4 3821   0.404   3.399   1.095
  876SOL     OW 3822   1.851   2.918   1.442
  876SOL    HW2 3823   1.766   2.931   1.401
  876SOL    HW3 3824   1.831   2.882   1.529
  876SOL    MW4 3825   1.838   2.914   1.447
  877SOL     OW 3826   0.833   3.457   1.196
  877SOL    HW2 3827   0.857   3.446   1.105
  877SOL    HW3 3828   0.756   3.514   1.194
  877SOL    MW4 3829   0.825   3.462   1.185
  878SOL     OW 3830   0.475   2.840   0.051
  878SOL    HW2 3831   0.398   2.853   0.107
  878SOL    HW3 3832   0.439   2.804  -0.030
  878SOL    MW4 3833   0.461   2.836   0.048
  879SOL     OW 3834   1.128   2.813   0.294
  879SOL    HW2 3835   1.038   2.834   0.269
  879SOL    HW3 3836   1.155   2.886   0.350
  879SOL    MW4 3837   1.120   2.825   0.297
  880SOL     OW 3838   0.628   3.162   0.986
  880SOL    HW2 3839   0.621   3.141   1.080
  880SOL    HW3 3840   0.546   3.130   0.949
  880SOL    MW4 3841   0.616   3.156   0.993
  881SOL     OW 3842   1.492   2.172   1.388
  881SOL    HW2 3843   1.439   2.174   1.468
  881SOL    HW3 3844   1.477   2.085   1.351
  881SOL    MW4 3845   1.484   2.162   1.393
  882SOL     OW 3846   1.828   2.096   1.261
  882SOL    HW2 3847   1.809   2.163   1.196
  882SOL    HW3 3848   1.885   2.034   1.216
  882SOL    MW4 3849   1.832   2.097   1.247
  883SOL     OW 3850   0.074   3.254   1.649
  883SOL    HW2 3851   0.118   3.187   1.595
  883SOL    HW3 3852  -0.011   3.216   1.669
  883SOL    MW4 3853   0.069   3.240   1.645
  884SOL     OW 3854   0.757   1.929   0.701
  884SOL    HW2 3855   0.686   1.990   0.683
  884SOL    HW3 3856   0.808   1.926   0.620
  884SOL    MW4 3857   0.753   1.935   0.688
  885SOL     OW 3858   0.515   3.169   0.450
  885SOL    HW2 3859   0.508   3.201   0.540
  885SOL    HW3 3860   0.425   3.153   0.422
  885SOL    MW4 3861   0.503   3.171   0.457
  886SOL     OW 3862   1.110   3.562   1.359
  886SOL    HW2 3863   1.030   3.547   1.309
  886SOL    HW3 3864   1.117   3.657   1.366
  886SOL    MW4 3865   1.101   3.573   1.353
  887SOL     OW 3866   1.224   3.527   0.849
  887SOL    HW2 3867   1.271   3.600   0.808
  887SOL    HW3 3868   1.145   3.566   0.885
  887SOL    MW4 3869   1.219   3.542   0.848
  888SOL     OW 3870   1.632   3.622   1.124
  888SOL    HW2 3871   1.675   3.592   1.204
  888SOL    HW3 3872   1.551   3.570   1.121
  888SOL    MW4 3873   1.627   3.611   1.134
  889SOL     OW 3874   0.717   2.586   1.831
  889SOL    HW2 3875   0.787   2.528   1.803
  889SOL    HW3 3876   0.660   2.531   1.886
  889SOL    MW4 3877   0.719   2.573   1.835
  890SOL     OW 3878   1.504   2.798   1.464
  890SOL    HW2 3879   1.509   2.851   1.544
  890SOL    HW3 3880   1.466   2.715   1.492
  890SOL    MW4 3881   1.500   2.793   1.479
  891SOL     OW 3882   1.144   1.933   1.710
  891SOL    HW2 3883   1.139   1.840   1.691
  891SOL    HW3 3884   1.227   1.944   1.756
  891SOL    MW4 3885   1.152   1.922   1.714
  892SOL     OW 3886   0.518   2.453   0.164
  892SOL    HW2 3887   0.484   2.509   0.234
  892SOL    HW3 3888   0.589   2.403   0.204
  892SOL    MW4 3889   0.524   2.454   0.178
  893SOL     OW 3890   1.614   3.204   0.986
  893SOL    HW2 3891   1.649   3.186   0.899
  893SOL    HW3 3892   1.519   3.205   0.973
  893SOL    MW4 3893   1.606   3.201   0.973
  894SOL     OW 3894   1.043   2.852   1.355
  894SOL    HW2 3895   1.086   2.887   1.433
  894SOL    HW3 3896   1.026   2.929   1.301
  894SOL    MW4 3897   1.046   2.867   1.358
  895SOL     OW 3898   1.574   2.339   0.228
  895SOL    HW2 3899   1.566   2.410   0.165
  895SOL    HW3 3900   1.592   2.383   0.311
  895SOL    MW4 3901   1.575   2.353   0.230
  896SOL     OW 3902   0.434   1.994   0.657
  896SOL    HW2 3903   0.484   2.037   0.588
  896SOL    HW3 3904   0.349   2.038   0.657
  896SOL    MW4 3905   0.431   2.007   0.648
  897SOL     OW 3906   0.193   3.056   1.517
  897SOL    HW2 3907   0.221   3.009   1.595
  897SOL    HW3 3908   0.114   3.011   1.488
  897SOL    MW4 3909   0.186   3.045   1.523
  898SOL     OW 3910   0.701   2.383   1.484
  898SOL    HW2 3911   0.673   2.471   1.508
  898SOL    HW3 3912   0.670   2.327   1.555
  898SOL    MW4 3913   0.693   2.386   1.496
  899SOL     OW 3914   1.243   2.601   0.203
  899SOL    HW2 3915   1.290   2.619   0.122
  899SOL    HW3 3916   1.209   2.685   0.231
  899SOL    MW4 3917   1.245   2.615   0.196
  900SOL     OW 3918   0.356   2.779   0.697
  900SOL    HW2 3919   0.414   2.835   0.645
  900SOL    HW3 3920   0.400   2.694   0.699
  900SOL    MW4 3921   0.369   2.776   0.690
  901SOL     OW 3922   1.496   2.131   0.534
  901SOL    HW2 3923   1.418   2.081   0.559
  901SOL    HW3 3924   1.467   2.222   0.534
  901SOL    MW4 3925   1.482   2.135   0.537
  902SOL     OW 3926   1.082   2.093   0.693
  902SOL    HW2 3927   1.102   2.168   0.637
  902SOL    HW3 3928   1.062   2.132   0.778
  902SOL    MW4 3929   1.083   2.109   0.697
  903SOL     OW 3930   0.978   3.343   0.025
  903SOL    HW2 3931   1.005   3.421  -0.023
  903SOL    HW3 3932   0.885   3.358   0.044
  903SOL    MW4 3933   0.969   3.356   0.021
  904SOL     OW 3934   1.842   2.866   1.712
  904SOL    HW2 3935   1.755   2.846   1.748
  904SOL    HW3 3936   1.896   2.792   1.737
  904SOL    MW4 3937   1.837   2.855   1.720
  905SOL     OW 3938   0.063   3.379   0.869
  905SOL    HW2 3939   0.095   3.383   0.960
  905SOL    HW3 3940  -0.032   3.387   0.877
  905SOL    MW4 3941   0.055   3.382   0.882
  906SOL     OW 3942   0.018   2.505   0.416
  906SOL    HW2 3943  -0.042   2.477   0.486
  906SOL    HW3 3944   0.092   2.445   0.422
  906SOL    MW4 3945   0.020   2.494   0.425
  907SOL     OW 3946   1.586   3.717   1.850
  907SOL    HW2 3947   1.631   3.641   1.815
  907SOL    HW3 3948   1.624   3.730   1.937
  907SOL    MW4 3949   1.596   3.710   1.856
  908SOL     OW 3950   1.186   3.236   0.576
  908SOL    HW2 3951   1.209   3.187   0.654
  908SOL    HW3 3952   1.267   3.278   0.548
  908SOL    MW4 3953   1.199   3.236   0.583
  909SOL     OW 3954   0.444   2.244   1.305
  909SOL    HW2 3955   0.477   2.325   1.345
  909SOL    HW3 3956   0.417   2.270   1.217
  909SOL    MW4 3957   0.443   2.258   1.299
  910SOL     OW 3958   0.398   2.211   1.041
  910SOL    HW2 3959   0.428   2.125   1.012
  910SOL    HW3 3960   0.303   2.204   1.044
  910SOL    MW4 3961   0.390   2.200   1.039
  911SOL     OW 3962   1.227   2.420   1.732
  911SOL    HW2 3963   1.279   2.355   1.685
  911SOL    HW3 3964   1.185   2.471   1.662
  911SOL    MW4 3965   1.228   2.417   1.715
  912SOL     OW 3966   1.326   2.215   1.593
  912SOL    HW2 3967   1.233   2.199   1.580
  912SOL    HW3 3968   1.352   2.153   1.661
  912SOL    MW4 3969   1.316   2.205   1.600
  913SOL     OW 3970   0.541   1.989   0.932
  913SOL    HW2 3971   0.551   1.898   0.958
  913SOL    HW3 3972   0.497   1.985   0.847
  913SOL    MW4 3973   0.537   1.977   0.924
  914SOL     OW 3974   0.635   3.604   1.478
  914SOL    HW2 3975   0.552   3.589   1.523
  914SOL    HW3 3976   0.694   3.537   1.513
  914SOL    MW4 3977   0.633   3.594   1.488
  915SOL     OW 3978   1.692   2.311   1.103
  915SOL    HW2 3979   1.625   2.344   1.163
  915SOL    HW3 3980   1.735   2.389   1.069
  915SOL    MW4 3981   1.690   2.326   1.107
  916SOL     OW 3982   1.870   3.031   1.073
  916SOL    HW2 3983   1.863   2.971   0.998
  916SOL    HW3 3984   1.796   3.091   1.062
  916SOL    MW4 3985   1.860   3.031   1.062
  917SOL     OW 3986   1.252   2.893   0.991
  917SOL    HW2 3987   1.266   2.865   1.082
  917SOL    HW3 3988   1.338   2.924   0.963
  917SOL    MW4 3989   1.265   2.894   1.000
  918SOL     OW 3990   1.335   2.388   1.270
  918SOL    HW2 3991   1.356   2.389   1.177
  918SOL    HW3 3992   1.380   2.310   1.303
  918SOL    MW4 3993   1.342   2.378   1.262
  919SOL     OW 3994   1.828   2.519   1.812
  919SOL    HW2 3995   1.865   2.464   1.881
  919SOL    HW3 3996   1.853   2.476   1.730
  919SOL    MW4 3997   1.835   2.507   1.811
  920SOL     OW 3998   1.375   2.817   1.863
  920SOL    HW2 3999   1.441   2.765   1.817
  920SOL    HW3 4000   1.395   2.804   1.956
  920SOL    MW4 4001   1.386   2.808   1.870
  921SOL     OW 4002   1.326   1.903   0.212
  921SOL    HW2 4003   1.400   1.947   0.255
  921SOL    HW3 4004   1.250   1.957   0.234
  921SOL    MW4 4005   1.326   1.915   0.220
  922SOL     OW 4006   1.386   2.678   0.490
  922SOL    HW2 4007   1.301   2.648   0.460
  922SOL    HW3 4008   1.378   2.685   0.585
  922SOL    MW4 4009   1.374   2.676   0.499
  923SOL     OW 4010   0.462   3.141   1.221
  923SOL    HW2 4011   0.474   3.168   1.312
  923SOL    HW3 4012   0.443   3.222   1.174
  923SOL    MW4 4013   0.461   3.156   1.226
  924SOL     OW 4014   0.746   2.121   1.044
  924SOL    HW2 4015   0.719   2.123   1.135
  924SOL    HW3 4016   0.676   2.073   0.999
  924SOL    MW4 4017   0.734   2.117   1.051
  925SOL     OW 4018   0.600   3.613   1.206
  925SOL    HW2 4019   0.652   3.690   1.183
  925SOL    HW3 4020   0.609   3.605   1.301
  925SOL    MW4 4021   0.609   3.620   1.217
  926SOL     OW 4022   1.502   3.198   1.438
  926SOL    HW2 4023   1.487   3.127   1.501
  926SOL    HW3 4024   1.548   3.156   1.366
  926SOL    MW4 4025   1.508   3.182   1.438
  927SOL     OW 4026   0.576   2.929   1.555
  927SOL    HW2 4027   0.613   2.934   1.467
  927SOL    HW3 4028   0.615   3.002   1.602
  927SOL    MW4 4029   0.586   2.939   1.550
  928SOL     OW 4030   0.756   2.972   1.367
  928SOL    HW2 4031   0.815   2.918   1.420
  928SOL    HW3 4032   0.771   2.944   1.277
  928SOL    MW4 4033   0.766   2.961   1.363
  929SOL     OW 4034   0.759   2.344   0.216
  929SOL    HW2 4035   0.832   2.393   0.179
  929SOL    HW3 4036   0.775   2.253   0.190
  929SOL    MW4 4037   0.771   2.339   0.209
  930SOL     OW 4038   1.567   3.461   1.539
  930SOL    HW2 4039   1.609   3.446   1.624
  930SOL    HW3 4040   1.558   3.374   1.501
  930SOL    MW4 4041   1.571   3.449   1.546
  931SOL     OW 4042   1.227   1.940   1.130
  931SOL    HW2 4043   1.282   1.949   1.052
  931SOL    HW3 4044   1.282   1.974   1.201
  931SOL    MW4 4045   1.241   1.945   1.129
  932SOL     OW 4046   0.234   2.853   0.314
  932SOL    HW2 4047   0.171   2.869   0.243
  932SOL    HW3 4048   0.181   2.816   0.385
  932SOL    MW4 4049   0.219   2.850   0.314
  933SOL     OW 4050   0.590   3.207   0.173
  933SOL    HW2 4051   0.605   3.183   0.265
  933SOL    HW3 4052   0.498   3.185   0.157
  933SOL    MW4 4053   0.580   3.200   0.183
  934SOL     OW 4054   1.129   3.438   0.325
  934SOL    HW2 4055   1.137   3.356   0.276
  934SOL    HW3 4056   1.048   3.477   0.292
  934SOL    MW4 4057   1.119   3.433   0.315
  935SOL     OW 4058   0.388   3.596   0.894
  935SOL    HW2 4059   0.392   3.507   0.929
  935SOL    HW3 4060   0.414   3.587   0.803
  935SOL    MW4 4061   0.391   3.584   0.886
  936SOL     OW 4062   1.005   3.074   1.137
  936SOL    HW2 4063   0.937   3.008   1.153
  936SOL    HW3 4064   1.023   3.068   1.044
  936SOL    MW4 4065   0.998   3.065   1.128
  937SOL     OW 4066   0.094   3.349   1.388
  937SOL    HW2 4067   0.084   3.307   1.474
  937SOL    HW3 4068   0.015   3.402   1.378
  937SOL    MW4 4069   0.083   3.350   1.399
  938SOL     OW 4070   0.998   2.213   0.958
  938SOL    HW2 4071   0.928   2.165   1.003
  938SOL    HW3 4072   1.030   2.276   1.022
  938SOL    MW4 4073   0.993   2.215   0.972
  939SOL     OW 4074   0.649   2.649   1.578
  939SOL    HW2 4075   0.642   2.744   1.566
  939SOL    HW3 4076   0.658   2.638   1.673
  939SOL    MW4 4077   0.650   2.661   1.588
  940SOL     OW 4078   0.370   3.164   1.836
  940SOL    HW2 4079   0.442   3.166   1.773
  940SOL    HW3 4080   0.340   3.073   1.835
  940SOL    MW4 4081   0.375   3.153   1.828
  941SOL     OW 4082   1.454   1.927   1.303
  941SOL    HW2 4083   1.525   1.873   1.267
  941SOL    HW3 4084   1.453   1.906   1.396
  941SOL    MW4 4085   1.463   1.918   1.311
  942SOL     OW 4086   1.654   3.457   1.787
  942SOL    HW2 4087   1.627   3.454   1.878
  942SOL    HW3 4088   1.750   3.461   1.790
  942SOL    MW4 4089   1.664   3.457   1.799
  943SOL     OW 4090   0.465   2.319   0.771
  943SOL    HW2 4091   0.536   2.267   0.734
  943SOL    HW3 4092   0.451   2.284   0.858
  943SOL    MW4 4093   0.473   2.308   0.778
  944SOL     OW 4094   0.020   3.654   1.843
  944SOL    HW2 4095   0.070   3.632   1.765
  944SOL    HW3 4096   0.028   3.749   1.851
  944SOL    MW4 4097   0.028   3.663   1.834
  945SOL     OW 4098   0.781   3.412   0.847
  945SOL    HW2 4099   0.709   3.349   0.860
  945SOL    HW3 4100   0.742   3.497   0.865
  945SOL    MW4 4101   0.765   3.415   0.850
  946SOL     OW 4102   1.101   2.260   0.495
  946SOL    HW2 4103   1.123   2.197   0.427
  946SOL    HW3 4104   1.006   2.252   0.506
  946SOL    MW4 4105   1.091   2.251   0.487
  947SOL     OW 4106   0.186   1.950   0.427
  947SOL    HW2 4107   0.257   1.971   0.366
  947SOL    HW3 4108   0.140   1.878   0.385
  947SOL    MW4 4109   0.190   1.944   0.413
  948SOL     OW 4110   0.017   2.417   1.570
  948SOL    HW2 4111   0.081   2.483   1.545
  948SOL    HW3 4112  -0.064   2.444   1.527
  948SOL    MW4 4113   0.015   2.429   1.562
  949SOL     OW 4114   1.755   3.324   0.527
  949SOL    HW2 4115   1.725   3.257   0.588
  949SOL    HW3 4116   1.849   3.330   0.541
  949SOL    MW4 4117   1.763   3.316   0.537
  950SOL     OW 4118   1.311   3.001   0.457
  950SOL    HW2 4119   1.283   3.087   0.490
  950SOL    HW3 4120   1.339   3.017   0.367
  950SOL    MW4 4121   1.311   3.015   0.449
  951SOL     OW 4122   0.973   1.921   0.510
  951SOL    HW2 4123   1.010   1.980   0.575
  951SOL    HW3 4124   0.950   1.977   0.436
  951SOL    MW4 4125   0.974   1.936   0.509
  952SOL     OW 4126   1.826   2.803   0.932
  952SOL    HW2 4127   1.817   2.835   0.843
  952SOL    HW3 4128   1.779   2.719   0.932
  952SOL    MW4 4129   1.819   2.796   0.922
  953SOL     OW 4130   0.202   2.643   1.511
  953SOL    HW2 4131   0.223   2.712   1.449
  953SOL    HW3 4132   0.282   2.590   1.516
  953SOL    MW4 4133   0.215   2.644   1.505
  954SOL     OW 4134   1.738   2.734   0.633
  954SOL    HW2 4135   1.832   2.723   0.621
  954SOL    HW3 4136   1.714   2.806   0.574
  954SOL    MW4 4137   1.748   2.742   0.624
  955SOL     OW 4138   0.187   2.658   1.778
  955SOL    HW2 4139   0.113   2.602   1.804
  955SOL    HW3 4140   0.182   2.661   1.683
  955SOL    MW4 4141   0.176   2.651   1.768
  956SOL     OW 4142   0.353   1.945   1.228
  956SOL    HW2 4143   0.396   2.029   1.248
  956SOL    HW3 4144   0.426   1.883   1.221
  956SOL    MW4 4145   0.368   1.948   1.229
  957SOL     OW 4146   0.394   2.612   0.406
  957SOL    HW2 4147   0.394   2.707   0.391
  957SOL    HW3 4148   0.471   2.596   0.460
  957SOL    MW4 4149   0.404   2.623   0.411
  958SOL     OW 4150   1.170   2.471   1.470
  958SOL    HW2 4151   1.206   2.444   1.386
  958SOL    HW3 4152   1.083   2.505   1.449
  958SOL    MW4 4153   1.164   2.472   1.457
  959SOL     OW 4154   0.153   2.343   0.695
  959SOL    HW2 4155   0.215   2.350   0.768
  959SOL    HW3 4156   0.153   2.250   0.672
  959SOL    MW4 4157   0.161   2.332   0.702
  960SOL     OW 4158   1.700   3.683   0.227
  960SOL    HW2 4159   1.767   3.716   0.167
  960SOL    HW3 4160   1.657   3.762   0.261
  960SOL    MW4 4161   1.702   3.698   0.223
  961SOL     OW 4162   0.835   2.604   1.179
  961SOL    HW2 4163   0.793   2.522   1.155
  961SOL    HW3 4164   0.836   2.603   1.275
  961SOL    MW4 4165   0.828   2.593   1.188
  962SOL     OW 4166   1.506   3.737   1.578
  962SOL    HW2 4167   1.509   3.643   1.561
  962SOL    HW3 4168   1.529   3.745   1.670
  962SOL    MW4 4169   1.509   3.725   1.588
  963SOL     OW 4170   0.639   2.074   1.284
  963SOL    HW2 4171   0.570   2.137   1.305
  963SOL    HW3 4172   0.666   2.038   1.369
  963SOL    MW4 4173   0.633   2.077   1.297
  964SOL     OW 4174   0.022   2.915   0.153
  964SOL    HW2 4175  -0.009   2.980   0.216
  964SOL    HW3 4176  -0.029   2.837   0.172
  964SOL    MW4 4177   0.012   2.912   0.163
  965SOL     OW 4178   1.434   1.927   0.901
  965SOL    HW2 4179   1.522   1.936   0.938
  965SOL    HW3 4180   1.444   1.868   0.827
  965SOL    MW4 4181   1.448   1.921   0.895
  966SOL     OW 4182   1.466   2.666   0.745
  966SOL    HW2 4183   1.546   2.681   0.694
  966SOL    HW3 4184   1.459   2.571   0.751
  966SOL    MW4 4185   1.475   2.655   0.740
  967SOL     OW 4186   0.606   3.715   0.095
  967SOL    HW2 4187   0.511   3.715   0.087
  967SOL    HW3 4188   0.622   3.661   0.173
  967SOL    MW4 4189   0.596   3.709   0.104
  968SOL     OW 4190   0.916   2.592   1.442
  968SOL    HW2 4191   0.985   2.659   1.439
  968SOL    HW3 4192   0.849   2.630   1.498
  968SOL    MW4 4193   0.917   2.605   1.449
  969SOL     OW 4194   0.334   2.892   1.690
  969SOL    HW2 4195   0.288   2.808   1.692
  969SOL    HW3 4196   0.391   2.886   1.614
  969SOL    MW4 4197   0.336   2.880   1.682
  970SOL     OW 4198   1.451   2.535   0.011
  970SOL    HW2 4199   1.379   2.511  -0.047
  970SOL    HW3 4200   1.517   2.572  -0.047
  970SOL    MW4 4201   1.450   2.537  -0.004
  971SOL     OW 4202   0.585   3.267   0.691
  971SOL    HW2 4203   0.650   3.200   0.712
  971SOL    HW3 4204   0.637   3.344   0.668
  971SOL    MW4 4205   0.600   3.269   0.690
  972SOL     OW 4206   0.846   2.432   0.821
  972SOL    HW2 4207   0.786   2.450   0.893
  972SOL    HW3 4208   0.880   2.344   0.840
  972SOL    MW4 4209   0.842   2.422   0.834
  973SOL     OW 4210   1.787   1.931   1.490
  973SOL    HW2 4211   1.708   1.977   1.518
  973SOL    HW3 4212   1.822   1.985   1.419
  973SOL    MW4 4213   1.781   1.944   1.484
  974SOL     OW 4214   1.071   3.015   0.840
  974SOL    HW2 4215   1.163   2.996   0.858
  974SOL    HW3 4216   1.044   2.945   0.780
  974SOL    MW4 4217   1.079   3.003   0.834
  975SOL     OW 4218   0.864   2.835   0.195
  975SOL    HW2 4219   0.850   2.747   0.160
  975SOL    HW3 4220   0.815   2.892   0.136
  975SOL    MW4 4221   0.856   2.830   0.183
  976SOL     OW 4222   1.345   3.253   0.936
  976SOL    HW2 4223   1.318   3.337   0.901
  976SOL    HW3 4224   1.305   3.248   1.023
  976SOL    MW4 4225   1.338   3.262   0.942
  977SOL     OW 4226   1.264   3.201   1.204
  977SOL    HW2 4227   1.275   3.168   1.293
  977SOL    HW3 4228   1.183   3.160   1.173
  977SOL    MW4 4229   1.254   3.193   1.210
  978SOL     OW 4230   0.277   2.559   0.974
  978SOL    HW2 4231   0.227   2.558   1.055
  978SOL    HW3 4232   0.297   2.651   0.958
  978SOL    MW4 4233   0.273   2.571   0.982
  979SOL     OW 4234   1.344   3.323   1.736
  979SOL    HW2 4235   1.344   3.417   1.752
  979SOL    HW3 4236   1.389   3.313   1.652
  979SOL    MW4 4237   1.350   3.333   1.727
  980SOL     OW 4238   1.583   2.041   0.297
  980SOL    HW2 4239   1.576   2.045   0.392
  980SOL    HW3 4240   1.595   2.132   0.270
  980SOL    MW4 4241   1.584   2.054   0.305
  981SOL     OW 4242   0.872   2.604   0.411
  981SOL    HW2 4243   0.852   2.590   0.318
  981SOL    HW3 4244   0.965   2.583   0.418
  981SOL    MW4 4245   0.882   2.599   0.400
  982SOL     OW 4246   0.199   2.227   1.715
  982SOL    HW2 4247   0.156   2.286   1.652
  982SOL    HW3 4248   0.267   2.282   1.755
  982SOL    MW4 4249   0.203   2.242   1.712
  983SOL     OW 4250   1.311   2.847   1.260
  983SOL    HW2 4251   1.374   2.844   1.333
  983SOL    HW3 4252   1.227   2.865   1.302
  983SOL    MW4 4253   1.307   2.849   1.275
  984SOL     OW 4254   0.855   3.562   0.449
  984SOL    HW2 4255   0.913   3.633   0.476
  984SOL    HW3 4256   0.878   3.490   0.507
  984SOL    MW4 4257   0.866   3.562   0.460
  985SOL     OW 4258   1.650   2.024   1.039
  985SOL    HW2 4259   1.695   1.942   1.058
  985SOL    HW3 4260   1.670   2.080   1.115
  985SOL    MW4 4261   1.660   2.020   1.051
  986SOL     OW 4262   0.098   1.867   1.138
  986SOL    HW2 4263   0.089   1.868   1.043
  986SOL    HW3 4264   0.192   1.879   1.153
  986SOL    MW4 4265   0.110   1.870   1.129
  987SOL     OW 4266   1.735   3.060   0.758
  987SOL    HW2 4267   1.714   3.006   0.681
  987SOL    HW3 4268   1.831   3.058   0.762
  987SOL    MW4 4269   1.744   3.053   0.747
  988SOL     OW 4270   0.427   3.205   1.501
  988SOL    HW2 4271   0.348   3.155   1.524
  988SOL    HW3 4272   0.497   3.164   1.551
  988SOL    MW4 4273   0.425   3.193   1.511
  989SOL     OW 4274   0.311   1.994   0.184
  989SOL    HW2 4275   0.240   2.049   0.152
  989SOL    HW3 4276   0.353   1.960   0.105
  989SOL    MW4 4277   0.307   1.996   0.170
  990SOL     OW 4278   1.435   2.491   1.020
  990SOL    HW2 4279   1.358   2.537   0.986
  990SOL    HW3 4280   1.492   2.560   1.054
  990SOL    MW4 4281   1.432   2.506   1.020
  991SOL     OW 4282   0.067   2.093   0.033
  991SOL    HW2 4283   0.034   2.172   0.077
  991SOL    HW3 4284   0.122   2.126  -0.038
  991SOL    MW4 4285   0.070   2.107   0.030
  992SOL     OW 4286   0.101   3.350   0.222
  992SOL    HW2 4287   0.118   3.434   0.264
  992SOL    HW3 4288   0.136   3.359   0.134
  992SOL    MW4 4289   0.106   3.363   0.216
  993SOL     OW 4290   1.373   3.439   0.439
  993SOL    HW2 4291   1.436   3.429   0.368
  993SOL    HW3 4292   1.290   3.459   0.394
  993SOL    MW4 4293   1.370   3.440   0.424
  994SOL     OW 4294   1.736   2.707   2.125
  994SOL    HW2 4295   1.777   2.649   2.190
  994SOL    HW3 4296   1.643   2.699   2.142
  994SOL    MW4 4297   1.730   2.699   2.135
  995SOL     OW 4298   1.602   2.639   3.120
  995SOL    HW2 4299   1.557   2.706   3.171
  995SOL    HW3 4300   1.690   2.675   3.106
  995SOL    MW4 4301   1.608   2.652   3.124
  996SOL     OW 4302   0.530   2.890   2.354
  996SOL    HW2 4303   0.620   2.865   2.338
  996SOL    HW3 4304   0.526   2.983   2.331
  996SOL    MW4 4305   0.542   2.899   2.349
  997SOL     OW 4306   1.646   3.593   2.496
  997SOL    HW2 4307   1.658   3.539   2.574
  997SOL    HW3 4308   1.683   3.541   2.425
  997SOL    MW4 4309   1.652   3.578   2.497
  998SOL     OW 4310   1.025   3.478   3.497
  998SOL    HW2 4311   1.066   3.514   3.418
  998SOL    HW3 4312   1.060   3.389   3.504
  998SOL    MW4 4313   1.036   3.471   3.488
  999SOL     OW 4314   1.582   3.033   3.101
  999SOL    HW2 4315   1.503   2.998   3.059
  999SOL    HW3 4316   1.609   3.105   3.045
  999SOL    MW4 4317   1.575   3.038   3.088
 1000SOL     OW 4318   0.814   2.346   2.367
 1000SOL    HW2 4319   0.789   2.434   2.395
 1000SOL    HW3 4320   0.811   2.349   2.271
 1000SOL    MW4 4321   0.810   2.358   2.359
 1001SOL     OW 4322   0.256   2.374   2.295
 1001SOL    HW2 4323   0.288   2.462   2.277
 1001SOL    HW3 4324   0.244   2.372   2.390
 1001SOL    MW4 4325   0.259   2.386   2.307
 1002SOL     OW 4326   0.334   2.787   3.196
 1002SOL    HW2 4327   0.397   2.734   3.147
 1002SOL    HW3 4328   0.315   2.861   3.139
 1002SOL    MW4 4329   0.340   2.789   3.183
 1003SOL     OW 4330   0.655   2.129   2.382
 1003SOL    HW2 4331   0.713   2.205   2.384
 1003SOL    HW3 4332   0.590   2.150   2.315
 1003SOL    MW4 4333   0.654   2.141   2.373
 1004SOL     OW 4334   0.742   3.056   2.557
 1004SOL    HW2 4335   0.822   3.059   2.609
 1004SOL    HW3 4336   0.770   3.023   2.471
 1004SOL    MW4 4337   0.756   3.052   2.552
 1005SOL     OW 4338   0.767   3.397   3.460
 1005SOL    HW2 4339   0.851   3.423   3.499
 1005SOL    HW3 4340   0.791   3.341   3.386
 1005SOL    MW4 4341   0.781   3.393   3.455
 1006SOL     OW 4342   0.519   2.560   2.548
 1006SOL    HW2 4343   0.504   2.480   2.599
 1006SOL    HW3 4344   0.601   2.595   2.582
 1006SOL    MW4 4345   0.527   2.552   2.560
 1007SOL     OW 4346   0.856   3.246   3.233
 1007SOL    HW2 4347   0.820   3.312   3.173
 1007SOL    HW3 4348   0.784   3.184   3.246
 1007SOL    MW4 4349   0.842   3.246   3.227
 1008SOL     OW 4350   0.661   2.386   2.925
 1008SOL    HW2 4351   0.567   2.382   2.943
 1008SOL    HW3 4352   0.691   2.295   2.934
 1008SOL    MW4 4353   0.652   2.374   2.928
 1009SOL     OW 4354   0.407   2.800   2.829
 1009SOL    HW2 4355   0.362   2.807   2.745
 1009SOL    HW3 4356   0.387   2.883   2.873
 1009SOL    MW4 4357   0.399   2.812   2.823
 1010SOL     OW 4358   0.104   3.646   2.704
 1010SOL    HW2 4359   0.193   3.638   2.739
 1010SOL    HW3 4360   0.068   3.558   2.709
 1010SOL    MW4 4361   0.111   3.633   2.709
 1011SOL     OW 4362   1.369   3.038   2.073
 1011SOL    HW2 4363   1.287   3.074   2.039
 1011SOL    HW3 4364   1.437   3.081   2.022
 1011SOL    MW4 4365   1.367   3.048   2.061
 1012SOL     OW 4366   0.368   3.173   2.739
 1012SOL    HW2 4367   0.344   3.226   2.815
 1012SOL    HW3 4368   0.424   3.231   2.687
 1012SOL    MW4 4369   0.372   3.188   2.742
 1013SOL     OW 4370   0.930   2.817   2.549
 1013SOL    HW2 4371   0.844   2.804   2.589
 1013SOL    HW3 4372   0.983   2.744   2.581
 1013SOL    MW4 4373   0.926   2.806   2.558
 1014SOL     OW 4374   0.338   3.469   3.334
 1014SOL    HW2 4375   0.246   3.445   3.319
 1014SOL    HW3 4376   0.382   3.386   3.351
 1014SOL    MW4 4377   0.332   3.454   3.333
 1015SOL     OW 4378   0.921   3.179   2.266
 1015SOL    HW2 4379   0.898   3.241   2.334
 1015SOL    HW3 4380   0.878   3.097   2.292
 1015SOL    MW4 4381   0.913   3.175   2.277
 1016SOL     OW 4382   1.794   2.180   2.722
 1016SOL    HW2 4383   1.731   2.160   2.791
 1016SOL    HW3 4384   1.784   2.109   2.659
 1016SOL    MW4 4385   1.784   2.167   2.723
 1017SOL     OW 4386   0.418   2.152   2.234
 1017SOL    HW2 4387   0.392   2.114   2.150
 1017SOL    HW3 4388   0.355   2.222   2.250
 1017SOL    MW4 4389   0.407   2.155   2.225
 1018SOL     OW 4390   0.253   3.113   2.271
 1018SOL    HW2 4391   0.201   3.181   2.227
 1018SOL    HW3 4392   0.250   3.039   2.211
 1018SOL    MW4 4393   0.245   3.112   2.258
 1019SOL     OW 4394   0.915   3.576   2.049
 1019SOL    HW2 4395   0.870   3.592   2.132
 1019SOL    HW3 4396   0.846   3.541   1.991
 1019SOL    MW4 4397   0.901   3.573   2.051
 1020SOL     OW 4398   1.850   2.349   2.024
 1020SOL    HW2 4399   1.759   2.351   2.052
 1020SOL    HW3 4400   1.895   2.411   2.082
 1020SOL    MW4 4401   1.843   2.357   2.034
 1021SOL     OW 4402   1.595   2.952   2.374
 1021SOL    HW2 4403   1.505   2.952   2.409
 1021SOL    HW3 4404   1.588   2.998   2.291
 1021SOL    MW4 4405   1.582   2.958   2.368
 1022SOL     OW 4406   1.395   2.587   3.446
 1022SOL    HW2 4407   1.464   2.525   3.423
 1022SOL    HW3 4408   1.320   2.561   3.393
 1022SOL    MW4 4409   1.395   2.574   3.437
 1023SOL     OW 4410   0.136   3.467   2.998
 1023SOL    HW2 4411   0.119   3.413   3.075
 1023SOL    HW3 4412   0.124   3.557   3.028
 1023SOL    MW4 4413   0.133   3.471   3.012
 1024SOL     OW 4414   1.131   2.974   3.438
 1024SOL    HW2 4415   1.116   3.067   3.423
 1024SOL    HW3 4416   1.226   2.964   3.438
 1024SOL    MW4 4417   1.140   2.984   3.435
 1025SOL     OW 4418   0.927   2.398   3.639
 1025SOL    HW2 4419   1.017   2.399   3.606
 1025SOL    HW3 4420   0.886   2.323   3.597
 1025SOL    MW4 4421   0.933   2.388   3.630
 1026SOL     OW 4422   1.502   2.930   2.766
 1026SOL    HW2 4423   1.505   2.864   2.697
 1026SOL    HW3 4424   1.587   2.973   2.762
 1026SOL    MW4 4425   1.514   2.926   2.757
 1027SOL     OW 4426   1.122   2.533   2.335
 1027SOL    HW2 4427   1.148   2.557   2.246
 1027SOL    HW3 4428   1.104   2.440   2.331
 1027SOL    MW4 4429   1.124   2.525   2.322
 1028SOL     OW 4430   1.787   3.153   2.186
 1028SOL    HW2 4431   1.743   3.194   2.261
 1028SOL    HW3 4432   1.844   3.221   2.151
 1028SOL    MW4 4433   1.789   3.167   2.191
 1029SOL     OW 4434   0.707   2.202   3.589
 1029SOL    HW2 4435   0.717   2.128   3.529
 1029SOL    HW3 4436   0.743   2.171   3.672
 1029SOL    MW4 4437   0.713   2.188   3.591
 1030SOL     OW 4438   0.443   3.569   2.504
 1030SOL    HW2 4439   0.475   3.657   2.482
 1030SOL    HW3 4440   0.396   3.541   2.426
 1030SOL    MW4 4441   0.442   3.577   2.491
 1031SOL     OW 4442   1.827   1.931   2.553
 1031SOL    HW2 4443   1.881   1.882   2.615
 1031SOL    HW3 4444   1.770   1.865   2.514
 1031SOL    MW4 4445   1.827   1.915   2.555
 1032SOL     OW 4446   0.159   3.629   2.081
 1032SOL    HW2 4447   0.188   3.719   2.073
 1032SOL    HW3 4448   0.109   3.612   2.002
 1032SOL    MW4 4449   0.157   3.637   2.070
 1033SOL     OW 4450   0.946   1.884   2.966
 1033SOL    HW2 4451   0.905   1.962   2.928
 1033SOL    HW3 4452   1.040   1.902   2.961
 1033SOL    MW4 4453   0.952   1.896   2.961
 1034SOL     OW 4454   1.563   3.437   2.052
 1034SOL    HW2 4455   1.611   3.506   2.098
 1034SOL    HW3 4456   1.484   3.481   2.021
 1034SOL    MW4 4457   1.558   3.451   2.055
 1035SOL     OW 4458   0.961   2.562   1.996
 1035SOL    HW2 4459   0.963   2.509   1.917
 1035SOL    HW3 4460   1.049   2.599   2.002
 1035SOL    MW4 4461   0.973   2.561   1.985
 1036SOL     OW 4462   1.575   2.488   2.332
 1036SOL    HW2 4463   1.614   2.488   2.419
 1036SOL    HW3 4464   1.516   2.564   2.332
 1036SOL    MW4 4465   1.572   2.499   2.343
 1037SOL     OW 4466   0.892   2.855   3.461
 1037SOL    HW2 4467   0.869   2.835   3.551
 1037SOL    HW3 4468   0.977   2.899   3.466
 1037SOL    MW4 4469   0.899   2.858   3.473
 1038SOL     OW 4470   0.972   1.992   3.221
 1038SOL    HW2 4471   0.978   1.954   3.134
 1038SOL    HW3 4472   0.961   2.086   3.206
 1038SOL    MW4 4473   0.973   2.000   3.209
 1039SOL     OW 4474   1.061   2.481   3.055
 1039SOL    HW2 4475   1.136   2.510   3.002
 1039SOL    HW3 4476   0.993   2.546   3.039
 1039SOL    MW4 4477   1.062   2.493   3.045
 1040SOL     OW 4478   1.611   2.449   3.332
 1040SOL    HW2 4479   1.592   2.358   3.311
 1040SOL    HW3 4480   1.589   2.498   3.253
 1040SOL    MW4 4481   1.606   2.442   3.319
 1041SOL     OW 4482   1.753   3.543   3.236
 1041SOL    HW2 4483   1.681   3.505   3.287
 1041SOL    HW3 4484   1.770   3.628   3.277
 1041SOL    MW4 4485   1.747   3.548   3.248
 1042SOL     OW 4486   1.058   2.187   3.438
 1042SOL    HW2 4487   1.024   2.226   3.357
 1042SOL    HW3 4488   1.036   2.095   3.431
 1042SOL    MW4 4489   1.051   2.180   3.428
 1043SOL     OW 4490   1.467   3.001   3.514
 1043SOL    HW2 4491   1.549   3.042   3.544
 1043SOL    HW3 4492   1.430   2.963   3.594
 1043SOL    MW4 4493   1.473   3.002   3.529
 1044SOL     OW 4494   1.762   2.374   2.498
 1044SOL    HW2 4495   1.851   2.343   2.515
 1044SOL    HW3 4496   1.705   2.314   2.546
 1044SOL    MW4 4497   1.765   2.362   2.507
 1045SOL     OW 4498   0.188   2.088   2.527
 1045SOL    HW2 4499   0.179   2.028   2.453
 1045SOL    HW3 4500   0.121   2.059   2.590
 1045SOL    MW4 4501   0.178   2.075   2.525
 1046SOL     OW 4502   1.131   3.181   2.088
 1046SOL    HW2 4503   1.081   3.183   2.170
 1046SOL    HW3 4504   1.065   3.199   2.020
 1046SOL    MW4 4505   1.117   3.183   2.090
 1047SOL     OW 4506   0.135   2.261   2.890
 1047SOL    HW2 4507   0.107   2.352   2.899
 1047SOL    HW3 4508   0.072   2.222   2.829
 1047SOL    MW4 4509   0.122   2.267   2.884
 1048SOL     OW 4510   0.594   3.599   2.196
 1048SOL    HW2 4511   0.515   3.557   2.229
 1048SOL    HW3 4512   0.660   3.582   2.263
 1048SOL    MW4 4513   0.593   3.591   2.209
 1049SOL     OW 4514   1.722   3.119   3.593
 1049SOL    HW2 4515   1.772   3.045   3.625
 1049SOL    HW3 4516   1.668   3.146   3.668
 1049SOL    MW4 4517   1.722   3.113   3.606
 1050SOL     OW 4518   0.730   3.014   1.903
 1050SOL    HW2 4519   0.652   2.960   1.890
 1050SOL    HW3 4520   0.701   3.087   1.956
 1050SOL    MW4 4521   0.716   3.016   1.908
 1051SOL     OW 4522   1.856   2.754   3.095
 1051SOL    HW2 4523   1.872   2.792   3.008
 1051SOL    HW3 4524   1.890   2.820   3.156
 1051SOL    MW4 4525   1.863   2.767   3.091
 1052SOL     OW 4526   1.648   3.463   2.764
 1052SOL    HW2 4527   1.677   3.530   2.825
 1052SOL    HW3 4528   1.629   3.387   2.819
 1052SOL    MW4 4529   1.650   3.463   2.779
 1053SOL     OW 4530   1.311   3.530   1.971
 1053SOL    HW2 4531   1.237   3.493   2.021
 1053SOL    HW3 4532   1.319   3.620   2.004
 1053SOL    MW4 4533   1.302   3.537   1.983
 1054SOL     OW 4534   0.119   2.536   3.060
 1054SOL    HW2 4535   0.181   2.566   3.126
 1054SOL    HW3 4536   0.053   2.605   3.054
 1054SOL    MW4 4537   0.118   2.549   3.067
 1055SOL     OW 4538   1.535   3.204   1.913
 1055SOL    HW2 4539   1.482   3.253   1.849
 1055SOL    HW3 4540   1.566   3.270   1.974
 1055SOL    MW4 4541   1.533   3.218   1.911
 1056SOL     OW 4542   0.760   2.093   1.968
 1056SOL    HW2 4543   0.708   2.013   1.956
 1056SOL    HW3 4544   0.847   2.070   1.936
 1056SOL    MW4 4545   0.763   2.079   1.962
 1057SOL     OW 4546   0.214   3.645   3.512
 1057SOL    HW2 4547   0.188   3.713   3.450
 1057SOL    HW3 4548   0.262   3.582   3.460
 1057SOL    MW4 4549   0.216   3.645   3.498
 1058SOL     OW 4550   0.266   2.964   3.019
 1058SOL    HW2 4551   0.319   3.039   3.044
 1058SOL    HW3 4552   0.185   3.002   2.985
 1058SOL    MW4 4553   0.262   2.979   3.019
 1059SOL     OW 4554   0.806   2.868   3.007
 1059SOL    HW2 4555   0.834   2.777   3.019
 1059SOL    HW3 4556   0.735   2.862   2.943
 1059SOL    MW4 4557   0.799   2.856   3.002
 1060SOL     OW 4558   0.121   2.733   2.425
 1060SOL    HW2 4559   0.212   2.748   2.452
 1060SOL    HW3 4560   0.124   2.654   2.371
 1060SOL    MW4 4561   0.133   2.725   2.423
 1061SOL     OW 4562   0.357   2.441   3.679
 1061SOL    HW2 4563   0.304   2.521   3.686
 1061SOL    HW3 4564   0.427   2.453   3.744
 1061SOL    MW4 4565   0.359   2.454   3.687
 1062SOL     OW 4566   0.743   1.991   3.386
 1062SOL    HW2 4567   0.720   1.899   3.388
 1062SOL    HW3 4568   0.829   1.993   3.343
 1062SOL    MW4 4569   0.750   1.981   3.382
 1063SOL     OW 4570   0.427   2.515   3.425
 1063SOL    HW2 4571   0.507   2.565   3.411
 1063SOL    HW3 4572   0.418   2.509   3.520
 1063SOL    MW4 4573   0.436   2.521   3.435
 1064SOL     OW 4574   0.748   3.665   2.799
 1064SOL    HW2 4575   0.837   3.680   2.829
 1064SOL    HW3 4576   0.743   3.712   2.715
 1064SOL    MW4 4577   0.758   3.673   2.792
 1065SOL     OW 4578   1.404   2.040   3.696
 1065SOL    HW2 4579   1.460   1.967   3.722
 1065SOL    HW3 4580   1.374   2.078   3.778
 1065SOL    MW4 4581   1.408   2.035   3.709
 1066SOL     OW 4582   0.129   3.345   2.464
 1066SOL    HW2 4583   0.101   3.384   2.546
 1066SOL    HW3 4584   0.149   3.254   2.486
 1066SOL    MW4 4585   0.127   3.337   2.477
 1067SOL     OW 4586   0.962   3.388   2.499
 1067SOL    HW2 4587   1.045   3.342   2.483
 1067SOL    HW3 4588   0.952   3.387   2.595
 1067SOL    MW4 4589   0.972   3.381   2.509
 1068SOL     OW 4590   1.794   2.533   2.813
 1068SOL    HW2 4591   1.883   2.563   2.795
 1068SOL    HW3 4592   1.774   2.473   2.742
 1068SOL    MW4 4593   1.803   2.530   2.802
 1069SOL     OW 4594   1.645   2.712   3.693
 1069SOL    HW2 4595   1.700   2.636   3.674
 1069SOL    HW3 4596   1.647   2.720   3.788
 1069SOL    MW4 4597   1.653   2.703   3.701
 1070SOL     OW 4598   0.695   3.445   1.904
 1070SOL    HW2 4599   0.635   3.514   1.874
 1070SOL    HW3 4600   0.640   3.387   1.957
 1070SOL    MW4 4601   0.679   3.447   1.906
 1071SOL     OW 4602   1.133   2.090   2.127
 1071SOL    HW2 4603   1.066   2.066   2.064
 1071SOL    HW3 4604   1.198   2.139   2.076
 1071SOL    MW4 4605   1.133   2.092   2.112
 1072SOL     OW 4606   0.940   2.274   3.212
 1072SOL    HW2 4607   0.859   2.315   3.240
 1072SOL    HW3 4608   0.987   2.342   3.164
 1072SOL    MW4 4609   0.935   2.289   3.210
 1073SOL     OW 4610   1.200   2.612   2.835
 1073SOL    HW2 4611   1.213   2.706   2.845
 1073SOL    HW3 4612   1.161   2.602   2.749
 1073SOL    MW4 4613   1.196   2.623   2.825
 1074SOL     OW 4614   0.652   2.807   2.639
 1074SOL    HW2 4615   0.563   2.798   2.672
 1074SOL    HW3 4616   0.656   2.897   2.607
 1074SOL    MW4 4617   0.641   2.818   2.639
 1075SOL     OW 4618   1.451   2.390   2.634
 1075SOL    HW2 4619   1.396   2.311   2.633
 1075SOL    HW3 4620   1.433   2.431   2.718
 1075SOL    MW4 4621   1.441   2.385   2.643
 1076SOL     OW 4622   0.422   2.077   3.451
 1076SOL    HW2 4623   0.343   2.095   3.503
 1076SOL    HW3 4624   0.417   2.139   3.378
 1076SOL    MW4 4625   0.412   2.087   3.448
 1077SOL     OW 4626   1.070   2.594   2.591
 1077SOL    HW2 4627   1.007   2.526   2.615
 1077SOL    HW3 4628   1.090   2.575   2.499
 1077SOL    MW4 4629   1.064   2.581   2.583
 1078SOL     OW 4630   0.326   3.489   2.293
 1078SOL    HW2 4631   0.287   3.536   2.219
 1078SOL    HW3 4632   0.260   3.424   2.318
 1078SOL    MW4 4633   0.313   3.487   2.287
 1079SOL     OW 4634   0.818   2.898   2.317
 1079SOL    HW2 4635   0.820   2.872   2.224
 1079SOL    HW3 4636   0.876   2.835   2.360
 1079SOL    MW4 4637   0.826   2.887   2.311
 1080SOL     OW 4638   1.371   3.458   3.089
 1080SOL    HW2 4639   1.296   3.504   3.127
 1080SOL    HW3 4640   1.353   3.365   3.106
 1080SOL    MW4 4641   1.360   3.452   3.097
 1081SOL     OW 4642   1.375   3.666   2.519
 1081SOL    HW2 4643   1.318   3.619   2.458
 1081SOL    HW3 4644   1.461   3.627   2.506
 1081SOL    MW4 4645   1.378   3.657   2.509
 1082SOL     OW 4646   1.328   2.142   2.650
 1082SOL    HW2 4647   1.356   2.074   2.711
 1082SOL    HW3 4648   1.242   2.113   2.620
 1082SOL    MW4 4649   1.321   2.129   2.654
 1083SOL     OW 4650   0.133   3.076   2.584
 1083SOL    HW2 4651   0.197   3.108   2.647
 1083SOL    HW3 4652   0.182   3.012   2.532
 1083SOL    MW4 4653   0.148   3.072   2.585
 1084SOL     OW 4654   0.633   3.152   3.566
 1084SOL    HW2 4655   0.681   3.235   3.553
 1084SOL    HW3 4656   0.690   3.100   3.622
 1084SOL    MW4 4657   0.647   3.156   3.572
 1085SOL     OW 4658   0.209   3.394   3.706
 1085SOL    HW2 4659   0.265   3.318   3.721
 1085SOL    HW3 4660   0.158   3.372   3.628
 1085SOL    MW4 4661   0.209   3.381   3.697
 1086SOL     OW 4662   1.308   2.246   1.985
 1086SOL    HW2 4663   1.281   2.312   1.921
 1086SOL    HW3 4664   1.378   2.289   2.035
 1086SOL    MW4 4665   1.313   2.259   1.982
 1087SOL     OW 4666   0.976   1.951   1.922
 1087SOL    HW2 4667   1.032   1.943   1.844
 1087SOL    HW3 4668   0.953   1.861   1.944
 1087SOL    MW4 4669   0.981   1.938   1.915
 1088SOL     OW 4670   1.481   2.802   2.127
 1088SOL    HW2 4671   1.448   2.891   2.117
 1088SOL    HW3 4672   1.446   2.773   2.212
 1088SOL    MW4 4673   1.471   2.811   2.138
 1089SOL     OW 4674   1.094   3.231   3.315
 1089SOL    HW2 4675   1.005   3.237   3.283
 1089SOL    HW3 4676   1.138   3.310   3.283
 1089SOL    MW4 4677   1.089   3.241   3.307
 1090SOL     OW 4678   0.387   1.899   3.657
 1090SOL    HW2 4679   0.315   1.864   3.605
 1090SOL    HW3 4680   0.445   1.940   3.592
 1090SOL    MW4 4681   0.385   1.900   3.642
 1091SOL     OW 4682   0.411   3.389   2.956
 1091SOL    HW2 4683   0.456   3.451   3.013
 1091SOL    HW3 4684   0.318   3.408   2.969
 1091SOL    MW4 4685   0.404   3.399   2.963
 1092SOL     OW 4686   1.851   2.918   3.310
 1092SOL    HW2 4687   1.766   2.931   3.269
 1092SOL    HW3 4688   1.831   2.882   3.397
 1092SOL    MW4 4689   1.838   2.914   3.315
 1093SOL     OW 4690   0.833   3.457   3.064
 1093SOL    HW2 4691   0.857   3.446   2.973
 1093SOL    HW3 4692   0.756   3.514   3.062
 1093SOL    MW4 4693   0.825   3.462   3.053
 1094SOL     OW 4694   0.475   2.840   1.919
 1094SOL    HW2 4695   0.398   2.853   1.975
 1094SOL    HW3 4696   0.439   2.804   1.838
 1094SOL    MW4 4697   0.461   2.836   1.916
 1095SOL     OW 4698   1.128   2.813   2.162
 1095SOL    HW2 4699   1.038   2.834   2.137
 1095SOL    HW3 4700   1.155   2.886   2.218
 1095SOL    MW4 4701   1.120   2.825   2.165
 1096SOL     OW 4702   0.628   3.162   2.854
 1096SOL    HW2 4703   0.621   3.141   2.948
 1096SOL    HW3 4704   0.546   3.130   2.817
 1096SOL    MW4 4705   0.616   3.156   2.861
 1097SOL     OW 4706   1.492   2.172   3.256
 1097SOL    HW2 4707   1.439   2.174   3.336
 1097SOL    HW3 4708   1.477   2.085   3.219
 1097SOL    MW4 4709   1.484   2.162   3.261
 1098SOL     OW 4710   1.828   2.096   3.129
 1098SOL    HW2 4711   1.809   2.163   3.064
 1098SOL    HW3 4712   1.885   2.034   3.084
 1098SOL    MW4 4713   1.832   2.097   3.115
 1099SOL     OW 4714   0.074   3.254   3.517
 1099SOL    HW2 4715   0.118   3.187   3.463
 1099SOL    HW3 4716  -0.011   3.216   3.537
 1099SOL    MW4 4717   0.069   3.240   3.513
 1100SOL     OW 4718   0.757   1.929   2.569
 1100SOL    HW2 4719   0.686   1.990   2.551
 1100SOL    HW3 4720   0.808   1.926   2.488
 1100SOL    MW4 4721   0.753   1.935   2.556
 1101SOL     OW 4722   0.515   3.169   2.318
 1101SOL    HW2 4723   0.508   3.201   2.408
 1101SOL    HW3 4724   0.425   3.153   2.290
 1101SOL    MW4 4725   0.503   3.171   2.325
 1102SOL     OW 4726   1.110   3.562   3.227
 1102SOL    HW2 4727   1.030   3.547   3.177
 1102SOL    HW3 4728   1.117   3.657   3.234
 1102SOL    MW4 4729   1.101   3.573   3.221
 1103SOL     OW 4730   1.224   3.527   2.717
 1103SOL    HW2 4731   1.271   3.600   2.676
 1103SOL    HW3 4732   1.145   3.566   2.753
 1103SOL    MW4 4733   1.219   3.542   2.716
 1104SOL     OW 4734   1.632   3.622   2.992
 1104SOL    HW2 4735   1.675   3.592   3.072
 1104SOL    HW3 4736   1.551   3.570   2.989
 1104SOL    MW4 4737   1.627   3.611   3.002
 1105SOL     OW 4738   0.717   2.586   3.699
 1105SOL    HW2 4739   0.787   2.528   3.671
 1105SOL    HW3 4740   0.660   2.531   3.754
 1105SOL    MW4 4741   0.719   2.573   3.703
 1106SOL     OW 4742   1.504   2.798   3.332
 1106SOL    HW2 4743   1.509   2.851   3.412
 1106SOL    HW3 4744   1.466   2.715   3.360
 1106SOL    MW4 4745   1.500   2.793   3.347
 1107SOL     OW 4746   1.144   1.933   3.578
 1107SOL    HW2 4747   1.139   1.840   3.559
 1107SOL    HW3 4748   1.227   1.944   3.624
 1107SOL    MW4 4749   1.152   1.922   3.582
 1108SOL     OW 4750   0.518   2.453   2.032
 1108SOL    HW2 4751   0.484   2.509   2.102
 1108SOL    HW3 4752   0.589   2.403   2.072
 1108SOL    MW4 4753   0.524   2.454   2.046
 1109SOL     OW 4754   1.614   3.204   2.854
 1109SOL    HW2 4755   1.649   3.186   2.767
 1109SOL    HW3 4756   1.519   3.205   2.841
 1109SOL    MW4 4757   1.606   3.201   2.841
 1110SOL     OW 4758   1.043   2.852   3.223
 1110SOL    HW2 4759   1.086   2.887   3.301
 1110SOL    HW3 4760   1.026   2.929   3.169
 1110SOL    MW4 4761   1.046   2.867   3.226
 1111SOL     OW 4762   1.574   2.339   2.096
 1111SOL    HW2 4763   1.566   2.410   2.033
 1111SOL    HW3 4764   1.592   2.383   2.179
 1111SOL    MW4 4765   1.575   2.353   2.098
 1112SOL     OW 4766   0.434   1.994   2.525
 1112SOL    HW2 4767   0.484   2.037   2.456
 1112SOL    HW3 4768   0.349   2.038   2.525
 1112SOL    MW4 4769   0.431   2.007   2.516
 1113SOL     OW 4770   0.193   3.056   3.385
 1113SOL    HW2 4771   0.221   3.009   3.463
 1113SOL    HW3 4772   0.114   3.011   3.356
 1113SOL    MW4 4773   0.186   3.045   3.391
 1114SOL     OW 4774   0.701   2.383   3.352
 1114SOL    HW2 4775   0.673   2.471   3.376
 1114SOL    HW3 4776   0.670   2.327   3.423
 1114SOL    MW4 4777   0.693   2.386   3.364
 1115SOL     OW 4778   1.243   2.601   2.071
 1115SOL    HW2 4779   1.290   2.619   1.990
 1115SOL    HW3 4780   1.209   2.685   2.099
 1115SOL    MW4 4781   1.245   2.615   2.064
 1116SOL     OW 4782   0.356   2.779   2.565
 1116SOL    HW2 4783   0.414   2.835   2.513
 1116SOL    HW3 4784   0.400   2.694   2.567
 1116SOL    MW4 4785   0.369   2.776   2.558
 1117SOL     OW 4786   1.496   2.131   2.402
 1117SOL    HW2 4787   1.418   2.081   2.427
 1117SOL    HW3 4788   1.467   2.222   2.402
 1117SOL    MW4 4789   1.482   2.135   2.405
 1118SOL     OW 4790   1.082   2.093   2.561
 1118SOL    HW2 4791   1.102   2.168   2.505
 1118SOL    HW3 4792   1.062   2.132   2.646
 1118SOL    MW4 4793   1.083   2.109   2.565
 1119SOL     OW 4794   0.978   3.343   1.893
 1119SOL    HW2 4795   1.005   3.421   1.845
 1119SOL    HW3 4796   0.885   3.358   1.912
 1119SOL    MW4 4797   0.969   3.356   1.889
 1120SOL     OW 4798   1.842   2.866   3.580
 1120SOL    HW2 4799   1.755   2.846   3.616
 1120SOL    HW3 4800   1.896   2.792   3.605
 1120SOL    MW4 4801   1.837   2.855   3.588
 1121SOL     OW 4802   0.063   3.379   2.737
 1121SOL    HW2 4803   0.095   3.383   2.828
 1121SOL    HW3 4804  -0.032   3.387   2.745
 1121SOL    MW4 4805   0.055   3.382   2.750
 1122SOL     OW 4806   0.018   2.505   2.284
 1122SOL    HW2 4807  -0.042   2.477   2.354
 1122SOL    HW3 4808   0.092   2.445   2.290
 1122SOL    MW4 4809   0.020   2.494   2.293
 1123SOL     OW 4810   1.586   3.717   3.718
 1123SOL    HW2 4811   1.631   3.641   3.683
 1123SOL    HW3 4812   1.624   3.730   3.805
 1123SOL    MW4 4813   1.596   3.710   3.724
 1124SOL     OW 4814   1.186   3.236   2.444
 1124SOL    HW2 4815   1.209   3.187   2.522
 1124SOL    HW3 4816   1.267   3.278   2.416
 1124SOL    MW4 4817   1.199   3.236   2.451
 1125SOL     OW 4818   0.444   2.244   3.173
 1125SOL    HW2 4819   0.477   2.325   3.213
 1125SOL    HW3 4820   0.417   2.270   3.085
 1125SOL    MW4 4821   0.443   2.258   3.167
 1126SOL     OW 4822   0.398   2.211   2.909
 1126SOL    HW2 4823   0.428   2.125   2.880
 1126SOL    HW3 4824   0.303   2.204   2.912
 1126SOL    MW4 4825   0.390   2.200   2.907
 1127SOL     OW 4826   1.227   2.420   3.600
 1127SOL    HW2 4827   1.279   2.355   3.553
 1127SOL    HW3 4828   1.185   2.471   3.530
 1127SOL    MW4 4829   1.228   2.417   3.583
 1128SOL     OW 4830   1.326   2.215   3.461
 1128SOL    HW2 4831   1.233   2.199   3.448
 1128SOL    HW3 4832   1.352   2.153   3.529
 1128SOL    MW4 4833   1.316   2.205   3.468
 1129SOL     OW 4834   0.541   1.989   2.800
 1129SOL    HW2 4835   0.551   1.898   2.826
 1129SOL    HW3 4836   0.497   1.985   2.715
 1129SOL    MW4 4837   0.537   1.977   2.792
 1130SOL     OW 4838   0.635   3.604   3.346
 1130SOL    HW2 4839   0.552   3.589   3.391
 1130SOL    HW3 4840   0.694   3.537   3.381
 1130SOL    MW4 4841   0.633   3.594   3.356
 1131SOL     OW 4842   1.692   2.311   2.971
 1131SOL    HW2 4843   1.625   2.344   3.031
 1131SOL    HW3 4844   1.735   2.389   2.937
 1131SOL    MW4 4845   1.690   2.326   2.975
 1132SOL     OW 4846   1.870   3.031   2.941
 1132SOL    HW2 4847   1.863   2.971   2.866
 1132SOL    HW3 4848   1.796   3.091   2.930
 1132SOL    MW4 4849   1.860   3.031   2.930
 1133SOL     OW 4850   1.252   2.893   2.859
 1133SOL    HW2 4851   1.266   2.865   2.950
 1133SOL    HW3 4852   1.338   2.924   2.831
 1133SOL    MW4 4853   1.265   2.894   2.868
 1134SOL     OW 4854   1.335   2.388   3.138
 1134SOL    HW2 4855   1.356   2.389   3.045
 1134SOL    HW3 4856   1.380   2.310   3.171
 1134SOL    MW4 4857   1.342   2.378   3.130
 1135SOL     OW 4858   1.828   2.519   3.680
 1135SOL    HW2 4859   1.865   2.464   3.749
 1135SOL    HW3 4860   1.853   2.476   3.598
 1135SOL    MW4 4861   1.835   2.507   3.679
 1136SOL     OW 4862   1.375   2.817   3.731
 1136SOL    HW2 4863   1.441   2.765   3.685
 1136SOL    HW3 4864   1.395   2.804   3.824
 1136SOL    MW4 4865   1.386   2.808   3.738
 1137SOL     OW 4866   1.326   1.903   2.080
 1137SOL    HW2 4867   1.400   1.947   2.123
 1137SOL    HW3 4868   1.250   1.957   2.102
 1137SOL    MW4 4869   1.326   1.915   2.088
 1138SOL     OW 4870   1.386   2.678   2.358
 1138SOL    HW2 4871   1.301   2.648   2.328
 1138SOL    HW3 4872   1.378   2.685   2.453
 1138SOL    MW4 4873   1.374   2.676   2.367
 1139SOL     OW 4874   0.462   3.141   3.089
 1139SOL    HW2 4875   0.474   3.168   3.180
 1139SOL    HW3 4876   0.443   3.222   3.042
 1139SOL    MW4 4877   0.461   3.156   3.094
 1140SOL     OW 4878   0.746   2.121   2.912
 1140SOL    HW2 4879   0.719   2.123   3.003
 1140SOL    HW3 4880   0.676   2.073   2.867
 1140SOL    MW4 4881   0.734   2.117   2.919
 1141SOL     OW 4882   0.600   3.613   3.074
 1141SOL    HW2 4883   0.652   3.690   3.051
 1141SOL    HW3 4884   0.609   3.605   3.169
 1141SOL    MW4 4885   0.609   3.620   3.085
 1142SOL     OW 4886   1.502   3.198   3.306
 1142SOL    HW2 4887   1.487   3.127   3.369
 1142SOL    HW3 4888   1.548   3.156   3.234
 1142SOL    MW4 4889   1.508   3.182   3.306
 1143SOL     OW 4890   0.576   2.929   3.423
 1143SOL    HW2 4891   0.613   2.934   3.335
 1143SOL    HW3 4892   0.615   3.002   3.470
 1143SOL    MW4 4893   0.586   2.939   3.418
 1144SOL     OW 4894   0.756   2.972   3.235
 1144SOL    HW2 4895   0.815   2.918   3.288
 1144SOL    HW3 4896   0.771   2.944   3.145
 1144SOL    MW4 4897   0.766   2.961   3.231
 1145SOL     OW 4898   0.759   2.344   2.084
 1145SOL    HW2 4899   0.832   2.393   2.047
 1145SOL    HW3 4900   0.775   2.253   2.058
 1145SOL    MW4 4901   0.771   2.339   2.077
 1146SOL     OW 4902   1.567   3.461   3.407
 1146SOL    HW2 4903   1.609   3.446   3.492
 1146SOL    HW3 4904   1.558   3.374   3.369
 1146SOL    MW4 4905   1.571   3.449   3.414
 1147SOL     OW 4906   1.227   1.940   2.998
 1147SOL    HW2 4907   1.282   1.949   2.920
 1147SOL    HW3 4908   1.282   1.974   3.069
 1147SOL    MW4 4909   1.241   1.945   2.997
 1148SOL     OW 4910   0.234   2.853   2.182
 1148SOL    HW2 4911   0.171   2.869   2.111
 1148SOL    HW3 4912   0.181   2.816   2.253
 1148SOL    MW4 4913   0.219   2.850   2.182
 1149SOL     OW 4914   0.590   3.207   2.041
 1149SOL    HW2 4915   0.605   3.183   2.133
 1149SOL    HW3 4916   0.498   3.185   2.025
 1149SOL    MW4 4917   0.580   3.200   2.051
 1150SOL     OW 4918   1.129   3.438   2.193
 1150SOL    HW2 4919   1.137   3.356   2.144
 1150SOL    HW3 4920   1.048   3.477   2.160
 1150SOL    MW4 4921   1.119   3.433   2.183
 1151SOL     OW 4922   0.388   3.596   2.762
 1151SOL    HW2 4923   0.392   3.507   2.797
 1151SOL    HW3 4924   0.414   3.587   2.671
 1151SOL    MW4 4925   0.391   3.584   2.754
 1152SOL     OW 4926   1.005   3.074   3.005
 1152SOL    HW2 4927   0.937   3.008   3.021
 1152SOL    HW3 4928   1.023   3.068   2.912
 1152SOL    MW4 4929   0.998   3.065   2.996
 1153SOL     OW 4930   0.094   3.349   3.256
 1153SOL    HW2 4931   0.084   3.307   3.342
 1153SOL    HW3 4932   0.015   3.402   3.246
 1153SOL    MW4 4933   0.083   3.350   3.267
 1154SOL     OW 4934   0.998   2.213   2.826
 1154SOL    HW2 4935   0.928   2.165   2.871
 1154SOL    HW3 4936   1.030   2.276   2.890
 1154SOL    MW4 4937   0.993   2.215   2.840
 1155SOL     OW 4938   0.649   2.649   3.446
 1155SOL    HW2 4939   0.642   2.744   3.434
 1155SOL    HW3 4940   0.658   2.638   3.541
 1155SOL    MW4 4941   0.650   2.661   3.456
 1156SOL     OW 4942   0.370   3.164   3.704
 1156SOL    HW2 4943   0.442   3.166   3.641
 1156SOL    HW3 4944   0.340   3.073   3.703
 1156SOL    MW4 4945   0.375   3.153   3.696
 1157SOL     OW 4946   1.454   1.927   3.171
 1157SOL    HW2 4947   1.525   1.873   3.135
 1157SOL    HW3 4948   1.453   1.906   3.264
 1157SOL    MW4 4949   1.463   1.918   3.179
 1158SOL     OW 4950   1.654   3.457   3.655
 1158SOL    HW2 4951   1.627   3.454   3.746
 1158SOL    HW3 4952   1.750   3.461   3.658
 1158SOL    MW4 4953   1.664   3.457   3.667
 1159SOL     OW 4954   0.465   2.319   2.639
 1159SOL    HW2 4955   0.536   2.267   2.602
 1159SOL    HW3 4956   0.451   2.284   2.726
 1159SOL    MW4 4957   0.473   2.308   2.646
 1160SOL     OW 4958   0.020   3.654   3.711
 1160SOL    HW2 4959   0.070   3.632   3.633
 1160SOL    HW3 4960   0.028   3.749   3.719
 1160SOL    MW4 4961   0.028   3.663   3.702
 1161SOL     OW 4962   0.781   3.412   2.715
 1161SOL    HW2 4963   0.709   3.349   2.728
 1161SOL    HW3 4964   0.742   3.497   2.733
 1161SOL    MW4 4965   0.765   3.415   2.718
 1162SOL     OW 4966   1.101   2.260   2.363
 1162SOL    HW2 4967   1.123   2.197   2.295
 1162SOL    HW3 4968   1.006   2.252   2.374
 1162SOL    MW4 4969   1.091   2.251   2.355
 1163SOL     OW 4970   0.186   1.950   2.295
 1163SOL    HW2 4971   0.257   1.971   2.234
 1163SOL    HW3 4972   0.140   1.878   2.253
 1163SOL    MW4 4973   0.190   1.944   2.281
 1164SOL     OW 4974   0.017   2.417   3.438
 1164SOL    HW2 4975   0.081   2.483   3.413
 1164SOL    HW3 4976  -0.064   2.444   3.395
 1164SOL    MW4 4977   0.015   2.429   3.430
 1165SOL     OW 4978   1.755   3.324   2.395
 1165SOL    HW2 4979   1.725   3.257   2.456
 1165SOL    HW3 4980   1.849   3.330   2.409
 1165SOL    MW4 4981   1.763   3.316   2.405
 1166SOL     OW 4982   1.311   3.001   2.325
 1166SOL    HW2 4983   1.283   3.087   2.358
 1166SOL    HW3 4984   1.339   3.017   2.235
 1166SOL    MW4 4985   1.311   3.015   2.317
 1167SOL     OW 4986   0.973   1.921   2.378
 1167SOL    HW2 4987   1.010   1.980   2.443
 1167SOL    HW3 4988   0.950   1.977   2.304
 1167SOL    MW4 4989   0.974   1.936   2.377
 1168SOL     OW 4990   1.826   2.803   2.800
 1168SOL    HW2 4991   1.817   2.835   2.711
 1168SOL    HW3 4992   1.779   2.719   2.800
 1168SOL    MW4 4993   1.819   2.796   2.790
 1169SOL     OW 4994   0.202   2.643   3.379
 1169SOL    HW2 4995   0.223   2.712   3.317
 1169SOL    HW3 4996   0.282   2.590   3.384
 1169SOL    MW4 4997   0.215   2.644   3.373
 1170SOL     OW 4998   1.738   2.734   2.501
 1170SOL    HW2 4999   1.832   2.723   2.489
 1170SOL    HW3 5000   1.714   2.806   2.442
 1170SOL    MW4 5001   1.748   2.742   2.492
 1171SOL     OW 5002   0.187   2.658   3.646
 1171SOL    HW2 5003   0.113   2.602   3.672
 1171SOL    HW3 5004   0.182   2.661   3.551
 1171SOL    MW4 5005   0.176   2.651   3.636
 1172SOL     OW 5006   0.353   1.945   3.096
 1172SOL    HW2 5007   0.396   2.029   3.116
 1172SOL    HW3 5008   0.426   1.883   3.089
 1172SOL    MW4 5009   0.368   1.948   3.097
 1173SOL     OW 5010   0.394   2.612   2.274
 1173SOL    HW2 5011   0.394   2.707   2.259
 1173SOL    HW3 5012   0.471   2.596   2.328
 1173SOL    MW4 5013   0.404   2.623   2.279
 1174SOL     OW 5014   1.170   2.471   3.338
 1174SOL    HW2 5015   1.206   2.444   3.254
 1174SOL    HW3 5016   1.083   2.505   3.317
 1174SOL    MW4 5017   1.164   2.472   3.325
 1175SOL     OW 5018   0.153   2.343   2.563
 1175SOL    HW2 5019   0.215   2.350   2.636
 1175SOL    HW3 5020   0.153   2.250   2.540
 1175SOL    MW4 5021   0.161   2.332   2.570
 1176SOL     OW 5022   1.700   3.683   2.095
 1176SOL    HW2 5023   1.767   3.716   2.035
 1176SOL    HW3 5024   1.657   3.762   2.129
 1176SOL    MW4 5025   1.702   3.698   2.091
 1177SOL     OW 5026   0.835   2.604   3.047
 1177SOL    HW2 5027   0.793   2.522   3.023
 1177SOL    HW3 5028   0.836   2.603   3.143
 1177SOL    MW4 5029   0.828   2.593   3.056
 1178SOL     OW 5030   1.506   3.737   3.446
 1178SOL    HW2 5031   1.509   3.643   3.429
 1178SOL    HW3 5032   1.529   3.745   3.538
 1178SOL    MW4 5033   1.509   3.725   3.456
 1179SOL     OW 5034   0.639   2.074   3.152
 1179SOL    HW2 5035   0.570   2.137   3.173
 1179SOL    HW3 5036   0.666   2.038   3.237
 1179SOL    MW4 5037   0.633   2.077   3.165
 1180SOL     OW 5038   0.022   2.915   2.021
 1180SOL    HW2 5039  -0.009   2.980   2.084
 1180SOL    HW3 5040  -0.029   2.837   2.040
 1180SOL    MW4 5041   0.012   2.912   2.031
 1181SOL     OW 5042   1.434   1.927   2.769
 1181SOL    HW2 5043   1.522   1.936   2.806
 1181SOL    HW3 5044   1.444   1.868   2.695
 1181SOL    MW4 5045   1.448   1.921   2.763
 1182SOL     OW 5046   1.466   2.666   2.613
 1182SOL    HW2 5047   1.546   2.681   2.562
 1182SOL    HW3 5048   1.459   2.571   2.619
 1182SOL    MW4 5049   1.475   2.655   2.608
 1183SOL     OW 5050   0.606   3.715   1.963
 1183SOL    HW2 5051   0.511   3.715   1.955
 1183SOL    HW3 5052   0.622   3.661   2.041
 1183SOL    MW4 5053   0.596   3.709   1.972
 1184SOL     OW 5054   0.916   2.592   3.310
 1184SOL    HW2 5055   0.985   2.659   3.307
 1184SOL    HW3 5056   0.849   2.630   3.366
 1184SOL    MW4 5057   0.917   2.605   3.317
 1185SOL     OW 5058   0.334   2.892   3.558
 1185SOL    HW2 5059   0.288   2.808   3.560
 1185SOL    HW3 5060   0.391   2.886   3.482
 1185SOL    MW4 5061   0.336   2.880   3.550
 1186SOL     OW 5062   1.451   2.535   1.879
 1186SOL    HW2 5063   1.379   2.511   1.821
 1186SOL    HW3 5064   1.517   2.572   1.821
 1186SOL    MW4 5065   1.450   2.537   1.864
 1187SOL     OW 5066   0.585   3.267   2.559
 1187SOL    HW2 5067   0.650   3.200   2.580
 1187SOL    HW3 5068   0.637   3.344   2.536
 1187SOL    MW4 5069   0.600   3.269   2.558
 1188SOL     OW 5070   0.846   2.432   2.689
 1188SOL    HW2 5071   0.786   2.450   2.761
 1188SOL    HW3 5072   0.880   2.344   2.708
 1188SOL    MW4 5073   0.842   2.422   2.702
 1189SOL     OW 5074   1.787   1.931   3.358
 1189SOL    HW2 5075   1.708   1.977   3.386
 1189SOL    HW3 5076   1.822   1.985   3.287
 1189SOL    MW4 5077   1.781   1.944   3.352
 1190SOL     OW 5078   1.071   3.015   2.708
 1190SOL    HW2 5079   1.163   2.996   2.726
 1190SOL    HW3 5080   1.044   2.945   2.648
 1190SOL    MW4 5081   1.079   3.003   2.702
 1191SOL     OW 5082   0.864   2.835   2.063
 1191SOL    HW2 5083   0.850   2.747   2.028
 1191SOL    HW3 5084   0.815   2.892   2.004
 1191SOL    MW4 5085   0.856   2.830   2.051
 1192SOL     OW 5086   1.345   3.253   2.804
 1192SOL    HW2 5087   1.318   3.337   2.769
 1192SOL    HW3 5088   1.305   3.248   2.891
 1192SOL    MW4 5089   1.338   3.262   2.810
 1193SOL     OW 5090   1.264   3.201   3.072
 1193SOL    HW2 5091   1.275   3.168   3.161
 1193SOL    HW3 5092   1.183   3.160   3.041
 1193SOL    MW4 5093   1.254   3.193   3.078
 1194SOL     OW 5094   0.277   2.559   2.842
 1194SOL    HW2 5095   0.227   2.558   2.923
 1194SOL    HW3 5096   0.297   2.651   2.826
 1194SOL    MW4 5097   0.273   2.571   2.850
 1195SOL     OW 5098   1.344   3.323   3.604
 1195SOL    HW2 5099   1.344   3.417   3.620
 1195SOL    HW3 5100   1.389   3.313   3.520
 1195SOL    MW4 5101   1.350   3.333   3.595
 1196SOL     OW 5102   1.583   2.041   2.165
 1196SOL    HW2 5103   1.576   2.045   2.260
 1196SOL    HW3 5104   1.595   2.132   2.138
 1196SOL    MW4 5105   1.584   2.054   2.173
 1197SOL     OW 5106   0.872   2.604   2.279
 1197SOL    HW2 5107   0.852   2.590   2.186
 1197SOL    HW3 5108   0.965   2.583   2.286
 1197SOL    MW4 5109   0.882   2.599   2.268
 1198SOL     OW 5110   0.199   2.227   3.583
 1198SOL    HW2 5111   0.156   2.286   3.520
 1198SOL    HW3 5112   0.267   2.282   3.623
 1198SOL    MW4 5113   0.203   2.242   3.580
 1199SOL     OW 5114   1.311   2.847   3.128
 1199SOL    HW2 5115   1.374   2.844   3.201
 1199SOL    HW3 5116   1.227   2.865   3.170
 1199SOL    MW4 5117   1.307   2.849   3.143
 1200SOL     OW 5118   0.855   3.562   2.317
 1200SOL    HW2 5119   0.913   3.633   2.344
 1200SOL    HW3 5120   0.878   3.490   2.375
 1200SOL    MW4 5121   0.866   3.562   2.328
 1201SOL     OW 5122   1.650   2.024   2.907
 1201SOL    HW2 5123   1.695   1.942   2.926
 1201SOL    HW3 5124   1.670   2.080   2.983
 1201SOL    MW4 5125   1.660   2.020   2.919
 1202SOL     OW 5126   0.098   1.867   3.006
 1202SOL    HW2 5127   0.089   1.868   2.911
 1202SOL    HW3 5128   0.192   1.879   3.021
 1202SOL    MW4 5129   0.110   1.870   2.997
 1203SOL     OW 5130   1.735   3.060   2.626
 1203SOL    HW2 5131   1.714   3.006   2.549
 1203SOL    HW3 5132   1.831   3.058   2.630
 1203SOL    MW4 5133   1.744   3.053   2.615
 1204SOL     OW 5134   0.427   3.205   3.369
 1204SOL    HW2 5135   0.348   3.155   3.392
 1204SOL    HW3 5136   0.497   3.164   3.419
 1204SOL    MW4 5137   0.425   3.193   3.379
 1205SOL     OW 5138   0.311   1.994   2.052
 1205SOL    HW2 5139   0.240   2.049   2.020
 1205SOL    HW3 5140   0.353   1.960   1.973
 1205SOL    MW4 5141   0.307   1.996   2.038
 1206SOL     OW 5142   1.435   2.491   2.888
 1206SOL    HW2 5143   1.358   2.537   2.854
 1206SOL    HW3 5144   1.492   2.560   2.922
 1206SOL    MW4 5145   1.432   2.506   2.888
 1207SOL     OW 5146   0.067   2.093   1.901
 1207SOL    HW2 5147   0.034   2.172   1.945
 1207SOL    HW3 5148   0.122   2.126   1.830
 1207SOL    MW4 5149   0.070   2.107   1.898
 1208SOL     OW 5150   0.101   3.350   2.090
 1208SOL    HW2 5151   0.118   3.434   2.132
 1208SOL    HW3 5152   0.136   3.359   2.002
 1208SOL    MW4 5153   0.106   3.363   2.084
 1209SOL     OW 5154   1.373   3.439   2.307
 1209SOL    HW2 5155   1.436   3.429   2.236
 1209SOL    HW3 5156   1.290   3.459   2.262
 1209SOL    MW4 5157   1.370   3.440   2.292
 1210SOL     OW 5158   1.736   2.707   3.993
 1210SOL    HW2 5159   1.777   2.649   4.058
 1210SOL    HW3 5160   1.643   2.699   4.010
 1210SOL    MW4 5161   1.730   2.699   4.003
 1211SOL     OW 5162   1.602   2.639   4.988
 1211SOL    HW2 5163   1.557   2.706   5.039
 1211SOL    HW3 5164   1.690   2.675   4.974
 1211SOL    MW4 5165   1.608   2.652   4.992
 1212SOL     OW 5166   0.530   2.890   4.222
 1212SOL    HW2 5167   0.620   2.865   4.206
 1212SOL    HW3 5168   0.526   2.983   4.199
 1212SOL    MW4 5169   0.542   2.899   4.217
 1213SOL     OW 5170   1.646   3.593   4.364
 1213SOL    HW2 5171   1.658   3.539   4.442
 1213SOL    HW3 5172   1.683   3.541   4.293
 1213SOL    MW4 5173   1.652   3.578   4.365
 1214SOL     OW 5174   1.025   3.478   5.365
 1214SOL    HW2 5175   1.066   3.514   5.286
 1214SOL    HW3 5176   1.060   3.389   5.372
 1214SOL    MW4 5177   1.036   3.471   5.356
 1215SOL     OW 5178   1.582   3.033   4.969
 1215SOL    HW2 5179   1.503   2.998   4.927
 1215SOL    HW3 5180   1.609   3.105   4.913
 1215SOL    MW4 5181   1.575   3.038   4.956
 1216SOL     OW 5182   0.814   2.346   4.235
 1216SOL    HW2 5183   0.789   2.434   4.263
 1216SOL    HW3 5184   0.811   2.349   4.139
 1216SOL    MW4 5185   0.810   2.358   4.227
 1217SOL     OW 5186   0.256   2.374   4.163
 1217SOL    HW2 5187   0.288   2.462   4.145
 1217SOL    HW3 5188   0.244   2.372   4.258
 1217SOL    MW4 5189   0.259   2.386   4.175
 1218SOL     OW 5190   0.334   2.787   5.064
 1218SOL    HW2 5191   0.397   2.734   5.015
 1218SOL    HW3 5192   0.315   2.861   5.007
 1218SOL    MW4 5193   0.340   2.789   5.051
 1219SOL     OW 5194   0.655   2.129   4.250
 1219SOL    HW2 5195   0.713   2.205   4.252
 1219SOL    HW3 5196   0.590   2.150   4.183
 1219SOL    MW4 5197   0.654   2.141   4.241
 1220SOL     OW 5198   0.742   3.056   4.425
 1220SOL    HW2 5199   0.822   3.059   4.477
 1220SOL    HW3 5200   0.770   3.023   4.339
 1220SOL    MW4 5201   0.756   3.052   4.420
 1221SOL     OW 5202   0.767   3.397   5.328
 1221SOL    HW2 5203   0.851   3.423   5.367
 1221SOL    HW3 5204   0.791   3.341   5.254
 1221SOL    MW4 5205   0.781   3.393   5.323
 1222SOL     OW 5206   0.519   2.560   4.416
 1222SOL    HW2 5207   0.504   2.480   4.467
 1222SOL    HW3 5208   0.601   2.595   4.450
 1222SOL    MW4 5209   0.527   2.552   4.428
 1223SOL     OW 5210   0.856   3.246   5.101
 1223SOL    HW2 5211   0.820   3.312   5.041
 1223SOL    HW3 5212   0.784   3.184   5.114
 1223SOL    MW4 5213   0.842   3.246   5.095
 1224SOL     OW 5214   0.661   2.386   4.793
 1224SOL    HW2 5215   0.567   2.382   4.811
 1224SOL    HW3 5216   0.691   2.295   4.802
 1224SOL    MW4 5217   0.652   2.374   4.796
 1225SOL     OW 5218   0.407   2.800   4.697
 1225SOL    HW2 5219   0.362   2.807   4.613
 1225SOL    HW3 5220   0.387   2.883   4.741
 1225SOL    MW4 5221   0.399   2.812   4.691
 1226SOL     OW 5222   0.104   3.646   4.572
 1226SOL    HW2 5223   0.193   3.638   4.607
 1226SOL    HW3 5224   0.068   3.558   4.577
 1226SOL    MW4 5225   0.111   3.633   4.577
 1227SOL     OW 5226   1.369   3.038   3.941
 1227SOL    HW2 5227   1.287   3.074   3.907
 1227SOL    HW3 5228   1.437   3.081   3.890
 1227SOL    MW4 5229   1.367   3.048   3.929
 1228SOL     OW 5230   0.368   3.173   4.607
 1228SOL    HW2 5231   0.344   3.226   4.683
 1228SOL    HW3 5232   0.424   3.231   4.555
 1228SOL    MW4 5233   0.372   3.188   4.610
 1229SOL     OW 5234   0.930   2.817   4.417
 1229SOL    HW2 5235   0.844   2.804   4.457
 1229SOL    HW3 5236   0.983   2.744   4.449
 1229SOL    MW4 5237   0.926   2.806   4.426
 1230SOL     OW 5238   0.338   3.469   5.202
 1230SOL    HW2 5239   0.246   3.445   5.187
 1230SOL    HW3 5240   0.382   3.386   5.219
 1230SOL    MW4 5241   0.332   3.454   5.201
 1231SOL     OW 5242   0.921   3.179   4.134
 1231SOL    HW2 5243   0.898   3.241   4.202
 1231SOL    HW3 5244   0.878   3.097   4.160
 1231SOL    MW4 5245   0.913   3.175   4.145
 1232SOL     OW 5246   1.794   2.180   4.590
 1232SOL    HW2 5247   1.731   2.160   4.659
 1232SOL    HW3 5248   1.784   2.109   4.527
 1232SOL    MW4 5249   1.784   2.167   4.591
 1233SOL     OW 5250   0.418   2.152   4.102
 1233SOL    HW2 5251   0.392   2.114   4.018
 1233SOL    HW3 5252   0.355   2.222   4.118
 1233SOL    MW4 5253   0.407   2.155   4.093
 1234SOL     OW 5254   0.253   3.113   4.139
 1234SOL    HW2 5255   0.201   3.181   4.095
 1234SOL    HW3 5256   0.250   3.039   4.079
 1234SOL    MW4 5257   0.245   3.112   4.126
 1235SOL     OW 5258   0.915   3.576   3.917
 1235SOL    HW2 5259   0.870   3.592   4.000
 1235SOL    HW3 5260   0.846   3.541   3.859
 1235SOL    MW4 5261   0.901   3.573   3.919
 1236SOL     OW 5262   1.850   2.349   3.892
 1236SOL    HW2 5263   1.759   2.351   3.920
 1236SOL    HW3 5264   1.895   2.411   3.950
 1236SOL    MW4 5265   1.843   2.357   3.902
 1237SOL     OW 5266   1.595   2.952   4.242
 1237SOL    HW2 5267   1.505   2.952   4.277
 1237SOL    HW3 5268   1.588   2.998   4.159
 1237SOL    MW4 5269   1.582   2.958   4.236
 1238SOL     OW 5270   1.395   2.587   5.314
 1238SOL    HW2 5271   1.464   2.525   5.291
 1238SOL    HW3 5272   1.320   2.561   5.261
 1238SOL    MW4 5273   1.395   2.574   5.305
 1239SOL     OW 5274   0.136   3.467   4.866
 1239SOL    HW2 5275   0.119   3.413   4.943
 1239SOL    HW3 5276   0.124   3.557   4.896
 1239SOL    MW4 5277   0.133   3.471   4.880
 1240SOL     OW 5278   1.131   2.974   5.306
 1240SOL    HW2 5279   1.116   3.067   5.291
 1240SOL    HW3 5280   1.226   2.964   5.306
 1240SOL    MW4 5281   1.140   2.984   5.303
 1241SOL     OW 5282   0.927   2.398   5.507
 1241SOL    HW2 5283   1.017   2.399   5.474
 1241SOL    HW3 5284   0.886   2.323   5.465
 1241SOL    MW4 5285   0.933   2.388   5.498
 1242SOL     OW 5286   1.502   2.930   4.634
 1242SOL    HW2 5287   1.505   2.864   4.565
 1242SOL    HW3 5288   1.587   2.973   4.630
 1242SOL    MW4 5289   1.514   2.926   4.625
 1243SOL     OW 5290   1.122   2.533   4.203
 1243SOL    HW2 5291   1.148   2.557   4.114
 1243SOL    HW3 5292   1.104   2.440   4.199
 1243SOL    MW4 5293   1.124   2.525   4.190
 1244SOL     OW 5294   1.787   3.153   4.054
 1244SOL    HW2 5295   1.743   3.194   4.129
 1244SOL    HW3 5296   1.844   3.221   4.019
 1244SOL    MW4 5297   1.789   3.167   4.059
 1245SOL     OW 5298   0.707   2.202   5.457
 1245SOL    HW2 5299   0.717   2.128   5.397
 1245SOL    HW3 5300   0.743   2.171   5.540
 1245SOL    MW4 5301   0.713   2.188   5.459
 1246SOL     OW 5302   0.443   3.569   4.372
 1246SOL    HW2 5303   0.475   3.657   4.350
 1246SOL    HW3 5304   0.396   3.541   4.294
 1246SOL    MW4 5305   0.442   3.577   4.359
 1247SOL     OW 5306   1.827   1.931   4.421
 1247SOL    HW2 5307   1.881   1.882   4.483
 1247SOL    HW3 5308   1.770   1.865   4.382
 1247SOL    MW4 5309   1.827   1.915   4.423
 1248SOL     OW 5310   0.159   3.629   3.949
 1248SOL    HW2 5311   0.188   3.719   3.941
 1248SOL    HW3 5312   0.109   3.612   3.870
 1248SOL    MW4 5313   0.157   3.637   3.938
 1249SOL     OW 5314   0.946   1.884   4.834
 1249SOL    HW2 5315   0.905   1.962   4.796
 1249SOL    HW3 5316   1.040   1.902   4.829
 1249SOL    MW4 5317   0.952   1.896   4.829
 1250SOL     OW 5318   1.563   3.437   3.920
 1250SOL    HW2 5319   1.611   3.506   3.966
 1250SOL    HW3 5320   1.484   3.481   3.889
 1250SOL    MW4 5321   1.558   3.451   3.923
 1251SOL     OW 5322   0.961   2.562   3.864
 1251SOL    HW2 5323   0.963   2.509   3.785
 1251SOL    HW3 5324   1.049   2.599   3.870
 1251SOL    MW4 5325   0.973   2.561   3.853
 1252SOL     OW 5326   1.575   2.488   4.200
 1252SOL    HW2 5327   1.614   2.488   4.287
 1252SOL    HW3 5328   1.516   2.564   4.200
 1252SOL    MW4 5329   1.572   2.499   4.211
 1253SOL     OW 5330   0.892   2.855   5.329
 1253SOL    HW2 5331   0.869   2.835   5.419
 1253SOL    HW3 5332   0.977   2.899   5.334
 1253SOL    MW4 5333   0.899   2.858   5.341
 1254SOL     OW 5334   0.972   1.992   5.089
 1254SOL    HW2 5335   0.978   1.954   5.002
 1254SOL    HW3 5336   0.961   2.086   5.074
 1254SOL    MW4 5337   0.973   2.000   5.077
 1255SOL     OW 5338   1.061   2.481   4.923
 1255SOL    HW2 5339   1.136   2.510   4.870
 1255SOL    HW3 5340   0.993   2.546   4.907
 1255SOL    MW4 5341   1.062   2.493   4.913
 1256SOL     OW 5342   1.611   2.449   5.200
 1256SOL    HW2 5343   1.592   2.358   5.179
 1256SOL    HW3 5344   1.589   2.498   5.121
 1256SOL    MW4 5345   1.606   2.442   5.187
 1257SOL     OW 5346   1.753   3.543   5.104
 1257SOL    HW2 5347   1.681   3.505   5.155
 1257SOL    HW3 5348   1.770   3.628   5.145
 1257SOL    MW4 5349   1.747   3.548   5.116
 1258SOL     OW 5350   1.058   2.187   5.306
 1258SOL    HW2 5351   1.024   2.226   5.225
 1258SOL    HW3 5352   1.036   2.095   5.299
 1258SOL    MW4 5353   1.051   2.180   5.296
 1259SOL     OW 5354   1.467   3.001   5.382
 1259SOL    HW2 5355   1.549   3.042   5.412
 1259SOL    HW3 5356   1.430   2.963   5.462
 1259SOL    MW4 5357   1.473   3.002   5.397
 1260SOL     OW 5358   1.762   2.374   4.366
 1260SOL    HW2 5359   1.851   2.343   4.383
 1260SOL    HW3 5360   1.705   2.314   4.414
 1260SOL    MW4 5361   1.765   2.362   4.375
 1261SOL     OW 5362   0.188   2.088   4.395
 1261SOL    HW2 5363   0.179   2.028   4.321
 1261SOL    HW3 5364   0.121   2.059   4.458
 1261SOL    MW4 5365   0.178   2.075   4.393
 1262SOL     OW 5366   1.131   3.181   3.956
 1262SOL    HW2 5367   1.081   3.183   4.038
 1262SOL    HW3 5368   1.065   3.199   3.888
 1262SOL    MW4 5369   1.117   3.183   3.958
 1263SOL     OW 5370   0.135   2.261   4.758
 1263SOL    HW2 5371   0.107   2.352   4.767
 1263SOL    HW3 5372   0.072   2.222   4.697
 1263SOL    MW4 5373   0.122   2.267   4.752
 1264SOL     OW 5374   0.594   3.599   4.064
 1264SOL    HW2 5375   0.515   3.557   4.097
 1264SOL    HW3 5376   0.660   3.582   4.131
 1264SOL    MW4 5377   0.593   3.591   4.077
 1265SOL     OW 5378   1.722   3.119   5.461
 1265SOL    HW2 5379   1.772   3.045   5.493
 1265SOL    HW3 5380   1.668   3.146   5.536
 1265SOL    MW4 5381   1.722   3.113   5.474
 1266SOL     OW 5382   0.730   3.014   3.771
 1266SOL    HW2 5383   0.652   2.960   3.758
 1266SOL    HW3 5384   0.701   3.087   3.824
 1266SOL    MW4 5385   0.716   3.016   3.776
 1267SOL     OW 5386   1.856   2.754   4.963
 1267SOL    HW2 5387   1.872   2.792   4.876
 1267SOL    HW3 5388   1.890   2.820   5.024
 1267SOL    MW4 5389   1.863   2.767   4.959
 1268SOL     OW 5390   1.648   3.463   4.632
 1268SOL    HW2 5391   1.677   3.530   4.693
 1268SOL    HW3 5392   1.629   3.387   4.687
 1268SOL    MW4 5393   1.650   3.463   4.647
 1269SOL     OW 5394   1.311   3.530   3.839
 1269SOL    HW2 5395   1.237   3.493   3.889
 1269SOL    HW3 5396   1.319   3.620   3.872
 1269SOL    MW4 5397   1.302   3.537   3.851
 1270SOL     OW 5398   0.119   2.536   4.928
 1270SOL    HW2 5399   0.181   2.566   4.994
 1270SOL    HW3 5400   0.053   2.605   4.922
 1270SOL    MW4 5401   0.118   2.549   4.935
 1271SOL     OW 5402   1.535   3.204   3.781
 1271SOL    HW2 5403   1.482   3.253   3.717
 1271SOL    HW3 5404   1.566   3.270   3.842
 1271SOL    MW4 5405   1.533   3.218   3.779
 1272SOL     OW 5406   0.760   2.093   3.836
 1272SOL    HW2 5407   0.708   2.013   3.824
 1272SOL    HW3 5408   0.847   2.070   3.804
 1272SOL    MW4 5409   0.763   2.079   3.830
 1273SOL     OW 5410   0.214   3.645   5.380
 1273SOL    HW2 5411   0.188   3.713   5.318
 1273SOL    HW3 5412   0.262   3.582   5.328
 1273SOL    MW4 5413   0.216   3.645   5.366
 1274SOL     OW 5414   0.266   2.964   4.887
 1274SOL    HW2 5415   0.319   3.039   4.912
 1274SOL    HW3 5416   0.185   3.002   4.853
 1274SOL    MW4 5417   0.262   2.979   4.887
 1275SOL     OW 5418   0.806   2.868   4.875
 1275SOL    HW2 5419   0.834   2.777   4.887
 1275SOL    HW3 5420   0.735   2.862   4.811
 1275SOL    MW4 5421   0.799   2.856   4.870
 1276SOL     OW 5422   0.121   2.733   4.293
 1276SOL    HW2 5423   0.212   2.748   4.320
 1276SOL    HW3 5424   0.124   2.654   4.239
 1276SOL    MW4 5425   0.133   2.725   4.291
 1277SOL     OW 5426   0.357   2.441   5.547
 1277SOL    HW2 5427   0.304   2.521   5.554
 1277SOL    HW3 5428   0.427   2.453   5.612
 1277SOL    MW4 5429   0.359   2.454   5.555
 1278SOL     OW 5430   0.743   1.991   5.254
 1278SOL    HW2 5431   0.720   1.899   5.256
 1278SOL    HW3 5432   0.829   1.993   5.211
 1278SOL    MW4 5433   0.750   1.981   5.250
 1279SOL     OW 5434   0.427   2.515   5.293
 1279SOL    HW2 5435   0.507   2.565   5.279
 1279SOL    HW3 5436   0.418   2.509   5.388
 1279SOL    MW4 5437   0.436   2.521   5.303
 1280SOL     OW 5438   0.748   3.665   4.667
 1280SOL    HW2 5439   0.837   3.680   4.697
 1280SOL    HW3 5440   0.743   3.712   4.583
 1280SOL    MW4 5441   0.758   3.673   4.660
 1281SOL     OW 5442   1.404   2.040   5.564
 1281SOL    HW2 5443   1.460   1.967   5.590
 1281SOL    HW3 5444   1.374   2.078   5.646
 1281SOL    MW4 5445   1.408   2.035   5.577
 1282SOL     OW 5446   0.129   3.345   4.332
 1282SOL    HW2 5447   0.101   3.384   4.414
 1282SOL    HW3 5448   0.149   3.254   4.354
 1282SOL    MW4 5449   0.127   3.337   4.345
 1283SOL     OW 5450   0.962   3.388   4.367
 1283SOL    HW2 5451   1.045   3.342   4.351
 1283SOL    HW3 5452   0.952   3.387   4.463
 1283SOL    MW4 5453   0.972   3.381   4.377
 1284SOL     OW 5454   1.794   2.533   4.681
 1284SOL    HW2 5455   1.883   2.563   4.663
 1284SOL    HW3 5456   1.774   2.473   4.610
 1284SOL    MW4 5457   1.803   2.530   4.670
 1285SOL     OW 5458   1.645   2.712   5.561
 1285SOL    HW2 5459   1.700   2.636   5.542
 1285SOL    HW3 5460   1.647   2.720   5.656
 1285SOL    MW4 5461   1.653   2.703   5.569
 1286SOL     OW 5462   0.695   3.445   3.772
 1286SOL    HW2 5463   0.635   3.514   3.742
 1286SOL    HW3 5464   0.640   3.387   3.825
 1286SOL    MW4 5465   0.679   3.447   3.774
 1287SOL     OW 5466   1.133   2.090   3.995
 1287SOL    HW2 5467   1.066   2.066   3.932
 1287SOL    HW3 5468   1.198   2.139   3.944
 1287SOL    MW4 5469   1.133   2.092   3.980
 1288SOL     OW 5470   0.940   2.274   5.080
 1288SOL    HW2 5471   0.859   2.315   5.108
 1288SOL    HW3 5472   0.987   2.342   5.032
 1288SOL    MW4 5473   0.935   2.289   5.078
 1289SOL     OW 5474   1.200   2.612   4.703
 1289SOL    HW2 5475   1.213   2.706   4.713
 1289SOL    HW3 5476   1.161   2.602   4.617
 1289SOL    MW4 5477   1.196   2.623   4.693
 1290SOL     OW 5478   0.652   2.807   4.507
 1290SOL    HW2 5479   0.563   2.798   4.540
 1290SOL    HW3 5480   0.656   2.897   4.475
 1290SOL    MW4 5481   0.641   2.818   4.507
 1291SOL     OW 5482   1.451   2.390   4.502
 1291SOL    HW2 5483   1.396   2.311   4.501
 1291SOL    HW3 5484   1.433   2.431   4.586
 1291SOL    MW4 5485   1.441   2.385   4.511
 1292SOL     OW 5486   0.422   2.077   5.319
 1292SOL    HW2 5487   0.343   2.095   5.371
 1292SOL    HW3 5488   0.417   2.139   5.246
 1292SOL    MW4 5489   0.412   2.087   5.316
 1293SOL     OW 5490   1.070   2.594   4.459
 1293SOL    HW2 5491   1.007   2.526   4.483
 1293SOL    HW3 5492   1.090   2.575   4.367
 1293SOL    MW4 5493   1.064   2.581   4.451
 1294SOL     OW 5494   0.326   3.489   4.161
 1294SOL    HW2 5495   0.287   3.536   4.087
 1294SOL    HW3 5496   0.260   3.424   4.186
 1294SOL    MW4 5497   0.313   3.487   4.155
 1295SOL     OW 5498   0.818   2.898   4.185
 1295SOL    HW2 5499   0.820   2.872   4.092
 1295SOL    HW3 5500   0.876   2.835   4.228
 1295SOL    MW4 5501   0.826   2.887   4.179
 1296SOL     OW 5502   1.371   3.458   4.957
 1296SOL    HW2 5503   1.296   3.504   4.995
 1296SOL    HW3 5504   1.353   3.365   4.974
 1296SOL    MW4 5505   1.360   3.452   4.965
 1297SOL     OW 5506   1.375   3.666   4.387
 1297SOL    HW2 5507   1.318   3.619   4.326
 1297SOL    HW3 5508   1.461   3.627   4.374
 1297SOL    MW4 5509   1.378   3.657   4.377
 1298SOL     OW 5510   1.328   2.142   4.518
 1298SOL    HW2 5511   1.356   2.074   4.579
 1298SOL    HW3 5512   1.242   2.113   4.488
 1298SOL    MW4 5513   1.321   2.129   4.522
 1299SOL     OW 5514   0.133   3.076   4.452
 1299SOL    HW2 5515   0.197   3.108   4.515
 1299SOL    HW3 5516   0.182   3.012   4.400
 1299SOL    MW4 5517   0.148   3.072   4.453
 1300SOL     OW 5518   0.633   3.152   5.434
 1300SOL    HW2 5519   0.681   3.235   5.421
 1300SOL    HW3 5520   0.690   3.100   5.490
 1300SOL    MW4 5521   0.647   3.156   5.440
 1301SOL     OW 5522   0.209   3.394   5.574
 1301SOL    HW2 5523   0.265   3.318   5.589
 1301SOL    HW3 5524   0.158   3.372   5.496
 1301SOL    MW4 5525   0.209   3.381   5.565
 1302SOL     OW 5526   1.308   2.246   3.853
 1302SOL    HW2 5527   1.281   2.312   3.789
 1302SOL    HW3 5528   1.378   2.289   3.903
 1302SOL    MW4 5529   1.313   2.259   3.850
 1303SOL     OW 5530   0.976   1.951   3.790
 1303SOL    HW2 5531   1.032   1.943   3.712
 1303SOL    HW3 5532   0.953   1.861   3.812
 1303SOL    MW4 5533   0.981   1.938   3.783
 1304SOL     OW 5534   1.481   2.802   3.995
 1304SOL    HW2 5535   1.448   2.891   3.985
 1304SOL    HW3 5536   1.446   2.773   4.080
 1304SOL    MW4 5537   1.471   2.811   4.006
 1305SOL     OW 5538   1.094   3.231   5.183
 1305SOL    HW2 5539   1.005   3.237   5.151
 1305SOL    HW3 5540   1.138   3.310   5.151
 1305SOL    MW4 5541   1.089   3.241   5.175
 1306SOL     OW 5542   0.387   1.899   5.525
 1306SOL    HW2 5543   0.315   1.864   5.473
 1306SOL    HW3 5544   0.445   1.940   5.460
 1306SOL    MW4 5545   0.385   1.900   5.510
 1307SOL     OW 5546   0.411   3.389   4.824
 1307SOL    HW2 5547   0.456   3.451   4.881
 1307SOL    HW3 5548   0.318   3.408   4.837
 1307SOL    MW4 5549   0.404   3.399   4.831
 1308SOL     OW 5550   1.851   2.918   5.178
 1308SOL    HW2 5551   1.766   2.931   5.137
 1308SOL    HW3 5552   1.831   2.882   5.265
 1308SOL    MW4 5553   1.838   2.914   5.183
 1309SOL     OW 5554   0.833   3.457   4.932
 1309SOL    HW2 5555   0.857   3.446   4.841
 1309SOL    HW3 5556   0.756   3.514   4.930
 1309SOL    MW4 5557   0.825   3.462   4.921
 1310SOL     OW 5558   0.475   2.840   3.787
 1310SOL    HW2 5559   0.398   2.853   3.843
 1310SOL    HW3 5560   0.439   2.804   3.706
 1310SOL    MW4 5561   0.461   2.836   3.784
 1311SOL     OW 5562   1.128   2.813   4.030
 1311SOL    HW2 5563   1.038   2.834   4.005
 1311SOL    HW3 5564   1.155   2.886   4.086
 1311SOL    MW4 5565   1.120   2.825   4.033
 1312SOL     OW 5566   0.628   3.162   4.722
 1312SOL    HW2 5567   0.621   3.141   4.816
 1312SOL    HW3 5568   0.546   3.130   4.685
 1312SOL    MW4 5569   0.616   3.156   4.729
 1313SOL     OW 5570   1.492   2.172   5.124
 1313SOL    HW2 5571   1.439   2.174   5.204
 1313SOL    HW3 5572   1.477   2.085   5.087
 1313SOL    MW4 5573   1.484   2.162   5.129
 1314SOL     OW 5574   1.828   2.096   4.997
 1314SOL    HW2 5575   1.809   2.163   4.932
 1314SOL    HW3 5576   1.885   2.034   4.952
 1314SOL    MW4 5577   1.832   2.097   4.983
 1315SOL     OW 5578   0.074   3.254   5.385
 1315SOL    HW2 5579   0.118   3.187   5.331
 1315SOL    HW3 5580  -0.011   3.216   5.405
 1315SOL    MW4 5581   0.069   3.240   5.381
 1316SOL     OW 5582   0.757   1.929   4.437
 1316SOL    HW2 5583   0.686   1.990   4.419
 1316SOL    HW3 5584   0.808   1.926   4.356
 1316SOL    MW4 5585   0.753   1.935   4.424
 1317SOL     OW 5586   0.515   3.169   4.186
 1317SOL    HW2 5587   0.508   3.201   4.276
 1317SOL    HW3 5588   0.425   3.153   4.158
 1317SOL    MW4 5589   0.503   3.171   4.193
 1318SOL     OW 5590   1.110   3.562   5.095
 1318SOL    HW2 5591   1.030   3.547   5.045
 1318SOL    HW3 5592   1.117   3.657   5.102
 1318SOL    MW4 5593   1.101   3.573   5.089
 1319SOL     OW 5594   1.224   3.527   4.585
 1319SOL    HW2 5595   1.271   3.600   4.544
 1319SOL    HW3 5596   1.145   3.566   4.621
 1319SOL    MW4 5597   1.219   3.542   4.584
 1320SOL     OW 5598   1.632   3.622   4.860
 1320SOL    HW2 5599   1.675   3.592   4.940
 1320SOL    HW3 5600   1.551   3.570   4.857
 1320SOL    MW4 5601   1.627   3.611   4.870
 1321SOL     OW 5602   0.717   2.586   5.567
 1321SOL    HW2 5603   0.787   2.528   5.539
 1321SOL    HW3 5604   0.660   2.531   5.622
 1321SOL    MW4 5605   0.719   2.573   5.571
 1322SOL     OW 5606   1.504   2.798   5.200
 1322SOL    HW2 5607   1.509   2.851   5.280
 1322SOL    HW3 5608   1.466   2.715   5.228
 1322SOL    MW4 5609   1.500   2.793   5.215
 1323SOL     OW 5610   1.144   1.933   5.446
 1323SOL    HW2 5611   1.139   1.840   5.427
 1323SOL    HW3 5612   1.227   1.944   5.492
 1323SOL    MW4 5613   1.152   1.922   5.450
 1324SOL     OW 5614   0.518   2.453   3.900
 1324SOL    HW2 5615   0.484   2.509   3.970
 1324SOL    HW3 5616   0.589   2.403   3.940
 1324SOL    MW4 5617   0.524   2.454   3.914
 1325SOL     OW 5618   1.614   3.204   4.722
 1325SOL    HW2 5619   1.649   3.186   4.635
 1325SOL    HW3 5620   1.519   3.205   4.709
 1325SOL    MW4 5621   1.606   3.201   4.709
 1326SOL     OW 5622   1.043   2.852   5.091
 1326SOL    HW2 5623   1.086   2.887   5.169
 1326SOL    HW3 5624   1.026   2.929   5.037
 1326SOL    MW4 5625   1.046   2.867   5.094
 1327SOL     OW 5626   1.574   2.339   3.964
 1327SOL    HW2 5627   1.566   2.410   3.901
 1327SOL    HW3 5628   1.592   2.383   4.047
 1327SOL    MW4 5629   1.575   2.353   3.966
 1328SOL     OW 5630   0.434   1.994   4.393
 1328SOL    HW2 5631   0.484   2.037   4.324
 1328SOL    HW3 5632   0.349   2.038   4.393
 1328SOL    MW4 5633   0.431   2.007   4.384
 1329SOL     OW 5634   0.193   3.056   5.253
 1329SOL    HW2 5635   0.221   3.009   5.331
 1329SOL    HW3 5636   0.114   3.011   5.224
 1329SOL    MW4 5637   0.186   3.045   5.259
 1330SOL     OW 5638   0.701   2.383   5.220
 1330SOL    HW2 5639   0.673   2.471   5.244
 1330SOL    HW3 5640   0.670   2.327   5.291
 1330SOL    MW4 5641   0.693   2.386   5.232
 1331SOL     OW 5642   1.243   2.601   3.939
 1331SOL    HW2 5643   1.290   2.619   3.858
 1331SOL    HW3 5644   1.209   2.685   3.967
 1331SOL    MW4 5645   1.245   2.615   3.932
 1332SOL     OW 5646   0.356   2.779   4.433
 1332SOL    HW2 5647   0.414   2.835   4.381
 1332SOL    HW3 5648   0.400   2.694   4.435
 1332SOL    MW4 5649   0.369   2.776   4.426
 1333SOL     OW 5650   1.496   2.131   4.270
 1333SOL    HW2 5651   1.418   2.081   4.295
 1333SOL    HW3 5652   1.467   2.222   4.270
 1333SOL    MW4 5653   1.482   2.135   4.273
 1334SOL     OW 5654   1.082   2.093   4.429
 1334SOL    HW2 5655   1.102   2.168   4.373
 1334SOL    HW3 5656   1.062   2.132   4.514
 1334SOL    MW4 5657   1.083   2.109   4.433
 1335SOL     OW 5658   0.978   3.343   3.761
 1335SOL    HW2 5659   1.005   3.421   3.713
 1335SOL    HW3 5660   0.885   3.358   3.780
 1335SOL    MW4 5661   0.969   3.356   3.757
 1336SOL     OW 5662   1.842   2.866   5.448
 1336SOL    HW2 5663   1.755   2.846   5.484
 1336SOL    HW3 5664   1.896   2.792   5.473
 1336SOL    MW4 5665   1.837   2.855   5.456
 1337SOL     OW 5666   0.063   3.379   4.605
 1337SOL    HW2 5667   0.095   3.383   4.696
 1337SOL    HW3 5668  -0.032   3.387   4.613
 1337SOL    MW4 5669   0.055   3.382   4.618
 1338SOL     OW 5670   0.018   2.505   4.152
 1338SOL    HW2 5671  -0.042   2.477   4.222
 1338SOL    HW3 5672   0.092   2.445   4.158
 1338SOL    MW4 5673   0.020   2.494   4.161
 1339SOL     OW 5674   1.586   3.717   5.586
 1339SOL    HW2 5675   1.631   3.641   5.551
 1339SOL    HW3 5676   1.624   3.730   5.673
 1339SOL    MW4 5677   1.596   3.710   5.592
 1340SOL     OW 5678   1.186   3.236   4.312
 1340SOL    HW2 5679   1.209   3.187   4.390
 1340SOL    HW3 5680   1.267   3.278   4.284
 1340SOL    MW4 5681   1.199   3.236   4.319
 1341SOL     OW 5682   0.444   2.244   5.041
 1341SOL    HW2 5683   0.477   2.325   5.081
 1341SOL    HW3 5684   0.417   2.270   4.953
 1341SOL    MW4 5685   0.443   2.258   5.035
 1342SOL     OW 5686   0.398   2.211   4.777
 1342SOL    HW2 5687   0.428   2.125   4.748
 1342SOL    HW3 5688   0.303   2.204   4.780
 1342SOL    MW4 5689   0.390   2.200   4.775
 1343SOL     OW 5690   1.227   2.420   5.468
 1343SOL    HW2 5691   1.279   2.355   5.421
 1343SOL    HW3 5692   1.185   2.471   5.398
 1343SOL    MW4 5693   1.228   2.417   5.451
 1344SOL     OW 5694   1.326   2.215   5.329
 1344SOL    HW2 5695   1.233   2.199   5.316
 1344SOL    HW3 5696   1.352   2.153   5.397
 1344SOL    MW4 5697   1.316   2.205   5.336
 1345SOL     OW 5698   0.541   1.989   4.668
 1345SOL    HW2 5699   0.551   1.898   4.694
 1345SOL    HW3 5700   0.497   1.985   4.583
 1345SOL    MW4 5701   0.537   1.977   4.660
 1346SOL     OW 5702   0.635   3.604   5.214
 1346SOL    HW2 5703   0.552   3.589   5.259
 1346SOL    HW3 5704   0.694   3.537   5.249
 1346SOL    MW4 5705   0.633   3.594   5.224
 1347SOL     OW 5706   1.692   2.311   4.839
 1347SOL    HW2 5707   1.625   2.344   4.899
 1347SOL    HW3 5708   1.735   2.389   4.805
 1347SOL    MW4 5709   1.690   2.326   4.843
 1348SOL     OW 5710   1.870   3.031   4.809
 1348SOL    HW2 5711   1.863   2.971   4.734
 1348SOL    HW3 5712   1.796   3.091   4.798
 1348SOL    MW4 5713   1.860   3.031   4.798
 1349SOL     OW 5714   1.252   2.893   4.727
 1349SOL    HW2 5715   1.266   2.865   4.818
 1349SOL    HW3 5716   1.338   2.924   4.699
 1349SOL    MW4 5717   1.265   2.894   4.736
 1350SOL     OW 5718   1.335   2.388   5.006
 1350SOL    HW2 5719   1.356   2.389   4.913
 1350SOL    HW3 5720   1.380   2.310   5.039
 1350SOL    MW4 5721   1.342   2.378   4.998
 1351SOL     OW 5722   1.828   2.519   5.548
 1351SOL    HW2 5723   1.865   2.464   5.617
 1351SOL    HW3 5724   1.853   2.476   5.466
 1351SOL    MW4 5725   1.835   2.507   5.547
 1352SOL     OW 5726   1.375   2.817   5.600
 1352SOL    HW2 5727   1.441   2.765   5.554
 1352SOL    HW3 5728   1.395   2.804   5.693
 1352SOL    MW4 5729   1.386   2.808   5.607
 1353SOL     OW 5730   1.326   1.903   3.948
 1353SOL    HW2 5731   1.400   1.947   3.991
 1353SOL    HW3 5732   1.250   1.957   3.970
 1353SOL    MW4 5733   1.326   1.915   3.956
 1354SOL     OW 5734   1.386   2.678   4.226
 1354SOL    HW2 5735   1.301   2.648   4.196
 1354SOL    HW3 5736   1.378   2.685   4.321
 1354SOL    MW4 5737   1.374   2.676   4.235
 1355SOL     OW 5738   0.462   3.141   4.957
 1355SOL    HW2 5739   0.474   3.168   5.048
 1355SOL    HW3 5740   0.443   3.222   4.910
 1355SOL    MW4 5741   0.461   3.156   4.962
 1356SOL     OW 5742   0.746   2.121   4.780
 1356SOL    HW2 5743   0.719   2.123   4.871
 1356SOL    HW3 5744   0.676   2.073   4.735
 1356SOL    MW4 5745   0.734   2.117   4.787
 1357SOL     OW 5746   0.600   3.613   4.942
 1357SOL    HW2 5747   0.652   3.690   4.919
 1357SOL    HW3 5748   0.609   3.605   5.037
 1357SOL    MW4 5749   0.609   3.620   4.953
 1358SOL     OW 5750   1.502   3.198   5.174
 1358SOL    HW2 5751   1.487   3.127   5.237
 1358SOL    HW3 5752   1.548   3.156   5.102
 1358SOL    MW4 5753   1.508   3.182   5.174
 1359SOL     OW 5754   0.576   2.929   5.291
 1359SOL    HW2 5755   0.613   2.934   5.203
 1359SOL    HW3 5756   0.615   3.002   5.338
 1359SOL    MW4 5757   0.586   2.939   5.286
 1360SOL     OW 5758   0.756   2.972   5.103
 1360SOL    HW2 5759   0.815   2.918   5.156
 1360SOL    HW3 5760   0.771   2.944   5.013
 1360SOL    MW4 5761   0.766   2.961   5.099
 1361SOL     OW 5762   0.759   2.344   3.952
 1361SOL    HW2 5763   0.832   2.393   3.915
 1361SOL    HW3 5764   0.775   2.253   3.926
 1361SOL    MW4 5765   0.771   2.339   3.945
 1362SOL     OW 5766   1.567   3.461   5.275
 1362SOL    HW2 5767   1.609   3.446   5.360
 1362SOL    HW3 5768   1.558   3.374   5.237
 1362SOL    MW4 5769   1.571   3.449   5.282
 1363SOL     OW 5770   1.227   1.940   4.866
 1363SOL    HW2 5771   1.282   1.949   4.788
 1363SOL    HW3 5772   1.282   1.974   4.937
 1363SOL    MW4 5773   1.241   1.945   4.865
 1364SOL     OW 5774   0.234   2.853   4.050
 1364SOL    HW2 5775   0.171   2.869   3.979
 1364SOL    HW3 5776   0.181   2.816   4.121
 1364SOL    MW4 5777   0.219   2.850   4.050
 1365SOL     OW 5778   0.590   3.207   3.909
 1365SOL    HW2 5779   0.605   3.183   4.001
 1365SOL    HW3 5780   0.498   3.185   3.893
 1365SOL    MW4 5781   0.580   3.200   3.919
 1366SOL     OW 5782   1.129   3.438   4.061
 1366SOL    HW2 5783   1.137   3.356   4.012
 1366SOL    HW3 5784   1.048   3.477   4.028
 1366SOL    MW4 5785   1.119   3.433   4.051
 1367SOL     OW 5786   0.388   3.596   4.630
 1367SOL    HW2 5787   0.392   3.507   4.665
 1367SOL    HW3 5788   0.414   3.587   4.539
 1367SOL    MW4 5789   0.391   3.584   4.622
 1368SOL     OW 5790   1.005   3.074   4.873
 1368SOL    HW2 5791   0.937   3.008   4.889
 1368SOL    HW3 5792   1.023   3.068   4.780
 1368SOL    MW4 5793   0.998   3.065   4.864
 1369SOL     OW 5794   0.094   3.349   5.124
 1369SOL    HW2 5795   0.084   3.307   5.210
 1369SOL    HW3 5796   0.015   3.402   5.114
 1369SOL    MW4 5797   0.083   3.350   5.135
 1370SOL     OW 5798   0.998   2.213   4.694
 1370SOL    HW2 5799   0.928   2.165   4.739
 1370SOL    HW3 5800   1.030   2.276   4.758
 1370SOL    MW4 5801   0.993   2.215   4.708
 1371SOL     OW 5802   0.649   2.649   5.314
 1371SOL    HW2 5803   0.642   2.744   5.302
 1371SOL    HW3 5804   0.658   2.638   5.409
 1371SOL    MW4 5805   0.650   2.661   5.324
 1372SOL     OW 5806   0.370   3.164   5.572
 1372SOL    HW2 5807   0.442   3.166   5.509
 1372SOL    HW3 5808   0.340   3.073   5.571
 1372SOL    MW4 5809   0.375   3.153   5.564
 1373SOL     OW 5810   1.454   1.927   5.039
 1373SOL    HW2 5811   1.525   1.873   5.003
 1373SOL    HW3 5812   1.453   1.906   5.132
 1373SOL    MW4 5813   1.463   1.918   5.047
 1374SOL     OW 5814   1.654   3.457   5.523
 1374SOL    HW2 5815   1.627   3.454   5.614
 1374SOL    HW3 5816   1.750   3.461   5.526
 1374SOL    MW4 5817   1.664   3.457   5.535
 1375SOL     OW 5818   0.465   2.319   4.507
 1375SOL    HW2 5819   0.536   2.267   4.470
 1375SOL    HW3 5820   0.451   2.284   4.594
 1375SOL    MW4 5821   0.473   2.308   4.514
 1376SOL     OW 5822   0.020   3.654   5.579
 1376SOL    HW2 5823   0.070   3.632   5.501
 1376SOL    HW3 5824   0.028   3.749   5.587
 1376SOL    MW4 5825   0.028   3.663   5.570
 1377SOL     OW 5826   0.781   3.412   4.583
 1377SOL    HW2 5827   0.709   3.349   4.596
 1377SOL    HW3 5828   0.742   3.497   4.601
 1377SOL    MW4 5829   0.765   3.415   4.586
 1378SOL     OW 5830   1.101   2.260   4.231
 1378SOL    HW2 5831   1.123   2.197   4.163
 1378SOL    HW3 5832   1.006   2.252   4.242
 1378SOL    MW4 5833   1.091   2.251   4.223
 1379SOL     OW 5834   0.186   1.950   4.163
 1379SOL    HW2 5835   0.257   1.971   4.102
 1379SOL    HW3 5836   0.140   1.878   4.121
 1379SOL    MW4 5837   0.190   1.944   4.149
 1380SOL     OW 5838   0.017   2.417   5.306
 1380SOL    HW2 5839   0.081   2.483   5.281
 1380SOL    HW3 5840  -0.064   2.444   5.263
 1380SOL    MW4 5841   0.015   2.429   5.298
 1381SOL     OW 5842   1.755   3.324   4.263
 1381SOL    HW2 5843   1.725   3.257   4.324
 1381SOL    HW3 5844   1.849   3.330   4.277
 1381SOL    MW4 5845   1.763   3.316   4.273
 1382SOL     OW 5846   1.311   3.001   4.193
 1382SOL    HW2 5847   1.283   3.087   4.226
 1382SOL    HW3 5848   1.339   3.017   4.103
 1382SOL    MW4 5849   1.311   3.015   4.185
 1383SOL     OW 5850   0.973   1.921   4.246
 1383SOL    HW2 5851   1.010   1.980   4.311
 1383SOL    HW3 5852   0.950   1.977   4.172
 1383SOL    MW4 5853   0.974   1.936   4.245
 1384SOL     OW 5854   1.826   2.803   4.668
 1384SOL    HW2 5855   1.817   2.835   4.579
 1384SOL    HW3 5856   1.779   2.719   4.668
 1384SOL    MW4 5857   1.819   2.796   4.658
 1385SOL     OW 5858   0.202   2.643   5.247
 1385SOL    HW2 5859   0.223   2.712   5.185
 1385SOL    HW3 5860   0.282   2.590   5.252
 1385SOL    MW4 5861   0.215   2.644   5.241
 1386SOL     OW 5862   1.738   2.734   4.369
 1386SOL    HW2 5863   1.832   2.723   4.357
 1386SOL    HW3 5864   1.714   2.806   4.310
 1386SOL    MW4 5865   1.748   2.742   4.360
 1387SOL     OW 5866   0.187   2.658   5.514
 1387SOL    HW2 5867   0.113   2.602   5.540
 1387SOL    HW3 5868   0.182   2.661   5.419
 1387SOL    MW4 5869   0.176   2.651   5.504
 1388SOL     OW 5870   0.353   1.945   4.964
 1388SOL    HW2 5871   0.396   2.029   4.984
 1388SOL    HW3 5872   0.426   1.883   4.957
 1388SOL    MW4 5873   0.368   1.948   4.965
 1389SOL     OW 5874   0.394   2.612   4.142
 1389SOL    HW2 5875   0.394   2.707   4.127
 1389SOL    HW3 5876   0.471   2.596   4.196
 1389SOL    MW4 5877   0.404   2.623   4.147
 1390SOL     OW 5878   1.170   2.471   5.206
 1390SOL    HW2 5879   1.206   2.444   5.122
 1390SOL    HW3 5880   1.083   2.505   5.185
 1390SOL    MW4 5881   1.164   2.472   5.193
 1391SOL     OW 5882   0.153   2.343   4.431
 1391SOL    HW2 5883   0.215   2.350   4.504
 1391SOL    HW3 5884   0.153   2.250   4.408
 1391SOL    MW4 5885   0.161   2.332   4.438
 1392SOL     OW 5886   1.700   3.683   3.963
 1392SOL    HW2 5887   1.767   3.716   3.903
 1392SOL    HW3 5888   1.657   3.762   3.997
 1392SOL    MW4 5889   1.702   3.698   3.959
 1393SOL     OW 5890   0.835   2.604   4.915
 1393SOL    HW2 5891   0.793   2.522   4.891
 1393SOL    HW3 5892   0.836   2.603   5.011
 1393SOL    MW4 5893   0.828   2.593   4.924
 1394SOL     OW 5894   1.506   3.737   5.314
 1394SOL    HW2 5895   1.509   3.643   5.297
 1394SOL    HW3 5896   1.529   3.745   5.406
 1394SOL    MW4 5897   1.509   3.725   5.324
 1395SOL     OW 5898   0.639   2.074   5.020
 1395SOL    HW2 5899   0.570   2.137   5.041
 1395SOL    HW3 5900   0.666   2.038   5.105
 1395SOL    MW4 5901   0.633   2.077   5.033
 1396SOL     OW 5902   0.022   2.915   3.889
 1396SOL    HW2 5903  -0.009   2.980   3.952
 1396SOL    HW3 5904  -0.029   2.837   3.908
 1396SOL    MW4 5905   0.012   2.912   3.899
 1397SOL     OW 5906   1.434   1.927   4.637
 1397SOL    HW2 5907   1.522   1.936   4.674
 1397SOL    HW3 5908   1.444   1.868   4.563
 1397SOL    MW4 5909   1.448   1.921   4.631
 1398SOL     OW 5910   1.466   2.666   4.481
 1398SOL    HW2 5911   1.546   2.681   4.430
 1398SOL    HW3 5912   1.459   2.571   4.487
 1398SOL    MW4 5913   1.475   2.655   4.476
 1399SOL     OW 5914   0.606   3.715   3.831
 1399SOL    HW2 5915   0.511   3.715   3.823
 1399SOL    HW3 5916   0.622   3.661   3.909
 1399SOL    MW4 5917   0.596   3.709   3.840
 1400SOL     OW 5918   0.916   2.592   5.178
 1400SOL    HW2 5919   0.985   2.659   5.175
 1400SOL    HW3 5920   0.849   2.630   5.234
 1400SOL    MW4 5921   0.917   2.605   5.185
 1401SOL     OW 5922   0.334   2.892   5.426
 1401SOL    HW2 5923   0.288   2.808   5.428
 1401SOL    HW3 5924   0.391   2.886   5.350
 1401SOL    MW4 5925   0.336   2.880   5.418
 1402SOL     OW 5926   1.451   2.535   3.747
 1402SOL    HW2 5927   1.379   2.511   3.689
 1402SOL    HW3 5928   1.517   2.572   3.689
 1402SOL    MW4 5929   1.450   2.537   3.732
 1403SOL     OW 5930   0.585   3.267   4.427
 1403SOL    HW2 5931   0.650   3.200   4.448
 1403SOL    HW3 5932   0.637   3.344   4.404
 1403SOL    MW4 5933   0.600   3.269   4.426
 1404SOL     OW 5934   0.846   2.432   4.557
 1404SOL    HW2 5935   0.786   2.450   4.629
 1404SOL    HW3 5936   0.880   2.344   4.576
 1404SOL    MW4 5937   0.842   2.422   4.570
 1405SOL     OW 5938   1.787   1.931   5.226
 1405SOL    HW2 5939   1.708   1.977   5.254
 1405SOL    HW3 5940   1.822   1.985   5.155
 1405SOL    MW4 5941   1.781   1.944   5.220
 1406SOL     OW 5942   1.071   3.015   4.576
 1406SOL    HW2 5943   1.163   2.996   4.594
 1406SOL    HW3 5944   1.044   2.945   4.516
 1406SOL    MW4 5945   1.079   3.003   4.570
 1407SOL     OW 5946   0.864   2.835   3.931
 1407SOL    HW2 5947   0.850   2.747   3.896
 1407SOL    HW3 5948   0.815   2.892   3.872
 1407SOL    MW4 5949   0.856   2.830   3.919
 1408SOL     OW 5950   1.345   3.253   4.672
 1408SOL    HW2 5951   1.318   3.337   4.637
 1408SOL    HW3 5952   1.305   3.248   4.759
 1408SOL    MW4 5953   1.338   3.262   4.678
 1409SOL     OW 5954   1.264   3.201   4.940
 1409SOL    HW2 5955   1.275   3.168   5.029
 1409SOL    HW3 5956   1.183   3.160   4.909
 1409SOL    MW4 5957   1.254   3.193   4.946
 1410SOL     OW 5958   0.277   2.559   4.710
 1410SOL    HW2 5959   0.227   2.558   4.791
 1410SOL    HW3 5960   0.297   2.651   4.694
 1410SOL    MW4 5961   0.273   2.571   4.718
 1411SOL     OW 5962   1.344   3.323   5.472
 1411SOL    HW2 5963   1.344   3.417   5.488
 1411SOL    HW3 5964   1.389   3.313   5.388
 1411SOL    MW4 5965   1.350   3.333   5.463
 1412SOL     OW 5966   1.583   2.041   4.033
 1412SOL    HW2 5967   1.576   2.045   4.128
 1412SOL    HW3 5968   1.595   2.132   4.006
 1412SOL    MW4 5969   1.584   2.054   4.041
 1413SOL     OW 5970   0.872   2.604   4.147
 1413SOL    HW2 5971   0.852   2.590   4.054
 1413SOL    HW3 5972   0.965   2.583   4.154
 1413SOL    MW4 5973   0.882   2.599   4.136
 1414SOL     OW 5974   0.199   2.227   5.451
 1414SOL    HW2 5975   0.156   2.286   5.388
 1414SOL    HW3 5976   0.267   2.282   5.491
 1414SOL    MW4 5977   0.203   2.242   5.448
 1415SOL     OW 5978   1.311   2.847   4.996
 1415SOL    HW2 5979   1.374   2.844   5.069
 1415SOL    HW3 5980   1.227   2.865   5.038
 1415SOL    MW4 5981   1.307   2.849   5.011
 1416SOL     OW 5982   0.855   3.562   4.185
 1416SOL    HW2 5983   0.913   3.633   4.212
 1416SOL    HW3 5984   0.878   3.490   4.243
 1416SOL    MW4 5985   0.866   3.562   4.196
 1417SOL     OW 5986   1.650   2.024   4.775
 1417SOL    HW2 5987   1.695   1.942   4.794
 1417SOL    HW3 5988   1.670   2.080   4.851
 1417SOL    MW4 5989   1.660   2.020   4.787
 1418SOL     OW 5990   0.098   1.867   4.874
 1418SOL    HW2 5991   0.089   1.868   4.779
 1418SOL    HW3 5992   0.192   1.879   4.889
 1418SOL    MW4 5993   0.110   1.870   4.865
 1419SOL     OW 5994   1.735   3.060   4.494
 1419SOL    HW2 5995   1.714   3.006   4.417
 1419SOL    HW3 5996   1.831   3.058   4.498
 1419SOL    MW4 5997   1.744   3.053   4.483
 1420SOL     OW 5998   0.427   3.205   5.237
 1420SOL    HW2 5999   0.348   3.155   5.260
 1420SOL    HW3 6000   0.497   3.164   5.287
 1420SOL    MW4 6001   0.425   3.193   5.247
 1421SOL     OW 6002   0.311   1.994   3.920
 1421SOL    HW2 6003   0.240   2.049   3.888
 1421SOL    HW3 6004   0.353   1.960   3.841
 1421SOL    MW4 6005   0.307   1.996   3.906
 1422SOL     OW 6006   1.435   2.491   4.756
 1422SOL    HW2 6007   1.358   2.537   4.722
 1422SOL    HW3 6008   1.492   2.560   4.790
 1422SOL    MW4 6009   1.432   2.506   4.756
 1423SOL     OW 6010   0.067   2.093   3.769
 1423SOL    HW2 6011   0.034   2.172   3.813
 1423SOL    HW3 6012   0.122   2.126   3.698
 1423SOL    MW4 6013   0.070   2.107   3.766
 1424SOL     OW 6014   0.101   3.350   3.958
 1424SOL    HW2 6015   0.118   3.434   4.000
 1424SOL    HW3 6016   0.136   3.359   3.870
 1424SOL    MW4 6017   0.106   3.363   3.952
 1425SOL     OW 6018   1.373   3.439   4.175
 1425SOL    HW2 6019   1.436   3.429   4.104
 1425SOL    HW3 6020   1.290   3.459   4.130
 1425SOL    MW4 6021   1.370   3.440   4.160
 1426SOL     OW 6022   1.736   2.707   5.862
 1426SOL    HW2 6023   1.777   2.649   5.927
 1426SOL    HW3 6024   1.643   2.699   5.879
 1426SOL    MW4 6025   1.730   2.699   5.872
 1427SOL     OW 6026   0.530   2.890   6.091
 1427SOL    HW2 6027   0.620   2.865   6.075
 1427SOL    HW3 6028   0.526   2.983   6.068
 1427SOL    MW4 6029   0.542   2.899   6.086
 1428SOL     OW 6030   1.646   3.593   6.233
 1428SOL    HW2 6031   1.658   3.539   6.311
 1428SOL    HW3 6032   1.683   3.541   6.162
 1428SOL    MW4 6033   1.652   3.578   6.234
 1429SOL     OW 6034   0.814   2.346   6.104
 1429SOL    HW2 6035   0.789   2.434   6.132
 1429SOL    HW3 6036   0.811   2.349   6.008
 1429SOL    MW4 6037   0.810   2.358   6.096
 1430SOL     OW 6038   0.256   2.374   6.032
 1430SOL    HW2 6039   0.288   2.462   6.014
 1430SOL    HW3 6040   0.244   2.372   6.127
 1430SOL    MW4 6041   0.259   2.386   6.044
 1431SOL     OW 6042   0.655   2.129   6.119
 1431SOL    HW2 6043   0.713   2.205   6.121
 1431SOL    HW3 6044   0.590   2.150   6.052
 1431SOL    MW4 6045   0.654   2.141   6.110
 1432SOL     OW 6046   0.742   3.056   6.294
 1432SOL    HW2 6047   0.822   3.059   6.346
 1432SOL    HW3 6048   0.770   3.023   6.208
 1432SOL    MW4 6049   0.756   3.052   6.289
 1433SOL     OW 6050   0.519   2.560   6.285
 1433SOL    HW2 6051   0.504   2.480   6.336
 1433SOL    HW3 6052   0.601   2.595   6.319
 1433SOL    MW4 6053   0.527   2.552   6.297
 1434SOL     OW 6054   0.104   3.646   6.441
 1434SOL    HW2 6055   0.193   3.638   6.476
 1434SOL    HW3 6056   0.068   3.558   6.446
 1434SOL    MW4 6057   0.111   3.633   6.446
 1435SOL     OW 6058   1.369   3.038   5.810
 1435SOL    HW2 6059   1.287   3.074   5.776
 1435SOL    HW3 6060   1.437   3.081   5.759
 1435SOL    MW4 6061   1.367   3.048   5.798
 1436SOL     OW 6062   0.368   3.173   6.476
 1436SOL    HW2 6063   0.344   3.226   6.552
 1436SOL    HW3 6064   0.424   3.231   6.424
 1436SOL    MW4 6065   0.372   3.188   6.479
 1437SOL     OW 6066   0.930   2.817   6.286
 1437SOL    HW2 6067   0.844   2.804   6.326
 1437SOL    HW3 6068   0.983   2.744   6.318
 1437SOL    MW4 6069   0.926   2.806   6.295
 1438SOL     OW 6070   0.921   3.179   6.003
 1438SOL    HW2 6071   0.898   3.241   6.071
 1438SOL    HW3 6072   0.878   3.097   6.029
 1438SOL    MW4 6073   0.913   3.175   6.014
 1439SOL     OW 6074   1.794   2.180   6.459
 1439SOL    HW2 6075   1.731   2.160   6.528
 1439SOL    HW3 6076   1.784   2.109   6.396
 1439SOL    MW4 6077   1.784   2.167   6.460
 1440SOL     OW 6078   0.418   2.152   5.971
 1440SOL    HW2 6079   0.392   2.114   5.887
 1440SOL    HW3 6080   0.355   2.222   5.987
 1440SOL    MW4 6081   0.407   2.155   5.962
 1441SOL     OW 6082   0.253   3.113   6.008
 1441SOL    HW2 6083   0.201   3.181   5.964
 1441SOL    HW3 6084   0.250   3.039   5.948
 1441SOL    MW4 6085   0.245   3.112   5.995
 1442SOL     OW 6086   0.915   3.576   5.786
 1442SOL    HW2 6087   0.870   3.592   5.869
 1442SOL    HW3 6088   0.846   3.541   5.728
 1442SOL    MW4 6089   0.901   3.573   5.788
 1443SOL     OW 6090   1.850   2.349   5.761
 1443SOL    HW2 6091   1.759   2.351   5.789
 1443SOL    HW3 6092   1.895   2.411   5.819
 1443SOL    MW4 6093   1.843   2.357   5.771
 1444SOL     OW 6094   1.595   2.952   6.111
 1444SOL    HW2 6095   1.505   2.952   6.146
 1444SOL    HW3 6096   1.588   2.998   6.028
 1444SOL    MW4 6097   1.582   2.958   6.105
 1445SOL     OW 6098   1.502   2.930   6.503
 1445SOL    HW2 6099   1.505   2.864   6.434
 1445SOL    HW3 6100   1.587   2.973   6.499
 1445SOL    MW4 6101   1.514   2.926   6.494
 1446SOL     OW 6102   1.122   2.533   6.072
 1446SOL    HW2 6103   1.148   2.557   5.983
 1446SOL    HW3 6104   1.104   2.440   6.068
 1446SOL    MW4 6105   1.124   2.525   6.059
 1447SOL     OW 6106   1.787   3.153   5.923
 1447SOL    HW2 6107   1.743   3.194   5.998
 1447SOL    HW3 6108   1.844   3.221   5.888
 1447SOL    MW4 6109   1.789   3.167   5.928
 1448SOL     OW 6110   0.443   3.569   6.241
 1448SOL    HW2 6111   0.475   3.657   6.219
 1448SOL    HW3 6112   0.396   3.541   6.163
 1448SOL    MW4 6113   0.442   3.577   6.228
 1449SOL     OW 6114   1.827   1.931   6.290
 1449SOL    HW2 6115   1.881   1.882   6.352
 1449SOL    HW3 6116   1.770   1.865   6.251
 1449SOL    MW4 6117   1.827   1.915   6.292
 1450SOL     OW 6118   0.159   3.629   5.818
 1450SOL    HW2 6119   0.188   3.719   5.810
 1450SOL    HW3 6120   0.109   3.612   5.739
 1450SOL    MW4 6121   0.157   3.637   5.807
 1451SOL     OW 6122   1.563   3.437   5.789
 1451SOL    HW2 6123   1.611   3.506   5.835
 1451SOL    HW3 6124   1.484   3.481   5.758
 1451SOL    MW4 6125   1.558   3.451   5.792
 1452SOL     OW 6126   0.961   2.562   5.733
 1452SOL    HW2 6127   0.963   2.509   5.654
 1452SOL    HW3 6128   1.049   2.599   5.739
 1452SOL    MW4 6129   0.973   2.561   5.722
 1453SOL     OW 6130   1.575   2.488   6.069
 1453SOL    HW2 6131   1.614   2.488   6.156
 1453SOL    HW3 6132   1.516   2.564   6.069
 1453SOL    MW4 6133   1.572   2.499   6.080
 1454SOL     OW 6134   1.762   2.374   6.235
 1454SOL    HW2 6135   1.851   2.343   6.252
 1454SOL    HW3 6136   1.705   2.314   6.283
 1454SOL    MW4 6137   1.765   2.362   6.244
 1455SOL     OW 6138   0.188   2.088   6.264
 1455SOL    HW2 6139   0.179   2.028   6.190
 1455SOL    HW3 6140   0.121   2.059   6.327
 1455SOL    MW4 6141   0.178   2.075   6.262
 1456SOL     OW 6142   1.131   3.181   5.825
 1456SOL    HW2 6143   1.081   3.183   5.907
 1456SOL    HW3 6144   1.065   3.199   5.757
 1456SOL    MW4 6145   1.117   3.183   5.827
 1457SOL     OW 6146   0.594   3.599   5.933
 1457SOL    HW2 6147   0.515   3.557   5.966
 1457SOL    HW3 6148   0.660   3.582   6.000
 1457SOL    MW4 6149   0.593   3.591   5.946
 1458SOL     OW 6150   0.730   3.014   5.640
 1458SOL    HW2 6151   0.652   2.960   5.627
 1458SOL    HW3 6152   0.701   3.087   5.693
 1458SOL    MW4 6153   0.716   3.016   5.645
 1459SOL     OW 6154   1.311   3.530   5.708
 1459SOL    HW2 6155   1.237   3.493   5.758
 1459SOL    HW3 6156   1.319   3.620   5.741
 1459SOL    MW4 6157   1.302   3.537   5.720
 1460SOL     OW 6158   1.535   3.204   5.650
 1460SOL    HW2 6159   1.482   3.253   5.586
 1460SOL    HW3 6160   1.566   3.270   5.711
 1460SOL    MW4 6161   1.533   3.218   5.648
 1461SOL     OW 6162   0.760   2.093   5.705
 1461SOL    HW2 6163   0.708   2.013   5.693
 1461SOL    HW3 6164   0.847   2.070   5.673
 1461SOL    MW4 6165   0.763   2.079   5.699
 1462SOL     OW 6166   0.121   2.733   6.162
 1462SOL    HW2 6167   0.212   2.748   6.189
 1462SOL    HW3 6168   0.124   2.654   6.108
 1462SOL    MW4 6169   0.133   2.725   6.160
 1463SOL     OW 6170   0.748   3.665   6.536
 1463SOL    HW2 6171   0.837   3.680   6.566
 1463SOL    HW3 6172   0.743   3.712   6.452
 1463SOL    MW4 6173   0.758   3.673   6.529
 1464SOL     OW 6174   0.129   3.345   6.201
 1464SOL    HW2 6175   0.101   3.384   6.283
 1464SOL    HW3 6176   0.149   3.254   6.223
 1464SOL    MW4 6177   0.127   3.337   6.214
 1465SOL     OW 6178   0.962   3.388   6.236
 1465SOL    HW2 6179   1.045   3.342   6.220
 1465SOL    HW3 6180   0.952   3.387   6.332
 1465SOL    MW4 6181   0.972   3.381   6.246
 1466SOL     OW 6182   0.695   3.445   5.641
 1466SOL    HW2 6183   0.635   3.514   5.611
 1466SOL    HW3 6184   0.640   3.387   5.694
 1466SOL    MW4 6185   0.679   3.447   5.643
 1467SOL     OW 6186   1.133   2.090   5.864
 1467SOL    HW2 6187   1.066   2.066   5.801
 1467SOL    HW3 6188   1.198   2.139   5.813
 1467SOL    MW4 6189   1.133   2.092   5.849
 1468SOL     OW 6190   0.652   2.807   6.376
 1468SOL    HW2 6191   0.563   2.798   6.409
 1468SOL    HW3 6192   0.656   2.897   6.344
 1468SOL    MW4 6193   0.641   2.818   6.376
 1469SOL     OW 6194   1.451   2.390   6.371
 1469SOL    HW2 6195   1.396   2.311   6.370
 1469SOL    HW3 6196   1.433   2.431   6.455
 1469SOL    MW4 6197   1.441   2.385   6.380
 1470SOL     OW 6198   1.070   2.594   6.328
 1470SOL    HW2 6199   1.007   2.526   6.352
 1470SOL    HW3 6200   1.090   2.575   6.236
 1470SOL    MW4 6201   1.064   2.581   6.320
 1471SOL     OW 6202   0.326   3.489   6.030
 1471SOL    HW2 6203   0.287   3.536   5.956
 1471SOL    HW3 6204   0.260   3.424   6.055
 1471SOL    MW4 6205   0.313   3.487   6.024
 1472SOL     OW 6206   0.818   2.898   6.054
 1472SOL    HW2 6207   0.820   2.872   5.961
 1472SOL    HW3 6208   0.876   2.835   6.097
 1472SOL    MW4 6209   0.826   2.887   6.048
 1473SOL     OW 6210   1.375   3.666   6.256
 1473SOL    HW2 6211   1.318   3.619   6.195
 1473SOL    HW3 6212   1.461   3.627   6.243
 1473SOL    MW4 6213   1.378   3.657   6.246
 1474SOL     OW 6214   1.328   2.142   6.387
 1474SOL    HW2 6215   1.356   2.074   6.448
 1474SOL    HW3 6216   1.242   2.113   6.357
 1474SOL    MW4 6217   1.321   2.129   6.391
 1475SOL     OW 6218   0.133   3.076   6.321
 1475SOL    HW2 6219   0.197   3.108   6.384
 1475SOL    HW3 6220   0.182   3.012   6.269
 1475SOL    MW4 6221   0.148   3.072   6.322
 1476SOL     OW 6222   1.308   2.246   5.722
 1476SOL    HW2 6223   1.281   2.312   5.658
 1476SOL    HW3 6224   1.378   2.289   5.772
 1476SOL    MW4 6225   1.313   2.259   5.719
 1477SOL     OW 6226   0.976   1.951   5.659
 1477SOL    HW2 6227   1.032   1.943   5.581
 1477SOL    HW3 6228   0.953   1.861   5.681
 1477SOL    MW4 6229   0.981   1.938   5.652
 1478SOL     OW 6230   1.481   2.802   5.864
 1478SOL    HW2 6231   1.448   2.891   5.854
 1478SOL    HW3 6232   1.446   2.773   5.949
 1478SOL    MW4 6233   1.471   2.811   5.875
 1479SOL     OW 6234   0.475   2.840   5.656
 1479SOL    HW2 6235   0.398   2.853   5.712
 1479SOL    HW3 6236   0.439   2.804   5.575
 1479SOL    MW4 6237   0.461   2.836   5.653
 1480SOL     OW 6238   1.128   2.813   5.899
 1480SOL    HW2 6239   1.038   2.834   5.874
 1480SOL    HW3 6240   1.155   2.886   5.955
 1480SOL    MW4 6241   1.120   2.825   5.902
 1481SOL     OW 6242   0.757   1.929   6.306
 1481SOL    HW2 6243   0.686   1.990   6.288
 1481SOL    HW3 6244   0.808   1.926   6.225
 1481SOL    MW4 6245   0.753   1.935   6.293
 1482SOL     OW 6246   0.515   3.169   6.055
 1482SOL    HW2 6247   0.508   3.201   6.145
 1482SOL    HW3 6248   0.425   3.153   6.027
 1482SOL    MW4 6249   0.503   3.171   6.062
 1483SOL     OW 6250   1.224   3.527   6.454
 1483SOL    HW2 6251   1.271   3.600   6.413
 1483SOL    HW3 6252   1.145   3.566   6.490
 1483SOL    MW4 6253   1.219   3.542   6.453
 1484SOL     OW 6254   0.518   2.453   5.769
 1484SOL    HW2 6255   0.484   2.509   5.839
 1484SOL    HW3 6256   0.589   2.403   5.809
 1484SOL    MW4 6257   0.524   2.454   5.783
 1485SOL     OW 6258   1.574   2.339   5.833
 1485SOL    HW2 6259   1.566   2.410   5.770
 1485SOL    HW3 6260   1.592   2.383   5.916
 1485SOL    MW4 6261   1.575   2.353   5.835
 1486SOL     OW 6262   0.434   1.994   6.262
 1486SOL    HW2 6263   0.484   2.037   6.193
 1486SOL    HW3 6264   0.349   2.038   6.262
 1486SOL    MW4 6265   0.431   2.007   6.253
 1487SOL     OW 6266   1.243   2.601   5.808
 1487SOL    HW2 6267   1.290   2.619   5.727
 1487SOL    HW3 6268   1.209   2.685   5.836
 1487SOL    MW4 6269   1.245   2.615   5.801
 1488SOL     OW 6270   0.356   2.779   6.302
 1488SOL    HW2 6271   0.414   2.835   6.250
 1488SOL    HW3 6272   0.400   2.694   6.304
 1488SOL    MW4 6273   0.369   2.776   6.295
 1489SOL     OW 6274   1.496   2.131   6.139
 1489SOL    HW2 6275   1.418   2.081   6.164
 1489SOL    HW3 6276   1.467   2.222   6.139
 1489SOL    MW4 6277   1.482   2.135   6.142
 1490SOL     OW 6278   1.082   2.093   6.298
 1490SOL    HW2 6279   1.102   2.168   6.242
 1490SOL    HW3 6280   1.062   2.132   6.383
 1490SOL    MW4 6281   1.083   2.109   6.302
 1491SOL     OW 6282   0.978   3.343   5.630
 1491SOL    HW2 6283   1.005   3.421   5.582
 1491SOL    HW3 6284   0.885   3.358   5.649
 1491SOL    MW4 6285   0.969   3.356   5.626
 1492SOL     OW 6286   0.018   2.505   6.021
 1492SOL    HW2 6287  -0.042   2.477   6.091
 1492SOL    HW3 6288   0.092   2.445   6.027
 1492SOL    MW4 6289   0.020   2.494   6.030
 1493SOL     OW 6290   1.186   3.236   6.181
 1493SOL    HW2 6291   1.209   3.187   6.259
 1493SOL    HW3 6292   1.267   3.278   6.153
 1493SOL    MW4 6293   1.199   3.236   6.188
 1494SOL     OW 6294   0.541   1.989   6.537
 1494SOL    HW2 6295   0.551   1.898   6.563
 1494SOL    HW3 6296   0.497   1.985   6.452
 1494SOL    MW4 6297   0.537   1.977   6.529
 1495SOL     OW 6298   1.326   1.903   5.817
 1495SOL    HW2 6299   1.400   1.947   5.860
 1495SOL    HW3 6300   1.250   1.957   5.839
 1495SOL    MW4 6301   1.326   1.915   5.825
 1496SOL     OW 6302   1.386   2.678   6.095
 1496SOL    HW2 6303   1.301   2.648   6.065
 1496SOL    HW3 6304   1.378   2.685   6.190
 1496SOL    MW4 6305   1.374   2.676   6.104
 1497SOL     OW 6306   0.759   2.344   5.821
 1497SOL    HW2 6307   0.832   2.393   5.784
 1497SOL    HW3 6308   0.775   2.253   5.795
 1497SOL    MW4 6309   0.771   2.339   5.814
 1498SOL     OW 6310   0.234   2.853   5.919
 1498SOL    HW2 6311   0.171   2.869   5.848
 1498SOL    HW3 6312   0.181   2.816   5.990
 1498SOL    MW4 6313   0.219   2.850   5.919
 1499SOL     OW 6314   0.590   3.207   5.778
 1499SOL    HW2 6315   0.605   3.183   5.870
 1499SOL    HW3 6316   0.498   3.185   5.762
 1499SOL    MW4 6317   0.580   3.200   5.788
 1500SOL     OW 6318   1.129   3.438   5.930
 1500SOL    HW2 6319   1.137   3.356   5.881
 1500SOL    HW3 6320   1.048   3.477   5.897
 1500SOL    MW4 6321   1.119   3.433   5.920
 1501SOL     OW 6322   0.388   3.596   6.499
 1501SOL    HW2 6323   0.392   3.507   6.534
 1501SOL    HW3 6324   0.414   3.587   6.408
 1501SOL    MW4 6325   0.391   3.584   6.491
 1502SOL     OW 6326   0.465   2.319   6.376
 1502SOL    HW2 6327   0.536   2.267   6.339
 1502SOL    HW3 6328   0.451   2.284   6.463
 1502SOL    MW4 6329   0.473   2.308   6.383
 1503SOL     OW 6330   0.781   3.412   6.452
 1503SOL    HW2 6331   0.709   3.349   6.465
 1503SOL    HW3 6332   0.742   3.497   6.470
 1503SOL    MW4 6333   0.765   3.415   6.455
 1504SOL     OW 6334   1.101   2.260   6.100
 1504SOL    HW2 6335   1.123   2.197   6.032
 1504SOL    HW3 6336   1.006   2.252   6.111
 1504SOL    MW4 6337   1.091   2.251   6.092
 1505SOL     OW 6338   0.186   1.950   6.032
 1505SOL    HW2 6339   0.257   1.971   5.971
 1505SOL    HW3 6340   0.140   1.878   5.990
 1505SOL    MW4 6341   0.190   1.944   6.018
 1506SOL     OW 6342   1.755   3.324   6.132
 1506SOL    HW2 6343   1.725   3.257   6.193
 1506SOL    HW3 6344   1.849   3.330   6.146
 1506SOL    MW4 6345   1.763   3.316   6.142
 1507SOL     OW 6346   1.311   3.001   6.062
 1507SOL    HW2 6347   1.283   3.087   6.095
 1507SOL    HW3 6348   1.339   3.017   5.972
 1507SOL    MW4 6349   1.311   3.015   6.054
 1508SOL     OW 6350   0.973   1.921   6.115
 1508SOL    HW2 6351   1.010   1.980   6.180
 1508SOL    HW3 6352   0.950   1.977   6.041
 1508SOL    MW4 6353   0.974   1.936   6.114
 1509SOL     OW 6354   1.826   2.803   6.537
 1509SOL    HW2 6355   1.817   2.835   6.448
 1509SOL    HW3 6356   1.779   2.719   6.537
 1509SOL    MW4 6357   1.819   2.796   6.527
 1510SOL     OW 6358   1.738   2.734   6.238
 1510SOL    HW2 6359   1.832   2.723   6.226
 1510SOL    HW3 6360   1.714   2.806   6.179
 1510SOL    MW4 6361   1.748   2.742   6.229
 1511SOL     OW 6362   0.394   2.612   6.011
 1511SOL    HW2 6363   0.394   2.707   5.996
 1511SOL    HW3 6364   0.471   2.596   6.065
 1511SOL    MW4 6365   0.404   2.623   6.016
 1512SOL     OW 6366   0.153   2.343   6.300
 1512SOL    HW2 6367   0.215   2.350   6.373
 1512SOL    HW3 6368   0.153   2.250   6.277
 1512SOL    MW4 6369   0.161   2.332   6.307
 1513SOL     OW 6370   1.700   3.683   5.832
 1513SOL    HW2 6371   1.767   3.716   5.772
 1513SOL    HW3 6372   1.657   3.762   5.866
 1513SOL    MW4 6373   1.702   3.698   5.828
 1514SOL     OW 6374   0.022   2.915   5.758
 1514SOL    HW2 6375  -0.009   2.980   5.821
 1514SOL    HW3 6376  -0.029   2.837   5.777
 1514SOL    MW4 6377   0.012   2.912   5.768
 1515SOL     OW 6378   1.434   1.927   6.506
 1515SOL    HW2 6379   1.522   1.936   6.543
 1515SOL    HW3 6380   1.444   1.868   6.432
 1515SOL    MW4 6381   1.448   1.921   6.500
 1516SOL     OW 6382   1.466   2.666   6.350
 1516SOL    HW2 6383   1.546   2.681   6.299
 1516SOL    HW3 6384   1.459   2.571   6.356
 1516SOL    MW4 6385   1.475   2.655   6.345
 1517SOL     OW 6386   0.606   3.715   5.700
 1517SOL    HW2 6387   0.511   3.715   5.692
 1517SOL    HW3 6388   0.622   3.661   5.778
 1517SOL    MW4 6389   0.596   3.709   5.709
 1518SOL     OW 6390   1.451   2.535   5.615
 1518SOL    HW2 6391   1.379   2.511   5.557
 1518SOL    HW3 6392   1.517   2.572   5.557
 1518SOL    MW4 6393   1.450   2.537   5.600
 1519SOL     OW 6394   0.585   3.267   6.296
 1519SOL    HW2 6395   0.650   3.200   6.317
 1519SOL    HW3 6396   0.637   3.344   6.273
 1519SOL    MW4 6397   0.600   3.269   6.295
 1520SOL     OW 6398   0.846   2.432   6.426
 1520SOL    HW2 6399   0.786   2.450   6.498
 1520SOL    HW3 6400   0.880   2.344   6.445
 1520SOL    MW4 6401   0.842   2.422   6.439
 1521SOL     OW 6402   1.071   3.015   6.445
 1521SOL    HW2 6403   1.163   2.996   6.463
 1521SOL    HW3 6404   1.044   2.945   6.385
 1521SOL    MW4 6405   1.079   3.003   6.439
 1522SOL     OW 6406   0.864   2.835   5.800
 1522SOL    HW2 6407   0.850   2.747   5.765
 1522SOL    HW3 6408   0.815   2.892   5.741
 1522SOL    MW4 6409   0.856   2.830   5.788
 1523SOL     OW 6410   1.583   2.041   5.902
 1523SOL    HW2 6411   1.576   2.045   5.997
 1523SOL    HW3 6412   1.595   2.132   5.875
 1523SOL    MW4 6413   1.584   2.054   5.910
 1524SOL     OW 6414   0.872   2.604   6.016
 1524SOL    HW2 6415   0.852   2.590   5.923
 1524SOL    HW3 6416   0.965   2.583   6.023
 1524SOL    MW4 6417   0.882   2.599   6.005
 1525SOL     OW 6418   0.855   3.562   6.054
 1525SOL    HW2 6419   0.913   3.633   6.081
 1525SOL    HW3 6420   0.878   3.490   6.112
 1525SOL    MW4 6421   0.866   3.562   6.065
 1526SOL     OW 6422   1.735   3.060   6.363
 1526SOL    HW2 6423   1.714   3.006   6.286
 1526SOL    HW3 6424   1.831   3.058   6.367
 1526SOL    MW4 6425   1.744   3.053   6.352
 1527SOL     OW 6426   0.311   1.994   5.789
 1527SOL    HW2 6427   0.240   2.049   5.757
 1527SOL    HW3 6428   0.353   1.960   5.710
 1527SOL    MW4 6429   0.307   1.996   5.775
 1528SOL     OW 6430   0.067   2.093   5.638
 1528SOL    HW2 6431   0.034   2.172   5.682
 1528SOL    HW3 6432   0.122   2.126   5.567
 1528SOL    MW4 6433   0.070   2.107   5.635
 1529SOL     OW 6434   0.101   3.350   5.827
 1529SOL    HW2 6435   0.118   3.434   5.869
 1529SOL    HW3 6436   0.136   3.359   5.739
 1529SOL    MW4 6437   0.106   3.363   5.821
 1530SOL     OW 6438   1.373   3.439   6.044
 1530SOL    HW2 6439   1.436   3.429   5.973
 1530SOL    HW3 6440   1.290   3.459   5.999
 1530SOL    MW4 6441   1.370   3.440   6.029
 1531SOL     OW 6442   1.736   4.575   0.257
 1531SOL    HW2 6443   1.777   4.517   0.322
 1531SOL    HW3 6444   1.643   4.567   0.274
 1531SOL    MW4 6445   1.730   4.567   0.267
 1532SOL     OW 6446   1.602   4.507   1.252
 1532SOL    HW2 6447   1.557   4.574   1.303
 1532SOL    HW3 6448   1.690   4.543   1.238
 1532SOL    MW4 6449   1.608   4.520   1.256
 1533SOL     OW 6450   0.530   4.758   0.486
 1533SOL    HW2 6451   0.620   4.733   0.470
 1533SOL    HW3 6452   0.526   4.851   0.463
 1533SOL    MW4 6453   0.542   4.767   0.481
 1534SOL     OW 6454   1.646   5.461   0.628
 1534SOL    HW2 6455   1.658   5.407   0.706
 1534SOL    HW3 6456   1.683   5.409   0.557
 1534SOL    MW4 6457   1.652   5.446   0.629
 1535SOL     OW 6458   1.025   5.346   1.629
 1535SOL    HW2 6459   1.066   5.382   1.550
 1535SOL    HW3 6460   1.060   5.257   1.636
 1535SOL    MW4 6461   1.036   5.339   1.620
 1536SOL     OW 6462   1.582   4.901   1.233
 1536SOL    HW2 6463   1.503   4.866   1.191
 1536SOL    HW3 6464   1.609   4.973   1.177
 1536SOL    MW4 6465   1.575   4.906   1.220
 1537SOL     OW 6466   0.814   4.214   0.499
 1537SOL    HW2 6467   0.789   4.302   0.527
 1537SOL    HW3 6468   0.811   4.217   0.403
 1537SOL    MW4 6469   0.810   4.226   0.491
 1538SOL     OW 6470   0.256   4.242   0.427
 1538SOL    HW2 6471   0.288   4.330   0.409
 1538SOL    HW3 6472   0.244   4.240   0.522
 1538SOL    MW4 6473   0.259   4.254   0.439
 1539SOL     OW 6474   0.334   4.655   1.328
 1539SOL    HW2 6475   0.397   4.602   1.279
 1539SOL    HW3 6476   0.315   4.729   1.271
 1539SOL    MW4 6477   0.340   4.657   1.315
 1540SOL     OW 6478   0.655   3.997   0.514
 1540SOL    HW2 6479   0.713   4.073   0.516
 1540SOL    HW3 6480   0.590   4.018   0.447
 1540SOL    MW4 6481   0.654   4.009   0.505
 1541SOL     OW 6482   0.742   4.924   0.689
 1541SOL    HW2 6483   0.822   4.927   0.741
 1541SOL    HW3 6484   0.770   4.891   0.603
 1541SOL    MW4 6485   0.756   4.920   0.684
 1542SOL     OW 6486   0.767   5.265   1.592
 1542SOL    HW2 6487   0.851   5.291   1.631
 1542SOL    HW3 6488   0.791   5.209   1.518
 1542SOL    MW4 6489   0.781   5.261   1.587
 1543SOL     OW 6490   0.519   4.428   0.680
 1543SOL    HW2 6491   0.504   4.348   0.731
 1543SOL    HW3 6492   0.601   4.463   0.714
 1543SOL    MW4 6493   0.527   4.420   0.692
 1544SOL     OW 6494   0.856   5.114   1.365
 1544SOL    HW2 6495   0.820   5.180   1.305
 1544SOL    HW3 6496   0.784   5.052   1.378
 1544SOL    MW4 6497   0.842   5.114   1.359
 1545SOL     OW 6498   0.661   4.254   1.057
 1545SOL    HW2 6499   0.567   4.250   1.075
 1545SOL    HW3 6500   0.691   4.163   1.066
 1545SOL    MW4 6501   0.652   4.242   1.060
 1546SOL     OW 6502   0.407   4.668   0.961
 1546SOL    HW2 6503   0.362   4.675   0.877
 1546SOL    HW3 6504   0.387   4.751   1.005
 1546SOL    MW4 6505   0.399   4.680   0.955
 1547SOL     OW 6506   0.104   5.514   0.836
 1547SOL    HW2 6507   0.193   5.506   0.871
 1547SOL    HW3 6508   0.068   5.426   0.841
 1547SOL    MW4 6509   0.111   5.501   0.841
 1548SOL     OW 6510   1.369   4.906   0.205
 1548SOL    HW2 6511   1.287   4.942   0.171
 1548SOL    HW3 6512   1.437   4.949   0.154
 1548SOL    MW4 6513   1.367   4.916   0.193
 1549SOL     OW 6514   0.368   5.041   0.871
 1549SOL    HW2 6515   0.344   5.094   0.947
 1549SOL    HW3 6516   0.424   5.099   0.819
 1549SOL    MW4 6517   0.372   5.056   0.874
 1550SOL     OW 6518   0.930   4.685   0.681
 1550SOL    HW2 6519   0.844   4.672   0.721
 1550SOL    HW3 6520   0.983   4.612   0.713
 1550SOL    MW4 6521   0.926   4.674   0.690
 1551SOL     OW 6522   0.338   5.337   1.466
 1551SOL    HW2 6523   0.246   5.313   1.451
 1551SOL    HW3 6524   0.382   5.254   1.483
 1551SOL    MW4 6525   0.332   5.322   1.465
 1552SOL     OW 6526   0.921   5.047   0.398
 1552SOL    HW2 6527   0.898   5.109   0.466
 1552SOL    HW3 6528   0.878   4.965   0.424
 1552SOL    MW4 6529   0.913   5.043   0.409
 1553SOL     OW 6530   1.794   4.048   0.854
 1553SOL    HW2 6531   1.731   4.028   0.923
 1553SOL    HW3 6532   1.784   3.977   0.791
 1553SOL    MW4 6533   1.784   4.035   0.855
 1554SOL     OW 6534   0.418   4.020   0.366
 1554SOL    HW2 6535   0.392   3.982   0.282
 1554SOL    HW3 6536   0.355   4.090   0.382
 1554SOL    MW4 6537   0.407   4.023   0.357
 1555SOL     OW 6538   0.253   4.981   0.403
 1555SOL    HW2 6539   0.201   5.049   0.359
 1555SOL    HW3 6540   0.250   4.907   0.343
 1555SOL    MW4 6541   0.245   4.980   0.390
 1556SOL     OW 6542   0.915   5.444   0.181
 1556SOL    HW2 6543   0.870   5.460   0.264
 1556SOL    HW3 6544   0.846   5.409   0.123
 1556SOL    MW4 6545   0.901   5.441   0.183
 1557SOL     OW 6546   1.850   4.217   0.156
 1557SOL    HW2 6547   1.759   4.219   0.184
 1557SOL    HW3 6548   1.895   4.279   0.214
 1557SOL    MW4 6549   1.843   4.225   0.166
 1558SOL     OW 6550   1.595   4.820   0.506
 1558SOL    HW2 6551   1.505   4.820   0.541
 1558SOL    HW3 6552   1.588   4.866   0.423
 1558SOL    MW4 6553   1.582   4.826   0.500
 1559SOL     OW 6554   1.395   4.455   1.578
 1559SOL    HW2 6555   1.464   4.393   1.555
 1559SOL    HW3 6556   1.320   4.429   1.525
 1559SOL    MW4 6557   1.395   4.442   1.569
 1560SOL     OW 6558   0.136   5.335   1.130
 1560SOL    HW2 6559   0.119   5.281   1.207
 1560SOL    HW3 6560   0.124   5.425   1.160
 1560SOL    MW4 6561   0.133   5.339   1.144
 1561SOL     OW 6562   1.131   4.842   1.570
 1561SOL    HW2 6563   1.116   4.935   1.555
 1561SOL    HW3 6564   1.226   4.832   1.570
 1561SOL    MW4 6565   1.140   4.852   1.567
 1562SOL     OW 6566   0.927   4.266   1.771
 1562SOL    HW2 6567   1.017   4.267   1.738
 1562SOL    HW3 6568   0.886   4.191   1.729
 1562SOL    MW4 6569   0.933   4.256   1.762
 1563SOL     OW 6570   1.502   4.798   0.898
 1563SOL    HW2 6571   1.505   4.732   0.829
 1563SOL    HW3 6572   1.587   4.841   0.894
 1563SOL    MW4 6573   1.514   4.794   0.889
 1564SOL     OW 6574   1.122   4.401   0.467
 1564SOL    HW2 6575   1.148   4.425   0.378
 1564SOL    HW3 6576   1.104   4.308   0.463
 1564SOL    MW4 6577   1.124   4.393   0.454
 1565SOL     OW 6578   1.787   5.021   0.318
 1565SOL    HW2 6579   1.743   5.062   0.393
 1565SOL    HW3 6580   1.844   5.089   0.283
 1565SOL    MW4 6581   1.789   5.035   0.323
 1566SOL     OW 6582   0.707   4.070   1.721
 1566SOL    HW2 6583   0.717   3.996   1.661
 1566SOL    HW3 6584   0.743   4.039   1.804
 1566SOL    MW4 6585   0.713   4.056   1.723
 1567SOL     OW 6586   0.443   5.437   0.636
 1567SOL    HW2 6587   0.475   5.525   0.614
 1567SOL    HW3 6588   0.396   5.409   0.558
 1567SOL    MW4 6589   0.442   5.445   0.623
 1568SOL     OW 6590   1.827   3.799   0.685
 1568SOL    HW2 6591   1.881   3.750   0.747
 1568SOL    HW3 6592   1.770   3.733   0.646
 1568SOL    MW4 6593   1.827   3.783   0.687
 1569SOL     OW 6594   0.159   5.497   0.213
 1569SOL    HW2 6595   0.188   5.587   0.205
 1569SOL    HW3 6596   0.109   5.480   0.134
 1569SOL    MW4 6597   0.157   5.505   0.202
 1570SOL     OW 6598   0.946   3.752   1.098
 1570SOL    HW2 6599   0.905   3.830   1.060
 1570SOL    HW3 6600   1.040   3.770   1.093
 1570SOL    MW4 6601   0.952   3.764   1.093
 1571SOL     OW 6602   1.563   5.305   0.184
 1571SOL    HW2 6603   1.611   5.374   0.230
 1571SOL    HW3 6604   1.484   5.349   0.153
 1571SOL    MW4 6605   1.558   5.319   0.187
 1572SOL     OW 6606   0.961   4.430   0.128
 1572SOL    HW2 6607   0.963   4.377   0.049
 1572SOL    HW3 6608   1.049   4.467   0.134
 1572SOL    MW4 6609   0.973   4.429   0.117
 1573SOL     OW 6610   1.575   4.356   0.464
 1573SOL    HW2 6611   1.614   4.356   0.551
 1573SOL    HW3 6612   1.516   4.432   0.464
 1573SOL    MW4 6613   1.572   4.367   0.475
 1574SOL     OW 6614   0.892   4.723   1.593
 1574SOL    HW2 6615   0.869   4.703   1.683
 1574SOL    HW3 6616   0.977   4.767   1.598
 1574SOL    MW4 6617   0.899   4.726   1.605
 1575SOL     OW 6618   0.972   3.860   1.353
 1575SOL    HW2 6619   0.978   3.822   1.266
 1575SOL    HW3 6620   0.961   3.954   1.338
 1575SOL    MW4 6621   0.973   3.868   1.341
 1576SOL     OW 6622   1.061   4.349   1.187
 1576SOL    HW2 6623   1.136   4.378   1.134
 1576SOL    HW3 6624   0.993   4.414   1.171
 1576SOL    MW4 6625   1.062   4.361   1.177
 1577SOL     OW 6626   1.611   4.317   1.464
 1577SOL    HW2 6627   1.592   4.226   1.443
 1577SOL    HW3 6628   1.589   4.366   1.385
 1577SOL    MW4 6629   1.606   4.310   1.451
 1578SOL     OW 6630   1.753   5.411   1.368
 1578SOL    HW2 6631   1.681   5.373   1.419
 1578SOL    HW3 6632   1.770   5.496   1.409
 1578SOL    MW4 6633   1.747   5.416   1.380
 1579SOL     OW 6634   1.058   4.055   1.570
 1579SOL    HW2 6635   1.024   4.094   1.489
 1579SOL    HW3 6636   1.036   3.963   1.563
 1579SOL    MW4 6637   1.051   4.048   1.560
 1580SOL     OW 6638   1.467   4.869   1.646
 1580SOL    HW2 6639   1.549   4.910   1.676
 1580SOL    HW3 6640   1.430   4.831   1.726
 1580SOL    MW4 6641   1.473   4.870   1.661
 1581SOL     OW 6642   1.762   4.242   0.630
 1581SOL    HW2 6643   1.851   4.211   0.647
 1581SOL    HW3 6644   1.705   4.182   0.678
 1581SOL    MW4 6645   1.765   4.230   0.639
 1582SOL     OW 6646   0.188   3.956   0.659
 1582SOL    HW2 6647   0.179   3.896   0.585
 1582SOL    HW3 6648   0.121   3.927   0.722
 1582SOL    MW4 6649   0.178   3.943   0.657
 1583SOL     OW 6650   1.131   5.049   0.220
 1583SOL    HW2 6651   1.081   5.051   0.302
 1583SOL    HW3 6652   1.065   5.067   0.152
 1583SOL    MW4 6653   1.117   5.051   0.222
 1584SOL     OW 6654   0.135   4.129   1.022
 1584SOL    HW2 6655   0.107   4.220   1.031
 1584SOL    HW3 6656   0.072   4.090   0.961
 1584SOL    MW4 6657   0.122   4.135   1.016
 1585SOL     OW 6658   0.594   5.467   0.328
 1585SOL    HW2 6659   0.515   5.425   0.361
 1585SOL    HW3 6660   0.660   5.450   0.395
 1585SOL    MW4 6661   0.593   5.459   0.341
 1586SOL     OW 6662   1.722   4.987   1.725
 1586SOL    HW2 6663   1.772   4.913   1.757
 1586SOL    HW3 6664   1.668   5.014   1.800
 1586SOL    MW4 6665   1.722   4.981   1.738
 1587SOL     OW 6666   0.730   4.882   0.035
 1587SOL    HW2 6667   0.652   4.828   0.022
 1587SOL    HW3 6668   0.701   4.955   0.088
 1587SOL    MW4 6669   0.716   4.884   0.040
 1588SOL     OW 6670   1.856   4.622   1.227
 1588SOL    HW2 6671   1.872   4.660   1.140
 1588SOL    HW3 6672   1.890   4.688   1.288
 1588SOL    MW4 6673   1.863   4.635   1.223
 1589SOL     OW 6674   1.648   5.331   0.896
 1589SOL    HW2 6675   1.677   5.398   0.957
 1589SOL    HW3 6676   1.629   5.255   0.951
 1589SOL    MW4 6677   1.650   5.331   0.911
 1590SOL     OW 6678   1.311   5.398   0.103
 1590SOL    HW2 6679   1.237   5.361   0.153
 1590SOL    HW3 6680   1.319   5.488   0.136
 1590SOL    MW4 6681   1.302   5.405   0.115
 1591SOL     OW 6682   0.119   4.404   1.192
 1591SOL    HW2 6683   0.181   4.434   1.258
 1591SOL    HW3 6684   0.053   4.473   1.186
 1591SOL    MW4 6685   0.118   4.417   1.199
 1592SOL     OW 6686   1.535   5.072   0.045
 1592SOL    HW2 6687   1.482   5.121  -0.019
 1592SOL    HW3 6688   1.566   5.138   0.106
 1592SOL    MW4 6689   1.533   5.086   0.043
 1593SOL     OW 6690   0.760   3.961   0.100
 1593SOL    HW2 6691   0.708   3.881   0.088
 1593SOL    HW3 6692   0.847   3.938   0.068
 1593SOL    MW4 6693   0.763   3.947   0.094
 1594SOL     OW 6694   0.214   5.513   1.644
 1594SOL    HW2 6695   0.188   5.581   1.582
 1594SOL    HW3 6696   0.262   5.450   1.592
 1594SOL    MW4 6697   0.216   5.513   1.630
 1595SOL     OW 6698   0.266   4.832   1.151
 1595SOL    HW2 6699   0.319   4.907   1.176
 1595SOL    HW3 6700   0.185   4.870   1.117
 1595SOL    MW4 6701   0.262   4.847   1.151
 1596SOL     OW 6702   0.806   4.736   1.139
 1596SOL    HW2 6703   0.834   4.645   1.151
 1596SOL    HW3 6704   0.735   4.730   1.075
 1596SOL    MW4 6705   0.799   4.724   1.134
 1597SOL     OW 6706   0.121   4.601   0.557
 1597SOL    HW2 6707   0.212   4.616   0.584
 1597SOL    HW3 6708   0.124   4.522   0.503
 1597SOL    MW4 6709   0.133   4.593   0.555
 1598SOL     OW 6710   0.357   4.309   1.811
 1598SOL    HW2 6711   0.304   4.389   1.818
 1598SOL    HW3 6712   0.427   4.321   1.876
 1598SOL    MW4 6713   0.359   4.322   1.819
 1599SOL     OW 6714   0.743   3.859   1.518
 1599SOL    HW2 6715   0.720   3.767   1.520
 1599SOL    HW3 6716   0.829   3.861   1.475
 1599SOL    MW4 6717   0.750   3.849   1.514
 1600SOL     OW 6718   0.427   4.383   1.557
 1600SOL    HW2 6719   0.507   4.433   1.543
 1600SOL    HW3 6720   0.418   4.377   1.652
 1600SOL    MW4 6721   0.436   4.389   1.567
 1601SOL     OW 6722   0.748   5.533   0.931
 1601SOL    HW2 6723   0.837   5.548   0.961
 1601SOL    HW3 6724   0.743   5.580   0.847
 1601SOL    MW4 6725   0.758   5.541   0.924
 1602SOL     OW 6726   1.404   3.908   1.828
 1602SOL    HW2 6727   1.460   3.835   1.854
 1602SOL    HW3 6728   1.374   3.946   1.910
 1602SOL    MW4 6729   1.408   3.903   1.841
 1603SOL     OW 6730   0.129   5.213   0.596
 1603SOL    HW2 6731   0.101   5.252   0.678
 1603SOL    HW3 6732   0.149   5.122   0.618
 1603SOL    MW4 6733   0.127   5.205   0.609
 1604SOL     OW 6734   0.962   5.256   0.631
 1604SOL    HW2 6735   1.045   5.210   0.615
 1604SOL    HW3 6736   0.952   5.255   0.727
 1604SOL    MW4 6737   0.972   5.249   0.641
 1605SOL     OW 6738   1.794   4.401   0.945
 1605SOL    HW2 6739   1.883   4.431   0.927
 1605SOL    HW3 6740   1.774   4.341   0.874
 1605SOL    MW4 6741   1.803   4.398   0.934
 1606SOL     OW 6742   1.645   4.580   1.825
 1606SOL    HW2 6743   1.700   4.504   1.806
 1606SOL    HW3 6744   1.647   4.588   1.920
 1606SOL    MW4 6745   1.653   4.571   1.833
 1607SOL     OW 6746   0.695   5.313   0.036
 1607SOL    HW2 6747   0.635   5.382   0.006
 1607SOL    HW3 6748   0.640   5.255   0.089
 1607SOL    MW4 6749   0.679   5.315   0.038
 1608SOL     OW 6750   1.133   3.958   0.259
 1608SOL    HW2 6751   1.066   3.934   0.196
 1608SOL    HW3 6752   1.198   4.007   0.208
 1608SOL    MW4 6753   1.133   3.960   0.244
 1609SOL     OW 6754   0.940   4.142   1.344
 1609SOL    HW2 6755   0.859   4.183   1.372
 1609SOL    HW3 6756   0.987   4.210   1.296
 1609SOL    MW4 6757   0.935   4.157   1.342
 1610SOL     OW 6758   1.200   4.480   0.967
 1610SOL    HW2 6759   1.213   4.574   0.977
 1610SOL    HW3 6760   1.161   4.470   0.881
 1610SOL    MW4 6761   1.196   4.491   0.957
 1611SOL     OW 6762   0.652   4.675   0.771
 1611SOL    HW2 6763   0.563   4.666   0.804
 1611SOL    HW3 6764   0.656   4.765   0.739
 1611SOL    MW4 6765   0.641   4.686   0.771
 1612SOL     OW 6766   1.451   4.258   0.766
 1612SOL    HW2 6767   1.396   4.179   0.765
 1612SOL    HW3 6768   1.433   4.299   0.850
 1612SOL    MW4 6769   1.441   4.253   0.775
 1613SOL     OW 6770   0.422   3.945   1.583
 1613SOL    HW2 6771   0.343   3.963   1.635
 1613SOL    HW3 6772   0.417   4.007   1.510
 1613SOL    MW4 6773   0.412   3.955   1.580
 1614SOL     OW 6774   1.070   4.462   0.723
 1614SOL    HW2 6775   1.007   4.394   0.747
 1614SOL    HW3 6776   1.090   4.443   0.631
 1614SOL    MW4 6777   1.064   4.449   0.715
 1615SOL     OW 6778   0.326   5.357   0.425
 1615SOL    HW2 6779   0.287   5.404   0.351
 1615SOL    HW3 6780   0.260   5.292   0.450
 1615SOL    MW4 6781   0.313   5.355   0.419
 1616SOL     OW 6782   0.818   4.766   0.449
 1616SOL    HW2 6783   0.820   4.740   0.356
 1616SOL    HW3 6784   0.876   4.703   0.492
 1616SOL    MW4 6785   0.826   4.755   0.443
 1617SOL     OW 6786   1.371   5.326   1.221
 1617SOL    HW2 6787   1.296   5.372   1.259
 1617SOL    HW3 6788   1.353   5.233   1.238
 1617SOL    MW4 6789   1.360   5.320   1.229
 1618SOL     OW 6790   1.375   5.534   0.651
 1618SOL    HW2 6791   1.318   5.487   0.590
 1618SOL    HW3 6792   1.461   5.495   0.638
 1618SOL    MW4 6793   1.378   5.525   0.641
 1619SOL     OW 6794   1.328   4.010   0.782
 1619SOL    HW2 6795   1.356   3.942   0.843
 1619SOL    HW3 6796   1.242   3.981   0.752
 1619SOL    MW4 6797   1.321   3.997   0.786
 1620SOL     OW 6798   0.133   4.944   0.716
 1620SOL    HW2 6799   0.197   4.976   0.779
 1620SOL    HW3 6800   0.182   4.880   0.664
 1620SOL    MW4 6801   0.148   4.940   0.717
 1621SOL     OW 6802   0.633   5.020   1.698
 1621SOL    HW2 6803   0.681   5.103   1.685
 1621SOL    HW3 6804   0.690   4.968   1.754
 1621SOL    MW4 6805   0.647   5.024   1.704
 1622SOL     OW 6806   0.209   5.262   1.838
 1622SOL    HW2 6807   0.265   5.186   1.853
 1622SOL    HW3 6808   0.158   5.240   1.760
 1622SOL    MW4 6809   0.209   5.249   1.829
 1623SOL     OW 6810   1.308   4.114   0.117
 1623SOL    HW2 6811   1.281   4.180   0.053
 1623SOL    HW3 6812   1.378   4.157   0.167
 1623SOL    MW4 6813   1.313   4.127   0.114
 1624SOL     OW 6814   0.976   3.819   0.054
 1624SOL    HW2 6815   1.032   3.811  -0.024
 1624SOL    HW3 6816   0.953   3.729   0.076
 1624SOL    MW4 6817   0.981   3.806   0.047
 1625SOL     OW 6818   1.481   4.670   0.259
 1625SOL    HW2 6819   1.448   4.759   0.249
 1625SOL    HW3 6820   1.446   4.641   0.344
 1625SOL    MW4 6821   1.471   4.679   0.270
 1626SOL     OW 6822   1.094   5.099   1.447
 1626SOL    HW2 6823   1.005   5.105   1.415
 1626SOL    HW3 6824   1.138   5.178   1.415
 1626SOL    MW4 6825   1.089   5.109   1.439
 1627SOL     OW 6826   0.387   3.767   1.789
 1627SOL    HW2 6827   0.315   3.732   1.737
 1627SOL    HW3 6828   0.445   3.808   1.724
 1627SOL    MW4 6829   0.385   3.768   1.774
 1628SOL     OW 6830   0.411   5.257   1.088
 1628SOL    HW2 6831   0.456   5.319   1.145
 1628SOL    HW3 6832   0.318   5.276   1.101
 1628SOL    MW4 6833   0.404   5.267   1.095
 1629SOL     OW 6834   1.851   4.786   1.442
 1629SOL    HW2 6835   1.766   4.799   1.401
 1629SOL    HW3 6836   1.831   4.750   1.529
 1629SOL    MW4 6837   1.838   4.782   1.447
 1630SOL     OW 6838   0.833   5.325   1.196
 1630SOL    HW2 6839   0.857   5.314   1.105
 1630SOL    HW3 6840   0.756   5.382   1.194
 1630SOL    MW4 6841   0.825   5.330   1.185
 1631SOL     OW 6842   0.475   4.708   0.051
 1631SOL    HW2 6843   0.398   4.721   0.107
 1631SOL    HW3 6844   0.439   4.672  -0.030
 1631SOL    MW4 6845   0.461   4.704   0.048
 1632SOL     OW 6846   1.128   4.681   0.294
 1632SOL    HW2 6847   1.038   4.702   0.269
 1632SOL    HW3 6848   1.155   4.754   0.350
 1632SOL    MW4 6849   1.120   4.693   0.297
 1633SOL     OW 6850   0.628   5.030   0.986
 1633SOL    HW2 6851   0.621   5.009   1.080
 1633SOL    HW3 6852   0.546   4.998   0.949
 1633SOL    MW4 6853   0.616   5.024   0.993
 1634SOL     OW 6854   1.492   4.040   1.388
 1634SOL    HW2 6855   1.439   4.042   1.468
 1634SOL    HW3 6856   1.477   3.953   1.351
 1634SOL    MW4 6857   1.484   4.030   1.393
 1635SOL     OW 6858   1.828   3.964   1.261
 1635SOL    HW2 6859   1.809   4.031   1.196
 1635SOL    HW3 6860   1.885   3.902   1.216
 1635SOL    MW4 6861   1.832   3.965   1.247
 1636SOL     OW 6862   0.074   5.122   1.649
 1636SOL    HW2 6863   0.118   5.055   1.595
 1636SOL    HW3 6864  -0.011   5.084   1.669
 1636SOL    MW4 6865   0.069   5.108   1.645
 1637SOL     OW 6866   0.757   3.797   0.701
 1637SOL    HW2 6867   0.686   3.858   0.683
 1637SOL    HW3 6868   0.808   3.794   0.620
 1637SOL    MW4 6869   0.753   3.803   0.688
 1638SOL     OW 6870   0.515   5.037   0.450
 1638SOL    HW2 6871   0.508   5.069   0.540
 1638SOL    HW3 6872   0.425   5.021   0.422
 1638SOL    MW4 6873   0.503   5.039   0.457
 1639SOL     OW 6874   1.110   5.430   1.359
 1639SOL    HW2 6875   1.030   5.415   1.309
 1639SOL    HW3 6876   1.117   5.525   1.366
 1639SOL    MW4 6877   1.101   5.441   1.353
 1640SOL     OW 6878   1.224   5.395   0.849
 1640SOL    HW2 6879   1.271   5.468   0.808
 1640SOL    HW3 6880   1.145   5.434   0.885
 1640SOL    MW4 6881   1.219   5.410   0.848
 1641SOL     OW 6882   1.632   5.490   1.124
 1641SOL    HW2 6883   1.675   5.460   1.204
 1641SOL    HW3 6884   1.551   5.438   1.121
 1641SOL    MW4 6885   1.627   5.479   1.134
 1642SOL     OW 6886   0.717   4.454   1.831
 1642SOL    HW2 6887   0.787   4.396   1.803
 1642SOL    HW3 6888   0.660   4.399   1.886
 1642SOL    MW4 6889   0.719   4.441   1.835
 1643SOL     OW 6890   1.504   4.666   1.464
 1643SOL    HW2 6891   1.509   4.719   1.544
 1643SOL    HW3 6892   1.466   4.583   1.492
 1643SOL    MW4 6893   1.500   4.661   1.479
 1644SOL     OW 6894   1.144   3.801   1.710
 1644SOL    HW2 6895   1.139   3.708   1.691
 1644SOL    HW3 6896   1.227   3.812   1.756
 1644SOL    MW4 6897   1.152   3.790   1.714
 1645SOL     OW 6898   0.518   4.321   0.164
 1645SOL    HW2 6899   0.484   4.377   0.234
 1645SOL    HW3 6900   0.589   4.271   0.204
 1645SOL    MW4 6901   0.524   4.322   0.178
 1646SOL     OW 6902   1.614   5.072   0.986
 1646SOL    HW2 6903   1.649   5.054   0.899
 1646SOL    HW3 6904   1.519   5.073   0.973
 1646SOL    MW4 6905   1.606   5.069   0.973
 1647SOL     OW 6906   1.043   4.720   1.355
 1647SOL    HW2 6907   1.086   4.755   1.433
 1647SOL    HW3 6908   1.026   4.797   1.301
 1647SOL    MW4 6909   1.046   4.735   1.358
 1648SOL     OW 6910   1.574   4.207   0.228
 1648SOL    HW2 6911   1.566   4.278   0.165
 1648SOL    HW3 6912   1.592   4.251   0.311
 1648SOL    MW4 6913   1.575   4.221   0.230
 1649SOL     OW 6914   0.434   3.862   0.657
 1649SOL    HW2 6915   0.484   3.905   0.588
 1649SOL    HW3 6916   0.349   3.906   0.657
 1649SOL    MW4 6917   0.431   3.875   0.648
 1650SOL     OW 6918   0.193   4.924   1.517
 1650SOL    HW2 6919   0.221   4.877   1.595
 1650SOL    HW3 6920   0.114   4.879   1.488
 1650SOL    MW4 6921   0.186   4.913   1.523
 1651SOL     OW 6922   0.701   4.251   1.484
 1651SOL    HW2 6923   0.673   4.339   1.508
 1651SOL    HW3 6924   0.670   4.195   1.555
 1651SOL    MW4 6925   0.693   4.254   1.496
 1652SOL     OW 6926   1.243   4.469   0.203
 1652SOL    HW2 6927   1.290   4.487   0.122
 1652SOL    HW3 6928   1.209   4.553   0.231
 1652SOL    MW4 6929   1.245   4.483   0.196
 1653SOL     OW 6930   0.356   4.647   0.697
 1653SOL    HW2 6931   0.414   4.703   0.645
 1653SOL    HW3 6932   0.400   4.562   0.699
 1653SOL    MW4 6933   0.369   4.644   0.690
 1654SOL     OW 6934   1.496   3.999   0.534
 1654SOL    HW2 6935   1.418   3.949   0.559
 1654SOL    HW3 6936   1.467   4.090   0.534
 1654SOL    MW4 6937   1.482   4.003   0.537
 1655SOL     OW 6938   1.082   3.961   0.693
 1655SOL    HW2 6939   1.102   4.036   0.637
 1655SOL    HW3 6940   1.062   4.000   0.778
 1655SOL    MW4 6941   1.083   3.977   0.697
 1656SOL     OW 6942   0.978   5.211   0.025
 1656SOL    HW2 6943   1.005   5.289  -0.023
 1656SOL    HW3 6944   0.885   5.226   0.044
 1656SOL    MW4 6945   0.969   5.224   0.021
 1657SOL     OW 6946   1.842   4.734   1.712
 1657SOL    HW2 6947   1.755   4.714   1.748
 1657SOL    HW3 6948   1.896   4.660   1.737
 1657SOL    MW4 6949   1.837   4.723   1.720
 1658SOL     OW 6950   0.063   5.247   0.869
 1658SOL    HW2 6951   0.095   5.251   0.960
 1658SOL    HW3 6952  -0.032   5.255   0.877
 1658SOL    MW4 6953   0.055   5.250   0.882
 1659SOL     OW 6954   0.018   4.373   0.416
 1659SOL    HW2 6955  -0.042   4.345   0.486
 1659SOL    HW3 6956   0.092   4.313   0.422
 1659SOL    MW4 6957   0.020   4.362   0.425
 1660SOL     OW 6958   1.586   5.585   1.850
 1660SOL    HW2 6959   1.631   5.509   1.815
 1660SOL    HW3 6960   1.624   5.598   1.937
 1660SOL    MW4 6961   1.596   5.578   1.856
 1661SOL     OW 6962   1.186   5.104   0.576
 1661SOL    HW2 6963   1.209   5.055   0.654
 1661SOL    HW3 6964   1.267   5.146   0.548
 1661SOL    MW4 6965   1.199   5.104   0.583
 1662SOL     OW 6966   0.444   4.112   1.305
 1662SOL    HW2 6967   0.477   4.193   1.345
 1662SOL    HW3 6968   0.417   4.138   1.217
 1662SOL    MW4 6969   0.443   4.126   1.299
 1663SOL     OW 6970   0.398   4.079   1.041
 1663SOL    HW2 6971   0.428   3.993   1.012
 1663SOL    HW3 6972   0.303   4.072   1.044
 1663SOL    MW4 6973   0.390   4.068   1.039
 1664SOL     OW 6974   1.227   4.288   1.732
 1664SOL    HW2 6975   1.279   4.223   1.685
 1664SOL    HW3 6976   1.185   4.339   1.662
 1664SOL    MW4 6977   1.228   4.285   1.715
 1665SOL     OW 6978   1.326   4.083   1.593
 1665SOL    HW2 6979   1.233   4.067   1.580
 1665SOL    HW3 6980   1.352   4.021   1.661
 1665SOL    MW4 6981   1.316   4.073   1.600
 1666SOL     OW 6982   0.541   3.857   0.932
 1666SOL    HW2 6983   0.551   3.766   0.958
 1666SOL    HW3 6984   0.497   3.853   0.847
 1666SOL    MW4 6985   0.537   3.845   0.924
 1667SOL     OW 6986   0.635   5.472   1.478
 1667SOL    HW2 6987   0.552   5.457   1.523
 1667SOL    HW3 6988   0.694   5.405   1.513
 1667SOL    MW4 6989   0.633   5.462   1.488
 1668SOL     OW 6990   1.692   4.179   1.103
 1668SOL    HW2 6991   1.625   4.212   1.163
 1668SOL    HW3 6992   1.735   4.257   1.069
 1668SOL    MW4 6993   1.690   4.194   1.107
 1669SOL     OW 6994   1.870   4.899   1.073
 1669SOL    HW2 6995   1.863   4.839   0.998
 1669SOL    HW3 6996   1.796   4.959   1.062
 1669SOL    MW4 6997   1.860   4.899   1.062
 1670SOL     OW 6998   1.252   4.761   0.991
 1670SOL    HW2 6999   1.266   4.733   1.082
 1670SOL    HW3 7000   1.338   4.792   0.963
 1670SOL    MW4 7001   1.265   4.762   1.000
 1671SOL     OW 7002   1.335   4.256   1.270
 1671SOL    HW2 7003   1.356   4.257   1.177
 1671SOL    HW3 7004   1.380   4.178   1.303
 1671SOL    MW4 7005   1.342   4.246   1.262
 1672SOL     OW 7006   1.828   4.387   1.812
 1672SOL    HW2 7007   1.865   4.332   1.881
 1672SOL    HW3 7008   1.853   4.344   1.730
 1672SOL    MW4 7009   1.835   4.375   1.811
 1673SOL     OW 7010   1.375   4.685   1.863
 1673SOL    HW2 7011   1.441   4.633   1.817
 1673SOL    HW3 7012   1.395   4.672   1.956
 1673SOL    MW4 7013   1.386   4.676   1.870
 1674SOL     OW 7014   1.326   3.771   0.212
 1674SOL    HW2 7015   1.400   3.815   0.255
 1674SOL    HW3 7016   1.250   3.825   0.234
 1674SOL    MW4 7017   1.326   3.783   0.220
 1675SOL     OW 7018   1.386   4.546   0.490
 1675SOL    HW2 7019   1.301   4.516   0.460
 1675SOL    HW3 7020   1.378   4.553   0.585
 1675SOL    MW4 7021   1.374   4.544   0.499
 1676SOL     OW 7022   0.462   5.009   1.221
 1676SOL    HW2 7023   0.474   5.036   1.312
 1676SOL    HW3 7024   0.443   5.090   1.174
 1676SOL    MW4 7025   0.461   5.024   1.226
 1677SOL     OW 7026   0.746   3.989   1.044
 1677SOL    HW2 7027   0.719   3.991   1.135
 1677SOL    HW3 7028   0.676   3.941   0.999
 1677SOL    MW4 7029   0.734   3.985   1.051
 1678SOL     OW 7030   0.600   5.481   1.206
 1678SOL    HW2 7031   0.652   5.558   1.183
 1678SOL    HW3 7032   0.609   5.473   1.301
 1678SOL    MW4 7033   0.609   5.488   1.217
 1679SOL     OW 7034   1.502   5.066   1.438
 1679SOL    HW2 7035   1.487   4.995   1.501
 1679SOL    HW3 7036   1.548   5.024   1.366
 1679SOL    MW4 7037   1.508   5.050   1.438
 1680SOL     OW 7038   0.576   4.797   1.555
 1680SOL    HW2 7039   0.613   4.802   1.467
 1680SOL    HW3 7040   0.615   4.870   1.602
 1680SOL    MW4 7041   0.586   4.807   1.550
 1681SOL     OW 7042   0.756   4.840   1.367
 1681SOL    HW2 7043   0.815   4.786   1.420
 1681SOL    HW3 7044   0.771   4.812   1.277
 1681SOL    MW4 7045   0.766   4.829   1.363
 1682SOL     OW 7046   0.759   4.212   0.216
 1682SOL    HW2 7047   0.832   4.261   0.179
 1682SOL    HW3 7048   0.775   4.121   0.190
 1682SOL    MW4 7049   0.771   4.207   0.209
 1683SOL     OW 7050   1.567   5.329   1.539
 1683SOL    HW2 7051   1.609   5.314   1.624
 1683SOL    HW3 7052   1.558   5.242   1.501
 1683SOL    MW4 7053   1.571   5.317   1.546
 1684SOL     OW 7054   1.227   3.808   1.130
 1684SOL    HW2 7055   1.282   3.817   1.052
 1684SOL    HW3 7056   1.282   3.842   1.201
 1684SOL    MW4 7057   1.241   3.813   1.129
 1685SOL     OW 7058   0.234   4.721   0.314
 1685SOL    HW2 7059   0.171   4.737   0.243
 1685SOL    HW3 7060   0.181   4.684   0.385
 1685SOL    MW4 7061   0.219   4.718   0.314
 1686SOL     OW 7062   0.590   5.075   0.173
 1686SOL    HW2 7063   0.605   5.051   0.265
 1686SOL    HW3 7064   0.498   5.053   0.157
 1686SOL    MW4 7065   0.580   5.068   0.183
 1687SOL     OW 7066   1.129   5.306   0.325
 1687SOL    HW2 7067   1.137   5.224   0.276
 1687SOL    HW3 7068   1.048   5.345   0.292
 1687SOL    MW4 7069   1.119   5.301   0.315
 1688SOL     OW 7070   0.388   5.464   0.894
 1688SOL    HW2 7071   0.392   5.375   0.929
 1688SOL    HW3 7072   0.414   5.455   0.803
 1688SOL    MW4 7073   0.391   5.452   0.886
 1689SOL     OW 7074   1.005   4.942   1.137
 1689SOL    HW2 7075   0.937   4.876   1.153
 1689SOL    HW3 7076   1.023   4.936   1.044
 1689SOL    MW4 7077   0.998   4.933   1.128
 1690SOL     OW 7078   0.094   5.217   1.388
 1690SOL    HW2 7079   0.084   5.175   1.474
 1690SOL    HW3 7080   0.015   5.270   1.378
 1690SOL    MW4 7081   0.083   5.218   1.399
 1691SOL     OW 7082   0.998   4.081   0.958
 1691SOL    HW2 7083   0.928   4.033   1.003
 1691SOL    HW3 7084   1.030   4.144   1.022
 1691SOL    MW4 7085   0.993   4.083   0.972
 1692SOL     OW 7086   0.649   4.517   1.578
 1692SOL    HW2 7087   0.642   4.612   1.566
 1692SOL    HW3 7088   0.658   4.506   1.673
 1692SOL    MW4 7089   0.650   4.529   1.588
 1693SOL     OW 7090   0.370   5.032   1.836
 1693SOL    HW2 7091   0.442   5.034   1.773
 1693SOL    HW3 7092   0.340   4.941   1.835
 1693SOL    MW4 7093   0.375   5.021   1.828
 1694SOL     OW 7094   1.454   3.795   1.303
 1694SOL    HW2 7095   1.525   3.741   1.267
 1694SOL    HW3 7096   1.453   3.774   1.396
 1694SOL    MW4 7097   1.463   3.786   1.311
 1695SOL     OW 7098   1.654   5.325   1.787
 1695SOL    HW2 7099   1.627   5.322   1.878
 1695SOL    HW3 7100   1.750   5.329   1.790
 1695SOL    MW4 7101   1.664   5.325   1.799
 1696SOL     OW 7102   0.465   4.187   0.771
 1696SOL    HW2 7103   0.536   4.135   0.734
 1696SOL    HW3 7104   0.451   4.152   0.858
 1696SOL    MW4 7105   0.473   4.176   0.778
 1697SOL     OW 7106   0.020   5.522   1.843
 1697SOL    HW2 7107   0.070   5.500   1.765
 1697SOL    HW3 7108   0.028   5.617   1.851
 1697SOL    MW4 7109   0.028   5.531   1.834
 1698SOL     OW 7110   0.781   5.280   0.847
 1698SOL    HW2 7111   0.709   5.217   0.860
 1698SOL    HW3 7112   0.742   5.365   0.865
 1698SOL    MW4 7113   0.765   5.283   0.850
 1699SOL     OW 7114   1.101   4.128   0.495
 1699SOL    HW2 7115   1.123   4.065   0.427
 1699SOL    HW3 7116   1.006   4.120   0.506
 1699SOL    MW4 7117   1.091   4.119   0.487
 1700SOL     OW 7118   0.186   3.818   0.427
 1700SOL    HW2 7119   0.257   3.839   0.366
 1700SOL    HW3 7120   0.140   3.746   0.385
 1700SOL    MW4 7121   0.190   3.812   0.413
 1701SOL     OW 7122   0.017   4.285   1.570
 1701SOL    HW2 7123   0.081   4.351   1.545
 1701SOL    HW3 7124  -0.064   4.312   1.527
 1701SOL    MW4 7125   0.015   4.297   1.562
 1702SOL     OW 7126   1.755   5.192   0.527
 1702SOL    HW2 7127   1.725   5.125   0.588
 1702SOL    HW3 7128   1.849   5.198   0.541
 1702SOL    MW4 7129   1.763   5.184   0.537
 1703SOL     OW 7130   1.311   4.869   0.457
 1703SOL    HW2 7131   1.283   4.955   0.490
 1703SOL    HW3 7132   1.339   4.885   0.367
 1703SOL    MW4 7133   1.311   4.883   0.449
 1704SOL     OW 7134   0.973   3.789   0.510
 1704SOL    HW2 7135   1.010   3.848   0.575
 1704SOL    HW3 7136   0.950   3.845   0.436
 1704SOL    MW4 7137   0.974   3.804   0.509
 1705SOL     OW 7138   1.826   4.671   0.932
 1705SOL    HW2 7139   1.817   4.703   0.843
 1705SOL    HW3 7140   1.779   4.587   0.932
 1705SOL    MW4 7141   1.819   4.664   0.922
 1706SOL     OW 7142   0.202   4.511   1.511
 1706SOL    HW2 7143   0.223   4.580   1.449
 1706SOL    HW3 7144   0.282   4.458   1.516
 1706SOL    MW4 7145   0.215   4.512   1.505
 1707SOL     OW 7146   1.738   4.602   0.633
 1707SOL    HW2 7147   1.832   4.591   0.621
 1707SOL    HW3 7148   1.714   4.674   0.574
 1707SOL    MW4 7149   1.748   4.610   0.624
 1708SOL     OW 7150   0.187   4.526   1.778
 1708SOL    HW2 7151   0.113   4.470   1.804
 1708SOL    HW3 7152   0.182   4.529   1.683
 1708SOL    MW4 7153   0.176   4.519   1.768
 1709SOL     OW 7154   0.353   3.813   1.228
 1709SOL    HW2 7155   0.396   3.897   1.248
 1709SOL    HW3 7156   0.426   3.751   1.221
 1709SOL    MW4 7157   0.368   3.816   1.229
 1710SOL     OW 7158   0.394   4.480   0.406
 1710SOL    HW2 7159   0.394   4.575   0.391
 1710SOL    HW3 7160   0.471   4.464   0.460
 1710SOL    MW4 7161   0.404   4.491   0.411
 1711SOL     OW 7162   1.170   4.339   1.470
 1711SOL    HW2 7163   1.206   4.312   1.386
 1711SOL    HW3 7164   1.083   4.373   1.449
 1711SOL    MW4 7165   1.164   4.340   1.457
 1712SOL     OW 7166   0.153   4.211   0.695
 1712SOL    HW2 7167   0.215   4.218   0.768
 1712SOL    HW3 7168   0.153   4.118   0.672
 1712SOL    MW4 7169   0.161   4.200   0.702
 1713SOL     OW 7170   1.700   5.551   0.227
 1713SOL    HW2 7171   1.767   5.584   0.167
 1713SOL    HW3 7172   1.657   5.630   0.261
 1713SOL    MW4 7173   1.702   5.566   0.223
 1714SOL     OW 7174   0.835   4.472   1.179
 1714SOL    HW2 7175   0.793   4.390   1.155
 1714SOL    HW3 7176   0.836   4.471   1.275
 1714SOL    MW4 7177   0.828   4.461   1.188
 1715SOL     OW 7178   1.506   5.605   1.578
 1715SOL    HW2 7179   1.509   5.511   1.561
 1715SOL    HW3 7180   1.529   5.613   1.670
 1715SOL    MW4 7181   1.509   5.593   1.588
 1716SOL     OW 7182   0.639   3.942   1.284
 1716SOL    HW2 7183   0.570   4.005   1.305
 1716SOL    HW3 7184   0.666   3.906   1.369
 1716SOL    MW4 7185   0.633   3.945   1.297
 1717SOL     OW 7186   0.022   4.783   0.153
 1717SOL    HW2 7187  -0.009   4.848   0.216
 1717SOL    HW3 7188  -0.029   4.705   0.172
 1717SOL    MW4 7189   0.012   4.780   0.163
 1718SOL     OW 7190   1.434   3.795   0.901
 1718SOL    HW2 7191   1.522   3.804   0.938
 1718SOL    HW3 7192   1.444   3.736   0.827
 1718SOL    MW4 7193   1.448   3.789   0.895
 1719SOL     OW 7194   1.466   4.534   0.745
 1719SOL    HW2 7195   1.546   4.549   0.694
 1719SOL    HW3 7196   1.459   4.439   0.751
 1719SOL    MW4 7197   1.475   4.523   0.740
 1720SOL     OW 7198   0.606   5.583   0.095
 1720SOL    HW2 7199   0.511   5.583   0.087
 1720SOL    HW3 7200   0.622   5.529   0.173
 1720SOL    MW4 7201   0.596   5.577   0.104
 1721SOL     OW 7202   0.916   4.460   1.442
 1721SOL    HW2 7203   0.985   4.527   1.439
 1721SOL    HW3 7204   0.849   4.498   1.498
 1721SOL    MW4 7205   0.917   4.473   1.449
 1722SOL     OW 7206   0.334   4.760   1.690
 1722SOL    HW2 7207   0.288   4.676   1.692
 1722SOL    HW3 7208   0.391   4.754   1.614
 1722SOL    MW4 7209   0.336   4.748   1.682
 1723SOL     OW 7210   1.451   4.403   0.011
 1723SOL    HW2 7211   1.379   4.379  -0.047
 1723SOL    HW3 7212   1.517   4.440  -0.047
 1723SOL    MW4 7213   1.450   4.405  -0.004
 1724SOL     OW 7214   0.585   5.135   0.691
 1724SOL    HW2 7215   0.650   5.068   0.712
 1724SOL    HW3 7216   0.637   5.212   0.668
 1724SOL    MW4 7217   0.600   5.137   0.690
 1725SOL     OW 7218   0.846   4.300   0.821
 1725SOL    HW2 7219   0.786   4.318   0.893
 1725SOL    HW3 7220   0.880   4.212   0.840
 1725SOL    MW4 7221   0.842   4.290   0.834
 1726SOL     OW 7222   1.787   3.799   1.490
 1726SOL    HW2 7223   1.708   3.845   1.518
 1726SOL    HW3 7224   1.822   3.853   1.419
 1726SOL    MW4 7225   1.781   3.812   1.484
 1727SOL     OW 7226   1.071   4.883   0.840
 1727SOL    HW2 7227   1.163   4.864   0.858
 1727SOL    HW3 7228   1.044   4.813   0.780
 1727SOL    MW4 7229   1.079   4.871   0.834
 1728SOL     OW 7230   0.864   4.703   0.195
 1728SOL    HW2 7231   0.850   4.615   0.160
 1728SOL    HW3 7232   0.815   4.760   0.136
 1728SOL    MW4 7233   0.856   4.698   0.183
 1729SOL     OW 7234   1.345   5.121   0.936
 1729SOL    HW2 7235   1.318   5.205   0.901
 1729SOL    HW3 7236   1.305   5.116   1.023
 1729SOL    MW4 7237   1.338   5.130   0.942
 1730SOL     OW 7238   1.264   5.069   1.204
 1730SOL    HW2 7239   1.275   5.036   1.293
 1730SOL    HW3 7240   1.183   5.028   1.173
 1730SOL    MW4 7241   1.254   5.061   1.210
 1731SOL     OW 7242   0.277   4.427   0.974
 1731SOL    HW2 7243   0.227   4.426   1.055
 1731SOL    HW3 7244   0.297   4.519   0.958
 1731SOL    MW4 7245   0.273   4.439   0.982
 1732SOL     OW 7246   1.344   5.191   1.736
 1732SOL    HW2 7247   1.344   5.285   1.752
 1732SOL    HW3 7248   1.389   5.181   1.652
 1732SOL    MW4 7249   1.350   5.201   1.727
 1733SOL     OW 7250   1.583   3.909   0.297
 1733SOL    HW2 7251   1.576   3.913   0.392
 1733SOL    HW3 7252   1.595   4.000   0.270
 1733SOL    MW4 7253   1.584   3.922   0.305
 1734SOL     OW 7254   0.872   4.472   0.411
 1734SOL    HW2 7255   0.852   4.458   0.318
 1734SOL    HW3 7256   0.965   4.451   0.418
 1734SOL    MW4 7257   0.882   4.467   0.400
 1735SOL     OW 7258   0.199   4.095   1.715
 1735SOL    HW2 7259   0.156   4.154   1.652
 1735SOL    HW3 7260   0.267   4.150   1.755
 1735SOL    MW4 7261   0.203   4.110   1.712
 1736SOL     OW 7262   1.311   4.715   1.260
 1736SOL    HW2 7263   1.374   4.712   1.333
 1736SOL    HW3 7264   1.227   4.733   1.302
 1736SOL    MW4 7265   1.307   4.717   1.275
 1737SOL     OW 7266   0.855   5.430   0.449
 1737SOL    HW2 7267   0.913   5.501   0.476
 1737SOL    HW3 7268   0.878   5.358   0.507
 1737SOL    MW4 7269   0.866   5.430   0.460
 1738SOL     OW 7270   1.650   3.892   1.039
 1738SOL    HW2 7271   1.695   3.810   1.058
 1738SOL    HW3 7272   1.670   3.948   1.115
 1738SOL    MW4 7273   1.660   3.888   1.051
 1739SOL     OW 7274   0.098   3.735   1.138
 1739SOL    HW2 7275   0.089   3.736   1.043
 1739SOL    HW3 7276   0.192   3.747   1.153
 1739SOL    MW4 7277   0.110   3.738   1.129
 1740SOL     OW 7278   1.735   4.928   0.758
 1740SOL    HW2 7279   1.714   4.874   0.681
 1740SOL    HW3 7280   1.831   4.926   0.762
 1740SOL    MW4 7281   1.744   4.921   0.747
 1741SOL     OW 7282   0.427   5.073   1.501
 1741SOL    HW2 7283   0.348   5.023   1.524
 1741SOL    HW3 7284   0.497   5.032   1.551
 1741SOL    MW4 7285   0.425   5.061   1.511
 1742SOL     OW 7286   0.311   3.862   0.184
 1742SOL    HW2 7287   0.240   3.917   0.152
 1742SOL    HW3 7288   0.353   3.828   0.105
 1742SOL    MW4 7289   0.307   3.864   0.170
 1743SOL     OW 7290   1.435   4.359   1.020
 1743SOL    HW2 7291   1.358   4.405   0.986
 1743SOL    HW3 7292   1.492   4.428   1.054
 1743SOL    MW4 7293   1.432   4.374   1.020
 1744SOL     OW 7294   0.067   3.961   0.033
 1744SOL    HW2 7295   0.034   4.040   0.077
 1744SOL    HW3 7296   0.122   3.994  -0.038
 1744SOL    MW4 7297   0.070   3.975   0.030
 1745SOL     OW 7298   0.101   5.218   0.222
 1745SOL    HW2 7299   0.118   5.302   0.264
 1745SOL    HW3 7300   0.136   5.227   0.134
 1745SOL    MW4 7301   0.106   5.231   0.216
 1746SOL     OW 7302   1.373   5.307   0.439
 1746SOL    HW2 7303   1.436   5.297   0.368
 1746SOL    HW3 7304   1.290   5.327   0.394
 1746SOL    MW4 7305   1.370   5.308   0.424
 1747SOL     OW 7306   1.736   4.575   2.125
 1747SOL    HW2 7307   1.777   4.517   2.190
 1747SOL    HW3 7308   1.643   4.567   2.142
 1747SOL    MW4 7309   1.730   4.567   2.135
 1748SOL     OW 7310   1.602   4.507   3.120
 1748SOL    HW2 7311   1.557   4.574   3.171
 1748SOL    HW3 7312   1.690   4.543   3.106
 1748SOL    MW4 7313   1.608   4.520   3.124
 1749SOL     OW 7314   0.530   4.758   2.354
 1749SOL    HW2 7315   0.620   4.733   2.338
 1749SOL    HW3 7316   0.526   4.851   2.331
 1749SOL    MW4 7317   0.542   4.767   2.349
 1750SOL     OW 7318   1.646   5.461   2.496
 1750SOL    HW2 7319   1.658   5.407   2.574
 1750SOL    HW3 7320   1.683   5.409   2.425
 1750SOL    MW4 7321   1.652   5.446   2.497
 1751SOL     OW 7322   1.025   5.346   3.497
 1751SOL    HW2 7323   1.066   5.382   3.418
 1751SOL    HW3 7324   1.060   5.257   3.504
 1751SOL    MW4 7325   1.036   5.339   3.488
 1752SOL     OW 7326   1.582   4.901   3.101
 1752SOL    HW2 7327   1.503   4.866   3.059
 1752SOL    HW3 7328   1.609   4.973   3.045
 1752SOL    MW4 7329   1.575   4.906   3.088
 1753SOL     OW 7330   0.814   4.214   2.367
 1753SOL    HW2 7331   0.789   4.302   2.395
 1753SOL    HW3 7332   0.811   4.217   2.271
 1753SOL    MW4 7333   0.810   4.226   2.359
 1754SOL     OW 7334   0.256   4.242   2.295
 1754SOL    HW2 7335   0.288   4.330   2.277
 1754SOL    HW3 7336   0.244   4.240   2.390
 1754SOL    MW4 7337   0.259   4.254   2.307
 1755SOL     OW 7338   0.334   4.655   3.196
 1755SOL    HW2 7339   0.397   4.602   3.147
 1755SOL    HW3 7340   0.315   4.729   3.139
 1755SOL    MW4 7341   0.340   4.657   3.183
 1756SOL     OW 7342   0.655   3.997   2.382
 1756SOL    HW2 7343   0.713   4.073   2.384
 1756SOL    HW3 7344   0.590   4.018   2.315
 1756SOL    MW4 7345   0.654   4.009   2.373
 1757SOL     OW 7346   0.742   4.924   2.557
 1757SOL    HW2 7347   0.822   4.927   2.609
 1757SOL    HW3 7348   0.770   4.891   2.471
 1757SOL    MW4 7349   0.756   4.920   2.552
 1758SOL     OW 7350   0.767   5.265   3.460
 1758SOL    HW2 7351   0.851   5.291   3.499
 1758SOL    HW3 7352   0.791   5.209   3.386
 1758SOL    MW4 7353   0.781   5.261   3.455
 1759SOL     OW 7354   0.519   4.428   2.548
 1759SOL    HW2 7355   0.504   4.348   2.599
 1759SOL    HW3 7356   0.601   4.463   2.582
 1759SOL    MW4 7357   0.527   4.420   2.560
 1760SOL     OW 7358   0.856   5.114   3.233
 1760SOL    HW2 7359   0.820   5.180   3.173
 1760SOL    HW3 7360   0.784   5.052   3.246
 1760SOL    MW4 7361   0.842   5.114   3.227
 1761SOL     OW 7362   0.661   4.254   2.925
 1761SOL    HW2 7363   0.567   4.250   2.943
 1761SOL    HW3 7364   0.691   4.163   2.934
 1761SOL    MW4 7365   0.652   4.242   2.928
 1762SOL     OW 7366   0.407   4.668   2.829
 1762SOL    HW2 7367   0.362   4.675   2.745
 1762SOL    HW3 7368   0.387   4.751   2.873
 1762SOL    MW4 7369   0.399   4.680   2.823
 1763SOL     OW 7370   0.104   5.514   2.704
 1763SOL    HW2 7371   0.193   5.506   2.739
 1763SOL    HW3 7372   0.068   5.426   2.709
 1763SOL    MW4 7373   0.111   5.501   2.709
 1764SOL     OW 7374   1.369   4.906   2.073
 1764SOL    HW2 7375   1.287   4.942   2.039
 1764SOL    HW3 7376   1.437   4.949   2.022
 1764SOL    MW4 7377   1.367   4.916   2.061
 1765SOL     OW 7378   0.368   5.041   2.739
 1765SOL    HW2 7379   0.344   5.094   2.815
 1765SOL    HW3 7380   0.424   5.099   2.687
 1765SOL    MW4 7381   0.372   5.056   2.742
 1766SOL     OW 7382   0.930   4.685   2.549
 1766SOL    HW2 7383   0.844   4.672   2.589
 1766SOL    HW3 7384   0.983   4.612   2.581
 1766SOL    MW4 7385   0.926   4.674   2.558
 1767SOL     OW 7386   0.338   5.337   3.334
 1767SOL    HW2 7387   0.246   5.313   3.319
 1767SOL    HW3 7388   0.382   5.254   3.351
 1767SOL    MW4 7389   0.332   5.322   3.333
 1768SOL     OW 7390   0.921   5.047   2.266
 1768SOL    HW2 7391   0.898   5.109   2.334
 1768SOL    HW3 7392   0.878   4.965   2.292
 1768SOL    MW4 7393   0.913   5.043   2.277
 1769SOL     OW 7394   1.794   4.048   2.722
 1769SOL    HW2 7395   1.731   4.028   2.791
 1769SOL    HW3 7396   1.784   3.977   2.659
 1769SOL    MW4 7397   1.784   4.035   2.723
 1770SOL     OW 7398   0.418   4.020   2.234
 1770SOL    HW2 7399   0.392   3.982   2.150
 1770SOL    HW3 7400   0.355   4.090   2.250
 1770SOL    MW4 7401   0.407   4.023   2.225
 1771SOL     OW 7402   0.253   4.981   2.271
 1771SOL    HW2 7403   0.201   5.049   2.227
 1771SOL    HW3 7404   0.250   4.907   2.211
 1771SOL    MW4 7405   0.245   4.980   2.258
 1772SOL     OW 7406   0.915   5.444   2.049
 1772SOL    HW2 7407   0.870   5.460   2.132
 1772SOL    HW3 7408   0.846   5.409   1.991
 1772SOL    MW4 7409   0.901   5.441   2.051
 1773SOL     OW 7410   1.850   4.217   2.024
 1773SOL    HW2 7411   1.759   4.219   2.052
 1773SOL    HW3 7412   1.895   4.279   2.082
 1773SOL    MW4 7413   1.843   4.225   2.034
 1774SOL     OW 7414   1.595   4.820   2.374
 1774SOL    HW2 7415   1.505   4.820   2.409
 1774SOL    HW3 7416   1.588   4.866   2.291
 1774SOL    MW4 7417   1.582   4.826   2.368
 1775SOL     OW 7418   1.395   4.455   3.446
 1775SOL    HW2 7419   1.464   4.393   3.423
 1775SOL    HW3 7420   1.320   4.429   3.393
 1775SOL    MW4 7421   1.395   4.442   3.437
 1776SOL     OW 7422   0.136   5.335   2.998
 1776SOL    HW2 7423   0.119   5.281   3.075
 1776SOL    HW3 7424   0.124   5.425   3.028
 1776SOL    MW4 7425   0.133   5.339   3.012
 1777SOL     OW 7426   1.131   4.842   3.438
 1777SOL    HW2 7427   1.116   4.935   3.423
 1777SOL    HW3 7428   1.226   4.832   3.438
 1777SOL    MW4 7429   1.140   4.852   3.435
 1778SOL     OW 7430   0.927   4.266   3.639
 1778SOL    HW2 7431   1.017   4.267   3.606
 1778SOL    HW3 7432   0.886   4.191   3.597
 1778SOL    MW4 7433   0.933   4.256   3.630
 1779SOL     OW 7434   1.502   4.798   2.766
 1779SOL    HW2 7435   1.505   4.732   2.697
 1779SOL    HW3 7436   1.587   4.841   2.762
 1779SOL    MW4 7437   1.514   4.794   2.757
 1780SOL     OW 7438   1.122   4.401   2.335
 1780SOL    HW2 7439   1.148   4.425   2.246
 1780SOL    HW3 7440   1.104   4.308   2.331
 1780SOL    MW4 7441   1.124   4.393   2.322
 1781SOL     OW 7442   1.787   5.021   2.186
 1781SOL    HW2 7443   1.743   5.062   2.261
 1781SOL    HW3 7444   1.844   5.089   2.151
 1781SOL    MW4 7445   1.789   5.035   2.191
 1782SOL     OW 7446   0.707   4.070   3.589
 1782SOL    HW2 7447   0.717   3.996   3.529
 1782SOL    HW3 7448   0.743   4.039   3.672
 1782SOL    MW4 7449   0.713   4.056   3.591
 1783SOL     OW 7450   0.443   5.437   2.504
 1783SOL    HW2 7451   0.475   5.525   2.482
 1783SOL    HW3 7452   0.396   5.409   2.426
 1783SOL    MW4 7453   0.442   5.445   2.491
 1784SOL     OW 7454   1.827   3.799   2.553
 1784SOL    HW2 7455   1.881   3.750   2.615
 1784SOL    HW3 7456   1.770   3.733   2.514
 1784SOL    MW4 7457   1.827   3.783   2.555
 1785SOL     OW 7458   0.159   5.497   2.081
 1785SOL    HW2 7459   0.188   5.587   2.073
 1785SOL    HW3 7460   0.109   5.480   2.002
 1785SOL    MW4 7461   0.157   5.505   2.070
 1786SOL     OW 7462   0.946   3.752   2.966
 1786SOL    HW2 7463   0.905   3.830   2.928
 1786SOL    HW3 7464   1.040   3.770   2.961
 1786SOL    MW4 7465   0.952   3.764   2.961
 1787SOL     OW 7466   1.563   5.305   2.052
 1787SOL    HW2 7467   1.611   5.374   2.098
 1787SOL    HW3 7468   1.484   5.349   2.021
 1787SOL    MW4 7469   1.558   5.319   2.055
 1788SOL     OW 7470   0.961   4.430   1.996
 1788SOL    HW2 7471   0.963   4.377   1.917
 1788SOL    HW3 7472   1.049   4.467   2.002
 1788SOL    MW4 7473   0.973   4.429   1.985
 1789SOL     OW 7474   1.575   4.356   2.332
 1789SOL    HW2 7475   1.614   4.356   2.419
 1789SOL    HW3 7476   1.516   4.432   2.332
 1789SOL    MW4 7477   1.572   4.367   2.343
 1790SOL     OW 7478   0.892   4.723   3.461
 1790SOL    HW2 7479   0.869   4.703   3.551
 1790SOL    HW3 7480   0.977   4.767   3.466
 1790SOL    MW4 7481   0.899   4.726   3.473
 1791SOL     OW 7482   0.972   3.860   3.221
 1791SOL    HW2 7483   0.978   3.822   3.134
 1791SOL    HW3 7484   0.961   3.954   3.206
 1791SOL    MW4 7485   0.973   3.868   3.209
 1792SOL     OW 7486   1.061   4.349   3.055
 1792SOL    HW2 7487   1.136   4.378   3.002
 1792SOL    HW3 7488   0.993   4.414   3.039
 1792SOL    MW4 7489   1.062   4.361   3.045
 1793SOL     OW 7490   1.611   4.317   3.332
 1793SOL    HW2 7491   1.592   4.226   3.311
 1793SOL    HW3 7492   1.589   4.366   3.253
 1793SOL    MW4 7493   1.606   4.310   3.319
 1794SOL     OW 7494   1.753   5.411   3.236
 1794SOL    HW2 7495   1.681   5.373   3.287
 1794SOL    HW3 7496   1.770   5.496   3.277
 1794SOL    MW4 7497   1.747   5.416   3.248
 1795SOL     OW 7498   1.058   4.055   3.438
 1795SOL    HW2 7499   1.024   4.094   3.357
 1795SOL    HW3 7500   1.036   3.963   3.431
 1795SOL    MW4 7501   1.051   4.048   3.428
 1796SOL     OW 7502   1.467   4.869   3.514
 1796SOL    HW2 7503   1.549   4.910   3.544
 1796SOL    HW3 7504   1.430   4.831   3.594
 1796SOL    MW4 7505   1.473   4.870   3.529
 1797SOL     OW 7506   1.762   4.242   2.498
 1797SOL    HW2 7507   1.851   4.211   2.515
 1797SOL    HW3 7508   1.705   4.182   2.546
 1797SOL    MW4 7509   1.765   4.230   2.507
 1798SOL     OW 7510   0.188   3.956   2.527
 1798SOL    HW2 7511   0.179   3.896   2.453
 1798SOL    HW3 7512   0.121   3.927   2.590
 1798SOL    MW4 7513   0.178   3.943   2.525
 1799SOL     OW 7514   1.131   5.049   2.088
 1799SOL    HW2 7515   1.081   5.051   2.170
 1799SOL    HW3 7516   1.065   5.067   2.020
 1799SOL    MW4 7517   1.117   5.051   2.090
 1800SOL     OW 7518   0.135   4.129   2.890
 1800SOL    HW2 7519   0.107   4.220   2.899
 1800SOL    HW3 7520   0.072   4.090   2.829
 1800SOL    MW4 7521   0.122   4.135   2.884
 1801SOL     OW 7522   0.594   5.467   2.196
 1801SOL    HW2 7523   0.515   5.425   2.229
 1801SOL    HW3 7524   0.660   5.450   2.263
 1801SOL    MW4 7525   0.593   5.459   2.209
 1802SOL     OW 7526   1.722   4.987   3.593
 1802SOL    HW2 7527   1.772   4.913   3.625
 1802SOL    HW3 7528   1.668   5.014   3.668
 1802SOL    MW4 7529   1.722   4.981   3.606
 1803SOL     OW 7530   0.730   4.882   1.903
 1803SOL    HW2 7531   0.652   4.828   1.890
 1803SOL    HW3 7532   0.701   4.955   1.956
 1803SOL    MW4 7533   0.716   4.884   1.908
 1804SOL     OW 7534   1.856   4.622   3.095
 1804SOL    HW2 7535   1.872   4.660   3.008
 1804SOL    HW3 7536   1.890   4.688   3.156
 1804SOL    MW4 7537   1.863   4.635   3.091
 1805SOL     OW 7538   1.648   5.331   2.764
 1805SOL    HW2 7539   1.677   5.398   2.825
 1805SOL    HW3 7540   1.629   5.255   2.819
 1805SOL    MW4 7541   1.650   5.331   2.779
 1806SOL     OW 7542   1.311   5.398   1.971
 1806SOL    HW2 7543   1.237   5.361   2.021
 1806SOL    HW3 7544   1.319   5.488   2.004
 1806SOL    MW4 7545   1.302   5.405   1.983
 1807SOL     OW 7546   0.119   4.404   3.060
 1807SOL    HW2 7547   0.181   4.434   3.126
 1807SOL    HW3 7548   0.053   4.473   3.054
 1807SOL    MW4 7549   0.118   4.417   3.067
 1808SOL     OW 7550   1.535   5.072   1.913
 1808SOL    HW2 7551   1.482   5.121   1.849
 1808SOL    HW3 7552   1.566   5.138   1.974
 1808SOL    MW4 7553   1.533   5.086   1.911
 1809SOL     OW 7554   0.760   3.961   1.968
 1809SOL    HW2 7555   0.708   3.881   1.956
 1809SOL    HW3 7556   0.847   3.938   1.936
 1809SOL    MW4 7557   0.763   3.947   1.962
 1810SOL     OW 7558   0.214   5.513   3.512
 1810SOL    HW2 7559   0.188   5.581   3.450
 1810SOL    HW3 7560   0.262   5.450   3.460
 1810SOL    MW4 7561   0.216   5.513   3.498
 1811SOL     OW 7562   0.266   4.832   3.019
 1811SOL    HW2 7563   0.319   4.907   3.044
 1811SOL    HW3 7564   0.185   4.870   2.985
 1811SOL    MW4 7565   0.262   4.847   3.019
 1812SOL     OW 7566   0.806   4.736   3.007
 1812SOL    HW2 7567   0.834   4.645   3.019
 1812SOL    HW3 7568   0.735   4.730   2.943
 1812SOL    MW4 7569   0.799   4.724   3.002
 1813SOL     OW 7570   0.121   4.601   2.425
 1813SOL    HW2 7571   0.212   4.616   2.452
 1813SOL    HW3 7572   0.124   4.522   2.371
 1813SOL    MW4 7573   0.133   4.593   2.423
 1814SOL     OW 7574   0.357   4.309   3.679
 1814SOL    HW2 7575   0.304   4.389   3.686
 1814SOL    HW3 7576   0.427   4.321   3.744
 1814SOL    MW4 7577   0.359   4.322   3.687
 1815SOL     OW 7578   0.743   3.859   3.386
 1815SOL    HW2 7579   0.720   3.767   3.388
 1815SOL    HW3 7580   0.829   3.861   3.343
 1815SOL    MW4 7581   0.750   3.849   3.382
 1816SOL     OW 7582   0.427   4.383   3.425
 1816SOL    HW2 7583   0.507   4.433   3.411
 1816SOL    HW3 7584   0.418   4.377   3.520
 1816SOL    MW4 7585   0.436   4.389   3.435
 1817SOL     OW 7586   0.748   5.533   2.799
 1817SOL    HW2 7587   0.837   5.548   2.829
 1817SOL    HW3 7588   0.743   5.580   2.715
 1817SOL    MW4 7589   0.758   5.541   2.792
 1818SOL     OW 7590   1.404   3.908   3.696
 1818SOL    HW2 7591   1.460   3.835   3.722
 1818SOL    HW3 7592   1.374   3.946   3.778
 1818SOL    MW4 7593   1.408   3.903   3.709
 1819SOL     OW 7594   0.129   5.213   2.464
 1819SOL    HW2 7595   0.101   5.252   2.546
 1819SOL    HW3 7596   0.149   5.122   2.486
 1819SOL    MW4 7597   0.127   5.205   2.477
 1820SOL     OW 7598   0.962   5.256   2.499
 1820SOL    HW2 7599   1.045   5.210   2.483
 1820SOL    HW3 7600   0.952   5.255   2.595
 1820SOL    MW4 7601   0.972   5.249   2.509
 1821SOL     OW 7602   1.794   4.401   2.813
 1821SOL    HW2 7603   1.883   4.431   2.795
 1821SOL    HW3 7604   1.774   4.341   2.742
 1821SOL    MW4 7605   1.803   4.398   2.802
 1822SOL     OW 7606   1.645   4.580   3.693
 1822SOL    HW2 7607   1.700   4.504   3.674
 1822SOL    HW3 7608   1.647   4.588   3.788
 1822SOL    MW4 7609   1.653   4.571   3.701
 1823SOL     OW 7610   0.695   5.313   1.904
 1823SOL    HW2 7611   0.635   5.382   1.874
 1823SOL    HW3 7612   0.640   5.255   1.957
 1823SOL    MW4 7613   0.679   5.315   1.906
 1824SOL     OW 7614   1.133   3.958   2.127
 1824SOL    HW2 7615   1.066   3.934   2.064
 1824SOL    HW3 7616   1.198   4.007   2.076
 1824SOL    MW4 7617   1.133   3.960   2.112
 1825SOL     OW 7618   0.940   4.142   3.212
 1825SOL    HW2 7619   0.859   4.183   3.240
 1825SOL    HW3 7620   0.987   4.210   3.164
 1825SOL    MW4 7621   0.935   4.157   3.210
 1826SOL     OW 7622   1.200   4.480   2.835
 1826SOL    HW2 7623   1.213   4.574   2.845
 1826SOL    HW3 7624   1.161   4.470   2.749
 1826SOL    MW4 7625   1.196   4.491   2.825
 1827SOL     OW 7626   0.652   4.675   2.639
 1827SOL    HW2 7627   0.563   4.666   2.672
 1827SOL    HW3 7628   0.656   4.765   2.607
 1827SOL    MW4 7629   0.641   4.686   2.639
 1828SOL     OW 7630   1.451   4.258   2.634
 1828SOL    HW2 7631   1.396   4.179   2.633
 1828SOL    HW3 7632   1.433   4.299   2.718
 1828SOL    MW4 7633   1.441   4.253   2.643
 1829SOL     OW 7634   0.422   3.945   3.451
 1829SOL    HW2 7635   0.343   3.963   3.503
 1829SOL    HW3 7636   0.417   4.007   3.378
 1829SOL    MW4 7637   0.412   3.955   3.448
 1830SOL     OW 7638   1.070   4.462   2.591
 1830SOL    HW2 7639   1.007   4.394   2.615
 1830SOL    HW3 7640   1.090   4.443   2.499
 1830SOL    MW4 7641   1.064   4.449   2.583
 1831SOL     OW 7642   0.326   5.357   2.293
 1831SOL    HW2 7643   0.287   5.404   2.219
 1831SOL    HW3 7644   0.260   5.292   2.318
 1831SOL    MW4 7645   0.313   5.355   2.287
 1832SOL     OW 7646   0.818   4.766   2.317
 1832SOL    HW2 7647   0.820   4.740   2.224
 1832SOL    HW3 7648   0.876   4.703   2.360
 1832SOL    MW4 7649   0.826   4.755   2.311
 1833SOL     OW 7650   1.371   5.326   3.089
 1833SOL    HW2 7651   1.296   5.372   3.127
 1833SOL    HW3 7652   1.353   5.233   3.106
 1833SOL    MW4 7653   1.360   5.320   3.097
 1834SOL     OW 7654   1.375   5.534   2.519
 1834SOL    HW2 7655   1.318   5.487   2.458
 1834SOL    HW3 7656   1.461   5.495   2.506
 1834SOL    MW4 7657   1.378   5.525   2.509
 1835SOL     OW 7658   1.328   4.010   2.650
 1835SOL    HW2 7659   1.356   3.942   2.711
 1835SOL    HW3 7660   1.242   3.981   2.620
 1835SOL    MW4 7661   1.321   3.997   2.654
 1836SOL     OW 7662   0.133   4.944   2.584
 1836SOL    HW2 7663   0.197   4.976   2.647
 1836SOL    HW3 7664   0.182   4.880   2.532
 1836SOL    MW4 7665   0.148   4.940   2.585
 1837SOL     OW 7666   0.633   5.020   3.566
 1837SOL    HW2 7667   0.681   5.103   3.553
 1837SOL    HW3 7668   0.690   4.968   3.622
 1837SOL    MW4 7669   0.647   5.024   3.572
 1838SOL     OW 7670   0.209   5.262   3.706
 1838SOL    HW2 7671   0.265   5.186   3.721
 1838SOL    HW3 7672   0.158   5.240   3.628
 1838SOL    MW4 7673   0.209   5.249   3.697
 1839SOL     OW 7674   1.308   4.114   1.985
 1839SOL    HW2 7675   1.281   4.180   1.921
 1839SOL    HW3 7676   1.378   4.157   2.035
 1839SOL    MW4 7677   1.313   4.127   1.982
 1840SOL     OW 7678   0.976   3.819   1.922
 1840SOL    HW2 7679   1.032   3.811   1.844
 1840SOL    HW3 7680   0.953   3.729   1.944
 1840SOL    MW4 7681   0.981   3.806   1.915
 1841SOL     OW 7682   1.481   4.670   2.127
 1841SOL    HW2 7683   1.448   4.759   2.117
 1841SOL    HW3 7684   1.446   4.641   2.212
 1841SOL    MW4 7685   1.471   4.679   2.138
 1842SOL     OW 7686   1.094   5.099   3.315
 1842SOL    HW2 7687   1.005   5.105   3.283
 1842SOL    HW3 7688   1.138   5.178   3.283
 1842SOL    MW4 7689   1.089   5.109   3.307
 1843SOL     OW 7690   0.387   3.767   3.657
 1843SOL    HW2 7691   0.315   3.732   3.605
 1843SOL    HW3 7692   0.445   3.808   3.592
 1843SOL    MW4 7693   0.385   3.768   3.642
 1844SOL     OW 7694   0.411   5.257   2.956
 1844SOL    HW2 7695   0.456   5.319   3.013
 1844SOL    HW3 7696   0.318   5.276   2.969
 1844SOL    MW4 7697   0.404   5.267   2.963
 1845SOL     OW 7698   1.851   4.786   3.310
 1845SOL    HW2 7699   1.766   4.799   3.269
 1845SOL    HW3 7700   1.831   4.750   3.397
 1845SOL    MW4 7701   1.838   4.782   3.315
 1846SOL     OW 7702   0.833   5.325   3.064
 1846SOL    HW2 7703   0.857   5.314   2.973
 1846SOL    HW3 7704   0.756   5.382   3.062
 1846SOL    MW4 7705   0.825   5.330   3.053
 1847SOL     OW 7706   0.475   4.708   1.919
 1847SOL    HW2 7707   0.398   4.721   1.975
 1847SOL    HW3 7708   0.439   4.672   1.838
 1847SOL    MW4 7709   0.461   4.704   1.916
 1848SOL     OW 7710   1.128   4.681   2.162
 1848SOL    HW2 7711   1.038   4.702   2.137
 1848SOL    HW3 7712   1.155   4.754   2.218
 1848SOL    MW4 7713   1.120   4.693   2.165
 1849SOL     OW 7714   0.628   5.030   2.854
 1849SOL    HW2 7715   0.621   5.009   2.948
 1849SOL    HW3 7716   0.546   4.998   2.817
 1849SOL    MW4 7717   0.616   5.024   2.861
 1850SOL     OW 7718   1.492   4.040   3.256
 1850SOL    HW2 7719   1.439   4.042   3.336
 1850SOL    HW3 7720   1.477   3.953   3.219
 1850SOL    MW4 7721   1.484   4.030   3.261
 1851SOL     OW 7722   1.828   3.964   3.129
 1851SOL    HW2 7723   1.809   4.031   3.064
 1851SOL    HW3 7724   1.885   3.902   3.084
 1851SOL    MW4 7725   1.832   3.965   3.115
 1852SOL     OW 7726   0.074   5.122   3.517
 1852SOL    HW2 7727   0.118   5.055   3.463
 1852SOL    HW3 7728  -0.011   5.084   3.537
 1852SOL    MW4 7729   0.069   5.108   3.513
 1853SOL     OW 7730   0.757   3.797   2.569
 1853SOL    HW2 7731   0.686   3.858   2.551
 1853SOL    HW3 7732   0.808   3.794   2.488
 1853SOL    MW4 7733   0.753   3.803   2.556
 1854SOL     OW 7734   0.515   5.037   2.318
 1854SOL    HW2 7735   0.508   5.069   2.408
 1854SOL    HW3 7736   0.425   5.021   2.290
 1854SOL    MW4 7737   0.503   5.039   2.325
 1855SOL     OW 7738   1.110   5.430   3.227
 1855SOL    HW2 7739   1.030   5.415   3.177
 1855SOL    HW3 7740   1.117   5.525   3.234
 1855SOL    MW4 7741   1.101   5.441   3.221
 1856SOL     OW 7742   1.224   5.395   2.717
 1856SOL    HW2 7743   1.271   5.468   2.676
 1856SOL    HW3 7744   1.145   5.434   2.753
 1856SOL    MW4 7745   1.219   5.410   2.716
 1857SOL     OW 7746   1.632   5.490   2.992
 1857SOL    HW2 7747   1.675   5.460   3.072
 1857SOL    HW3 7748   1.551   5.438   2.989
 1857SOL    MW4 7749   1.627   5.479   3.002
 1858SOL     OW 7750   0.717   4.454   3.699
 1858SOL    HW2 7751   0.787   4.396   3.671
 1858SOL    HW3 7752   0.660   4.399   3.754
 1858SOL    MW4 7753   0.719   4.441   3.703
 1859SOL     OW 7754   1.504   4.666   3.332
 1859SOL    HW2 7755   1.509   4.719   3.412
 1859SOL    HW3 7756   1.466   4.583   3.360
 1859SOL    MW4 7757   1.500   4.661   3.347
 1860SOL     OW 7758   1.144   3.801   3.578
 1860SOL    HW2 7759   1.139   3.708   3.559
 1860SOL    HW3 7760   1.227   3.812   3.624
 1860SOL    MW4 7761   1.152   3.790   3.582
 1861SOL     OW 7762   0.518   4.321   2.032
 1861SOL    HW2 7763   0.484   4.377   2.102
 1861SOL    HW3 7764   0.589   4.271   2.072
 1861SOL    MW4 7765   0.524   4.322   2.046
 1862SOL     OW 7766   1.614   5.072   2.854
 1862SOL    HW2 7767   1.649   5.054   2.767
 1862SOL    HW3 7768   1.519   5.073   2.841
 1862SOL    MW4 7769   1.606   5.069   2.841
 1863SOL     OW 7770   1.043   4.720   3.223
 1863SOL    HW2 7771   1.086   4.755   3.301
 1863SOL    HW3 7772   1.026   4.797   3.169
 1863SOL    MW4 7773   1.046   4.735   3.226
 1864SOL     OW 7774   1.574   4.207   2.096
 1864SOL    HW2 7775   1.566   4.278   2.033
 1864SOL    HW3 7776   1.592   4.251   2.179
 1864SOL    MW4 7777   1.575   4.221   2.098
 1865SOL     OW 7778   0.434   3.862   2.525
 1865SOL    HW2 7779   0.484   3.905   2.456
 1865SOL    HW3 7780   0.349   3.906   2.525
 1865SOL    MW4 7781   0.431   3.875   2.516
 1866SOL     OW 7782   0.193   4.924   3.385
 1866SOL    HW2 7783   0.221   4.877   3.463
 1866SOL    HW3 7784   0.114   4.879   3.356
 1866SOL    MW4 7785   0.186   4.913   3.391
 1867SOL     OW 7786   0.701   4.251   3.352
 1867SOL    HW2 7787   0.673   4.339   3.376
 1867SOL    HW3 7788   0.670   4.195   3.423
 1867SOL    MW4 7789   0.693   4.254   3.364
 1868SOL     OW 7790   1.243   4.469   2.071
 1868SOL    HW2 7791   1.290   4.487   1.990
 1868SOL    HW3 7792   1.209   4.553   2.099
 1868SOL    MW4 7793   1.245   4.483   2.064
 1869SOL     OW 7794   0.356   4.647   2.565
 1869SOL    HW2 7795   0.414   4.703   2.513
 1869SOL    HW3 7796   0.400   4.562   2.567
 1869SOL    MW4 7797   0.369   4.644   2.558
 1870SOL     OW 7798   1.496   3.999   2.402
 1870SOL    HW2 7799   1.418   3.949   2.427
 1870SOL    HW3 7800   1.467   4.090   2.402
 1870SOL    MW4 7801   1.482   4.003   2.405
 1871SOL     OW 7802   1.082   3.961   2.561
 1871SOL    HW2 7803   1.102   4.036   2.505
 1871SOL    HW3 7804   1.062   4.000   2.646
 1871SOL    MW4 7805   1.083   3.977   2.565
 1872SOL     OW 7806   0.978   5.211   1.893
 1872SOL    HW2 7807   1.005   5.289   1.845
 1872SOL    HW3 7808   0.885   5.226   1.912
 1872SOL    MW4 7809   0.969   5.224   1.889
 1873SOL     OW 7810   1.842   4.734   3.580
 1873SOL    HW2 7811   1.755   4.714   3.616
 1873SOL    HW3 7812   1.896   4.660   3.605
 1873SOL    MW4 7813   1.837   4.723   3.588
 1874SOL     OW 7814   0.063   5.247   2.737
 1874SOL    HW2 7815   0.095   5.251   2.828
 1874SOL    HW3 7816  -0.032   5.255   2.745
 1874SOL    MW4 7817   0.055   5.250   2.750
 1875SOL     OW 7818   0.018   4.373   2.284
 1875SOL    HW2 7819  -0.042   4.345   2.354
 1875SOL    HW3 7820   0.092   4.313   2.290
 1875SOL    MW4 7821   0.020   4.362   2.293
 1876SOL     OW 7822   1.586   5.585   3.718
 1876SOL    HW2 7823   1.631   5.509   3.683
 1876SOL    HW3 7824   1.624   5.598   3.805
 1876SOL    MW4 7825   1.596   5.578   3.724
 1877SOL     OW 7826   1.186   5.104   2.444
 1877SOL    HW2 7827   1.209   5.055   2.522
 1877SOL    HW3 7828   1.267   5.146   2.416
 1877SOL    MW4 7829   1.199   5.104   2.451
 1878SOL     OW 7830   0.444   4.112   3.173
 1878SOL    HW2 7831   0.477   4.193   3.213
 1878SOL    HW3 7832   0.417   4.138   3.085
 1878SOL    MW4 7833   0.443   4.126   3.167
 1879SOL     OW 7834   0.398   4.079   2.909
 1879SOL    HW2 7835   0.428   3.993   2.880
 1879SOL    HW3 7836   0.303   4.072   2.912
 1879SOL    MW4 7837   0.390   4.068   2.907
 1880SOL     OW 7838   1.227   4.288   3.600
 1880SOL    HW2 7839   1.279   4.223   3.553
 1880SOL    HW3 7840   1.185   4.339   3.530
 1880SOL    MW4 7841   1.228   4.285   3.583
 1881SOL     OW 7842   1.326   4.083   3.461
 1881SOL    HW2 7843   1.233   4.067   3.448
 1881SOL    HW3 7844   1.352   4.021   3.529
 1881SOL    MW4 7845   1.316   4.073   3.468
 1882SOL     OW 7846   0.541   3.857   2.800
 1882SOL    HW2 7847   0.551   3.766   2.826
 1882SOL    HW3 7848   0.497   3.853   2.715
 1882SOL    MW4 7849   0.537   3.845   2.792
 1883SOL     OW 7850   0.635   5.472   3.346
 1883SOL    HW2 7851   0.552   5.457   3.391
 1883SOL    HW3 7852   0.694   5.405   3.381
 1883SOL    MW4 7853   0.633   5.462   3.356
 1884SOL     OW 7854   1.692   4.179   2.971
 1884SOL    HW2 7855   1.625   4.212   3.031
 1884SOL    HW3 7856   1.735   4.257   2.937
 1884SOL    MW4 7857   1.690   4.194   2.975
 1885SOL     OW 7858   1.870   4.899   2.941
 1885SOL    HW2 7859   1.863   4.839   2.866
 1885SOL    HW3 7860   1.796   4.959   2.930
 1885SOL    MW4 7861   1.860   4.899   2.930
 1886SOL     OW 7862   1.252   4.761   2.859
 1886SOL    HW2 7863   1.266   4.733   2.950
 1886SOL    HW3 7864   1.338   4.792   2.831
 1886SOL    MW4 7865   1.265   4.762   2.868
 1887SOL     OW 7866   1.335   4.256   3.138
 1887SOL    HW2 7867   1.356   4.257   3.045
 1887SOL    HW3 7868   1.380   4.178   3.171
 1887SOL    MW4 7869   1.342   4.246   3.130
 1888SOL     OW 7870   1.828   4.387   3.680
 1888SOL    HW2 7871   1.865   4.332   3.749
 1888SOL    HW3 7872   1.853   4.344   3.598
 1888SOL    MW4 7873   1.835   4.375   3.679
 1889SOL     OW 7874   1.375   4.685   3.731
 1889SOL    HW2 7875   1.441   4.633   3.685
 1889SOL    HW3 7876   1.395   4.672   3.824
 1889SOL    MW4 7877   1.386   4.676   3.738
 1890SOL     OW 7878   1.326   3.771   2.080
 1890SOL    HW2 7879   1.400   3.815   2.123
 1890SOL    HW3 7880   1.250   3.825   2.102
 1890SOL    MW4 7881   1.326   3.783   2.088
 1891SOL     OW 7882   1.386   4.546   2.358
 1891SOL    HW2 7883   1.301   4.516   2.328
 1891SOL    HW3 7884   1.378   4.553   2.453
 1891SOL    MW4 7885   1.374   4.544   2.367
 1892SOL     OW 7886   0.462   5.009   3.089
 1892SOL    HW2 7887   0.474   5.036   3.180
 1892SOL    HW3 7888   0.443   5.090   3.042
 1892SOL    MW4 7889   0.461   5.024   3.094
 1893SOL     OW 7890   0.746   3.989   2.912
 1893SOL    HW2 7891   0.719   3.991   3.003
 1893SOL    HW3 7892   0.676   3.941   2.867
 1893SOL    MW4 7893   0.734   3.985   2.919
 1894SOL     OW 7894   0.600   5.481   3.074
 1894SOL    HW2 7895   0.652   5.558   3.051
 1894SOL    HW3 7896   0.609   5.473   3.169
 1894SOL    MW4 7897   0.609   5.488   3.085
 1895SOL     OW 7898   1.502   5.066   3.306
 1895SOL    HW2 7899   1.487   4.995   3.369
 1895SOL    HW3 7900   1.548   5.024   3.234
 1895SOL    MW4 7901   1.508   5.050   3.306
 1896SOL     OW 7902   0.576   4.797   3.423
 1896SOL    HW2 7903   0.613   4.802   3.335
 1896SOL    HW3 7904   0.615   4.870   3.470
 1896SOL    MW4 7905   0.586   4.807   3.418
 1897SOL     OW 7906   0.756   4.840   3.235
 1897SOL    HW2 7907   0.815   4.786   3.288
 1897SOL    HW3 7908   0.771   4.812   3.145
 1897SOL    MW4 7909   0.766   4.829   3.231
 1898SOL     OW 7910   0.759   4.212   2.084
 1898SOL    HW2 7911   0.832   4.261   2.047
 1898SOL    HW3 7912   0.775   4.121   2.058
 1898SOL    MW4 7913   0.771   4.207   2.077
 1899SOL     OW 7914   1.567   5.329   3.407
 1899SOL    HW2 7915   1.609   5.314   3.492
 1899SOL    HW3 7916   1.558   5.242   3.369
 1899SOL    MW4 7917   1.571   5.317   3.414
 1900SOL     OW 7918   1.227   3.808   2.998
 1900SOL    HW2 7919   1.282   3.817   2.920
 1900SOL    HW3 7920   1.282   3.842   3.069
 1900SOL    MW4 7921   1.241   3.813   2.997
 1901SOL     OW 7922   0.234   4.721   2.182
 1901SOL    HW2 7923   0.171   4.737   2.111
 1901SOL    HW3 7924   0.181   4.684   2.253
 1901SOL    MW4 7925   0.219   4.718   2.182
 1902SOL     OW 7926   0.590   5.075   2.041
 1902SOL    HW2 7927   0.605   5.051   2.133
 1902SOL    HW3 7928   0.498   5.053   2.025
 1902SOL    MW4 7929   0.580   5.068   2.051
 1903SOL     OW 7930   1.129   5.306   2.193
 1903SOL    HW2 7931   1.137   5.224   2.144
 1903SOL    HW3 7932   1.048   5.345   2.160
 1903SOL    MW4 7933   1.119   5.301   2.183
 1904SOL     OW 7934   0.388   5.464   2.762
 1904SOL    HW2 7935   0.392   5.375   2.797
 1904SOL    HW3 7936   0.414   5.455   2.671
 1904SOL    MW4 7937   0.391   5.452   2.754
 1905SOL     OW 7938   1.005   4.942   3.005
 1905SOL    HW2 7939   0.937   4.876   3.021
 1905SOL    HW3 7940   1.023   4.936   2.912
 1905SOL    MW4 7941   0.998   4.933   2.996
 1906SOL     OW 7942   0.094   5.217   3.256
 1906SOL    HW2 7943   0.084   5.175   3.342
 1906SOL    HW3 7944   0.015   5.270   3.246
 1906SOL    MW4 7945   0.083   5.218   3.267
 1907SOL     OW 7946   0.998   4.081   2.826
 1907SOL    HW2 7947   0.928   4.033   2.871
 1907SOL    HW3 7948   1.030   4.144   2.890
 1907SOL    MW4 7949   0.993   4.083   2.840
 1908SOL     OW 7950   0.649   4.517   3.446
 1908SOL    HW2 7951   0.642   4.612   3.434
 1908SOL    HW3 7952   0.658   4.506   3.541
 1908SOL    MW4 7953   0.650   4.529   3.456
 1909SOL     OW 7954   0.370   5.032   3.704
 1909SOL    HW2 7955   0.442   5.034   3.641
 1909SOL    HW3 7956   0.340   4.941   3.703
 1909SOL    MW4 7957   0.375   5.021   3.696
 1910SOL     OW 7958   1.454   3.795   3.171
 1910SOL    HW2 7959   1.525   3.741   3.135
 1910SOL    HW3 7960   1.453   3.774   3.264
 1910SOL    MW4 7961   1.463   3.786   3.179
 1911SOL     OW 7962   1.654   5.325   3.655
 1911SOL    HW2 7963   1.627   5.322   3.746
 1911SOL    HW3 7964   1.750   5.329   3.658
 1911SOL    MW4 7965   1.664   5.325   3.667
 1912SOL     OW 7966   0.465   4.187   2.639
 1912SOL    HW2 7967   0.536   4.135   2.602
 1912SOL    HW3 7968   0.451   4.152   2.726
 1912SOL    MW4 7969   0.473   4.176   2.646
 1913SOL     OW 7970   0.020   5.522   3.711
 1913SOL    HW2 7971   0.070   5.500   3.633
 1913SOL    HW3 7972   0.028   5.617   3.719
 1913SOL    MW4 7973   0.028   5.531   3.702
 1914SOL     OW 7974   0.781   5.280   2.715
 1914SOL    HW2 7975   0.709   5.217   2.728
 1914SOL    HW3 7976   0.742   5.365   2.733
 1914SOL    MW4 7977   0.765   5.283   2.718
 1915SOL     OW 7978   1.101   4.128   2.363
 1915SOL    HW2 7979   1.123   4.065   2.295
 1915SOL    HW3 7980   1.006   4.120   2.374
 1915SOL    MW4 7981   1.091   4.119   2.355
 1916SOL     OW 7982   0.186   3.818   2.295
 1916SOL    HW2 7983   0.257   3.839   2.234
 1916SOL    HW3 7984   0.140   3.746   2.253
 1916SOL    MW4 7985   0.190   3.812   2.281
 1917SOL     OW 7986   0.017   4.285   3.438
 1917SOL    HW2 7987   0.081   4.351   3.413
 1917SOL    HW3 7988  -0.064   4.312   3.395
 1917SOL    MW4 7989   0.015   4.297   3.430
 1918SOL     OW 7990   1.755   5.192   2.395
 1918SOL    HW2 7991   1.725   5.125   2.456
 1918SOL    HW3 7992   1.849   5.198   2.409
 1918SOL    MW4 7993   1.763   5.184   2.405
 1919SOL     OW 7994   1.311   4.869   2.325
 1919SOL    HW2 7995   1.283   4.955   2.358
 1919SOL    HW3 7996   1.339   4.885   2.235
 1919SOL    MW4 7997   1.311   4.883   2.317
 1920SOL     OW 7998   0.973   3.789   2.378
 1920SOL    HW2 7999   1.010   3.848   2.443
 1920SOL    HW3 8000   0.950   3.845   2.304
 1920SOL    MW4 8001   0.974   3.804   2.377
 1921SOL     OW 8002   1.826   4.671   2.800
 1921SOL    HW2 8003   1.817   4.703   2.711
 1921SOL    HW3 8004   1.779   4.587   2.800
 1921SOL    MW4 8005   1.819   4.664   2.790
 1922SOL     OW 8006   0.202   4.511   3.379
 1922SOL    HW2 8007   0.223   4.580   3.317
 1922SOL    HW3 8008   0.282   4.458   3.384
 1922SOL    MW4 8009   0.215   4.512   3.373
 1923SOL     OW 8010   1.738   4.602   2.501
 1923SOL    HW2 8011   1.832   4.591   2.489
 1923SOL    HW3 8012   1.714   4.674   2.442
 1923SOL    MW4 8013   1.748   4.610   2.492
 1924SOL     OW 8014   0.187   4.526   3.646
 1924SOL    HW2 8015   0.113   4.470   3.672
 1924SOL    HW3 8016   0.182   4.529   3.551
 1924SOL    MW4 8017   0.176   4.519   3.636
 1925SOL     OW 8018   0.353   3.813   3.096
 1925SOL    HW2 8019   0.396   3.897   3.116
 1925SOL    HW3 8020   0.426   3.751   3.089
 1925SOL    MW4 8021   0.368   3.816   3.097
 1926SOL     OW 8022   0.394   4.480   2.274
 1926SOL    HW2 8023   0.394   4.575   2.259
 1926SOL    HW3 8024   0.471   4.464   2.328
 1926SOL    MW4 8025   0.404   4.491   2.279
 1927SOL     OW 8026   1.170   4.339   3.338
 1927SOL    HW2 8027   1.206   4.312   3.254
 1927SOL    HW3 8028   1.083   4.373   3.317
 1927SOL    MW4 8029   1.164   4.340   3.325
 1928SOL     OW 8030   0.153   4.211   2.563
 1928SOL    HW2 8031   0.215   4.218   2.636
 1928SOL    HW3 8032   0.153   4.118   2.540
 1928SOL    MW4 8033   0.161   4.200   2.570
 1929SOL     OW 8034   1.700   5.551   2.095
 1929SOL    HW2 8035   1.767   5.584   2.035
 1929SOL    HW3 8036   1.657   5.630   2.129
 1929SOL    MW4 8037   1.702   5.566   2.091
 1930SOL     OW 8038   0.835   4.472   3.047
 1930SOL    HW2 8039   0.793   4.390   3.023
 1930SOL    HW3 8040   0.836   4.471   3.143
 1930SOL    MW4 8041   0.828   4.461   3.056
 1931SOL     OW 8042   1.506   5.605   3.446
 1931SOL    HW2 8043   1.509   5.511   3.429
 1931SOL    HW3 8044   1.529   5.613   3.538
 1931SOL    MW4 8045   1.509   5.593   3.456
 1932SOL     OW 8046   0.639   3.942   3.152
 1932SOL    HW2 8047   0.570   4.005   3.173
 1932SOL    HW3 8048   0.666   3.906   3.237
 1932SOL    MW4 8049   0.633   3.945   3.165
 1933SOL     OW 8050   0.022   4.783   2.021
 1933SOL    HW2 8051  -0.009   4.848   2.084
 1933SOL    HW3 8052  -0.029   4.705   2.040
 1933SOL    MW4 8053   0.012   4.780   2.031
 1934SOL     OW 8054   1.434   3.795   2.769
 1934SOL    HW2 8055   1.522   3.804   2.806
 1934SOL    HW3 8056   1.444   3.736   2.695
 1934SOL    MW4 8057   1.448   3.789   2.763
 1935SOL     OW 8058   1.466   4.534   2.613
 1935SOL    HW2 8059   1.546   4.549   2.562
 1935SOL    HW3 8060   1.459   4.439   2.619
 1935SOL    MW4 8061   1.475   4.523   2.608
 1936SOL     OW 8062   0.606   5.583   1.963
 1936SOL    HW2 8063   0.511   5.583   1.955
 1936SOL    HW3 8064   0.622   5.529   2.041
 1936SOL    MW4 8065   0.596   5.577   1.972
 1937SOL     OW 8066   0.916   4.460   3.310
 1937SOL    HW2 8067   0.985   4.527   3.307
 1937SOL    HW3 8068   0.849   4.498   3.366
 1937SOL    MW4 8069   0.917   4.473   3.317
 1938SOL     OW 8070   0.334   4.760   3.558
 1938SOL    HW2 8071   0.288   4.676   3.560
 1938SOL    HW3 8072   0.391   4.754   3.482
 1938SOL    MW4 8073   0.336   4.748   3.550
 1939SOL     OW 8074   1.451   4.403   1.879
 1939SOL    HW2 8075   1.379   4.379   1.821
 1939SOL    HW3 8076   1.517   4.440   1.821
 1939SOL    MW4 8077   1.450   4.405   1.864
 1940SOL     OW 8078   0.585   5.135   2.559
 1940SOL    HW2 8079   0.650   5.068   2.580
 1940SOL    HW3 8080   0.637   5.212   2.536
 1940SOL    MW4 8081   0.600   5.137   2.558
 1941SOL     OW 8082   0.846   4.300   2.689
 1941SOL    HW2 8083   0.786   4.318   2.761
 1941SOL    HW3 8084   0.880   4.212   2.708
 1941SOL    MW4 8085   0.842   4.290   2.702
 1942SOL     OW 8086   1.787   3.799   3.358
 1942SOL    HW2 8087   1.708   3.845   3.386
 1942SOL    HW3 8088   1.822   3.853   3.287
 1942SOL    MW4 8089   1.781   3.812   3.352
 1943SOL     OW 8090   1.071   4.883   2.708
 1943SOL    HW2 8091   1.163   4.864   2.726
 1943SOL    HW3 8092   1.044   4.813   2.648
 1943SOL    MW4 8093   1.079   4.871   2.702
 1944SOL     OW 8094   0.864   4.703   2.063
 1944SOL    HW2 8095   0.850   4.615   2.028
 1944SOL    HW3 8096   0.815   4.760   2.004
 1944SOL    MW4 8097   0.856   4.698   2.051
 1945SOL     OW 8098   1.345   5.121   2.804
 1945SOL    HW2 8099   1.318   5.205   2.769
 1945SOL    HW3 8100   1.305   5.116   2.891
 1945SOL    MW4 8101   1.338   5.130   2.810
 1946SOL     OW 8102   1.264   5.069   3.072
 1946SOL    HW2 8103   1.275   5.036   3.161
 1946SOL    HW3 8104   1.183   5.028   3.041
 1946SOL    MW4 8105   1.254   5.061   3.078
 1947SOL     OW 8106   0.277   4.427   2.842
 1947SOL    HW2 8107   0.227   4.426   2.923
 1947SOL    HW3 8108   0.297   4.519   2.826
 1947SOL    MW4 8109   0.273   4.439   2.850
 1948SOL     OW 8110   1.344   5.191   3.604
 1948SOL    HW2 8111   1.344   5.285   3.620
 1948SOL    HW3 8112   1.389   5.181   3.520
 1948SOL    MW4 8113   1.350   5.201   3.595
 1949SOL     OW 8114   1.583   3.909   2.165
 1949SOL    HW2 8115   1.576   3.913   2.260
 1949SOL    HW3 8116   1.595   4.000   2.138
 1949SOL    MW4 8117   1.584   3.922   2.173
 1950SOL     OW 8118   0.872   4.472   2.279
 1950SOL    HW2 8119   0.852   4.458   2.186
 1950SOL    HW3 8120   0.965   4.451   2.286
 1950SOL    MW4 8121   0.882   4.467   2.268
 1951SOL     OW 8122   0.199   4.095   3.583
 1951SOL    HW2 8123   0.156   4.154   3.520
 1951SOL    HW3 8124   0.267   4.150   3.623
 1951SOL    MW4 8125   0.203   4.110   3.580
 1952SOL     OW 8126   1.311   4.715   3.128
 1952SOL    HW2 8127   1.374   4.712   3.201
 1952SOL    HW3 8128   1.227   4.733   3.170
 1952SOL    MW4 8129   1.307   4.717   3.143
 1953SOL     OW 8130   0.855   5.430   2.317
 1953SOL    HW2 8131   0.913   5.501   2.344
 1953SOL    HW3 8132   0.878   5.358   2.375
 1953SOL    MW4 8133   0.866   5.430   2.328
 1954SOL     OW 8134   1.650   3.892   2.907
 1954SOL    HW2 8135   1.695   3.810   2.926
 1954SOL    HW3 8136   1.670   3.948   2.983
 1954SOL    MW4 8137   1.660   3.888   2.919
 1955SOL     OW 8138   0.098   3.735   3.006
 1955SOL    HW2 8139   0.089   3.736   2.911
 1955SOL    HW3 8140   0.192   3.747   3.021
 1955SOL    MW4 8141   0.110   3.738   2.997
 1956SOL     OW 8142   1.735   4.928   2.626
 1956SOL    HW2 8143   1.714   4.874   2.549
 1956SOL    HW3 8144   1.831   4.926   2.630
 1956SOL    MW4 8145   1.744   4.921   2.615
 1957SOL     OW 8146   0.427   5.073   3.369
 1957SOL    HW2 8147   0.348   5.023   3.392
 1957SOL    HW3 8148   0.497   5.032   3.419
 1957SOL    MW4 8149   0.425   5.061   3.379
 1958SOL     OW 8150   0.311   3.862   2.052
 1958SOL    HW2 8151   0.240   3.917   2.020
 1958SOL    HW3 8152   0.353   3.828   1.973
 1958SOL    MW4 8153   0.307   3.864   2.038
 1959SOL     OW 8154   1.435   4.359   2.888
 1959SOL    HW2 8155   1.358   4.405   2.854
 1959SOL    HW3 8156   1.492   4.428   2.922
 1959SOL    MW4 8157   1.432   4.374   2.888
 1960SOL     OW 8158   0.067   3.961   1.901
 1960SOL    HW2 8159   0.034   4.040   1.945
 1960SOL    HW3 8160   0.122   3.994   1.830
 1960SOL    MW4 8161   0.070   3.975   1.898
 1961SOL     OW 8162   0.101   5.218   2.090
 1961SOL    HW2 8163   0.118   5.302   2.132
 1961SOL    HW3 8164   0.136   5.227   2.002
 1961SOL    MW4 8165   0.106   5.231   2.084
 1962SOL     OW 8166   1.373   5.307   2.307
 1962SOL    HW2 8167   1.436   5.297   2.236
 1962SOL    HW3 8168   1.290   5.327   2.262
 1962SOL    MW4 8169   1.370   5.308   2.292
 1963SOL     OW 8170   1.736   4.575   3.993
 1963SOL    HW2 8171   1.777   4.517   4.058
 1963SOL    HW3 8172   1.643   4.567   4.010
 1963SOL    MW4 8173   1.730   4.567   4.003
 1964SOL     OW 8174   1.602   4.507   4.988
 1964SOL    HW2 8175   1.557   4.574   5.039
 1964SOL    HW3 8176   1.690   4.543   4.974
 1964SOL    MW4 8177   1.608   4.520   4.992
 1965SOL     OW 8178   0.530   4.758   4.222
 1965SOL    HW2 8179   0.620   4.733   4.206
 1965SOL    HW3 8180   0.526   4.851   4.199
 1965SOL    MW4 8181   0.542   4.767   4.217
 1966SOL     OW 8182   1.646   5.461   4.364
 1966SOL    HW2 8183   1.658   5.407   4.442
 1966SOL    HW3 8184   1.683   5.409   4.293
 1966SOL    MW4 8185   1.652   5.446   4.365
 1967SOL     OW 8186   1.025   5.346   5.365
 1967SOL    HW2 8187   1.066   5.382   5.286
 1967SOL    HW3 8188   1.060   5.257   5.372
 1967SOL    MW4 8189   1.036   5.339   5.356
 1968SOL     OW 8190   1.582   4.901   4.969
 1968SOL    HW2 8191   1.503   4.866   4.927
 1968SOL    HW3 8192   1.609   4.973   4.913
 1968SOL    MW4 8193   1.575   4.906   4.956
 1969SOL     OW 8194   0.814   4.214   4.235
 1969SOL    HW2 8195   0.789   4.302   4.263
 1969SOL    HW3 8196   0.811   4.217   4.139
 1969SOL    MW4 8197   0.810   4.226   4.227
 1970SOL     OW 8198   0.256   4.242   4.163
 1970SOL    HW2 8199   0.288   4.330   4.145
 1970SOL    HW3 8200   0.244   4.240   4.258
 1970SOL    MW4 8201   0.259   4.254   4.175
 1971SOL     OW 8202   0.334   4.655   5.064
 1971SOL    HW2 8203   0.397   4.602   5.015
 1971SOL    HW3 8204   0.315   4.729   5.007
 1971SOL    MW4 8205   0.340   4.657   5.051
 1972SOL     OW 8206   0.655   3.997   4.250
 1972SOL    HW2 8207   0.713   4.073   4.252
 1972SOL    HW3 8208   0.590   4.018   4.183
 1972SOL    MW4 8209   0.654   4.009   4.241
 1973SOL     OW 8210   0.742   4.924   4.425
 1973SOL    HW2 8211   0.822   4.927   4.477
 1973SOL    HW3 8212   0.770   4.891   4.339
 1973SOL    MW4 8213   0.756   4.920   4.420
 1974SOL     OW 8214   0.767   5.265   5.328
 1974SOL    HW2 8215   0.851   5.291   5.367
 1974SOL    HW3 8216   0.791   5.209   5.254
 1974SOL    MW4 8217   0.781   5.261   5.323
 1975SOL     OW 8218   0.519   4.428   4.416
 1975SOL    HW2 8219   0.504   4.348   4.467
 1975SOL    HW3 8220   0.601   4.463   4.450
 1975SOL    MW4 8221   0.527   4.420   4.428
 1976SOL     OW 8222   0.856   5.114   5.101
 1976SOL    HW2 8223   0.820   5.180   5.041
 1976SOL    HW3 8224   0.784   5.052   5.114
 1976SOL    MW4 8225   0.842   5.114   5.095
 1977SOL     OW 8226   0.661   4.254   4.793
 1977SOL    HW2 8227   0.567   4.250   4.811
 1977SOL    HW3 8228   0.691   4.163   4.802
 1977SOL    MW4 8229   0.652   4.242   4.796
 1978SOL     OW 8230   0.407   4.668   4.697
 1978SOL    HW2 8231   0.362   4.675   4.613
 1978SOL    HW3 8232   0.387   4.751   4.741
 1978SOL    MW4 8233   0.399   4.680   4.691
 1979SOL     OW 8234   0.104   5.514   4.572
 1979SOL    HW2 8235   0.193   5.506   4.607
 1979SOL    HW3 8236   0.068   5.426   4.577
 1979SOL    MW4 8237   0.111   5.501   4.577
 1980SOL     OW 8238   1.369   4.906   3.941
 1980SOL    HW2 8239   1.287   4.942   3.907
 1980SOL    HW3 8240   1.437   4.949   3.890
 1980SOL    MW4 8241   1.367   4.916   3.929
 1981SOL     OW 8242   0.368   5.041   4.607
 1981SOL    HW2 8243   0.344   5.094   4.683
 1981SOL    HW3 8244   0.424   5.099   4.555
 1981SOL    MW4 8245   0.372   5.056   4.610
 1982SOL     OW 8246   0.930   4.685   4.417
 1982SOL    HW2 8247   0.844   4.672   4.457
 1982SOL    HW3 8248   0.983   4.612   4.449
 1982SOL    MW4 8249   0.926   4.674   4.426
 1983SOL     OW 8250   0.338   5.337   5.202
 1983SOL    HW2 8251   0.246   5.313   5.187
 1983SOL    HW3 8252   0.382   5.254   5.219
 1983SOL    MW4 8253   0.332   5.322   5.201
 1984SOL     OW 8254   0.921   5.047   4.134
 1984SOL    HW2 8255   0.898   5.109   4.202
 1984SOL    HW3 8256   0.878   4.965   4.160
 1984SOL    MW4 8257   0.913   5.043   4.145
 1985SOL     OW 8258   1.794   4.048   4.590
 1985SOL    HW2 8259   1.731   4.028   4.659
 1985SOL    HW3 8260   1.784   3.977   4.527
 1985SOL    MW4 8261   1.784   4.035   4.591
 1986SOL     OW 8262   0.418   4.020   4.102
 1986SOL    HW2 8263   0.392   3.982   4.018
 1986SOL    HW3 8264   0.355   4.090   4.118
 1986SOL    MW4 8265   0.407   4.023   4.093
 1987SOL     OW 8266   0.253   4.981   4.139
 1987SOL    HW2 8267   0.201   5.049   4.095
 1987SOL    HW3 8268   0.250   4.907   4.079
 1987SOL    MW4 8269   0.245   4.980   4.126
 1988SOL     OW 8270   0.915   5.444   3.917
 1988SOL    HW2 8271   0.870   5.460   4.000
 1988SOL    HW3 8272   0.846   5.409   3.859
 1988SOL    MW4 8273   0.901   5.441   3.919
 1989SOL     OW 8274   1.850   4.217   3.892
 1989SOL    HW2 8275   1.759   4.219   3.920
 1989SOL    HW3 8276   1.895   4.279   3.950
 1989SOL    MW4 8277   1.843   4.225   3.902
 1990SOL     OW 8278   1.595   4.820   4.242
 1990SOL    HW2 8279   1.505   4.820   4.277
 1990SOL    HW3 8280   1.588   4.866   4.159
 1990SOL    MW4 8281   1.582   4.826   4.236
 1991SOL     OW 8282   1.395   4.455   5.314
 1991SOL    HW2 8283   1.464   4.393   5.291
 1991SOL    HW3 8284   1.320   4.429   5.261
 1991SOL    MW4 8285   1.395   4.442   5.305
 1992SOL     OW 8286   0.136   5.335   4.866
 1992SOL    HW2 8287   0.119   5.281   4.943
 1992SOL    HW3 8288   0.124   5.425   4.896
 1992SOL    MW4 8289   0.133   5.339   4.880
 1993SOL     OW 8290   1.131   4.842   5.306
 1993SOL    HW2 8291   1.116   4.935   5.291
 1993SOL    HW3 8292   1.226   4.832   5.306
 1993SOL    MW4 8293   1.140   4.852   5.303
 1994SOL     OW 8294   0.927   4.266   5.507
 1994SOL    HW2 8295   1.017   4.267   5.474
 1994SOL    HW3 8296   0.886   4.191   5.465
 1994SOL    MW4 8297   0.933   4.256   5.498
 1995SOL     OW 8298   1.502   4.798   4.634
 1995SOL    HW2 8299   1.505   4.732   4.565
 1995SOL    HW3 8300   1.587   4.841   4.630
 1995SOL    MW4 8301   1.514   4.794   4.625
 1996SOL     OW 8302   1.122   4.401   4.203
 1996SOL    HW2 8303   1.148   4.425   4.114
 1996SOL    HW3 8304   1.104   4.308   4.199
 1996SOL    MW4 8305   1.124   4.393   4.190
 1997SOL     OW 8306   1.787   5.021   4.054
 1997SOL    HW2 8307   1.743   5.062   4.129
 1997SOL    HW3 8308   1.844   5.089   4.019
 1997SOL    MW4 8309   1.789   5.035   4.059
 1998SOL     OW 8310   0.707   4.070   5.457
 1998SOL    HW2 8311   0.717   3.996   5.397
 1998SOL    HW3 8312   0.743   4.039   5.540
 1998SOL    MW4 8313   0.713   4.056   5.459
 1999SOL     OW 8314   0.443   5.437   4.372
 1999SOL    HW2 8315   0.475   5.525   4.350
 1999SOL    HW3 8316   0.396   5.409   4.294
 1999SOL    MW4 8317   0.442   5.445   4.359
 2000SOL     OW 8318   1.827   3.799   4.421
 2000SOL    HW2 8319   1.881   3.750   4.483
 2000SOL    HW3 8320   1.770   3.733   4.382
 2000SOL    MW4 8321   1.827   3.783   4.423
 2001SOL     OW 8322   0.159   5.497   3.949
 2001SOL    HW2 8323   0.188   5.587   3.941
 2001SOL    HW3 8324   0.109   5.480   3.870
 2001SOL    MW4 8325   0.157   5.505   3.938
 2002SOL     OW 8326   0.946   3.752   4.834
 2002SOL    HW2 8327   0.905   3.830   4.796
 2002SOL    HW3 8328   1.040   3.770   4.829
 2002SOL    MW4 8329   0.952   3.764   4.829
 2003SOL     OW 8330   1.563   5.305   3.920
 2003SOL    HW2 8331   1.611   5.374   3.966
 2003SOL    HW3 8332   1.484   5.349   3.889
 2003SOL    MW4 8333   1.558   5.319   3.923
 2004SOL     OW 8334   0.961   4.430   3.864
 2004SOL    HW2 8335   0.963   4.377   3.785
 2004SOL    HW3 8336   1.049   4.467   3.870
 2004SOL    MW4 8337   0.973   4.429   3.853
 2005SOL     OW 8338   1.575   4.356   4.200
 2005SOL    HW2 8339   1.614   4.356   4.287
 2005SOL    HW3 8340   1.516   4.432   4.200
 2005SOL    MW4 8341   1.572   4.367   4.211
 2006SOL     OW 8342   0.892   4.723   5.329
 2006SOL    HW2 8343   0.869   4.703   5.419
 2006SOL    HW3 8344   0.977   4.767   5.334
 2006SOL    MW4 8345   0.899   4.726   5.341
 2007SOL     OW 8346   0.972   3.860   5.089
 2007SOL    HW2 8347   0.978   3.822   5.002
 2007SOL    HW3 8348   0.961   3.954   5.074
 2007SOL    MW4 8349   0.973   3.868   5.077
 2008SOL     OW 8350   1.061   4.349   4.923
 2008SOL    HW2 8351   1.136   4.378   4.870
 2008SOL    HW3 8352   0.993   4.414   4.907
 2008SOL    MW4 8353   1.062   4.361   4.913
 2009SOL     OW 8354   1.611   4.317   5.200
 2009SOL    HW2 8355   1.592   4.226   5.179
 2009SOL    HW3 8356   1.589   4.366   5.121
 2009SOL    MW4 8357   1.606   4.310   5.187
 2010SOL     OW 8358   1.753   5.411   5.104
 2010SOL    HW2 8359   1.681   5.373   5.155
 2010SOL    HW3 8360   1.770   5.496   5.145
 2010SOL    MW4 8361   1.747   5.416   5.116
 2011SOL     OW 8362   1.058   4.055   5.306
 2011SOL    HW2 8363   1.024   4.094   5.225
 2011SOL    HW3 8364   1.036   3.963   5.299
 2011SOL    MW4 8365   1.051   4.048   5.296
 2012SOL     OW 8366   1.467   4.869   5.382
 2012SOL    HW2 8367   1.549   4.910   5.412
 2012SOL    HW3 8368   1.430   4.831   5.462
 2012SOL    MW4 8369   1.473   4.870   5.397
 2013SOL     OW 8370   1.762   4.242   4.366
 2013SOL    HW2 8371   1.851   4.211   4.383
 2013SOL    HW3 8372   1.705   4.182   4.414
 2013SOL    MW4 8373   1.765   4.230   4.375
 2014SOL     OW 8374   0.188   3.956   4.395
 2014SOL    HW2 8375   0.179   3.896   4.321
 2014SOL    HW3 8376   0.121   3.927   4.458
 2014SOL    MW4 8377   0.178   3.943   4.393
 2015SOL     OW 8378   1.131   5.049   3.956
 2015SOL    HW2 8379   1.081   5.051   4.038
 2015SOL    HW3 8380   1.065   5.067   3.888
 2015SOL    MW4 8381   1.117   5.051   3.958
 2016SOL     OW 8382   0.135   4.129   4.758
 2016SOL    HW2 8383   0.107   4.220   4.767
 2016SOL    HW3 8384   0.072   4.090   4.697
 2016SOL    MW4 8385   0.122   4.135   4.752
 2017SOL     OW 8386   0.594   5.467   4.064
 2017SOL    HW2 8387   0.515   5.425   4.097
 2017SOL    HW3 8388   0.660   5.450   4.131
 2017SOL    MW4 8389   0.593   5.459   4.077
 2018SOL     OW 8390   1.722   4.987   5.461
 2018SOL    HW2 8391   1.772   4.913   5.493
 2018SOL    HW3 8392   1.668   5.014   5.536
 2018SOL    MW4 8393   1.722   4.981   5.474
 2019SOL     OW 8394   0.730   4.882   3.771
 2019SOL    HW2 8395   0.652   4.828   3.758
 2019SOL    HW3 8396   0.701   4.955   3.824
 2019SOL    MW4 8397   0.716   4.884   3.776
 2020SOL     OW 8398   1.856   4.622   4.963
 2020SOL    HW2 8399   1.872   4.660   4.876
 2020SOL    HW3 8400   1.890   4.688   5.024
 2020SOL    MW4 8401   1.863   4.635   4.959
 2021SOL     OW 8402   1.648   5.331   4.632
 2021SOL    HW2 8403   1.677   5.398   4.693
 2021SOL    HW3 8404   1.629   5.255   4.687
 2021SOL    MW4 8405   1.650   5.331   4.647
 2022SOL     OW 8406   1.311   5.398   3.839
 2022SOL    HW2 8407   1.237   5.361   3.889
 2022SOL    HW3 8408   1.319   5.488   3.872
 2022SOL    MW4 8409   1.302   5.405   3.851
 2023SOL     OW 8410   0.119   4.404   4.928
 2023SOL    HW2 8411   0.181   4.434   4.994
 2023SOL    HW3 8412   0.053   4.473   4.922
 2023SOL    MW4 8413   0.118   4.417   4.935
 2024SOL     OW 8414   1.535   5.072   3.781
 2024SOL    HW2 8415   1.482   5.121   3.717
 2024SOL    HW3 8416   1.566   5.138   3.842
 2024SOL    MW4 8417   1.533   5.086   3.779
 2025SOL     OW 8418   0.760   3.961   3.836
 2025SOL    HW2 8419   0.708   3.881   3.824
 2025SOL    HW3 8420   0.847   3.938   3.804
 2025SOL    MW4 8421   0.763   3.947   3.830
 2026SOL     OW 8422   0.214   5.513   5.380
 2026SOL    HW2 8423   0.188   5.581   5.318
 2026SOL    HW3 8424   0.262   5.450   5.328
 2026SOL    MW4 8425   0.216   5.513   5.366
 2027SOL     OW 8426   0.266   4.832   4.887
 2027SOL    HW2 8427   0.319   4.907   4.912
 2027SOL    HW3 8428   0.185   4.870   4.853
 2027SOL    MW4 8429   0.262   4.847   4.887
 2028SOL     OW 8430   0.806   4.736   4.875
 2028SOL    HW2 8431   0.834   4.645   4.887
 2028SOL    HW3 8432   0.735   4.730   4.811
 2028SOL    MW4 8433   0.799   4.724   4.870
 2029SOL     OW 8434   0.121   4.601   4.293
 2029SOL    HW2 8435   0.212   4.616   4.320
 2029SOL    HW3 8436   0.124   4.522   4.239
 2029SOL    MW4 8437   0.133   4.593   4.291
 2030SOL     OW 8438   0.357   4.309   5.547
 2030SOL    HW2 8439   0.304   4.389   5.554
 2030SOL    HW3 8440   0.427   4.321   5.612
 2030SOL    MW4 8441   0.359   4.322   5.555
 2031SOL     OW 8442   0.743   3.859   5.254
 2031SOL    HW2 8443   0.720   3.767   5.256
 2031SOL    HW3 8444   0.829   3.861   5.211
 2031SOL    MW4 8445   0.750   3.849   5.250
 2032SOL     OW 8446   0.427   4.383   5.293
 2032SOL    HW2 8447   0.507   4.433   5.279
 2032SOL    HW3 8448   0.418   4.377   5.388
 2032SOL    MW4 8449   0.436   4.389   5.303
 2033SOL     OW 8450   0.748   5.533   4.667
 2033SOL    HW2 8451   0.837   5.548   4.697
 2033SOL    HW3 8452   0.743   5.580   4.583
 2033SOL    MW4 8453   0.758   5.541   4.660
 2034SOL     OW 8454   1.404   3.908   5.564
 2034SOL    HW2 8455   1.460   3.835   5.590
 2034SOL    HW3 8456   1.374   3.946   5.646
 2034SOL    MW4 8457   1.408   3.903   5.577
 2035SOL     OW 8458   0.129   5.213   4.332
 2035SOL    HW2 8459   0.101   5.252   4.414
 2035SOL    HW3 8460   0.149   5.122   4.354
 2035SOL    MW4 8461   0.127   5.205   4.345
 2036SOL     OW 8462   0.962   5.256   4.367
 2036SOL    HW2 8463   1.045   5.210   4.351
 2036SOL    HW3 8464   0.952   5.255   4.463
 2036SOL    MW4 8465   0.972   5.249   4.377
 2037SOL     OW 8466   1.794   4.401   4.681
 2037SOL    HW2 8467   1.883   4.431   4.663
 2037SOL    HW3 8468   1.774   4.341   4.610
 2037SOL    MW4 8469   1.803   4.398   4.670
 2038SOL     OW 8470   1.645   4.580   5.561
 2038SOL    HW2 8471   1.700   4.504   5.542
 2038SOL    HW3 8472   1.647   4.588   5.656
 2038SOL    MW4 8473   1.653   4.571   5.569
 2039SOL     OW 8474   0.695   5.313   3.772
 2039SOL    HW2 8475   0.635   5.382   3.742
 2039SOL    HW3 8476   0.640   5.255   3.825
 2039SOL    MW4 8477   0.679   5.315   3.774
 2040SOL     OW 8478   1.133   3.958   3.995
 2040SOL    HW2 8479   1.066   3.934   3.932
 2040SOL    HW3 8480   1.198   4.007   3.944
 2040SOL    MW4 8481   1.133   3.960   3.980
 2041SOL     OW 8482   0.940   4.142   5.080
 2041SOL    HW2 8483   0.859   4.183   5.108
 2041SOL    HW3 8484   0.987   4.210   5.032
 2041SOL    MW4 8485   0.935   4.157   5.078
 2042SOL     OW 8486   1.200   4.480   4.703
 2042SOL    HW2 8487   1.213   4.574   4.713
 2042SOL    HW3 8488   1.161   4.470   4.617
 2042SOL    MW4 8489   1.196   4.491   4.693
 2043SOL     OW 8490   0.652   4.675   4.507
 2043SOL    HW2 8491   0.563   4.666   4.540
 2043SOL    HW3 8492   0.656   4.765   4.475
 2043SOL    MW4 8493   0.641   4.686   4.507
 2044SOL     OW 8494   1.451   4.258   4.502
 2044SOL    HW2 8495   1.396   4.179   4.501
 2044SOL    HW3 8496   1.433   4.299   4.586
 2044SOL    MW4 8497   1.441   4.253   4.511
 2045SOL     OW 8498   0.422   3.945   5.319
 2045SOL    HW2 8499   0.343   3.963   5.371
 2045SOL    HW3 8500   0.417   4.007   5.246
 2045SOL    MW4 8501   0.412   3.955   5.316
 2046SOL     OW 8502   1.070   4.462   4.459
 2046SOL    HW2 8503   1.007   4.394   4.483
 2046SOL    HW3 8504   1.090   4.443   4.367
 2046SOL    MW4 8505   1.064   4.449   4.451
 2047SOL     OW 8506   0.326   5.357   4.161
 2047SOL    HW2 8507   0.287   5.404   4.087
 2047SOL    HW3 8508   0.260   5.292   4.186
 2047SOL    MW4 8509   0.313   5.355   4.155
 2048SOL     OW 8510   0.818   4.766   4.185
 2048SOL    HW2 8511   0.820   4.740   4.092
 2048SOL    HW3 8512   0.876   4.703   4.228
 2048SOL    MW4 8513   0.826   4.755   4.179
 2049SOL     OW 8514   1.371   5.326   4.957
 2049SOL    HW2 8515   1.296   5.372   4.995
 2049SOL    HW3 8516   1.353   5.233   4.974
 2049SOL    MW4 8517   1.360   5.320   4.965
 2050SOL     OW 8518   1.375   5.534   4.387
 2050SOL    HW2 8519   1.318   5.487   4.326
 2050SOL    HW3 8520   1.461   5.495   4.374
 2050SOL    MW4 8521   1.378   5.525   4.377
 2051SOL     OW 8522   1.328   4.010   4.518
 2051SOL    HW2 8523   1.356   3.942   4.579
 2051SOL    HW3 8524   1.242   3.981   4.488
 2051SOL    MW4 8525   1.321   3.997   4.522
 2052SOL     OW 8526   0.133   4.944   4.452
 2052SOL    HW2 8527   0.197   4.976   4.515
 2052SOL    HW3 8528   0.182   4.880   4.400
 2052SOL    MW4 8529   0.148   4.940   4.453
 2053SOL     OW 8530   0.633   5.020   5.434
 2053SOL    HW2 8531   0.681   5.103   5.421
 2053SOL    HW3 8532   0.690   4.968   5.490
 2053SOL    MW4 8533   0.647   5.024   5.440
 2054SOL     OW 8534   0.209   5.262   5.574
 2054SOL    HW2 8535   0.265   5.186   5.589
 2054SOL    HW3 8536   0.158   5.240   5.496
 2054SOL    MW4 8537   0.209   5.249   5.565
 2055SOL     OW 8538   1.308   4.114   3.853
 2055SOL    HW2 8539   1.281   4.180   3.789
 2055SOL    HW3 8540   1.378   4.157   3.903
 2055SOL    MW4 8541   1.313   4.127   3.850
 2056SOL     OW 8542   0.976   3.819   3.790
 2056SOL    HW2 8543   1.032   3.811   3.712
 2056SOL    HW3 8544   0.953   3.729   3.812
 2056SOL    MW4 8545   0.981   3.806   3.783
 2057SOL     OW 8546   1.481   4.670   3.995
 2057SOL    HW2 8547   1.448   4.759   3.985
 2057SOL    HW3 8548   1.446   4.641   4.080
 2057SOL    MW4 8549   1.471   4.679   4.006
 2058SOL     OW 8550   1.094   5.099   5.183
 2058SOL    HW2 8551   1.005   5.105   5.151
 2058SOL    HW3 8552   1.138   5.178   5.151
 2058SOL    MW4 8553   1.089   5.109   5.175
 2059SOL     OW 8554   0.387   3.767   5.525
 2059SOL    HW2 8555   0.315   3.732   5.473
 2059SOL    HW3 8556   0.445   3.808   5.460
 2059SOL    MW4 8557   0.385   3.768   5.510
 2060SOL     OW 8558   0.411   5.257   4.824
 2060SOL    HW2 8559   0.456   5.319   4.881
 2060SOL    HW3 8560   0.318   5.276   4.837
 2060SOL    MW4 8561   0.404   5.267   4.831
 2061SOL     OW 8562   1.851   4.786   5.178
 2061SOL    HW2 8563   1.766   4.799   5.137
 2061SOL    HW3 8564   1.831   4.750   5.265
 2061SOL    MW4 8565   1.838   4.782   5.183
 2062SOL     OW 8566   0.833   5.325   4.932
 2062SOL    HW2 8567   0.857   5.314   4.841
 2062SOL    HW3 8568   0.756   5.382   4.930
 2062SOL    MW4 8569   0.825   5.330   4.921
 2063SOL     OW 8570   0.475   4.708   3.787
 2063SOL    HW2 8571   0.398   4.721   3.843
 2063SOL    HW3 8572   0.439   4.672   3.706
 2063SOL    MW4 8573   0.461   4.704   3.784
 2064SOL     OW 8574   1.128   4.681   4.030
 2064SOL    HW2 8575   1.038   4.702   4.005
 2064SOL    HW3 8576   1.155   4.754   4.086
 2064SOL    MW4 8577   1.120   4.693   4.033
 2065SOL     OW 8578   0.628   5.030   4.722
 2065SOL    HW2 8579   0.621   5.009   4.816
 2065SOL    HW3 8580   0.546   4.998   4.685
 2065SOL    MW4 8581   0.616   5.024   4.729
 2066SOL     OW 8582   1.492   4.040   5.124
 2066SOL    HW2 8583   1.439   4.042   5.204
 2066SOL    HW3 8584   1.477   3.953   5.087
 2066SOL    MW4 8585   1.484   4.030   5.129
 2067SOL     OW 8586   1.828   3.964   4.997
 2067SOL    HW2 8587   1.809   4.031   4.932
 2067SOL    HW3 8588   1.885   3.902   4.952
 2067SOL    MW4 8589   1.832   3.965   4.983
 2068SOL     OW 8590   0.074   5.122   5.385
 2068SOL    HW2 8591   0.118   5.055   5.331
 2068SOL    HW3 8592  -0.011   5.084   5.405
 2068SOL    MW4 8593   0.069   5.108   5.381
 2069SOL     OW 8594   0.757   3.797   4.437
 2069SOL    HW2 8595   0.686   3.858   4.419
 2069SOL    HW3 8596   0.808   3.794   4.356
 2069SOL    MW4 8597   0.753   3.803   4.424
 2070SOL     OW 8598   0.515   5.037   4.186
 2070SOL    HW2 8599   0.508   5.069   4.276
 2070SOL    HW3 8600   0.425   5.021   4.158
 2070SOL    MW4 8601   0.503   5.039   4.193
 2071SOL     OW 8602   1.110   5.430   5.095
 2071SOL    HW2 8603   1.030   5.415   5.045
 2071SOL    HW3 8604   1.117   5.525   5.102
 2071SOL    MW4 8605   1.101   5.441   5.089
 2072SOL     OW 8606   1.224   5.395   4.585
 2072SOL    HW2 8607   1.271   5.468   4.544
 2072SOL    HW3 8608   1.145   5.434   4.621
 2072SOL    MW4 8609   1.219   5.410   4.584
 2073SOL     OW 8610   1.632   5.490   4.860
 2073SOL    HW2 8611   1.675   5.460   4.940
 2073SOL    HW3 8612   1.551   5.438   4.857
 2073SOL    MW4 8613   1.627   5.479   4.870
 2074SOL     OW 8614   0.717   4.454   5.567
 2074SOL    HW2 8615   0.787   4.396   5.539
 2074SOL    HW3 8616   0.660   4.399   5.622
 2074SOL    MW4 8617   0.719   4.441   5.571
 2075SOL     OW 8618   1.504   4.666   5.200
 2075SOL    HW2 8619   1.509   4.719   5.280
 2075SOL    HW3 8620   1.466   4.583   5.228
 2075SOL    MW4 8621   1.500   4.661   5.215
 2076SOL     OW 8622   1.144   3.801   5.446
 2076SOL    HW2 8623   1.139   3.708   5.427
 2076SOL    HW3 8624   1.227   3.812   5.492
 2076SOL    MW4 8625   1.152   3.790   5.450
 2077SOL     OW 8626   0.518   4.321   3.900
 2077SOL    HW2 8627   0.484   4.377   3.970
 2077SOL    HW3 8628   0.589   4.271   3.940
 2077SOL    MW4 8629   0.524   4.322   3.914
 2078SOL     OW 8630   1.614   5.072   4.722
 2078SOL    HW2 8631   1.649   5.054   4.635
 2078SOL    HW3 8632   1.519   5.073   4.709
 2078SOL    MW4 8633   1.606   5.069   4.709
 2079SOL     OW 8634   1.043   4.720   5.091
 2079SOL    HW2 8635   1.086   4.755   5.169
 2079SOL    HW3 8636   1.026   4.797   5.037
 2079SOL    MW4 8637   1.046   4.735   5.094
 2080SOL     OW 8638   1.574   4.207   3.964
 2080SOL    HW2 8639   1.566   4.278   3.901
 2080SOL    HW3 8640   1.592   4.251   4.047
 2080SOL    MW4 8641   1.575   4.221   3.966
 2081SOL     OW 8642   0.434   3.862   4.393
 2081SOL    HW2 8643   0.484   3.905   4.324
 2081SOL    HW3 8644   0.349   3.906   4.393
 2081SOL    MW4 8645   0.431   3.875   4.384
 2082SOL     OW 8646   0.193   4.924   5.253
 2082SOL    HW2 8647   0.221   4.877   5.331
 2082SOL    HW3 8648   0.114   4.879   5.224
 2082SOL    MW4 8649   0.186   4.913   5.259
 2083SOL     OW 8650   0.701   4.251   5.220
 2083SOL    HW2 8651   0.673   4.339   5.244
 2083SOL    HW3 8652   0.670   4.195   5.291
 2083SOL    MW4 8653   0.693   4.254   5.232
 2084SOL     OW 8654   1.243   4.469   3.939
 2084SOL    HW2 8655   1.290   4.487   3.858
 2084SOL    HW3 8656   1.209   4.553   3.967
 2084SOL    MW4 8657   1.245   4.483   3.932
 2085SOL     OW 8658   0.356   4.647   4.433
 2085SOL    HW2 8659   0.414   4.703   4.381
 2085SOL    HW3 8660   0.400   4.562   4.435
 2085SOL    MW4 8661   0.369   4.644   4.426
 2086SOL     OW 8662   1.496   3.999   4.270
 2086SOL    HW2 8663   1.418   3.949   4.295
 2086SOL    HW3 8664   1.467   4.090   4.270
 2086SOL    MW4 8665   1.482   4.003   4.273
 2087SOL     OW 8666   1.082   3.961   4.429
 2087SOL    HW2 8667   1.102   4.036   4.373
 2087SOL    HW3 8668   1.062   4.000   4.514
 2087SOL    MW4 8669   1.083   3.977   4.433
 2088SOL     OW 8670   0.978   5.211   3.761
 2088SOL    HW2 8671   1.005   5.289   3.713
 2088SOL    HW3 8672   0.885   5.226   3.780
 2088SOL    MW4 8673   0.969   5.224   3.757
 2089SOL     OW 8674   1.842   4.734   5.448
 2089SOL    HW2 8675   1.755   4.714   5.484
 2089SOL    HW3 8676   1.896   4.660   5.473
 2089SOL    MW4 8677   1.837   4.723   5.456
 2090SOL     OW 8678   0.063   5.247   4.605
 2090SOL    HW2 8679   0.095   5.251   4.696
 2090SOL    HW3 8680  -0.032   5.255   4.613
 2090SOL    MW4 8681   0.055   5.250   4.618
 2091SOL     OW 8682   0.018   4.373   4.152
 2091SOL    HW2 8683  -0.042   4.345   4.222
 2091SOL    HW3 8684   0.092   4.313   4.158
 2091SOL    MW4 8685   0.020   4.362   4.161
 2092SOL     OW 8686   1.586   5.585   5.586
 2092SOL    HW2 8687   1.631   5.509   5.551
 2092SOL    HW3 8688   1.624   5.598   5.673
 2092SOL    MW4 8689   1.596   5.578   5.592
 2093SOL     OW 8690   1.186   5.104   4.312
 2093SOL    HW2 8691   1.209   5.055   4.390
 2093SOL    HW3 8692   1.267   5.146   4.284
 2093SOL    MW4 8693   1.199   5.104   4.319
 2094SOL     OW 8694   0.444   4.112   5.041
 2094SOL    HW2 8695   0.477   4.193   5.081
 2094SOL    HW3 8696   0.417   4.138   4.953
 2094SOL    MW4 8697   0.443   4.126   5.035
 2095SOL     OW 8698   0.398   4.079   4.777
 2095SOL    HW2 8699   0.428   3.993   4.748
 2095SOL    HW3 8700   0.303   4.072   4.780
 2095SOL    MW4 8701   0.390   4.068   4.775
 2096SOL     OW 8702   1.227   4.288   5.468
 2096SOL    HW2 8703   1.279   4.223   5.421
 2096SOL    HW3 8704   1.185   4.339   5.398
 2096SOL    MW4 8705   1.228   4.285   5.451
 2097SOL     OW 8706   1.326   4.083   5.329
 2097SOL    HW2 8707   1.233   4.067   5.316
 2097SOL    HW3 8708   1.352   4.021   5.397
 2097SOL    MW4 8709   1.316   4.073   5.336
 2098SOL     OW 8710   0.541   3.857   4.668
 2098SOL    HW2 8711   0.551   3.766   4.694
 2098SOL    HW3 8712   0.497   3.853   4.583
 2098SOL    MW4 8713   0.537   3.845   4.660
 2099SOL     OW 8714   0.635   5.472   5.214
 2099SOL    HW2 8715   0.552   5.457   5.259
 2099SOL    HW3 8716   0.694   5.405   5.249
 2099SOL    MW4 8717   0.633   5.462   5.224
 2100SOL     OW 8718   1.692   4.179   4.839
 2100SOL    HW2 8719   1.625   4.212   4.899
 2100SOL    HW3 8720   1.735   4.257   4.805
 2100SOL    MW4 8721   1.690   4.194   4.843
 2101SOL     OW 8722   1.870   4.899   4.809
 2101SOL    HW2 8723   1.863   4.839   4.734
 2101SOL    HW3 8724   1.796   4.959   4.798
 2101SOL    MW4 8725   1.860   4.899   4.798
 2102SOL     OW 8726   1.252   4.761   4.727
 2102SOL    HW2 8727   1.266   4.733   4.818
 2102SOL    HW3 8728   1.338   4.792   4.699
 2102SOL    MW4 8729   1.265   4.762   4.736
 2103SOL     OW 8730   1.335   4.256   5.006
 2103SOL    HW2 8731   1.356   4.257   4.913
 2103SOL    HW3 8732   1.380   4.178   5.039
 2103SOL    MW4 8733   1.342   4.246   4.998
 2104SOL     OW 8734   1.828   4.387   5.548
 2104SOL    HW2 8735   1.865   4.332   5.617
 2104SOL    HW3 8736   1.853   4.344   5.466
 2104SOL    MW4 8737   1.835   4.375   5.547
 2105SOL     OW 8738   1.375   4.685   5.600
 2105SOL    HW2 8739   1.441   4.633   5.554
 2105SOL    HW3 8740   1.395   4.672   5.693
 2105SOL    MW4 8741   1.386   4.676   5.607
 2106SOL     OW 8742   1.326   3.771   3.948
 2106SOL    HW2 8743   1.400   3.815   3.991
 2106SOL    HW3 8744   1.250   3.825   3.970
 2106SOL    MW4 8745   1.326   3.783   3.956
 2107SOL     OW 8746   1.386   4.546   4.226
 2107SOL    HW2 8747   1.301   4.516   4.196
 2107SOL    HW3 8748   1.378   4.553   4.321
 2107SOL    MW4 8749   1.374   4.544   4.235
 2108SOL     OW 8750   0.462   5.009   4.957
 2108SOL    HW2 8751   0.474   5.036   5.048
 2108SOL    HW3 8752   0.443   5.090   4.910
 2108SOL    MW4 8753   0.461   5.024   4.962
 2109SOL     OW 8754   0.746   3.989   4.780
 2109SOL    HW2 8755   0.719   3.991   4.871
 2109SOL    HW3 8756   0.676   3.941   4.735
 2109SOL    MW4 8757   0.734   3.985   4.787
 2110SOL     OW 8758   0.600   5.481   4.942
 2110SOL    HW2 8759   0.652   5.558   4.919
 2110SOL    HW3 8760   0.609   5.473   5.037
 2110SOL    MW4 8761   0.609   5.488   4.953
 2111SOL     OW 8762   1.502   5.066   5.174
 2111SOL    HW2 8763   1.487   4.995   5.237
 2111SOL    HW3 8764   1.548   5.024   5.102
 2111SOL    MW4 8765   1.508   5.050   5.174
 2112SOL     OW 8766   0.576   4.797   5.291
 2112SOL    HW2 8767   0.613   4.802   5.203
 2112SOL    HW3 8768   0.615   4.870   5.338
 2112SOL    MW4 8769   0.586   4.807   5.286
 2113SOL     OW 8770   0.756   4.840   5.103
 2113SOL    HW2 8771   0.815   4.786   5.156
 2113SOL    HW3 8772   0.771   4.812   5.013
 2113SOL    MW4 8773   0.766   4.829   5.099
 2114SOL     OW 8774   0.759   4.212   3.952
 2114SOL    HW2 8775   0.832   4.261   3.915
 2114SOL    HW3 8776   0.775   4.121   3.926
 2114SOL    MW4 8777   0.771   4.207   3.945
 2115SOL     OW 8778   1.567   5.329   5.275
 2115SOL    HW2 8779   1.609   5.314   5.360
 2115SOL    HW3 8780   1.558   5.242   5.237
 2115SOL    MW4 8781   1.571   5.317   5.282
 2116SOL     OW 8782   1.227   3.808   4.866
 2116SOL    HW2 8783   1.282   3.817   4.788
 2116SOL    HW3 8784   1.282   3.842   4.937
 2116SOL    MW4 8785   1.241   3.813   4.865
 2117SOL     OW 8786   0.234   4.721   4.050
 2117SOL    HW2 8787   0.171   4.737   3.979
 2117SOL    HW3 8788   0.181   4.684   4.121
 2117SOL    MW4 8789   0.219   4.718   4.050
 2118SOL     OW 8790   0.590   5.075   3.909
 2118SOL    HW2 8791   0.605   5.051   4.001
 2118SOL    HW3 8792   0.498   5.053   3.893
 2118SOL    MW4 8793   0.580   5.068   3.919
 2119SOL     OW 8794   1.129   5.306   4.061
 2119SOL    HW2 8795   1.137   5.224   4.012
 2119SOL    HW3 8796   1.048   5.345   4.028
 2119SOL    MW4 8797   1.119   5.301   4.051
 2120SOL     OW 8798   0.388   5.464   4.630
 2120SOL    HW2 8799   0.392   5.375   4.665
 2120SOL    HW3 8800   0.414   5.455   4.539
 2120SOL    MW4 8801   0.391   5.452   4.622
 2121SOL     OW 8802   1.005   4.942   4.873
 2121SOL    HW2 8803   0.937   4.876   4.889
 2121SOL    HW3 8804   1.023   4.936   4.780
 2121SOL    MW4 8805   0.998   4.933   4.864
 2122SOL     OW 8806   0.094   5.217   5.124
 2122SOL    HW2 8807   0.084   5.175   5.210
 2122SOL    HW3 8808   0.015   5.270   5.114
 2122SOL    MW4 8809   0.083   5.218   5.135
 2123SOL     OW 8810   0.998   4.081   4.694
 2123SOL    HW2 8811   0.928   4.033   4.739
 2123SOL    HW3 8812   1.030   4.144   4.758
 2123SOL    MW4 8813   0.993   4.083   4.708
 2124SOL     OW 8814   0.649   4.517   5.314
 2124SOL    HW2 8815   0.642   4.612   5.302
 2124SOL    HW3 8816   0.658   4.506   5.409
 2124SOL    MW4 8817   0.650   4.529   5.324
 2125SOL     OW 8818   0.370   5.032   5.572
 2125SOL    HW2 8819   0.442   5.034   5.509
 2125SOL    HW3 8820   0.340   4.941   5.571
 2125SOL    MW4 8821   0.375   5.021   5.564
 2126SOL     OW 8822   1.454   3.795   5.039
 2126SOL    HW2 8823   1.525   3.741   5.003
 2126SOL    HW3 8824   1.453   3.774   5.132
 2126SOL    MW4 8825   1.463   3.786   5.047
 2127SOL     OW 8826   1.654   5.325   5.523
 2127SOL    HW2 8827   1.627   5.322   5.614
 2127SOL    HW3 8828   1.750   5.329   5.526
 2127SOL    MW4 8829   1.664   5.325   5.535
 2128SOL     OW 8830   0.465   4.187   4.507
 2128SOL    HW2 8831   0.536   4.135   4.470
 2128SOL    HW3 8832   0.451   4.152   4.594
 2128SOL    MW4 8833   0.473   4.176   4.514
 2129SOL     OW 8834   0.020   5.522   5.579
 2129SOL    HW2 8835   0.070   5.500   5.501
 2129SOL    HW3 8836   0.028   5.617   5.587
 2129SOL    MW4 8837   0.028   5.531   5.570
 2130SOL     OW 8838   0.781   5.280   4.583
 2130SOL    HW2 8839   0.709   5.217   4.596
 2130SOL    HW3 8840   0.742   5.365   4.601
 2130SOL    MW4 8841   0.765   5.283   4.586
 2131SOL     OW 8842   1.101   4.128   4.231
 2131SOL    HW2 8843   1.123   4.065   4.163
 2131SOL    HW3 8844   1.006   4.120   4.242
 2131SOL    MW4 8845   1.091   4.119   4.223
 2132SOL     OW 8846   0.186   3.818   4.163
 2132SOL    HW2 8847   0.257   3.839   4.102
 2132SOL    HW3 8848   0.140   3.746   4.121
 2132SOL    MW4 8849   0.190   3.812   4.149
 2133SOL     OW 8850   0.017   4.285   5.306
 2133SOL    HW2 8851   0.081   4.351   5.281
 2133SOL    HW3 8852  -0.064   4.312   5.263
 2133SOL    MW4 8853   0.015   4.297   5.298
 2134SOL     OW 8854   1.755   5.192   4.263
 2134SOL    HW2 8855   1.725   5.125   4.324
 2134SOL    HW3 8856   1.849   5.198   4.277
 2134SOL    MW4 8857   1.763   5.184   4.273
 2135SOL     OW 8858   1.311   4.869   4.193
 2135SOL    HW2 8859   1.283   4.955   4.226
 2135SOL    HW3 8860   1.339   4.885   4.103
 2135SOL    MW4 8861   1.311   4.883   4.185
 2136SOL     OW 8862   0.973   3.789   4.246
 2136SOL    HW2 8863   1.010   3.848   4.311
 2136SOL    HW3 8864   0.950   3.845   4.172
 2136SOL    MW4 8865   0.974   3.804   4.245
 2137SOL     OW 8866   1.826   4.671   4.668
 2137SOL    HW2 8867   1.817   4.703   4.579
 2137SOL    HW3 8868   1.779   4.587   4.668
 2137SOL    MW4 8869   1.819   4.664   4.658
 2138SOL     OW 8870   0.202   4.511   5.247
 2138SOL    HW2 8871   0.223   4.580   5.185
 2138SOL    HW3 8872   0.282   4.458   5.252
 2138SOL    MW4 8873   0.215   4.512   5.241
 2139SOL     OW 8874   1.738   4.602   4.369
 2139SOL    HW2 8875   1.832   4.591   4.357
 2139SOL    HW3 8876   1.714   4.674   4.310
 2139SOL    MW4 8877   1.748   4.610   4.360
 2140SOL     OW 8878   0.187   4.526   5.514
 2140SOL    HW2 8879   0.113   4.470   5.540
 2140SOL    HW3 8880   0.182   4.529   5.419
 2140SOL    MW4 8881   0.176   4.519   5.504
 2141SOL     OW 8882   0.353   3.813   4.964
 2141SOL    HW2 8883   0.396   3.897   4.984
 2141SOL    HW3 8884   0.426   3.751   4.957
 2141SOL    MW4 8885   0.368   3.816   4.965
 2142SOL     OW 8886   0.394   4.480   4.142
 2142SOL    HW2 8887   0.394   4.575   4.127
 2142SOL    HW3 8888   0.471   4.464   4.196
 2142SOL    MW4 8889   0.404   4.491   4.147
 2143SOL     OW 8890   1.170   4.339   5.206
 2143SOL    HW2 8891   1.206   4.312   5.122
 2143SOL    HW3 8892   1.083   4.373   5.185
 2143SOL    MW4 8893   1.164   4.340   5.193
 2144SOL     OW 8894   0.153   4.211   4.431
 2144SOL    HW2 8895   0.215   4.218   4.504
 2144SOL    HW3 8896   0.153   4.118   4.408
 2144SOL    MW4 8897   0.161   4.200   4.438
 2145SOL     OW 8898   1.700   5.551   3.963
 2145SOL    HW2 8899   1.767   5.584   3.903
 2145SOL    HW3 8900   1.657   5.630   3.997
 2145SOL    MW4 8901   1.702   5.566   3.959
 2146SOL     OW 8902   0.835   4.472   4.915
 2146SOL    HW2 8903   0.793   4.390   4.891
 2146SOL    HW3 8904   0.836   4.471   5.011
 2146SOL    MW4 8905   0.828   4.461   4.924
 2147SOL     OW 8906   1.506   5.605   5.314
 2147SOL    HW2 8907   1.509   5.511   5.297
 2147SOL    HW3 8908   1.529   5.613   5.406
 2147SOL    MW4 8909   1.509   5.593   5.324
 2148SOL     OW 8910   0.639   3.942   5.020
 2148SOL    HW2 8911   0.570   4.005   5.041
 2148SOL    HW3 8912   0.666   3.906   5.105
 2148SOL    MW4 8913   0.633   3.945   5.033
 2149SOL     OW 8914   0.022   4.783   3.889
 2149SOL    HW2 8915  -0.009   4.848   3.952
 2149SOL    HW3 8916  -0.029   4.705   3.908
 2149SOL    MW4 8917   0.012   4.780   3.899
 2150SOL     OW 8918   1.434   3.795   4.637
 2150SOL    HW2 8919   1.522   3.804   4.674
 2150SOL    HW3 8920   1.444   3.736   4.563
 2150SOL    MW4 8921   1.448   3.789   4.631
 2151SOL     OW 8922   1.466   4.534   4.481
 2151SOL    HW2 8923   1.546   4.549   4.430
 2151SOL    HW3 8924   1.459   4.439   4.487
 2151SOL    MW4 8925   1.475   4.523   4.476
 2152SOL     OW 8926   0.606   5.583   3.831
 2152SOL    HW2 8927   0.511   5.583   3.823
 2152SOL    HW3 8928   0.622   5.529   3.909
 2152SOL    MW4 8929   0.596   5.577   3.840
 2153SOL     OW 8930   0.916   4.460   5.178
 2153SOL    HW2 8931   0.985   4.527   5.175
 2153SOL    HW3 8932   0.849   4.498   5.234
 2153SOL    MW4 8933   0.917   4.473   5.185
 2154SOL     OW 8934   0.334   4.760   5.426
 2154SOL    HW2 8935   0.288   4.676   5.428
 2154SOL    HW3 8936   0.391   4.754   5.350
 2154SOL    MW4 8937   0.336   4.748   5.418
 2155SOL     OW 8938   1.451   4.403   3.747
 2155SOL    HW2 8939   1.379   4.379   3.689
 2155SOL    HW3 8940   1.517   4.440   3.689
 2155SOL    MW4 8941   1.450   4.405   3.732
 2156SOL     OW 8942   0.585   5.135   4.427
 2156SOL    HW2 8943   0.650   5.068   4.448
 2156SOL    HW3 8944   0.637   5.212   4.404
 2156SOL    MW4 8945   0.600   5.137   4.426
 2157SOL     OW 8946   0.846   4.300   4.557
 2157SOL    HW2 8947   0.786   4.318   4.629
 2157SOL    HW3 8948   0.880   4.212   4.576
 2157SOL    MW4 8949   0.842   4.290   4.570
 2158SOL     OW 8950   1.787   3.799   5.226
 2158SOL    HW2 8951   1.708   3.845   5.254
 2158SOL    HW3 8952   1.822   3.853   5.155
 2158SOL    MW4 8953   1.781   3.812   5.220
 2159SOL     OW 8954   1.071   4.883   4.576
 2159SOL    HW2 8955   1.163   4.864   4.594
 2159SOL    HW3 8956   1.044   4.813   4.516
 2159SOL    MW4 8957   1.079   4.871   4.570
 2160SOL     OW 8958   0.864   4.703   3.931
 2160SOL    HW2 8959   0.850   4.615   3.896
 2160SOL    HW3 8960   0.815   4.760   3.872
 2160SOL    MW4 8961   0.856   4.698   3.919
 2161SOL     OW 8962   1.345   5.121   4.672
 2161SOL    HW2 8963   1.318   5.205   4.637
 2161SOL    HW3 8964   1.305   5.116   4.759
 2161SOL    MW4 8965   1.338   5.130   4.678
 2162SOL     OW 8966   1.264   5.069   4.940
 2162SOL    HW2 8967   1.275   5.036   5.029
 2162SOL    HW3 8968   1.183   5.028   4.909
 2162SOL    MW4 8969   1.254   5.061   4.946
 2163SOL     OW 8970   0.277   4.427   4.710
 2163SOL    HW2 8971   0.227   4.426   4.791
 2163SOL    HW3 8972   0.297   4.519   4.694
 2163SOL    MW4 8973   0.273   4.439   4.718
 2164SOL     OW 8974   1.344   5.191   5.472
 2164SOL    HW2 8975   1.344   5.285   5.488
 2164SOL    HW3 8976   1.389   5.181   5.388
 2164SOL    MW4 8977   1.350   5.201   5.463
 2165SOL     OW 8978   1.583   3.909   4.033
 2165SOL    HW2 8979   1.576   3.913   4.128
 2165SOL    HW3 8980   1.595   4.000   4.006
 2165SOL    MW4 8981   1.584   3.922   4.041
 2166SOL     OW 8982   0.872   4.472   4.147
 2166SOL    HW2 8983   0.852   4.458   4.054
 2166SOL    HW3 8984   0.965   4.451   4.154
 2166SOL    MW4 8985   0.882   4.467   4.136
 2167SOL     OW 8986   0.199   4.095   5.451
 2167SOL    HW2 8987   0.156   4.154   5.388
 2167SOL    HW3 8988   0.267   4.150   5.491
 2167SOL    MW4 8989   0.203   4.110   5.448
 2168SOL     OW 8990   1.311   4.715   4.996
 2168SOL    HW2 8991   1.374   4.712   5.069
 2168SOL    HW3 8992   1.227   4.733   5.038
 2168SOL    MW4 8993   1.307   4.717   5.011
 2169SOL     OW 8994   0.855   5.430   4.185
 2169SOL    HW2 8995   0.913   5.501   4.212
 2169SOL    HW3 8996   0.878   5.358   4.243
 2169SOL    MW4 8997   0.866   5.430   4.196
 2170SOL     OW 8998   1.650   3.892   4.775
 2170SOL    HW2 8999   1.695   3.810   4.794
 2170SOL    HW3 9000   1.670   3.948   4.851
 2170SOL    MW4 9001   1.660   3.888   4.787
 2171SOL     OW 9002   0.098   3.735   4.874
 2171SOL    HW2 9003   0.089   3.736   4.779
 2171SOL    HW3 9004   0.192   3.747   4.889
 2171SOL    MW4 9005   0.110   3.738   4.865
 2172SOL     OW 9006   1.735   4.928   4.494
 2172SOL    HW2 9007   1.714   4.874   4.417
 2172SOL    HW3 9008   1.831   4.926   4.498
 2172SOL    MW4 9009   1.744   4.921   4.483
 2173SOL     OW 9010   0.427   5.073   5.237
 2173SOL    HW2 9011   0.348   5.023   5.260
 2173SOL    HW3 9012   0.497   5.032   5.287
 2173SOL    MW4 9013   0.425   5.061   5.247
 2174SOL     OW 9014   0.311   3.862   3.920
 2174SOL    HW2 9015   0.240   3.917   3.888
 2174SOL    HW3 9016   0.353   3.828   3.841
 2174SOL    MW4 9017   0.307   3.864   3.906
 2175SOL     OW 9018   1.435   4.359   4.756
 2175SOL    HW2 9019   1.358   4.405   4.722
 2175SOL    HW3 9020   1.492   4.428   4.790
 2175SOL    MW4 9021   1.432   4.374   4.756
 2176SOL     OW 9022   0.067   3.961   3.769
 2176SOL    HW2 9023   0.034   4.040   3.813
 2176SOL    HW3 9024   0.122   3.994   3.698
 2176SOL    MW4 9025   0.070   3.975   3.766
 2177SOL     OW 9026   0.101   5.218   3.958
 2177SOL    HW2 9027   0.118   5.302   4.000
 2177SOL    HW3 9028   0.136   5.227   3.870
 2177SOL    MW4 9029   0.106   5.231   3.952
 2178SOL     OW 9030   1.373   5.307   4.175
 2178SOL    HW2 9031   1.436   5.297   4.104
 2178SOL    HW3 9032   1.290   5.327   4.130
 2178SOL    MW4 9033   1.370   5.308   4.160
 2179SOL     OW 9034   1.736   4.575   5.862
 2179SOL    HW2 9035   1.777   4.517   5.927
 2179SOL    HW3 9036   1.643   4.567   5.879
 2179SOL    MW4 9037   1.730   4.567   5.872
 2180SOL     OW 9038   0.530   4.758   6.091
 2180SOL    HW2 9039   0.620   4.733   6.075
 2180SOL    HW3 9040   0.526   4.851   6.068
 2180SOL    MW4 9041   0.542   4.767   6.086
 2181SOL     OW 9042   1.646   5.461   6.233
 2181SOL    HW2 9043   1.658   5.407   6.311
 2181SOL    HW3 9044   1.683   5.409   6.162
 2181SOL    MW4 9045   1.652   5.446   6.234
 2182SOL     OW 9046   0.814   4.214   6.104
 2182SOL    HW2 9047   0.789   4.302   6.132
 2182SOL    HW3 9048   0.811   4.217   6.008
 2182SOL    MW4 9049   0.810   4.226   6.096
 2183SOL     OW 9050   0.256   4.242   6.032
 2183SOL    HW2 9051   0.288   4.330   6.014
 2183SOL    HW3 9052   0.244   4.240   6.127
 2183SOL    MW4 9053   0.259   4.254   6.044
 2184SOL     OW 9054   0.655   3.997   6.119
 2184SOL    HW2 9055   0.713   4.073   6.121
 2184SOL    HW3 9056   0.590   4.018   6.052
 2184SOL    MW4 9057   0.654   4.009   6.110
 2185SOL     OW 9058   0.742   4.924   6.294
 2185SOL    HW2 9059   0.822   4.927   6.346
 2185SOL    HW3 9060   0.770   4.891   6.208
 2185SOL    MW4 9061   0.756   4.920   6.289
 2186SOL     OW 9062   0.519   4.428   6.285
 2186SOL    HW2 9063   0.504   4.348   6.336
 2186SOL    HW3 9064   0.601   4.463   6.319
 2186SOL    MW4 9065   0.527   4.420   6.297
 2187SOL     OW 9066   0.104   5.514   6.441
 2187SOL    HW2 9067   0.193   5.506   6.476
 2187SOL    HW3 9068   0.068   5.426   6.446
 2187SOL    MW4 9069   0.111   5.501   6.446
 2188SOL     OW 9070   1.369   4.906   5.810
 2188SOL    HW2 9071   1.287   4.942   5.776
 2188SOL    HW3 9072   1.437   4.949   5.759
 2188SOL    MW4 9073   1.367   4.916   5.798
 2189SOL     OW 9074   0.368   5.041   6.476
 2189SOL    HW2 9075   0.344   5.094   6.552
 2189SOL    HW3 9076   0.424   5.099   6.424
 2189SOL    MW4 9077   0.372   5.056   6.479
 2190SOL     OW 9078   0.930   4.685   6.286
 2190SOL    HW2 9079   0.844   4.672   6.326
 2190SOL    HW3 9080   0.983   4.612   6.318
 2190SOL    MW4 9081   0.926   4.674   6.295
 2191SOL     OW 9082   0.921   5.047   6.003
 2191SOL    HW2 9083   0.898   5.109   6.071
 2191SOL    HW3 9084   0.878   4.965   6.029
 2191SOL    MW4 9085   0.913   5.043   6.014
 2192SOL     OW 9086   1.794   4.048   6.459
 2192SOL    HW2 9087   1.731   4.028   6.528
 2192SOL    HW3 9088   1.784   3.977   6.396
 2192SOL    MW4 9089   1.784   4.035   6.460
 2193SOL     OW 9090   0.418   4.020   5.971
 2193SOL    HW2 9091   0.392   3.982   5.887
 2193SOL    HW3 9092   0.355   4.090   5.987
 2193SOL    MW4 9093   0.407   4.023   5.962
 2194SOL     OW 9094   0.253   4.981   6.008
 2194SOL    HW2 9095   0.201   5.049   5.964
 2194SOL    HW3 9096   0.250   4.907   5.948
 2194SOL    MW4 9097   0.245   4.980   5.995
 2195SOL     OW 9098   0.915   5.444   5.786
 2195SOL    HW2 9099   0.870   5.460   5.869
 2195SOL    HW3 9100   0.846   5.409   5.728
 2195SOL    MW4 9101   0.901   5.441   5.788
 2196SOL     OW 9102   1.850   4.217   5.761
 2196SOL    HW2 9103   1.759   4.219   5.789
 2196SOL    HW3 9104   1.895   4.279   5.819
 2196SOL    MW4 9105   1.843   4.225   5.771
 2197SOL     OW 9106   1.595   4.820   6.111
 2197SOL    HW2 9107   1.505   4.820   6.146
 2197SOL    HW3 9108   1.588   4.866   6.028
 2197SOL    MW4 9109   1.582   4.826   6.105
 2198SOL     OW 9110   1.502   4.798   6.503
 2198SOL    HW2 9111   1.505   4.732   6.434
 2198SOL    HW3 9112   1.587   4.841   6.499
 2198SOL    MW4 9113   1.514   4.794   6.494
 2199SOL     OW 9114   1.122   4.401   6.072
 2199SOL    HW2 9115   1.148   4.425   5.983
 2199SOL    HW3 9116   1.104   4.308   6.068
 2199SOL    MW4 9117   1.124   4.393   6.059
 2200SOL     OW 9118   1.787   5.021   5.923
 2200SOL    HW2 9119   1.743   5.062   5.998
 2200SOL    HW3 9120   1.844   5.089   5.888
 2200SOL    MW4 9121   1.789   5.035   5.928
 2201SOL     OW 9122   0.443   5.437   6.241
 2201SOL    HW2 9123   0.475   5.525   6.219
 2201SOL    HW3 9124   0.396   5.409   6.163
 2201SOL    MW4 9125   0.442   5.445   6.228
 2202SOL     OW 9126   1.827   3.799   6.290
 2202SOL    HW2 9127   1.881   3.750   6.352
 2202SOL    HW3 9128   1.770   3.733   6.251
 2202SOL    MW4 9129   1.827   3.783   6.292
 2203SOL     OW 9130   0.159   5.497   5.818
 2203SOL    HW2 9131   0.188   5.587   5.810
 2203SOL    HW3 9132   0.109   5.480   5.739
 2203SOL    MW4 9133   0.157   5.505   5.807
 2204SOL     OW 9134   1.563   5.305   5.789
 2204SOL    HW2 9135   1.611   5.374   5.835
 2204SOL    HW3 9136   1.484   5.349   5.758
 2204SOL    MW4 9137   1.558   5.319   5.792
 2205SOL     OW 9138   0.961   4.430   5.733
 2205SOL    HW2 9139   0.963   4.377   5.654
 2205SOL    HW3 9140   1.049   4.467   5.739
 2205SOL    MW4 9141   0.973   4.429   5.722
 2206SOL     OW 9142   1.575   4.356   6.069
 2206SOL    HW2 9143   1.614   4.356   6.156
 2206SOL    HW3 9144   1.516   4.432   6.069
 2206SOL    MW4 9145   1.572   4.367   6.080
 2207SOL     OW 9146   1.762   4.242   6.235
 2207SOL    HW2 9147   1.851   4.211   6.252
 2207SOL    HW3 9148   1.705   4.182   6.283
 2207SOL    MW4 9149   1.765   4.230   6.244
 2208SOL     OW 9150   0.188   3.956   6.264
 2208SOL    HW2 9151   0.179   3.896   6.190
 2208SOL    HW3 9152   0.121   3.927   6.327
 2208SOL    MW4 9153   0.178   3.943   6.262
 2209SOL     OW 9154   1.131   5.049   5.825
 2209SOL    HW2 9155   1.081   5.051   5.907
 2209SOL    HW3 9156   1.065   5.067   5.757
 2209SOL    MW4 9157   1.117   5.051   5.827
 2210SOL     OW 9158   0.594   5.467   5.933
 2210SOL    HW2 9159   0.515   5.425   5.966
 2210SOL    HW3 9160   0.660   5.450   6.000
 2210SOL    MW4 9161   0.593   5.459   5.946
 2211SOL     OW 9162   0.730   4.882   5.640
 2211SOL    HW2 9163   0.652   4.828   5.627
 2211SOL    HW3 9164   0.701   4.955   5.693
 2211SOL    MW4 9165   0.716   4.884   5.645
 2212SOL     OW 9166   1.311   5.398   5.708
 2212SOL    HW2 9167   1.237   5.361   5.758
 2212SOL    HW3 9168   1.319   5.488   5.741
 2212SOL    MW4 9169   1.302   5.405   5.720
 2213SOL     OW 9170   1.535   5.072   5.650
 2213SOL    HW2 9171   1.482   5.121   5.586
 2213SOL    HW3 9172   1.566   5.138   5.711
 2213SOL    MW4 9173   1.533   5.086   5.648
 2214SOL     OW 9174   0.760   3.961   5.705
 2214SOL    HW2 9175   0.708   3.881   5.693
 2214SOL    HW3 9176   0.847   3.938   5.673
 2214SOL    MW4 9177   0.763   3.947   5.699
 2215SOL     OW 9178   0.121   4.601   6.162
 2215SOL    HW2 9179   0.212   4.616   6.189
 2215SOL    HW3 9180   0.124   4.522   6.108
 2215SOL    MW4 9181   0.133   4.593   6.160
 2216SOL     OW 9182   0.748   5.533   6.536
 2216SOL    HW2 9183   0.837   5.548   6.566
 2216SOL    HW3 9184   0.743   5.580   6.452
 2216SOL    MW4 9185   0.758   5.541   6.529
 2217SOL     OW 9186   0.129   5.213   6.201
 2217SOL    HW2 9187   0.101   5.252   6.283
 2217SOL    HW3 9188   0.149   5.122   6.223
 2217SOL    MW4 9189   0.127   5.205   6.214
 2218SOL     OW 9190   0.962   5.256   6.236
 2218SOL    HW2 9191   1.045   5.210   6.220
 2218SOL    HW3 9192   0.952   5.255   6.332
 2218SOL    MW4 9193   0.972   5.249   6.246
 2219SOL     OW 9194   0.695   5.313   5.641
 2219SOL    HW2 9195   0.635   5.382   5.611
 2219SOL    HW3 9196   0.640   5.255   5.694
 2219SOL    MW4 9197   0.679   5.315   5.643
 2220SOL     OW 9198   1.133   3.958   5.864
 2220SOL    HW2 9199   1.066   3.934   5.801
 2220SOL    HW3 9200   1.198   4.007   5.813
 2220SOL    MW4 9201   1.133   3.960   5.849
 2221SOL     OW 9202   0.652   4.675   6.376
 2221SOL    HW2 9203   0.563   4.666   6.409
 2221SOL    HW3 9204   0.656   4.765   6.344
 2221SOL    MW4 9205   0.641   4.686   6.376
 2222SOL     OW 9206   1.451   4.258   6.371
 2222SOL    HW2 9207   1.396   4.179   6.370
 2222SOL    HW3 9208   1.433   4.299   6.455
 2222SOL    MW4 9209   1.441   4.253   6.380
 2223SOL     OW 9210   1.070   4.462   6.328
 2223SOL    HW2 9211   1.007   4.394   6.352
 2223SOL    HW3 9212   1.090   4.443   6.236
 2223SOL    MW4 9213   1.064   4.449   6.320
 2224SOL     OW 9214   0.326   5.357   6.030
 2224SOL    HW2 9215   0.287   5.404   5.956
 2224SOL    HW3 9216   0.260   5.292   6.055
 2224SOL    MW4 9217   0.313   5.355   6.024
 2225SOL     OW 9218   0.818   4.766   6.054
 2225SOL    HW2 9219   0.820   4.740   5.961
 2225SOL    HW3 9220   0.876   4.703   6.097
 2225SOL    MW4 9221   0.826   4.755   6.048
 2226SOL     OW 9222   1.375   5.534   6.256
 2226SOL    HW2 9223   1.318   5.487   6.195
 2226SOL    HW3 9224   1.461   5.495   6.243
 2226SOL    MW4 9225   1.378   5.525   6.246
 2227SOL     OW 9226   1.328   4.010   6.387
 2227SOL    HW2 9227   1.356   3.942   6.448
 2227SOL    HW3 9228   1.242   3.981   6.357
 2227SOL    MW4 9229   1.321   3.997   6.391
 2228SOL     OW 9230   0.133   4.944   6.321
 2228SOL    HW2 9231   0.197   4.976   6.384
 2228SOL    HW3 9232   0.182   4.880   6.269
 2228SOL    MW4 9233   0.148   4.940   6.322
 2229SOL     OW 9234   1.308   4.114   5.722
 2229SOL    HW2 9235   1.281   4.180   5.658
 2229SOL    HW3 9236   1.378   4.157   5.772
 2229SOL    MW4 9237   1.313   4.127   5.719
 2230SOL     OW 9238   0.976   3.819   5.659
 2230SOL    HW2 9239   1.032   3.811   5.581
 2230SOL    HW3 9240   0.953   3.729   5.681
 2230SOL    MW4 9241   0.981   3.806   5.652
 2231SOL     OW 9242   1.481   4.670   5.864
 2231SOL    HW2 9243   1.448   4.759   5.854
 2231SOL    HW3 9244   1.446   4.641   5.949
 2231SOL    MW4 9245   1.471   4.679   5.875
 2232SOL     OW 9246   0.475   4.708   5.656
 2232SOL    HW2 9247   0.398   4.721   5.712
 2232SOL    HW3 9248   0.439   4.672   5.575
 2232SOL    MW4 9249   0.461   4.704   5.653
 2233SOL     OW 9250   1.128   4.681   5.899
 2233SOL    HW2 9251   1.038   4.702   5.874
 2233SOL    HW3 9252   1.155   4.754   5.955
 2233SOL    MW4 9253   1.120   4.693   5.902
 2234SOL     OW 9254   0.757   3.797   6.306
 2234SOL    HW2 9255   0.686   3.858   6.288
 2234SOL    HW3 9256   0.808   3.794   6.225
 2234SOL    MW4 9257   0.753   3.803   6.293
 2235SOL     OW 9258   0.515   5.037   6.055
 2235SOL    HW2 9259   0.508   5.069   6.145
 2235SOL    HW3 9260   0.425   5.021   6.027
 2235SOL    MW4 9261   0.503   5.039   6.062
 2236SOL     OW 9262   1.224   5.395   6.454
 2236SOL    HW2 9263   1.271   5.468   6.413
 2236SOL    HW3 9264   1.145   5.434   6.490
 2236SOL    MW4 9265   1.219   5.410   6.453
 2237SOL     OW 9266   0.518   4.321   5.769
 2237SOL    HW2 9267   0.484   4.377   5.839
 2237SOL    HW3 9268   0.589   4.271   5.809
 2237SOL    MW4 9269   0.524   4.322   5.783
 2238SOL     OW 9270   1.574   4.207   5.833
 2238SOL    HW2 9271   1.566   4.278   5.770
 2238SOL    HW3 9272   1.592   4.251   5.916
 2238SOL    MW4 9273   1.575   4.221   5.835
 2239SOL     OW 9274   0.434   3.862   6.262
 2239SOL    HW2 9275   0.484   3.905   6.193
 2239SOL    HW3 9276   0.349   3.906   6.262
 2239SOL    MW4 9277   0.431   3.875   6.253
 2240SOL     OW 9278   1.243   4.469   5.808
 2240SOL    HW2 9279   1.290   4.487   5.727
 2240SOL    HW3 9280   1.209   4.553   5.836
 2240SOL    MW4 9281   1.245   4.483   5.801
 2241SOL     OW 9282   0.356   4.647   6.302
 2241SOL    HW2 9283   0.414   4.703   6.250
 2241SOL    HW3 9284   0.400   4.562   6.304
 2241SOL    MW4 9285   0.369   4.644   6.295
 2242SOL     OW 9286   1.496   3.999   6.139
 2242SOL    HW2 9287   1.418   3.949   6.164
 2242SOL    HW3 9288   1.467   4.090   6.139
 2242SOL    MW4 9289   1.482   4.003   6.142
 2243SOL     OW 9290   1.082   3.961   6.298
 2243SOL    HW2 9291   1.102   4.036   6.242
 2243SOL    HW3 9292   1.062   4.000   6.383
 2243SOL    MW4 9293   1.083   3.977   6.302
 2244SOL     OW 9294   0.978   5.211   5.630
 2244SOL    HW2 9295   1.005   5.289   5.582
 2244SOL    HW3 9296   0.885   5.226   5.649
 2244SOL    MW4 9297   0.969   5.224   5.626
 2245SOL     OW 9298   0.018   4.373   6.021
 2245SOL    HW2 9299  -0.042   4.345   6.091
 2245SOL    HW3 9300   0.092   4.313   6.027
 2245SOL    MW4 9301   0.020   4.362   6.030
 2246SOL     OW 9302   1.186   5.104   6.181
 2246SOL    HW2 9303   1.209   5.055   6.259
 2246SOL    HW3 9304   1.267   5.146   6.153
 2246SOL    MW4 9305   1.199   5.104   6.188
 2247SOL     OW 9306   0.541   3.857   6.537
 2247SOL    HW2 9307   0.551   3.766   6.563
 2247SOL    HW3 9308   0.497   3.853   6.452
 2247SOL    MW4 9309   0.537   3.845   6.529
 2248SOL     OW 9310   1.326   3.771   5.817
 2248SOL    HW2 9311   1.400   3.815   5.860
 2248SOL    HW3 9312   1.250   3.825   5.839
 2248SOL    MW4 9313   1.326   3.783   5.825
 2249SOL     OW 9314   1.386   4.546   6.095
 2249SOL    HW2 9315   1.301   4.516   6.065
 2249SOL    HW3 9316   1.378   4.553   6.190
 2249SOL    MW4 9317   1.374   4.544   6.104
 2250SOL     OW 9318   0.759   4.212   5.821
 2250SOL    HW2 9319   0.832   4.261   5.784
 2250SOL    HW3 9320   0.775   4.121   5.795
 2250SOL    MW4 9321   0.771   4.207   5.814
 2251SOL     OW 9322   0.234   4.721   5.919
 2251SOL    HW2 9323   0.171   4.737   5.848
 2251SOL    HW3 9324   0.181   4.684   5.990
 2251SOL    MW4 9325   0.219   4.718   5.919
 2252SOL     OW 9326   0.590   5.075   5.778
 2252SOL    HW2 9327   0.605   5.051   5.870
 2252SOL    HW3 9328   0.498   5.053   5.762
 2252SOL    MW4 9329   0.580   5.068   5.788
 2253SOL     OW 9330   1.129   5.306   5.930
 2253SOL    HW2 9331   1.137   5.224   5.881
 2253SOL    HW3 9332   1.048   5.345   5.897
 2253SOL    MW4 9333   1.119   5.301   5.920
 2254SOL     OW 9334   0.388   5.464   6.499
 2254SOL    HW2 9335   0.392   5.375   6.534
 2254SOL    HW3 9336   0.414   5.455   6.408
 2254SOL    MW4 9337   0.391   5.452   6.491
 2255SOL     OW 9338   0.465   4.187   6.376
 2255SOL    HW2 9339   0.536   4.135   6.339
 2255SOL    HW3 9340   0.451   4.152   6.463
 2255SOL    MW4 9341   0.473   4.176   6.383
 2256SOL     OW 9342   0.781   5.280   6.452
 2256SOL    HW2 9343   0.709   5.217   6.465
 2256SOL    HW3 9344   0.742   5.365   6.470
 2256SOL    MW4 9345   0.765   5.283   6.455
 2257SOL     OW 9346   1.101   4.128   6.100
 2257SOL    HW2 9347   1.123   4.065   6.032
 2257SOL    HW3 9348   1.006   4.120   6.111
 2257SOL    MW4 9349   1.091   4.119   6.092
 2258SOL     OW 9350   0.186   3.818   6.032
 2258SOL    HW2 9351   0.257   3.839   5.971
 2258SOL    HW3 9352   0.140   3.746   5.990
 2258SOL    MW4 9353   0.190   3.812   6.018
 2259SOL     OW 9354   1.755   5.192   6.132
 2259SOL    HW2 9355   1.725   5.125   6.193
 2259SOL    HW3 9356   1.849   5.198   6.146
 2259SOL    MW4 9357   1.763   5.184   6.142
 2260SOL     OW 9358   1.311   4.869   6.062
 2260SOL    HW2 9359   1.283   4.955   6.095
 2260SOL    HW3 9360   1.339   4.885   5.972
 2260SOL    MW4 9361   1.311   4.883   6.054
 2261SOL     OW 9362   0.973   3.789   6.115
 2261SOL    HW2 9363   1.010   3.848   6.180
 2261SOL    HW3 9364   0.950   3.845   6.041
 2261SOL    MW4 9365   0.974   3.804   6.114
 2262SOL     OW 9366   1.826   4.671   6.537
 2262SOL    HW2 9367   1.817   4.703   6.448
 2262SOL    HW3 9368   1.779   4.587   6.537
 2262SOL    MW4 9369   1.819   4.664   6.527
 2263SOL     OW 9370   1.738   4.602   6.238
 2263SOL    HW2 9371   1.832   4.591   6.226
 2263SOL    HW3 9372   1.714   4.674   6.179
 2263SOL    MW4 9373   1.748   4.610   6.229
 2264SOL     OW 9374   0.394   4.480   6.011
 2264SOL    HW2 9375   0.394   4.575   5.996
 2264SOL    HW3 9376   0.471   4.464   6.065
 2264SOL    MW4 9377   0.404   4.491   6.016
 2265SOL     OW 9378   0.153   4.211   6.300
 2265SOL    HW2 9379   0.215   4.218   6.373
 2265SOL    HW3 9380   0.153   4.118   6.277
 2265SOL    MW4 9381   0.161   4.200   6.307
 2266SOL     OW 9382   1.700   5.551   5.832
 2266SOL    HW2 9383   1.767   5.584   5.772
 2266SOL    HW3 9384   1.657   5.630   5.866
 2266SOL    MW4 9385   1.702   5.566   5.828
 2267SOL     OW 9386   0.022   4.783   5.758
 2267SOL    HW2 9387  -0.009   4.848   5.821
 2267SOL    HW3 9388  -0.029   4.705   5.777
 2267SOL    MW4 9389   0.012   4.780   5.768
 2268SOL     OW 9390   1.434   3.795   6.506
 2268SOL    HW2 9391   1.522   3.804   6.543
 2268SOL    HW3 9392   1.444   3.736   6.432
 2268SOL    MW4 9393   1.448   3.789   6.500
 2269SOL     OW 9394   1.466   4.534   6.350
 2269SOL    HW2 9395   1.546   4.549   6.299
 2269SOL    HW3 9396   1.459   4.439   6.356
 2269SOL    MW4 9397   1.475   4.523   6.345
 2270SOL     OW 9398   0.606   5.583   5.700
 2270SOL    HW2 9399   0.511   5.583   5.692
 2270SOL    HW3 9400   0.622   5.529   5.778
 2270SOL    MW4 9401   0.596   5.577   5.709
 2271SOL     OW 9402   1.451   4.403   5.615
 2271SOL    HW2 9403   1.379   4.379   5.557
 2271SOL    HW3 9404   1.517   4.440   5.557
 2271SOL    MW4 9405   1.450   4.405   5.600
 2272SOL     OW 9406   0.585   5.135   6.296
 2272SOL    HW2 9407   0.650   5.068   6.317
 2272SOL    HW3 9408   0.637   5.212   6.273
 2272SOL    MW4 9409   0.600   5.137   6.295
 2273SOL     OW 9410   0.846   4.300   6.426
 2273SOL    HW2 9411   0.786   4.318   6.498
 2273SOL    HW3 9412   0.880   4.212   6.445
 2273SOL    MW4 9413   0.842   4.290   6.439
 2274SOL     OW 9414   1.071   4.883   6.445
 2274SOL    HW2 9415   1.163   4.864   6.463
 2274SOL    HW3 9416   1.044   4.813   6.385
 2274SOL    MW4 9417   1.079   4.871   6.439
 2275SOL     OW 9418   0.864   4.703   5.800
 2275SOL    HW2 9419   0.850   4.615   5.765
 2275SOL    HW3 9420   0.815   4.760   5.741
 2275SOL    MW4 9421   0.856   4.698   5.788
 2276SOL     OW 9422   1.583   3.909   5.902
 2276SOL    HW2 9423   1.576   3.913   5.997
 2276SOL    HW3 9424   1.595   4.000   5.875
 2276SOL    MW4 9425   1.584   3.922   5.910
 2277SOL     OW 9426   0.872   4.472   6.016
 2277SOL    HW2 9427   0.852   4.458   5.923
 2277SOL    HW3 9428   0.965   4.451   6.023
 2277SOL    MW4 9429   0.882   4.467   6.005
 2278SOL     OW 9430   0.855   5.430   6.054
 2278SOL    HW2 9431   0.913   5.501   6.081
 2278SOL    HW3 9432   0.878   5.358   6.112
 2278SOL    MW4 9433   0.866   5.430   6.065
 2279SOL     OW 9434   1.735   4.928   6.363
 2279SOL    HW2 9435   1.714   4.874   6.286
 2279SOL    HW3 9436   1.831   4.926   6.367
 2279SOL    MW4 9437   1.744   4.921   6.352
 2280SOL     OW 9438   0.311   3.862   5.789
 2280SOL    HW2 9439   0.240   3.917   5.757
 2280SOL    HW3 9440   0.353   3.828   5.710
 2280SOL    MW4 9441   0.307   3.864   5.775
 2281SOL     OW 9442   0.067   3.961   5.638
 2281SOL    HW2 9443   0.034   4.040   5.682
 2281SOL    HW3 9444   0.122   3.994   5.567
 2281SOL    MW4 9445   0.070   3.975   5.635
 2282SOL     OW 9446   0.101   5.218   5.827
 2282SOL    HW2 9447   0.118   5.302   5.869
 2282SOL    HW3 9448   0.136   5.227   5.739
 2282SOL    MW4 9449   0.106   5.231   5.821
 2283SOL     OW 9450   1.373   5.307   6.044
 2283SOL    HW2 9451   1.436   5.297   5.973
 2283SOL    HW3 9452   1.290   5.327   5.999
 2283SOL    MW4 9453   1.370   5.308   6.029
 2284SOL     OW 9454   1.736   6.444   0.257
 2284SOL    HW2 9455   1.777   6.386   0.322
 2284SOL    HW3 9456   1.643   6.436   0.274
 2284SOL    MW4 9457   1.730   6.436   0.267
 2285SOL     OW 9458   1.602   6.376   1.252
 2285SOL    HW2 9459   1.557   6.443   1.303
 2285SOL    HW3 9460   1.690   6.412   1.238
 2285SOL    MW4 9461   1.608   6.389   1.256
 2286SOL     OW 9462   0.530   6.627   0.486
 2286SOL    HW2 9463   0.620   6.602   0.470
 2286SOL    HW3 9464   0.526   6.720   0.463
 2286SOL    MW4 9465   0.542   6.636   0.481
 2287SOL     OW 9466   1.646   7.330   0.628
 2287SOL    HW2 9467   1.658   7.276   0.706
 2287SOL    HW3 9468   1.683   7.278   0.557
 2287SOL    MW4 9469   1.652   7.315   0.629
 2288SOL     OW 9470   1.025   7.215   1.629
 2288SOL    HW2 9471   1.066   7.251   1.550
 2288SOL    HW3 9472   1.060   7.126   1.636
 2288SOL    MW4 9473   1.036   7.208   1.620
 2289SOL     OW 9474   1.582   6.770   1.233
 2289SOL    HW2 9475   1.503   6.735   1.191
 2289SOL    HW3 9476   1.609   6.842   1.177
 2289SOL    MW4 9477   1.575   6.775   1.220
 2290SOL     OW 9478   0.814   6.083   0.499
 2290SOL    HW2 9479   0.789   6.171   0.527
 2290SOL    HW3 9480   0.811   6.086   0.403
 2290SOL    MW4 9481   0.810   6.095   0.491
 2291SOL     OW 9482   0.256   6.111   0.427
 2291SOL    HW2 9483   0.288   6.199   0.409
 2291SOL    HW3 9484   0.244   6.109   0.522
 2291SOL    MW4 9485   0.259   6.123   0.439
 2292SOL     OW 9486   0.334   6.524   1.328
 2292SOL    HW2 9487   0.397   6.471   1.279
 2292SOL    HW3 9488   0.315   6.598   1.271
 2292SOL    MW4 9489   0.340   6.526   1.315
 2293SOL     OW 9490   0.655   5.866   0.514
 2293SOL    HW2 9491   0.713   5.942   0.516
 2293SOL    HW3 9492   0.590   5.887   0.447
 2293SOL    MW4 9493   0.654   5.878   0.505
 2294SOL     OW 9494   0.742   6.793   0.689
 2294SOL    HW2 9495   0.822   6.796   0.741
 2294SOL    HW3 9496   0.770   6.760   0.603
 2294SOL    MW4 9497   0.756   6.789   0.684
 2295SOL     OW 9498   0.767   7.134   1.592
 2295SOL    HW2 9499   0.851   7.160   1.631
 2295SOL    HW3 9500   0.791   7.078   1.518
 2295SOL    MW4 9501   0.781   7.130   1.587
 2296SOL     OW 9502   0.519   6.297   0.680
 2296SOL    HW2 9503   0.504   6.217   0.731
 2296SOL    HW3 9504   0.601   6.332   0.714
 2296SOL    MW4 9505   0.527   6.289   0.692
 2297SOL     OW 9506   0.856   6.983   1.365
 2297SOL    HW2 9507   0.820   7.049   1.305
 2297SOL    HW3 9508   0.784   6.921   1.378
 2297SOL    MW4 9509   0.842   6.983   1.359
 2298SOL     OW 9510   0.661   6.123   1.057
 2298SOL    HW2 9511   0.567   6.119   1.075
 2298SOL    HW3 9512   0.691   6.032   1.066
 2298SOL    MW4 9513   0.652   6.111   1.060
 2299SOL     OW 9514   0.407   6.537   0.961
 2299SOL    HW2 9515   0.362   6.544   0.877
 2299SOL    HW3 9516   0.387   6.620   1.005
 2299SOL    MW4 9517   0.399   6.549   0.955
 2300SOL     OW 9518   0.104   7.383   0.836
 2300SOL    HW2 9519   0.193   7.375   0.871
 2300SOL    HW3 9520   0.068   7.295   0.841
 2300SOL    MW4 9521   0.111   7.370   0.841
 2301SOL     OW 9522   1.369   6.775   0.205
 2301SOL    HW2 9523   1.287   6.811   0.171
 2301SOL    HW3 9524   1.437   6.818   0.154
 2301SOL    MW4 9525   1.367   6.785   0.193
 2302SOL     OW 9526   0.368   6.910   0.871
 2302SOL    HW2 9527   0.344   6.963   0.947
 2302SOL    HW3 9528   0.424   6.968   0.819
 2302SOL    MW4 9529   0.372   6.925   0.874
 2303SOL     OW 9530   0.930   6.554   0.681
 2303SOL    HW2 9531   0.844   6.541   0.721
 2303SOL    HW3 9532   0.983   6.481   0.713
 2303SOL    MW4 9533   0.926   6.543   0.690
 2304SOL     OW 9534   0.338   7.206   1.466
 2304SOL    HW2 9535   0.246   7.182   1.451
 2304SOL    HW3 9536   0.382   7.123   1.483
 2304SOL    MW4 9537   0.332   7.191   1.465
 2305SOL     OW 9538   0.921   6.916   0.398
 2305SOL    HW2 9539   0.898   6.978   0.466
 2305SOL    HW3 9540   0.878   6.834   0.424
 2305SOL    MW4 9541   0.913   6.912   0.409
 2306SOL     OW 9542   1.794   5.917   0.854
 2306SOL    HW2 9543   1.731   5.897   0.923
 2306SOL    HW3 9544   1.784   5.846   0.791
 2306SOL    MW4 9545   1.784   5.904   0.855
 2307SOL     OW 9546   0.418   5.889   0.366
 2307SOL    HW2 9547   0.392   5.851   0.282
 2307SOL    HW3 9548   0.355   5.959   0.382
 2307SOL    MW4 9549   0.407   5.892   0.357
 2308SOL     OW 9550   0.253   6.850   0.403
 2308SOL    HW2 9551   0.201   6.918   0.359
 2308SOL    HW3 9552   0.250   6.776   0.343
 2308SOL    MW4 9553   0.245   6.849   0.390
 2309SOL     OW 9554   0.915   7.313   0.181
 2309SOL    HW2 9555   0.870   7.329   0.264
 2309SOL    HW3 9556   0.846   7.278   0.123
 2309SOL    MW4 9557   0.901   7.310   0.183
 2310SOL     OW 9558   1.850   6.086   0.156
 2310SOL    HW2 9559   1.759   6.088   0.184
 2310SOL    HW3 9560   1.895   6.148   0.214
 2310SOL    MW4 9561   1.843   6.094   0.166
 2311SOL     OW 9562   1.595   6.689   0.506
 2311SOL    HW2 9563   1.505   6.689   0.541
 2311SOL    HW3 9564   1.588   6.735   0.423
 2311SOL    MW4 9565   1.582   6.695   0.500
 2312SOL     OW 9566   1.395   6.324   1.578
 2312SOL    HW2 9567   1.464   6.262   1.555
 2312SOL    HW3 9568   1.320   6.298   1.525
 2312SOL    MW4 9569   1.395   6.311   1.569
 2313SOL     OW 9570   0.136   7.204   1.130
 2313SOL    HW2 9571   0.119   7.150   1.207
 2313SOL    HW3 9572   0.124   7.294   1.160
 2313SOL    MW4 9573   0.133   7.208   1.144
 2314SOL     OW 9574   1.131   6.711   1.570
 2314SOL    HW2 9575   1.116   6.804   1.555
 2314SOL    HW3 9576   1.226   6.701   1.570
 2314SOL    MW4 9577   1.140   6.721   1.567
 2315SOL     OW 9578   0.927   6.135   1.771
 2315SOL    HW2 9579   1.017   6.136   1.738
 2315SOL    HW3 9580   0.886   6.060   1.729
 2315SOL    MW4 9581   0.933   6.125   1.762
 2316SOL     OW 9582   1.502   6.667   0.898
 2316SOL    HW2 9583   1.505   6.601   0.829
 2316SOL    HW3 9584   1.587   6.710   0.894
 2316SOL    MW4 9585   1.514   6.663   0.889
 2317SOL     OW 9586   1.122   6.270   0.467
 2317SOL    HW2 9587   1.148   6.294   0.378
 2317SOL    HW3 9588   1.104   6.177   0.463
 2317SOL    MW4 9589   1.124   6.262   0.454
 2318SOL     OW 9590   1.787   6.890   0.318
 2318SOL    HW2 9591   1.743   6.931   0.393
 2318SOL    HW3 9592   1.844   6.958   0.283
 2318SOL    MW4 9593   1.789   6.904   0.323
 2319SOL     OW 9594   0.707   5.939   1.721
 2319SOL    HW2 9595   0.717   5.865   1.661
 2319SOL    HW3 9596   0.743   5.908   1.804
 2319SOL    MW4 9597   0.713   5.925   1.723
 2320SOL     OW 9598   0.443   7.306   0.636
 2320SOL    HW2 9599   0.475   7.394   0.614
 2320SOL    HW3 9600   0.396   7.278   0.558
 2320SOL    MW4 9601   0.442   7.314   0.623
 2321SOL     OW 9602   1.827   5.668   0.685
 2321SOL    HW2 9603   1.881   5.619   0.747
 2321SOL    HW3 9604   1.770   5.602   0.646
 2321SOL    MW4 9605   1.827   5.652   0.687
 2322SOL     OW 9606   0.159   7.366   0.213
 2322SOL    HW2 9607   0.188   7.456   0.205
 2322SOL    HW3 9608   0.109   7.349   0.134
 2322SOL    MW4 9609   0.157   7.374   0.202
 2323SOL     OW 9610   0.946   5.621   1.098
 2323SOL    HW2 9611   0.905   5.699   1.060
 2323SOL    HW3 9612   1.040   5.639   1.093
 2323SOL    MW4 9613   0.952   5.633   1.093
 2324SOL     OW 9614   1.563   7.174   0.184
 2324SOL    HW2 9615   1.611   7.243   0.230
 2324SOL    HW3 9616   1.484   7.218   0.153
 2324SOL    MW4 9617   1.558   7.188   0.187
 2325SOL     OW 9618   0.961   6.299   0.128
 2325SOL    HW2 9619   0.963   6.246   0.049
 2325SOL    HW3 9620   1.049   6.336   0.134
 2325SOL    MW4 9621   0.973   6.298   0.117
 2326SOL     OW 9622   1.575   6.225   0.464
 2326SOL    HW2 9623   1.614   6.225   0.551
 2326SOL    HW3 9624   1.516   6.301   0.464
 2326SOL    MW4 9625   1.572   6.236   0.475
 2327SOL     OW 9626   0.892   6.592   1.593
 2327SOL    HW2 9627   0.869   6.572   1.683
 2327SOL    HW3 9628   0.977   6.636   1.598
 2327SOL    MW4 9629   0.899   6.595   1.605
 2328SOL     OW 9630   0.972   5.729   1.353
 2328SOL    HW2 9631   0.978   5.691   1.266
 2328SOL    HW3 9632   0.961   5.823   1.338
 2328SOL    MW4 9633   0.973   5.737   1.341
 2329SOL     OW 9634   1.061   6.218   1.187
 2329SOL    HW2 9635   1.136   6.247   1.134
 2329SOL    HW3 9636   0.993   6.283   1.171
 2329SOL    MW4 9637   1.062   6.230   1.177
 2330SOL     OW 9638   1.611   6.186   1.464
 2330SOL    HW2 9639   1.592   6.095   1.443
 2330SOL    HW3 9640   1.589   6.235   1.385
 2330SOL    MW4 9641   1.606   6.179   1.451
 2331SOL     OW 9642   1.753   7.280   1.368
 2331SOL    HW2 9643   1.681   7.242   1.419
 2331SOL    HW3 9644   1.770   7.365   1.409
 2331SOL    MW4 9645   1.747   7.285   1.380
 2332SOL     OW 9646   1.058   5.924   1.570
 2332SOL    HW2 9647   1.024   5.963   1.489
 2332SOL    HW3 9648   1.036   5.832   1.563
 2332SOL    MW4 9649   1.051   5.917   1.560
 2333SOL     OW 9650   1.467   6.738   1.646
 2333SOL    HW2 9651   1.549   6.779   1.676
 2333SOL    HW3 9652   1.430   6.700   1.726
 2333SOL    MW4 9653   1.473   6.739   1.661
 2334SOL     OW 9654   1.762   6.111   0.630
 2334SOL    HW2 9655   1.851   6.080   0.647
 2334SOL    HW3 9656   1.705   6.051   0.678
 2334SOL    MW4 9657   1.765   6.099   0.639
 2335SOL     OW 9658   0.188   5.825   0.659
 2335SOL    HW2 9659   0.179   5.765   0.585
 2335SOL    HW3 9660   0.121   5.796   0.722
 2335SOL    MW4 9661   0.178   5.812   0.657
 2336SOL     OW 9662   1.131   6.918   0.220
 2336SOL    HW2 9663   1.081   6.920   0.302
 2336SOL    HW3 9664   1.065   6.936   0.152
 2336SOL    MW4 9665   1.117   6.920   0.222
 2337SOL     OW 9666   0.135   5.998   1.022
 2337SOL    HW2 9667   0.107   6.089   1.031
 2337SOL    HW3 9668   0.072   5.959   0.961
 2337SOL    MW4 9669   0.122   6.004   1.016
 2338SOL     OW 9670   0.594   7.336   0.328
 2338SOL    HW2 9671   0.515   7.294   0.361
 2338SOL    HW3 9672   0.660   7.319   0.395
 2338SOL    MW4 9673   0.593   7.328   0.341
 2339SOL     OW 9674   1.722   6.856   1.725
 2339SOL    HW2 9675   1.772   6.782   1.757
 2339SOL    HW3 9676   1.668   6.883   1.800
 2339SOL    MW4 9677   1.722   6.850   1.738
 2340SOL     OW 9678   0.730   6.751   0.035
 2340SOL    HW2 9679   0.652   6.697   0.022
 2340SOL    HW3 9680   0.701   6.824   0.088
 2340SOL    MW4 9681   0.716   6.753   0.040
 2341SOL     OW 9682   1.856   6.491   1.227
 2341SOL    HW2 9683   1.872   6.529   1.140
 2341SOL    HW3 9684   1.890   6.557   1.288
 2341SOL    MW4 9685   1.863   6.504   1.223
 2342SOL     OW 9686   1.648   7.200   0.896
 2342SOL    HW2 9687   1.677   7.267   0.957
 2342SOL    HW3 9688   1.629   7.124   0.951
 2342SOL    MW4 9689   1.650   7.200   0.911
 2343SOL     OW 9690   1.311   7.267   0.103
 2343SOL    HW2 9691   1.237   7.230   0.153
 2343SOL    HW3 9692   1.319   7.357   0.136
 2343SOL    MW4 9693   1.302   7.274   0.115
 2344SOL     OW 9694   0.119   6.273   1.192
 2344SOL    HW2 9695   0.181   6.303   1.258
 2344SOL    HW3 9696   0.053   6.342   1.186
 2344SOL    MW4 9697   0.118   6.286   1.199
 2345SOL     OW 9698   1.535   6.941   0.045
 2345SOL    HW2 9699   1.482   6.990  -0.019
 2345SOL    HW3 9700   1.566   7.007   0.106
 2345SOL    MW4 9701   1.533   6.955   0.043
 2346SOL     OW 9702   0.760   5.830   0.100
 2346SOL    HW2 9703   0.708   5.750   0.088
 2346SOL    HW3 9704   0.847   5.807   0.068
 2346SOL    MW4 9705   0.763   5.816   0.094
 2347SOL     OW 9706   0.214   7.382   1.644
 2347SOL    HW2 9707   0.188   7.450   1.582
 2347SOL    HW3 9708   0.262   7.319   1.592
 2347SOL    MW4 9709   0.216   7.382   1.630
 2348SOL     OW 9710   0.266   6.701   1.151
 2348SOL    HW2 9711   0.319   6.776   1.176
 2348SOL    HW3 9712   0.185   6.739   1.117
 2348SOL    MW4 9713   0.262   6.716   1.151
 2349SOL     OW 9714   0.806   6.605   1.139
 2349SOL    HW2 9715   0.834   6.514   1.151
 2349SOL    HW3 9716   0.735   6.599   1.075
 2349SOL    MW4 9717   0.799   6.593   1.134
 2350SOL     OW 9718   0.121   6.470   0.557
 2350SOL    HW2 9719   0.212   6.485   0.584
 2350SOL    HW3 9720   0.124   6.391   0.503
 2350SOL    MW4 9721   0.133   6.462   0.555
 2351SOL     OW 9722   0.357   6.178   1.811
 2351SOL    HW2 9723   0.304   6.258   1.818
 2351SOL    HW3 9724   0.427   6.190   1.876
 2351SOL    MW4 9725   0.359   6.191   1.819
 2352SOL     OW 9726   0.743   5.728   1.518
 2352SOL    HW2 9727   0.720   5.636   1.520
 2352SOL    HW3 9728   0.829   5.730   1.475
 2352SOL    MW4 9729   0.750   5.718   1.514
 2353SOL     OW 9730   0.427   6.252   1.557
 2353SOL    HW2 9731   0.507   6.302   1.543
 2353SOL    HW3 9732   0.418   6.246   1.652
 2353SOL    MW4 9733   0.436   6.258   1.567
 2354SOL     OW 9734   0.748   7.402   0.931
 2354SOL    HW2 9735   0.837   7.417   0.961
 2354SOL    HW3 9736   0.743   7.449   0.847
 2354SOL    MW4 9737   0.758   7.410   0.924
 2355SOL     OW 9738   1.404   5.777   1.828
 2355SOL    HW2 9739   1.460   5.704   1.854
 2355SOL    HW3 9740   1.374   5.815   1.910
 2355SOL    MW4 9741   1.408   5.772   1.841
 2356SOL     OW 9742   0.129   7.082   0.596
 2356SOL    HW2 9743   0.101   7.121   0.678
 2356SOL    HW3 9744   0.149   6.991   0.618
 2356SOL    MW4 9745   0.127   7.074   0.609
 2357SOL     OW 9746   0.962   7.125   0.631
 2357SOL    HW2 9747   1.045   7.079   0.615
 2357SOL    HW3 9748   0.952   7.124   0.727
 2357SOL    MW4 9749   0.972   7.118   0.641
 2358SOL     OW 9750   1.794   6.270   0.945
 2358SOL    HW2 9751   1.883   6.300   0.927
 2358SOL    HW3 9752   1.774   6.210   0.874
 2358SOL    MW4 9753   1.803   6.267   0.934
 2359SOL     OW 9754   1.645   6.449   1.825
 2359SOL    HW2 9755   1.700   6.373   1.806
 2359SOL    HW3 9756   1.647   6.457   1.920
 2359SOL    MW4 9757   1.653   6.440   1.833
 2360SOL     OW 9758   0.695   7.182   0.036
 2360SOL    HW2 9759   0.635   7.251   0.006
 2360SOL    HW3 9760   0.640   7.124   0.089
 2360SOL    MW4 9761   0.679   7.184   0.038
 2361SOL     OW 9762   1.133   5.827   0.259
 2361SOL    HW2 9763   1.066   5.803   0.196
 2361SOL    HW3 9764   1.198   5.876   0.208
 2361SOL    MW4 9765   1.133   5.829   0.244
 2362SOL     OW 9766   0.940   6.011   1.344
 2362SOL    HW2 9767   0.859   6.052   1.372
 2362SOL    HW3 9768   0.987   6.079   1.296
 2362SOL    MW4 9769   0.935   6.026   1.342
 2363SOL     OW 9770   1.200   6.349   0.967
 2363SOL    HW2 9771   1.213   6.443   0.977
 2363SOL    HW3 9772   1.161   6.339   0.881
 2363SOL    MW4 9773   1.196   6.360   0.957
 2364SOL     OW 9774   0.652   6.544   0.771
 2364SOL    HW2 9775   0.563   6.535   0.804
 2364SOL    HW3 9776   0.656   6.634   0.739
 2364SOL    MW4 9777   0.641   6.555   0.771
 2365SOL     OW 9778   1.451   6.127   0.766
 2365SOL    HW2 9779   1.396   6.048   0.765
 2365SOL    HW3 9780   1.433   6.168   0.850
 2365SOL    MW4 9781   1.441   6.122   0.775
 2366SOL     OW 9782   0.422   5.814   1.583
 2366SOL    HW2 9783   0.343   5.832   1.635
 2366SOL    HW3 9784   0.417   5.876   1.510
 2366SOL    MW4 9785   0.412   5.824   1.580
 2367SOL     OW 9786   1.070   6.331   0.723
 2367SOL    HW2 9787   1.007   6.263   0.747
 2367SOL    HW3 9788   1.090   6.312   0.631
 2367SOL    MW4 9789   1.064   6.318   0.715
 2368SOL     OW 9790   0.326   7.226   0.425
 2368SOL    HW2 9791   0.287   7.273   0.351
 2368SOL    HW3 9792   0.260   7.161   0.450
 2368SOL    MW4 9793   0.313   7.224   0.419
 2369SOL     OW 9794   0.818   6.635   0.449
 2369SOL    HW2 9795   0.820   6.609   0.356
 2369SOL    HW3 9796   0.876   6.572   0.492
 2369SOL    MW4 9797   0.826   6.624   0.443
 2370SOL     OW 9798   1.371   7.195   1.221
 2370SOL    HW2 9799   1.296   7.241   1.259
 2370SOL    HW3 9800   1.353   7.102   1.238
 2370SOL    MW4 9801   1.360   7.189   1.229
 2371SOL     OW 9802   1.375   7.403   0.651
 2371SOL    HW2 9803   1.318   7.356   0.590
 2371SOL    HW3 9804   1.461   7.364   0.638
 2371SOL    MW4 9805   1.378   7.394   0.641
 2372SOL     OW 9806   1.328   5.879   0.782
 2372SOL    HW2 9807   1.356   5.811   0.843
 2372SOL    HW3 9808   1.242   5.850   0.752
 2372SOL    MW4 9809   1.321   5.866   0.786
 2373SOL     OW 9810   0.133   6.813   0.716
 2373SOL    HW2 9811   0.197   6.845   0.779
 2373SOL    HW3 9812   0.182   6.749   0.664
 2373SOL    MW4 9813   0.148   6.809   0.717
 2374SOL     OW 9814   0.633   6.889   1.698
 2374SOL    HW2 9815   0.681   6.972   1.685
 2374SOL    HW3 9816   0.690   6.837   1.754
 2374SOL    MW4 9817   0.647   6.893   1.704
 2375SOL     OW 9818   0.209   7.131   1.838
 2375SOL    HW2 9819   0.265   7.055   1.853
 2375SOL    HW3 9820   0.158   7.109   1.760
 2375SOL    MW4 9821   0.209   7.118   1.829
 2376SOL     OW 9822   1.308   5.983   0.117
 2376SOL    HW2 9823   1.281   6.049   0.053
 2376SOL    HW3 9824   1.378   6.026   0.167
 2376SOL    MW4 9825   1.313   5.996   0.114
 2377SOL     OW 9826   0.976   5.688   0.054
 2377SOL    HW2 9827   1.032   5.680  -0.024
 2377SOL    HW3 9828   0.953   5.598   0.076
 2377SOL    MW4 9829   0.981   5.675   0.047
 2378SOL     OW 9830   1.481   6.539   0.259
 2378SOL    HW2 9831   1.448   6.628   0.249
 2378SOL    HW3 9832   1.446   6.510   0.344
 2378SOL    MW4 9833   1.471   6.548   0.270
 2379SOL     OW 9834   1.094   6.968   1.447
 2379SOL    HW2 9835   1.005   6.974   1.415
 2379SOL    HW3 9836   1.138   7.047   1.415
 2379SOL    MW4 9837   1.089   6.978   1.439
 2380SOL     OW 9838   0.387   5.636   1.789
 2380SOL    HW2 9839   0.315   5.601   1.737
 2380SOL    HW3 9840   0.445   5.677   1.724
 2380SOL    MW4 9841   0.385   5.637   1.774
 2381SOL     OW 9842   0.411   7.126   1.088
 2381SOL    HW2 9843   0.456   7.188   1.145
 2381SOL    HW3 9844   0.318   7.145   1.101
 2381SOL    MW4 9845   0.404   7.136   1.095
 2382SOL     OW 9846   1.851   6.655   1.442
 2382SOL    HW2 9847   1.766   6.668   1.401
 2382SOL    HW3 9848   1.831   6.619   1.529
 2382SOL    MW4 9849   1.838   6.651   1.447
 2383SOL     OW 9850   0.833   7.194   1.196
 2383SOL    HW2 9851   0.857   7.183   1.105
 2383SOL    HW3 9852   0.756   7.251   1.194
 2383SOL    MW4 9853   0.825   7.199   1.185
 2384SOL     OW 9854   0.475   6.577   0.051
 2384SOL    HW2 9855   0.398   6.590   0.107
 2384SOL    HW3 9856   0.439   6.541  -0.030
 2384SOL    MW4 9857   0.461   6.573   0.048
 2385SOL     OW 9858   1.128   6.550   0.294
 2385SOL    HW2 9859   1.038   6.571   0.269
 2385SOL    HW3 9860   1.155   6.623   0.350
 2385SOL    MW4 9861   1.120   6.562   0.297
 2386SOL     OW 9862   0.628   6.899   0.986
 2386SOL    HW2 9863   0.621   6.878   1.080
 2386SOL    HW3 9864   0.546   6.867   0.949
 2386SOL    MW4 9865   0.616   6.893   0.993
 2387SOL     OW 9866   1.492   5.909   1.388
 2387SOL    HW2 9867   1.439   5.911   1.468
 2387SOL    HW3 9868   1.477   5.822   1.351
 2387SOL    MW4 9869   1.484   5.899   1.393
 2388SOL     OW 9870   1.828   5.833   1.261
 2388SOL    HW2 9871   1.809   5.900   1.196
 2388SOL    HW3 9872   1.885   5.771   1.216
 2388SOL    MW4 9873   1.832   5.834   1.247
 2389SOL     OW 9874   0.074   6.991   1.649
 2389SOL    HW2 9875   0.118   6.924   1.595
 2389SOL    HW3 9876  -0.011   6.953   1.669
 2389SOL    MW4 9877   0.069   6.977   1.645
 2390SOL     OW 9878   0.757   5.666   0.701
 2390SOL    HW2 9879   0.686   5.727   0.683
 2390SOL    HW3 9880   0.808   5.663   0.620
 2390SOL    MW4 9881   0.753   5.672   0.688
 2391SOL     OW 9882   0.515   6.906   0.450
 2391SOL    HW2 9883   0.508   6.938   0.540
 2391SOL    HW3 9884   0.425   6.890   0.422
 2391SOL    MW4 9885   0.503   6.908   0.457
 2392SOL     OW 9886   1.110   7.299   1.359
 2392SOL    HW2 9887   1.030   7.284   1.309
 2392SOL    HW3 9888   1.117   7.394   1.366
 2392SOL    MW4 9889   1.101   7.310   1.353
 2393SOL     OW 9890   1.224   7.264   0.849
 2393SOL    HW2 9891   1.271   7.337   0.808
 2393SOL    HW3 9892   1.145   7.303   0.885
 2393SOL    MW4 9893   1.219   7.279   0.848
 2394SOL     OW 9894   1.632   7.359   1.124
 2394SOL    HW2 9895   1.675   7.329   1.204
 2394SOL    HW3 9896   1.551   7.307   1.121
 2394SOL    MW4 9897   1.627   7.348   1.134
 2395SOL     OW 9898   0.717   6.323   1.831
 2395SOL    HW2 9899   0.787   6.265   1.803
 2395SOL    HW3 9900   0.660   6.268   1.886
 2395SOL    MW4 9901   0.719   6.310   1.835
 2396SOL     OW 9902   1.504   6.535   1.464
 2396SOL    HW2 9903   1.509   6.588   1.544
 2396SOL    HW3 9904   1.466   6.452   1.492
 2396SOL    MW4 9905   1.500   6.530   1.479
 2397SOL     OW 9906   1.144   5.670   1.710
 2397SOL    HW2 9907   1.139   5.577   1.691
 2397SOL    HW3 9908   1.227   5.681   1.756
 2397SOL    MW4 9909   1.152   5.659   1.714
 2398SOL     OW 9910   0.518   6.190   0.164
 2398SOL    HW2 9911   0.484   6.246   0.234
 2398SOL    HW3 9912   0.589   6.140   0.204
 2398SOL    MW4 9913   0.524   6.191   0.178
 2399SOL     OW 9914   1.614   6.941   0.986
 2399SOL    HW2 9915   1.649   6.923   0.899
 2399SOL    HW3 9916   1.519   6.942   0.973
 2399SOL    MW4 9917   1.606   6.938   0.973
 2400SOL     OW 9918   1.043   6.589   1.355
 2400SOL    HW2 9919   1.086   6.624   1.433
 2400SOL    HW3 9920   1.026   6.666   1.301
 2400SOL    MW4 9921   1.046   6.604   1.358
 2401SOL     OW 9922   1.574   6.076   0.228
 2401SOL    HW2 9923   1.566   6.147   0.165
 2401SOL    HW3 9924   1.592   6.120   0.311
 2401SOL    MW4 9925   1.575   6.090   0.230
 2402SOL     OW 9926   0.434   5.731   0.657
 2402SOL    HW2 9927   0.484   5.774   0.588
 2402SOL    HW3 9928   0.349   5.775   0.657
 2402SOL    MW4 9929   0.431   5.744   0.648
 2403SOL     OW 9930   0.193   6.793   1.517
 2403SOL    HW2 9931   0.221   6.746   1.595
 2403SOL    HW3 9932   0.114   6.748   1.488
 2403SOL    MW4 9933   0.186   6.782   1.523
 2404SOL     OW 9934   0.701   6.120   1.484
 2404SOL    HW2 9935   0.673   6.208   1.508
 2404SOL    HW3 9936   0.670   6.064   1.555
 2404SOL    MW4 9937   0.693   6.123   1.496
 2405SOL     OW 9938   1.243   6.338   0.203
 2405SOL    HW2 9939   1.290   6.356   0.122
 2405SOL    HW3 9940   1.209   6.422   0.231
 2405SOL    MW4 9941   1.245   6.352   0.196
 2406SOL     OW 9942   0.356   6.516   0.697
 2406SOL    HW2 9943   0.414   6.572   0.645
 2406SOL    HW3 9944   0.400   6.431   0.699
 2406SOL    MW4 9945   0.369   6.513   0.690
 2407SOL     OW 9946   1.496   5.868   0.534
 2407SOL    HW2 9947   1.418   5.818   0.559
 2407SOL    HW3 9948   1.467   5.959   0.534
 2407SOL    MW4 9949   1.482   5.872   0.537
 2408SOL     OW 9950   1.082   5.830   0.693
 2408SOL    HW2 9951   1.102   5.905   0.637
 2408SOL    HW3 9952   1.062   5.869   0.778
 2408SOL    MW4 9953   1.083   5.846   0.697
 2409SOL     OW 9954   0.978   7.080   0.025
 2409SOL    HW2 9955   1.005   7.158  -0.023
 2409SOL    HW3 9956   0.885   7.095   0.044
 2409SOL    MW4 9957   0.969   7.093   0.021
 2410SOL     OW 9958   1.842   6.603   1.712
 2410SOL    HW2 9959   1.755   6.583   1.748
 2410SOL    HW3 9960   1.896   6.529   1.737
 2410SOL    MW4 9961   1.837   6.592   1.720
 2411SOL     OW 9962   0.063   7.116   0.869
 2411SOL    HW2 9963   0.095   7.120   0.960
 2411SOL    HW3 9964  -0.032   7.124   0.877
 2411SOL    MW4 9965   0.055   7.119   0.882
 2412SOL     OW 9966   0.018   6.242   0.416
 2412SOL    HW2 9967  -0.042   6.214   0.486
 2412SOL    HW3 9968   0.092   6.182   0.422
 2412SOL    MW4 9969   0.020   6.231   0.425
 2413SOL     OW 9970   1.586   7.454   1.850
 2413SOL    HW2 9971   1.631   7.378   1.815
 2413SOL    HW3 9972   1.624   7.467   1.937
 2413SOL    MW4 9973   1.596   7.447   1.856
 2414SOL     OW 9974   1.186   6.973   0.576
 2414SOL    HW2 9975   1.209   6.924   0.654
 2414SOL    HW3 9976   1.267   7.015   0.548
 2414SOL    MW4 9977   1.199   6.973   0.583
 2415SOL     OW 9978   0.444   5.981   1.305
 2415SOL    HW2 9979   0.477   6.062   1.345
 2415SOL    HW3 9980   0.417   6.007   1.217
 2415SOL    MW4 9981   0.443   5.995   1.299
 2416SOL     OW 9982   0.398   5.948   1.041
 2416SOL    HW2 9983   0.428   5.862   1.012
 2416SOL    HW3 9984   0.303   5.941   1.044
 2416SOL    MW4 9985   0.390   5.937   1.039
 2417SOL     OW 9986   1.227   6.157   1.732
 2417SOL    HW2 9987   1.279   6.092   1.685
 2417SOL    HW3 9988   1.185   6.208   1.662
 2417SOL    MW4 9989   1.228   6.154   1.715
 2418SOL     OW 9990   1.326   5.952   1.593
 2418SOL    HW2 9991   1.233   5.936   1.580
 2418SOL    HW3 9992   1.352   5.890   1.661
 2418SOL    MW4 9993   1.316   5.942   1.600
 2419SOL     OW 9994   0.541   5.726   0.932
 2419SOL    HW2 9995   0.551   5.635   0.958
 2419SOL    HW3 9996   0.497   5.722   0.847
 2419SOL    MW4 9997   0.537   5.714   0.924
 2420SOL     OW 9998   0.635   7.341   1.478
 2420SOL    HW2 9999   0.552   7.326   1.523
 2420SOL    HW310000   0.694   7.274   1.513
 2420SOL    MW410001   0.633   7.331   1.488
 2421SOL     OW10002   1.692   6.048   1.103
 2421SOL    HW210003   1.625   6.081   1.163
 2421SOL    HW310004   1.735   6.126   1.069
 2421SOL    MW410005   1.690   6.063   1.107
 2422SOL     OW10006   1.870   6.768   1.073
 2422SOL    HW210007   1.863   6.708   0.998
 2422SOL    HW310008   1.796   6.828   1.062
 2422SOL    MW410009   1.860   6.768   1.062
 2423SOL     OW10010   1.252   6.630   0.991
 2423SOL    HW210011   1.266   6.602   1.082
 2423SOL    HW310012   1.338   6.661   0.963
 2423SOL    MW410013   1.265   6.631   1.000
 2424SOL     OW10014   1.335   6.125   1.270
 2424SOL    HW210015   1.356   6.126   1.177
 2424SOL    HW310016   1.380   6.047   1.303
 2424SOL    MW410017   1.342   6.115   1.262
 2425SOL     OW10018   1.828   6.256   1.812
 2425SOL    HW210019   1.865   6.201   1.881
 2425SOL    HW310020   1.853   6.213   1.730
 2425SOL    MW410021   1.835   6.244   1.811
 2426SOL     OW10022   1.375   6.554   1.863
 2426SOL    HW210023   1.441   6.502   1.817
 2426SOL    HW310024   1.395   6.541   1.956
 2426SOL    MW410025   1.386   6.545   1.870
 2427SOL     OW10026   1.326   5.640   0.212
 2427SOL    HW210027   1.400   5.684   0.255
 2427SOL    HW310028   1.250   5.694   0.234
 2427SOL    MW410029   1.326   5.652   0.220
 2428SOL     OW10030   1.386   6.415   0.490
 2428SOL    HW210031   1.301   6.385   0.460
 2428SOL    HW310032   1.378   6.422   0.585
 2428SOL    MW410033   1.374   6.413   0.499
 2429SOL     OW10034   0.462   6.878   1.221
 2429SOL    HW210035   0.474   6.905   1.312
 2429SOL    HW310036   0.443   6.959   1.174
 2429SOL    MW410037   0.461   6.893   1.226
 2430SOL     OW10038   0.746   5.858   1.044
 2430SOL    HW210039   0.719   5.860   1.135
 2430SOL    HW310040   0.676   5.810   0.999
 2430SOL    MW410041   0.734   5.854   1.051
 2431SOL     OW10042   0.600   7.350   1.206
 2431SOL    HW210043   0.652   7.427   1.183
 2431SOL    HW310044   0.609   7.342   1.301
 2431SOL    MW410045   0.609   7.357   1.217
 2432SOL     OW10046   1.502   6.935   1.438
 2432SOL    HW210047   1.487   6.864   1.501
 2432SOL    HW310048   1.548   6.893   1.366
 2432SOL    MW410049   1.508   6.919   1.438
 2433SOL     OW10050   0.576   6.666   1.555
 2433SOL    HW210051   0.613   6.671   1.467
 2433SOL    HW310052   0.615   6.739   1.602
 2433SOL    MW410053   0.586   6.676   1.550
 2434SOL     OW10054   0.756   6.709   1.367
 2434SOL    HW210055   0.815   6.655   1.420
 2434SOL    HW310056   0.771   6.681   1.277
 2434SOL    MW410057   0.766   6.698   1.363
 2435SOL     OW10058   0.759   6.081   0.216
 2435SOL    HW210059   0.832   6.130   0.179
 2435SOL    HW310060   0.775   5.990   0.190
 2435SOL    MW410061   0.771   6.076   0.209
 2436SOL     OW10062   1.567   7.198   1.539
 2436SOL    HW210063   1.609   7.183   1.624
 2436SOL    HW310064   1.558   7.111   1.501
 2436SOL    MW410065   1.571   7.186   1.546
 2437SOL     OW10066   1.227   5.677   1.130
 2437SOL    HW210067   1.282   5.686   1.052
 2437SOL    HW310068   1.282   5.711   1.201
 2437SOL    MW410069   1.241   5.682   1.129
 2438SOL     OW10070   0.234   6.590   0.314
 2438SOL    HW210071   0.171   6.606   0.243
 2438SOL    HW310072   0.181   6.553   0.385
 2438SOL    MW410073   0.219   6.587   0.314
 2439SOL     OW10074   0.590   6.944   0.173
 2439SOL    HW210075   0.605   6.920   0.265
 2439SOL    HW310076   0.498   6.922   0.157
 2439SOL    MW410077   0.580   6.937   0.183
 2440SOL     OW10078   1.129   7.175   0.325
 2440SOL    HW210079   1.137   7.093   0.276
 2440SOL    HW310080   1.048   7.214   0.292
 2440SOL    MW410081   1.119   7.170   0.315
 2441SOL     OW10082   0.388   7.333   0.894
 2441SOL    HW210083   0.392   7.244   0.929
 2441SOL    HW310084   0.414   7.324   0.803
 2441SOL    MW410085   0.391   7.321   0.886
 2442SOL     OW10086   1.005   6.811   1.137
 2442SOL    HW210087   0.937   6.745   1.153
 2442SOL    HW310088   1.023   6.805   1.044
 2442SOL    MW410089   0.998   6.802   1.128
 2443SOL     OW10090   0.094   7.086   1.388
 2443SOL    HW210091   0.084   7.044   1.474
 2443SOL    HW310092   0.015   7.139   1.378
 2443SOL    MW410093   0.083   7.087   1.399
 2444SOL     OW10094   0.998   5.950   0.958
 2444SOL    HW210095   0.928   5.902   1.003
 2444SOL    HW310096   1.030   6.013   1.022
 2444SOL    MW410097   0.993   5.952   0.972
 2445SOL     OW10098   0.649   6.386   1.578
 2445SOL    HW210099   0.642   6.481   1.566
 2445SOL    HW310100   0.658   6.375   1.673
 2445SOL    MW410101   0.650   6.398   1.588
 2446SOL     OW10102   0.370   6.901   1.836
 2446SOL    HW210103   0.442   6.903   1.773
 2446SOL    HW310104   0.340   6.810   1.835
 2446SOL    MW410105   0.375   6.890   1.828
 2447SOL     OW10106   1.454   5.664   1.303
 2447SOL    HW210107   1.525   5.610   1.267
 2447SOL    HW310108   1.453   5.643   1.396
 2447SOL    MW410109   1.463   5.655   1.311
 2448SOL     OW10110   1.654   7.194   1.787
 2448SOL    HW210111   1.627   7.191   1.878
 2448SOL    HW310112   1.750   7.198   1.790
 2448SOL    MW410113   1.664   7.194   1.799
 2449SOL     OW10114   0.465   6.056   0.771
 2449SOL    HW210115   0.536   6.004   0.734
 2449SOL    HW310116   0.451   6.021   0.858
 2449SOL    MW410117   0.473   6.045   0.778
 2450SOL     OW10118   0.020   7.391   1.843
 2450SOL    HW210119   0.070   7.369   1.765
 2450SOL    HW310120   0.028   7.486   1.851
 2450SOL    MW410121   0.028   7.400   1.834
 2451SOL     OW10122   0.781   7.149   0.847
 2451SOL    HW210123   0.709   7.086   0.860
 2451SOL    HW310124   0.742   7.234   0.865
 2451SOL    MW410125   0.765   7.152   0.850
 2452SOL     OW10126   1.101   5.997   0.495
 2452SOL    HW210127   1.123   5.934   0.427
 2452SOL    HW310128   1.006   5.989   0.506
 2452SOL    MW410129   1.091   5.988   0.487
 2453SOL     OW10130   0.186   5.687   0.427
 2453SOL    HW210131   0.257   5.708   0.366
 2453SOL    HW310132   0.140   5.615   0.385
 2453SOL    MW410133   0.190   5.681   0.413
 2454SOL     OW10134   0.017   6.154   1.570
 2454SOL    HW210135   0.081   6.220   1.545
 2454SOL    HW310136  -0.064   6.181   1.527
 2454SOL    MW410137   0.015   6.166   1.562
 2455SOL     OW10138   1.755   7.061   0.527
 2455SOL    HW210139   1.725   6.994   0.588
 2455SOL    HW310140   1.849   7.067   0.541
 2455SOL    MW410141   1.763   7.053   0.537
 2456SOL     OW10142   1.311   6.738   0.457
 2456SOL    HW210143   1.283   6.824   0.490
 2456SOL    HW310144   1.339   6.754   0.367
 2456SOL    MW410145   1.311   6.752   0.449
 2457SOL     OW10146   0.973   5.658   0.510
 2457SOL    HW210147   1.010   5.717   0.575
 2457SOL    HW310148   0.950   5.714   0.436
 2457SOL    MW410149   0.974   5.673   0.509
 2458SOL     OW10150   1.826   6.540   0.932
 2458SOL    HW210151   1.817   6.572   0.843
 2458SOL    HW310152   1.779   6.456   0.932
 2458SOL    MW410153   1.819   6.533   0.922
 2459SOL     OW10154   0.202   6.380   1.511
 2459SOL    HW210155   0.223   6.449   1.449
 2459SOL    HW310156   0.282   6.327   1.516
 2459SOL    MW410157   0.215   6.381   1.505
 2460SOL     OW10158   1.738   6.471   0.633
 2460SOL    HW210159   1.832   6.460   0.621
 2460SOL    HW310160   1.714   6.543   0.574
 2460SOL    MW410161   1.748   6.479   0.624
 2461SOL     OW10162   0.187   6.395   1.778
 2461SOL    HW210163   0.113   6.339   1.804
 2461SOL    HW310164   0.182   6.398   1.683
 2461SOL    MW410165   0.176   6.388   1.768
 2462SOL     OW10166   0.353   5.682   1.228
 2462SOL    HW210167   0.396   5.766   1.248
 2462SOL    HW310168   0.426   5.620   1.221
 2462SOL    MW410169   0.368   5.685   1.229
 2463SOL     OW10170   0.394   6.349   0.406
 2463SOL    HW210171   0.394   6.444   0.391
 2463SOL    HW310172   0.471   6.333   0.460
 2463SOL    MW410173   0.404   6.360   0.411
 2464SOL     OW10174   1.170   6.208   1.470
 2464SOL    HW210175   1.206   6.181   1.386
 2464SOL    HW310176   1.083   6.242   1.449
 2464SOL    MW410177   1.164   6.209   1.457
 2465SOL     OW10178   0.153   6.080   0.695
 2465SOL    HW210179   0.215   6.087   0.768
 2465SOL    HW310180   0.153   5.987   0.672
 2465SOL    MW410181   0.161   6.069   0.702
 2466SOL     OW10182   1.700   7.420   0.227
 2466SOL    HW210183   1.767   7.453   0.167
 2466SOL    HW310184   1.657   7.499   0.261
 2466SOL    MW410185   1.702   7.435   0.223
 2467SOL     OW10186   0.835   6.341   1.179
 2467SOL    HW210187   0.793   6.259   1.155
 2467SOL    HW310188   0.836   6.340   1.275
 2467SOL    MW410189   0.828   6.330   1.188
 2468SOL     OW10190   1.506   7.474   1.578
 2468SOL    HW210191   1.509   7.380   1.561
 2468SOL    HW310192   1.529   7.482   1.670
 2468SOL    MW410193   1.509   7.462   1.588
 2469SOL     OW10194   0.639   5.811   1.284
 2469SOL    HW210195   0.570   5.874   1.305
 2469SOL    HW310196   0.666   5.775   1.369
 2469SOL    MW410197   0.633   5.814   1.297
 2470SOL     OW10198   0.022   6.652   0.153
 2470SOL    HW210199  -0.009   6.717   0.216
 2470SOL    HW310200  -0.029   6.574   0.172
 2470SOL    MW410201   0.012   6.649   0.163
 2471SOL     OW10202   1.434   5.664   0.901
 2471SOL    HW210203   1.522   5.673   0.938
 2471SOL    HW310204   1.444   5.605   0.827
 2471SOL    MW410205   1.448   5.658   0.895
 2472SOL     OW10206   1.466   6.403   0.745
 2472SOL    HW210207   1.546   6.418   0.694
 2472SOL    HW310208   1.459   6.308   0.751
 2472SOL    MW410209   1.475   6.392   0.740
 2473SOL     OW10210   0.606   7.452   0.095
 2473SOL    HW210211   0.511   7.452   0.087
 2473SOL    HW310212   0.622   7.398   0.173
 2473SOL    MW410213   0.596   7.446   0.104
 2474SOL     OW10214   0.916   6.329   1.442
 2474SOL    HW210215   0.985   6.396   1.439
 2474SOL    HW310216   0.849   6.367   1.498
 2474SOL    MW410217   0.917   6.342   1.449
 2475SOL     OW10218   0.334   6.629   1.690
 2475SOL    HW210219   0.288   6.545   1.692
 2475SOL    HW310220   0.391   6.623   1.614
 2475SOL    MW410221   0.336   6.617   1.682
 2476SOL     OW10222   1.451   6.272   0.011
 2476SOL    HW210223   1.379   6.248  -0.047
 2476SOL    HW310224   1.517   6.309  -0.047
 2476SOL    MW410225   1.450   6.274  -0.004
 2477SOL     OW10226   0.585   7.004   0.691
 2477SOL    HW210227   0.650   6.937   0.712
 2477SOL    HW310228   0.637   7.081   0.668
 2477SOL    MW410229   0.600   7.006   0.690
 2478SOL     OW10230   0.846   6.169   0.821
 2478SOL    HW210231   0.786   6.187   0.893
 2478SOL    HW310232   0.880   6.081   0.840
 2478SOL    MW410233   0.842   6.159   0.834
 2479SOL     OW10234   1.787   5.668   1.490
 2479SOL    HW210235   1.708   5.714   1.518
 2479SOL    HW310236   1.822   5.722   1.419
 2479SOL    MW410237   1.781   5.681   1.484
 2480SOL     OW10238   1.071   6.752   0.840
 2480SOL    HW210239   1.163   6.733   0.858
 2480SOL    HW310240   1.044   6.682   0.780
 2480SOL    MW410241   1.079   6.740   0.834
 2481SOL     OW10242   0.864   6.572   0.195
 2481SOL    HW210243   0.850   6.484   0.160
 2481SOL    HW310244   0.815   6.629   0.136
 2481SOL    MW410245   0.856   6.567   0.183
 2482SOL     OW10246   1.345   6.990   0.936
 2482SOL    HW210247   1.318   7.074   0.901
 2482SOL    HW310248   1.305   6.985   1.023
 2482SOL    MW410249   1.338   6.999   0.942
 2483SOL     OW10250   1.264   6.938   1.204
 2483SOL    HW210251   1.275   6.905   1.293
 2483SOL    HW310252   1.183   6.897   1.173
 2483SOL    MW410253   1.254   6.930   1.210
 2484SOL     OW10254   0.277   6.296   0.974
 2484SOL    HW210255   0.227   6.295   1.055
 2484SOL    HW310256   0.297   6.388   0.958
 2484SOL    MW410257   0.273   6.308   0.982
 2485SOL     OW10258   1.344   7.060   1.736
 2485SOL    HW210259   1.344   7.154   1.752
 2485SOL    HW310260   1.389   7.050   1.652
 2485SOL    MW410261   1.350   7.070   1.727
 2486SOL     OW10262   1.583   5.778   0.297
 2486SOL    HW210263   1.576   5.782   0.392
 2486SOL    HW310264   1.595   5.869   0.270
 2486SOL    MW410265   1.584   5.791   0.305
 2487SOL     OW10266   0.872   6.341   0.411
 2487SOL    HW210267   0.852   6.327   0.318
 2487SOL    HW310268   0.965   6.320   0.418
 2487SOL    MW410269   0.882   6.336   0.400
 2488SOL     OW10270   0.199   5.964   1.715
 2488SOL    HW210271   0.156   6.023   1.652
 2488SOL    HW310272   0.267   6.019   1.755
 2488SOL    MW410273   0.203   5.979   1.712
 2489SOL     OW10274   1.311   6.584   1.260
 2489SOL    HW210275   1.374   6.581   1.333
 2489SOL    HW310276   1.227   6.602   1.302
 2489SOL    MW410277   1.307   6.586   1.275
 2490SOL     OW10278   0.855   7.299   0.449
 2490SOL    HW210279   0.913   7.370   0.476
 2490SOL    HW310280   0.878   7.227   0.507
 2490SOL    MW410281   0.866   7.299   0.460
 2491SOL     OW10282   1.650   5.761   1.039
 2491SOL    HW210283   1.695   5.679   1.058
 2491SOL    HW310284   1.670   5.817   1.115
 2491SOL    MW410285   1.660   5.757   1.051
 2492SOL     OW10286   0.098   5.604   1.138
 2492SOL    HW210287   0.089   5.605   1.043
 2492SOL    HW310288   0.192   5.616   1.153
 2492SOL    MW410289   0.110   5.607   1.129
 2493SOL     OW10290   1.735   6.797   0.758
 2493SOL    HW210291   1.714   6.743   0.681
 2493SOL    HW310292   1.831   6.795   0.762
 2493SOL    MW410293   1.744   6.790   0.747
 2494SOL     OW10294   0.427   6.942   1.501
 2494SOL    HW210295   0.348   6.892   1.524
 2494SOL    HW310296   0.497   6.901   1.551
 2494SOL    MW410297   0.425   6.930   1.511
 2495SOL     OW10298   0.311   5.731   0.184
 2495SOL    HW210299   0.240   5.786   0.152
 2495SOL    HW310300   0.353   5.697   0.105
 2495SOL    MW410301   0.307   5.733   0.170
 2496SOL     OW10302   1.435   6.228   1.020
 2496SOL    HW210303   1.358   6.274   0.986
 2496SOL    HW310304   1.492   6.297   1.054
 2496SOL    MW410305   1.432   6.243   1.020
 2497SOL     OW10306   0.067   5.830   0.033
 2497SOL    HW210307   0.034   5.909   0.077
 2497SOL    HW310308   0.122   5.863  -0.038
 2497SOL    MW410309   0.070   5.844   0.030
 2498SOL     OW10310   0.101   7.087   0.222
 2498SOL    HW210311   0.118   7.171   0.264
 2498SOL    HW310312   0.136   7.096   0.134
 2498SOL    MW410313   0.106   7.100   0.216
 2499SOL     OW10314   1.373   7.176   0.439
 2499SOL    HW210315   1.436   7.166   0.368
 2499SOL    HW310316   1.290   7.196   0.394
 2499SOL    MW410317   1.370   7.177   0.424
 2500SOL     OW10318   1.736   6.444   2.125
 2500SOL    HW210319   1.777   6.386   2.190
 2500SOL    HW310320   1.643   6.436   2.142
 2500SOL    MW410321   1.730   6.436   2.135
 2501SOL     OW10322   1.602   6.376   3.120
 2501SOL    HW210323   1.557   6.443   3.171
 2501SOL    HW310324   1.690   6.412   3.106
 2501SOL    MW410325   1.608   6.389   3.124
 2502SOL     OW10326   0.530   6.627   2.354
 2502SOL    HW210327   0.620   6.602   2.338
 2502SOL    HW310328   0.526   6.720   2.331
 2502SOL    MW410329   0.542   6.636   2.349
 2503SOL     OW10330   1.646   7.330   2.496
 2503SOL    HW210331   1.658   7.276   2.574
 2503SOL    HW310332   1.683   7.278   2.425
 2503SOL    MW410333   1.652   7.315   2.497
 2504SOL     OW10334   1.025   7.215   3.497
 2504SOL    HW210335   1.066   7.251   3.418
 2504SOL    HW310336   1.060   7.126   3.504
 2504SOL    MW410337   1.036   7.208   3.488
 2505SOL     OW10338   1.582   6.770   3.101
 2505SOL    HW210339   1.503   6.735   3.059
 2505SOL    HW310340   1.609   6.842   3.045
 2505SOL    MW410341   1.575   6.775   3.088
 2506SOL     OW10342   0.814   6.083   2.367
 2506SOL    HW210343   0.789   6.171   2.395
 2506SOL    HW310344   0.811   6.086   2.271
 2506SOL    MW410345   0.810   6.095   2.359
 2507SOL     OW10346   0.256   6.111   2.295
 2507SOL    HW210347   0.288   6.199   2.277
 2507SOL    HW310348   0.244   6.109   2.390
 2507SOL    MW410349   0.259   6.123   2.307
 2508SOL     OW10350   0.334   6.524   3.196
 2508SOL    HW210351   0.397   6.471   3.147
 2508SOL    HW310352   0.315   6.598   3.139
 2508SOL    MW410353   0.340   6.526   3.183
 2509SOL     OW10354   0.655   5.866   2.382
 2509SOL    HW210355   0.713   5.942   2.384
 2509SOL    HW310356   0.590   5.887   2.315
 2509SOL    MW410357   0.654   5.878   2.373
 2510SOL     OW10358   0.742   6.793   2.557
 2510SOL    HW210359   0.822   6.796   2.609
 2510SOL    HW310360   0.770   6.760   2.471
 2510SOL    MW410361   0.756   6.789   2.552
 2511SOL     OW10362   0.767   7.134   3.460
 2511SOL    HW210363   0.851   7.160   3.499
 2511SOL    HW310364   0.791   7.078   3.386
 2511SOL    MW410365   0.781   7.130   3.455
 2512SOL     OW10366   0.519   6.297   2.548
 2512SOL    HW210367   0.504   6.217   2.599
 2512SOL    HW310368   0.601   6.332   2.582
 2512SOL    MW410369   0.527   6.289   2.560
 2513SOL     OW10370   0.856   6.983   3.233
 2513SOL    HW210371   0.820   7.049   3.173
 2513SOL    HW310372   0.784   6.921   3.246
 2513SOL    MW410373   0.842   6.983   3.227
 2514SOL     OW10374   0.661   6.123   2.925
 2514SOL    HW210375   0.567   6.119   2.943
 2514SOL    HW310376   0.691   6.032   2.934
 2514SOL    MW410377   0.652   6.111   2.928
 2515SOL     OW10378   0.407   6.537   2.829
 2515SOL    HW210379   0.362   6.544   2.745
 2515SOL    HW310380   0.387   6.620   2.873
 2515SOL    MW410381   0.399   6.549   2.823
 2516SOL     OW10382   0.104   7.383   2.704
 2516SOL    HW210383   0.193   7.375   2.739
 2516SOL    HW310384   0.068   7.295   2.709
 2516SOL    MW410385   0.111   7.370   2.709
 2517SOL     OW10386   1.369   6.775   2.073
 2517SOL    HW210387   1.287   6.811   2.039
 2517SOL    HW310388   1.437   6.818   2.022
 2517SOL    MW410389   1.367   6.785   2.061
 2518SOL     OW10390   0.368   6.910   2.739
 2518SOL    HW210391   0.344   6.963   2.815
 2518SOL    HW310392   0.424   6.968   2.687
 2518SOL    MW410393   0.372   6.925   2.742
 2519SOL     OW10394   0.930   6.554   2.549
 2519SOL    HW210395   0.844   6.541   2.589
 2519SOL    HW310396   0.983   6.481   2.581
 2519SOL    MW410397   0.926   6.543   2.558
 2520SOL     OW10398   0.338   7.206   3.334
 2520SOL    HW210399   0.246   7.182   3.319
 2520SOL    HW310400   0.382   7.123   3.351
 2520SOL    MW410401   0.332   7.191   3.333
 2521SOL     OW10402   0.921   6.916   2.266
 2521SOL    HW210403   0.898   6.978   2.334
 2521SOL    HW310404   0.878   6.834   2.292
 2521SOL    MW410405   0.913   6.912   2.277
 2522SOL     OW10406   1.794   5.917   2.722
 2522SOL    HW210407   1.731   5.897   2.791
 2522SOL    HW310408   1.784   5.846   2.659
 2522SOL    MW410409   1.784   5.904   2.723
 2523SOL     OW10410   0.418   5.889   2.234
 2523SOL    HW210411   0.392   5.851   2.150
 2523SOL    HW310412   0.355   5.959   2.250
 2523SOL    MW410413   0.407   5.892   2.225
 2524SOL     OW10414   0.253   6.850   2.271
 2524SOL    HW210415   0.201   6.918   2.227
 2524SOL    HW310416   0.250   6.776   2.211
 2524SOL    MW410417   0.245   6.849   2.258
 2525SOL     OW10418   0.915   7.313   2.049
 2525SOL    HW210419   0.870   7.329   2.132
 2525SOL    HW310420   0.846   7.278   1.991
 2525SOL    MW410421   0.901   7.310   2.051
 2526SOL     OW10422   1.850   6.086   2.024
 2526SOL    HW210423   1.759   6.088   2.052
 2526SOL    HW310424   1.895   6.148   2.082
 2526SOL    MW410425   1.843   6.094   2.034
 2527SOL     OW10426   1.595   6.689   2.374
 2527SOL    HW210427   1.505   6.689   2.409
 2527SOL    HW310428   1.588   6.735   2.291
 2527SOL    MW410429   1.582   6.695   2.368
 2528SOL     OW10430   1.395   6.324   3.446
 2528SOL    HW210431   1.464   6.262   3.423
 2528SOL    HW310432   1.320   6.298   3.393
 2528SOL    MW410433   1.395   6.311   3.437
 2529SOL     OW10434   0.136   7.204   2.998
 2529SOL    HW210435   0.119   7.150   3.075
 2529SOL    HW310436   0.124   7.294   3.028
 2529SOL    MW410437   0.133   7.208   3.012
 2530SOL     OW10438   1.131   6.711   3.438
 2530SOL    HW210439   1.116   6.804   3.423
 2530SOL    HW310440   1.226   6.701   3.438
 2530SOL    MW410441   1.140   6.721   3.435
 2531SOL     OW10442   0.927   6.135   3.639
 2531SOL    HW210443   1.017   6.136   3.606
 2531SOL    HW310444   0.886   6.060   3.597
 2531SOL    MW410445   0.933   6.125   3.630
 2532SOL     OW10446   1.502   6.667   2.766
 2532SOL    HW210447   1.505   6.601   2.697
 2532SOL    HW310448   1.587   6.710   2.762
 2532SOL    MW410449   1.514   6.663   2.757
 2533SOL     OW10450   1.122   6.270   2.335
 2533SOL    HW210451   1.148   6.294   2.246
 2533SOL    HW310452   1.104   6.177   2.331
 2533SOL    MW410453   1.124   6.262   2.322
 2534SOL     OW10454   1.787   6.890   2.186
 2534SOL    HW210455   1.743   6.931   2.261
 2534SOL    HW310456   1.844   6.958   2.151
 2534SOL    MW410457   1.789   6.904   2.191
 2535SOL     OW10458   0.707   5.939   3.589
 2535SOL    HW210459   0.717   5.865   3.529
 2535SOL    HW310460   0.743   5.908   3.672
 2535SOL    MW410461   0.713   5.925   3.591
 2536SOL     OW10462   0.443   7.306   2.504
 2536SOL    HW210463   0.475   7.394   2.482
 2536SOL    HW310464   0.396   7.278   2.426
 2536SOL    MW410465   0.442   7.314   2.491
 2537SOL     OW10466   1.827   5.668   2.553
 2537SOL    HW210467   1.881   5.619   2.615
 2537SOL    HW310468   1.770   5.602   2.514
 2537SOL    MW410469   1.827   5.652   2.555
 2538SOL     OW10470   0.159   7.366   2.081
 2538SOL    HW210471   0.188   7.456   2.073
 2538SOL    HW310472   0.109   7.349   2.002
 2538SOL    MW410473   0.157   7.374   2.070
 2539SOL     OW10474   0.946   5.621   2.966
 2539SOL    HW210475   0.905   5.699   2.928
 2539SOL    HW310476   1.040   5.639   2.961
 2539SOL    MW410477   0.952   5.633   2.961
 2540SOL     OW10478   1.563   7.174   2.052
 2540SOL    HW210479   1.611   7.243   2.098
 2540SOL    HW310480   1.484   7.218   2.021
 2540SOL    MW410481   1.558   7.188   2.055
 2541SOL     OW10482   0.961   6.299   1.996
 2541SOL    HW210483   0.963   6.246   1.917
 2541SOL    HW310484   1.049   6.336   2.002
 2541SOL    MW410485   0.973   6.298   1.985
 2542SOL     OW10486   1.575   6.225   2.332
 2542SOL    HW210487   1.614   6.225   2.419
 2542SOL    HW310488   1.516   6.301   2.332
 2542SOL    MW410489   1.572   6.236   2.343
 2543SOL     OW10490   0.892   6.592   3.461
 2543SOL    HW210491   0.869   6.572   3.551
 2543SOL    HW310492   0.977   6.636   3.466
 2543SOL    MW410493   0.899   6.595   3.473
 2544SOL     OW10494   0.972   5.729   3.221
 2544SOL    HW210495   0.978   5.691   3.134
 2544SOL    HW310496   0.961   5.823   3.206
 2544SOL    MW410497   0.973   5.737   3.209
 2545SOL     OW10498   1.061   6.218   3.055
 2545SOL    HW210499   1.136   6.247   3.002
 2545SOL    HW310500   0.993   6.283   3.039
 2545SOL    MW410501   1.062   6.230   3.045
 2546SOL     OW10502   1.611   6.186   3.332
 2546SOL    HW210503   1.592   6.095   3.311
 2546SOL    HW310504   1.589   6.235   3.253
 2546SOL    MW410505   1.606   6.179   3.319
 2547SOL     OW10506   1.753   7.280   3.236
 2547SOL    HW210507   1.681   7.242   3.287
 2547SOL    HW310508   1.770   7.365   3.277
 2547SOL    MW410509   1.747   7.285   3.248
 2548SOL     OW10510   1.058   5.924   3.438
 2548SOL    HW210511   1.024   5.963   3.357
 2548SOL    HW310512   1.036   5.832   3.431
 2548SOL    MW410513   1.051   5.917   3.428
 2549SOL     OW10514   1.467   6.738   3.514
 2549SOL    HW210515   1.549   6.779   3.544
 2549SOL    HW310516   1.430   6.700   3.594
 2549SOL    MW410517   1.473   6.739   3.529
 2550SOL     OW10518   1.762   6.111   2.498
 2550SOL    HW210519   1.851   6.080   2.515
 2550SOL    HW310520   1.705   6.051   2.546
 2550SOL    MW410521   1.765   6.099   2.507
 2551SOL     OW10522   0.188   5.825   2.527
 2551SOL    HW210523   0.179   5.765   2.453
 2551SOL    HW310524   0.121   5.796   2.590
 2551SOL    MW410525   0.178   5.812   2.525
 2552SOL     OW10526   1.131   6.918   2.088
 2552SOL    HW210527   1.081   6.920   2.170
 2552SOL    HW310528   1.065   6.936   2.020
 2552SOL    MW410529   1.117   6.920   2.090
 2553SOL     OW10530   0.135   5.998   2.890
 2553SOL    HW210531   0.107   6.089   2.899
 2553SOL    HW310532   0.072   5.959   2.829
 2553SOL    MW410533   0.122   6.004   2.884
 2554SOL     OW10534   0.594   7.336   2.196
 2554SOL    HW210535   0.515   7.294   2.229
 2554SOL    HW310536   0.660   7.319   2.263
 2554SOL    MW410537   0.593   7.328   2.209
 2555SOL     OW10538   1.722   6.856   3.593
 2555SOL    HW210539   1.772   6.782   3.625
 2555SOL    HW310540   1.668   6.883   3.668
 2555SOL    MW410541   1.722   6.850   3.606
 2556SOL     OW10542   0.730   6.751   1.903
 2556SOL    HW210543   0.652   6.697   1.890
 2556SOL    HW310544   0.701   6.824   1.956
 2556SOL    MW410545   0.716   6.753   1.908
 2557SOL     OW10546   1.856   6.491   3.095
 2557SOL    HW210547   1.872   6.529   3.008
 2557SOL    HW310548   1.890   6.557   3.156
 2557SOL    MW410549   1.863   6.504   3.091
 2558SOL     OW10550   1.648   7.200   2.764
 2558SOL    HW210551   1.677   7.267   2.825
 2558SOL    HW310552   1.629   7.124   2.819
 2558SOL    MW410553   1.650   7.200   2.779
 2559SOL     OW10554   1.311   7.267   1.971
 2559SOL    HW210555   1.237   7.230   2.021
 2559SOL    HW310556   1.319   7.357   2.004
 2559SOL    MW410557   1.302   7.274   1.983
 2560SOL     OW10558   0.119   6.273   3.060
 2560SOL    HW210559   0.181   6.303   3.126
 2560SOL    HW310560   0.053   6.342   3.054
 2560SOL    MW410561   0.118   6.286   3.067
 2561SOL     OW10562   1.535   6.941   1.913
 2561SOL    HW210563   1.482   6.990   1.849
 2561SOL    HW310564   1.566   7.007   1.974
 2561SOL    MW410565   1.533   6.955   1.911
 2562SOL     OW10566   0.760   5.830   1.968
 2562SOL    HW210567   0.708   5.750   1.956
 2562SOL    HW310568   0.847   5.807   1.936
 2562SOL    MW410569   0.763   5.816   1.962
 2563SOL     OW10570   0.214   7.382   3.512
 2563SOL    HW210571   0.188   7.450   3.450
 2563SOL    HW310572   0.262   7.319   3.460
 2563SOL    MW410573   0.216   7.382   3.498
 2564SOL     OW10574   0.266   6.701   3.019
 2564SOL    HW210575   0.319   6.776   3.044
 2564SOL    HW310576   0.185   6.739   2.985
 2564SOL    MW410577   0.262   6.716   3.019
 2565SOL     OW10578   0.806   6.605   3.007
 2565SOL    HW210579   0.834   6.514   3.019
 2565SOL    HW310580   0.735   6.599   2.943
 2565SOL    MW410581   0.799   6.593   3.002
 2566SOL     OW10582   0.121   6.470   2.425
 2566SOL    HW210583   0.212   6.485   2.452
 2566SOL    HW310584   0.124   6.391   2.371
 2566SOL    MW410585   0.133   6.462   2.423
 2567SOL     OW10586   0.357   6.178   3.679
 2567SOL    HW210587   0.304   6.258   3.686
 2567SOL    HW310588   0.427   6.190   3.744
 2567SOL    MW410589   0.359   6.191   3.687
 2568SOL     OW10590   0.743   5.728   3.386
 2568SOL    HW210591   0.720   5.636   3.388
 2568SOL    HW310592   0.829   5.730   3.343
 2568SOL    MW410593   0.750   5.718   3.382
 2569SOL     OW10594   0.427   6.252   3.425
 2569SOL    HW210595   0.507   6.302   3.411
 2569SOL    HW310596   0.418   6.246   3.520
 2569SOL    MW410597   0.436   6.258   3.435
 2570SOL     OW10598   0.748   7.402   2.799
 2570SOL    HW210599   0.837   7.417   2.829
 2570SOL    HW310600   0.743   7.449   2.715
 2570SOL    MW410601   0.758   7.410   2.792
 2571SOL     OW10602   1.404   5.777   3.696
 2571SOL    HW210603   1.460   5.704   3.722
 2571SOL    HW310604   1.374   5.815   3.778
 2571SOL    MW410605   1.408   5.772   3.709
 2572SOL     OW10606   0.129   7.082   2.464
 2572SOL    HW210607   0.101   7.121   2.546
 2572SOL    HW310608   0.149   6.991   2.486
 2572SOL    MW410609   0.127   7.074   2.477
 2573SOL     OW10610   0.962   7.125   2.499
 2573SOL    HW210611   1.045   7.079   2.483
 2573SOL    HW310612   0.952   7.124   2.595
 2573SOL    MW410613   0.972   7.118   2.509
 2574SOL     OW10614   1.794   6.270   2.813
 2574SOL    HW210615   1.883   6.300   2.795
 2574SOL    HW310616   1.774   6.210   2.742
 2574SOL    MW410617   1.803   6.267   2.802
 2575SOL     OW10618   1.645   6.449   3.693
 2575SOL    HW210619   1.700   6.373   3.674
 2575SOL    HW310620   1.647   6.457   3.788
 2575SOL    MW410621   1.653   6.440   3.701
 2576SOL     OW10622   0.695   7.182   1.904
 2576SOL    HW210623   0.635   7.251   1.874
 2576SOL    HW310624   0.640   7.124   1.957
 2576SOL    MW410625   0.679   7.184   1.906
 2577SOL     OW10626   1.133   5.827   2.127
 2577SOL    HW210627   1.066   5.803   2.064
 2577SOL    HW310628   1.198   5.876   2.076
 2577SOL    MW410629   1.133   5.829   2.112
 2578SOL     OW10630   0.940   6.011   3.212
 2578SOL    HW210631   0.859   6.052   3.240
 2578SOL    HW310632   0.987   6.079   3.164
 2578SOL    MW410633   0.935   6.026   3.210
 2579SOL     OW10634   1.200   6.349   2.835
 2579SOL    HW210635   1.213   6.443   2.845
 2579SOL    HW310636   1.161   6.339   2.749
 2579SOL    MW410637   1.196   6.360   2.825
 2580SOL     OW10638   0.652   6.544   2.639
 2580SOL    HW210639   0.563   6.535   2.672
 2580SOL    HW310640   0.656   6.634   2.607
 2580SOL    MW410641   0.641   6.555   2.639
 2581SOL     OW10642   1.451   6.127   2.634
 2581SOL    HW210643   1.396   6.048   2.633
 2581SOL    HW310644   1.433   6.168   2.718
 2581SOL    MW410645   1.441   6.122   2.643
 2582SOL     OW10646   0.422   5.814   3.451
 2582SOL    HW210647   0.343   5.832   3.503
 2582SOL    HW310648   0.417   5.876   3.378
 2582SOL    MW410649   0.412   5.824   3.448
 2583SOL     OW10650   1.070   6.331   2.591
 2583SOL    HW210651   1.007   6.263   2.615
 2583SOL    HW310652   1.090   6.312   2.499
 2583SOL    MW410653   1.064   6.318   2.583
 2584SOL     OW10654   0.326   7.226   2.293
 2584SOL    HW210655   0.287   7.273   2.219
 2584SOL    HW310656   0.260   7.161   2.318
 2584SOL    MW410657   0.313   7.224   2.287
 2585SOL     OW10658   0.818   6.635   2.317
 2585SOL    HW210659   0.820   6.609   2.224
 2585SOL    HW310660   0.876   6.572   2.360
 2585SOL    MW410661   0.826   6.624   2.311
 2586SOL     OW10662   1.371   7.195   3.089
 2586SOL    HW210663   1.296   7.241   3.127
 2586SOL    HW310664   1.353   7.102   3.106
 2586SOL    MW410665   1.360   7.189   3.097
 2587SOL     OW10666   1.375   7.403   2.519
 2587SOL    HW210667   1.318   7.356   2.458
 2587SOL    HW310668   1.461   7.364   2.506
 2587SOL    MW410669   1.378   7.394   2.509
 2588SOL     OW10670   1.328   5.879   2.650
 2588SOL    HW210671   1.356   5.811   2.711
 2588SOL    HW310672   1.242   5.850   2.620
 2588SOL    MW410673   1.321   5.866   2.654
 2589SOL     OW10674   0.133   6.813   2.584
 2589SOL    HW210675   0.197   6.845   2.647
 2589SOL    HW310676   0.182   6.749   2.532
 2589SOL    MW410677   0.148   6.809   2.585
 2590SOL     OW10678   0.633   6.889   3.566
 2590SOL    HW210679   0.681   6.972   3.553
 2590SOL    HW310680   0.690   6.837   3.622
 2590SOL    MW410681   0.647   6.893   3.572
 2591SOL     OW10682   0.209   7.131   3.706
 2591SOL    HW210683   0.265   7.055   3.721
 2591SOL    HW310684   0.158   7.109   3.628
 2591SOL    MW410685   0.209   7.118   3.697
 2592SOL     OW10686   1.308   5.983   1.985
 2592SOL    HW210687   1.281   6.049   1.921
 2592SOL    HW310688   1.378   6.026   2.035
 2592SOL    MW410689   1.313   5.996   1.982
 2593SOL     OW10690   0.976   5.688   1.922
 2593SOL    HW210691   1.032   5.680   1.844
 2593SOL    HW310692   0.953   5.598   1.944
 2593SOL    MW410693   0.981   5.675   1.915
 2594SOL     OW10694   1.481   6.539   2.127
 2594SOL    HW210695   1.448   6.628   2.117
 2594SOL    HW310696   1.446   6.510   2.212
 2594SOL    MW410697   1.471   6.548   2.138
 2595SOL     OW10698   1.094   6.968   3.315
 2595SOL    HW210699   1.005   6.974   3.283
 2595SOL    HW310700   1.138   7.047   3.283
 2595SOL    MW410701   1.089   6.978   3.307
 2596SOL     OW10702   0.387   5.636   3.657
 2596SOL    HW210703   0.315   5.601   3.605
 2596SOL    HW310704   0.445   5.677   3.592
 2596SOL    MW410705   0.385   5.637   3.642
 2597SOL     OW10706   0.411   7.126   2.956
 2597SOL    HW210707   0.456   7.188   3.013
 2597SOL    HW310708   0.318   7.145   2.969
 2597SOL    MW410709   0.404   7.136   2.963
 2598SOL     OW10710   1.851   6.655   3.310
 2598SOL    HW210711   1.766   6.668   3.269
 2598SOL    HW310712   1.831   6.619   3.397
 2598SOL    MW410713   1.838   6.651   3.315
 2599SOL     OW10714   0.833   7.194   3.064
 2599SOL    HW210715   0.857   7.183   2.973
 2599SOL    HW310716   0.756   7.251   3.062
 2599SOL    MW410717   0.825   7.199   3.053
 2600SOL     OW10718   0.475   6.577   1.919
 2600SOL    HW210719   0.398   6.590   1.975
 2600SOL    HW310720   0.439   6.541   1.838
 2600SOL    MW410721   0.461   6.573   1.916
 2601SOL     OW10722   1.128   6.550   2.162
 2601SOL    HW210723   1.038   6.571   2.137
 2601SOL    HW310724   1.155   6.623   2.218
 2601SOL    MW410725   1.120   6.562   2.165
 2602SOL     OW10726   0.628   6.899   2.854
 2602SOL    HW210727   0.621   6.878   2.948
 2602SOL    HW310728   0.546   6.867   2.817
 2602SOL    MW410729   0.616   6.893   2.861
 2603SOL     OW10730   1.492   5.909   3.256
 2603SOL    HW210731   1.439   5.911   3.336
 2603SOL    HW310732   1.477   5.822   3.219
 2603SOL    MW410733   1.484   5.899   3.261
 2604SOL     OW10734   1.828   5.833   3.129
 2604SOL    HW210735   1.809   5.900   3.064
 2604SOL    HW310736   1.885   5.771   3.084
 2604SOL    MW410737   1.832   5.834   3.115
 2605SOL     OW10738   0.074   6.991   3.517
 2605SOL    HW210739   0.118   6.924   3.463
 2605SOL    HW310740  -0.011   6.953   3.537
 2605SOL    MW410741   0.069   6.977   3.513
 2606SOL     OW10742   0.757   5.666   2.569
 2606SOL    HW210743   0.686   5.727   2.551
 2606SOL    HW310744   0.808   5.663   2.488
 2606SOL    MW410745   0.753   5.672   2.556
 2607SOL     OW10746   0.515   6.906   2.318
 2607SOL    HW210747   0.508   6.938   2.408
 2607SOL    HW310748   0.425   6.890   2.290
 2607SOL    MW410749   0.503   6.908   2.325
 2608SOL     OW10750   1.110   7.299   3.227
 2608SOL    HW210751   1.030   7.284   3.177
 2608SOL    HW310752   1.117   7.394   3.234
 2608SOL    MW410753   1.101   7.310   3.221
 2609SOL     OW10754   1.224   7.264   2.717
 2609SOL    HW210755   1.271   7.337   2.676
 2609SOL    HW310756   1.145   7.303   2.753
 2609SOL    MW410757   1.219   7.279   2.716
 2610SOL     OW10758   1.632   7.359   2.992
 2610SOL    HW210759   1.675   7.329   3.072
 2610SOL    HW310760   1.551   7.307   2.989
 2610SOL    MW410761   1.627   7.348   3.002
 2611SOL     OW10762   0.717   6.323   3.699
 2611SOL    HW210763   0.787   6.265   3.671
 2611SOL    HW310764   0.660   6.268   3.754
 2611SOL    MW410765   0.719   6.310   3.703
 2612SOL     OW10766   1.504   6.535   3.332
 2612SOL    HW210767   1.509   6.588   3.412
 2612SOL    HW310768   1.466   6.452   3.360
 2612SOL    MW410769   1.500   6.530   3.347
 2613SOL     OW10770   1.144   5.670   3.578
 2613SOL    HW210771   1.139   5.577   3.559
 2613SOL    HW310772   1.227   5.681   3.624
 2613SOL    MW410773   1.152   5.659   3.582
 2614SOL     OW10774   0.518   6.190   2.032
 2614SOL    HW210775   0.484   6.246   2.102
 2614SOL    HW310776   0.589   6.140   2.072
 2614SOL    MW410777   0.524   6.191   2.046
 2615SOL     OW10778   1.614   6.941   2.854
 2615SOL    HW210779   1.649   6.923   2.767
 2615SOL    HW310780   1.519   6.942   2.841
 2615SOL    MW410781   1.606   6.938   2.841
 2616SOL     OW10782   1.043   6.589   3.223
 2616SOL    HW210783   1.086   6.624   3.301
 2616SOL    HW310784   1.026   6.666   3.169
 2616SOL    MW410785   1.046   6.604   3.226
 2617SOL     OW10786   1.574   6.076   2.096
 2617SOL    HW210787   1.566   6.147   2.033
 2617SOL    HW310788   1.592   6.120   2.179
 2617SOL    MW410789   1.575   6.090   2.098
 2618SOL     OW10790   0.434   5.731   2.525
 2618SOL    HW210791   0.484   5.774   2.456
 2618SOL    HW310792   0.349   5.775   2.525
 2618SOL    MW410793   0.431   5.744   2.516
 2619SOL     OW10794   0.193   6.793   3.385
 2619SOL    HW210795   0.221   6.746   3.463
 2619SOL    HW310796   0.114   6.748   3.356
 2619SOL    MW410797   0.186   6.782   3.391
 2620SOL     OW10798   0.701   6.120   3.352
 2620SOL    HW210799   0.673   6.208   3.376
 2620SOL    HW310800   0.670   6.064   3.423
 2620SOL    MW410801   0.693   6.123   3.364
 2621SOL     OW10802   1.243   6.338   2.071
 2621SOL    HW210803   1.290   6.356   1.990
 2621SOL    HW310804   1.209   6.422   2.099
 2621SOL    MW410805   1.245   6.352   2.064
 2622SOL     OW10806   0.356   6.516   2.565
 2622SOL    HW210807   0.414   6.572   2.513
 2622SOL    HW310808   0.400   6.431   2.567
 2622SOL    MW410809   0.369   6.513   2.558
 2623SOL     OW10810   1.496   5.868   2.402
 2623SOL    HW210811   1.418   5.818   2.427
 2623SOL    HW310812   1.467   5.959   2.402
 2623SOL    MW410813   1.482   5.872   2.405
 2624SOL     OW10814   1.082   5.830   2.561
 2624SOL    HW210815   1.102   5.905   2.505
 2624SOL    HW310816   1.062   5.869   2.646
 2624SOL    MW410817   1.083   5.846   2.565
 2625SOL     OW10818   0.978   7.080   1.893
 2625SOL    HW210819   1.005   7.158   1.845
 2625SOL    HW310820   0.885   7.095   1.912
 2625SOL    MW410821   0.969   7.093   1.889
 2626SOL     OW10822   1.842   6.603   3.580
 2626SOL    HW210823   1.755   6.583   3.616
 2626SOL    HW310824   1.896   6.529   3.605
 2626SOL    MW410825   1.837   6.592   3.588
 2627SOL     OW10826   0.063   7.116   2.737
 2627SOL    HW210827   0.095   7.120   2.828
 2627SOL    HW310828  -0.032   7.124   2.745
 2627SOL    MW410829   0.055   7.119   2.750
 2628SOL     OW10830   0.018   6.242   2.284
 2628SOL    HW210831  -0.042   6.214   2.354
 2628SOL    HW310832   0.092   6.182   2.290
 2628SOL    MW410833   0.020   6.231   2.293
 2629SOL     OW10834   1.586   7.454   3.718
 2629SOL    HW210835   1.631   7.378   3.683
 2629SOL    HW310836   1.624   7.467   3.805
 2629SOL    MW410837   1.596   7.447   3.724
 2630SOL     OW10838   1.186   6.973   2.444
 2630SOL    HW210839   1.209   6.924   2.522
 2630SOL    HW310840   1.267   7.015   2.416
 2630SOL    MW410841   1.199   6.973   2.451
 2631SOL     OW10842   0.444   5.981   3.173
 2631SOL    HW210843   0.477   6.062   3.213
 2631SOL    HW310844   0.417   6.007   3.085
 2631SOL    MW410845   0.443   5.995   3.167
 2632SOL     OW10846   0.398   5.948   2.909
 2632SOL    HW210847   0.428   5.862   2.880
 2632SOL    HW310848   0.303   5.941   2.912
 2632SOL    MW410849   0.390   5.937   2.907
 2633SOL     OW10850   1.227   6.157   3.600
 2633SOL    HW210851   1.279   6.092   3.553
 2633SOL    HW310852   1.185   6.208   3.530
 2633SOL    MW410853   1.228   6.154   3.583
 2634SOL     OW10854   1.326   5.952   3.461
 2634SOL    HW210855   1.233   5.936   3.448
 2634SOL    HW310856   1.352   5.890   3.529
 2634SOL    MW410857   1.316   5.942   3.468
 2635SOL     OW10858   0.541   5.726   2.800
 2635SOL    HW210859   0.551   5.635   2.826
 2635SOL    HW310860   0.497   5.722   2.715
 2635SOL    MW410861   0.537   5.714   2.792
 2636SOL     OW10862   0.635   7.341   3.346
 2636SOL    HW210863   0.552   7.326   3.391
 2636SOL    HW310864   0.694   7.274   3.381
 2636SOL    MW410865   0.633   7.331   3.356
 2637SOL     OW10866   1.692   6.048   2.971
 2637SOL    HW210867   1.625   6.081   3.031
 2637SOL    HW310868   1.735   6.126   2.937
 2637SOL    MW410869   1.690   6.063   2.975
 2638SOL     OW10870   1.870   6.768   2.941
 2638SOL    HW210871   1.863   6.708   2.866
 2638SOL    HW310872   1.796   6.828   2.930
 2638SOL    MW410873   1.860   6.768   2.930
 2639SOL     OW10874   1.252   6.630   2.859
 2639SOL    HW210875   1.266   6.602   2.950
 2639SOL    HW310876   1.338   6.661   2.831
 2639SOL    MW410877   1.265   6.631   2.868
 2640SOL     OW10878   1.335   6.125   3.138
 2640SOL    HW210879   1.356   6.126   3.045
 2640SOL    HW310880   1.380   6.047   3.171
 2640SOL    MW410881   1.342   6.115   3.130
 2641SOL     OW10882   1.828   6.256   3.680
 2641SOL    HW210883   1.865   6.201   3.749
 2641SOL    HW310884   1.853   6.213   3.598
 2641SOL    MW410885   1.835   6.244   3.679
 2642SOL     OW10886   1.375   6.554   3.731
 2642SOL    HW210887   1.441   6.502   3.685
 2642SOL    HW310888   1.395   6.541   3.824
 2642SOL    MW410889   1.386   6.545   3.738
 2643SOL     OW10890   1.326   5.640   2.080
 2643SOL    HW210891   1.400   5.684   2.123
 2643SOL    HW310892   1.250   5.694   2.102
 2643SOL    MW410893   1.326   5.652   2.088
 2644SOL     OW10894   1.386   6.415   2.358
 2644SOL    HW210895   1.301   6.385   2.328
 2644SOL    HW310896   1.378   6.422   2.453
 2644SOL    MW410897   1.374   6.413   2.367
 2645SOL     OW10898   0.462   6.878   3.089
 2645SOL    HW210899   0.474   6.905   3.180
 2645SOL    HW310900   0.443   6.959   3.042
 2645SOL    MW410901   0.461   6.893   3.094
 2646SOL     OW10902   0.746   5.858   2.912
 2646SOL    HW210903   0.719   5.860   3.003
 2646SOL    HW310904   0.676   5.810   2.867
 2646SOL    MW410905   0.734   5.854   2.919
 2647SOL     OW10906   0.600   7.350   3.074
 2647SOL    HW210907   0.652   7.427   3.051
 2647SOL    HW310908   0.609   7.342   3.169
 2647SOL    MW410909   0.609   7.357   3.085
 2648SOL     OW10910   1.502   6.935   3.306
 2648SOL    HW210911   1.487   6.864   3.369
 2648SOL    HW310912   1.548   6.893   3.234
 2648SOL    MW410913   1.508   6.919   3.306
 2649SOL     OW10914   0.576   6.666   3.423
 2649SOL    HW210915   0.613   6.671   3.335
 2649SOL    HW310916   0.615   6.739   3.470
 2649SOL    MW410917   0.586   6.676   3.418
 2650SOL     OW10918   0.756   6.709   3.235
 2650SOL    HW210919   0.815   6.655   3.288
 2650SOL    HW310920   0.771   6.681   3.145
 2650SOL    MW410921   0.766   6.698   3.231
 2651SOL     OW10922   0.759   6.081   2.084
 2651SOL    HW210923   0.832   6.130   2.047
 2651SOL    HW310924   0.775   5.990   2.058
 2651SOL    MW410925   0.771   6.076   2.077
 2652SOL     OW10926   1.567   7.198   3.407
 2652SOL    HW210927   1.609   7.183   3.492
 2652SOL    HW310928   1.558   7.111   3.369
 2652SOL    MW410929   1.571   7.186   3.414
 2653SOL     OW10930   1.227   5.677   2.998
 2653SOL    HW210931   1.282   5.686   2.920
 2653SOL    HW310932   1.282   5.711   3.069
 2653SOL    MW410933   1.241   5.682   2.997
 2654SOL     OW10934   0.234   6.590   2.182
 2654SOL    HW210935   0.171   6.606   2.111
 2654SOL    HW310936   0.181   6.553   2.253
 2654SOL    MW410937   0.219   6.587   2.182
 2655SOL     OW10938   0.590   6.944   2.041
 2655SOL    HW210939   0.605   6.920   2.133
 2655SOL    HW310940   0.498   6.922   2.025
 2655SOL    MW410941   0.580   6.937   2.051
 2656SOL     OW10942   1.129   7.175   2.193
 2656SOL    HW210943   1.137   7.093   2.144
 2656SOL    HW310944   1.048   7.214   2.160
 2656SOL    MW410945   1.119   7.170   2.183
 2657SOL     OW10946   0.388   7.333   2.762
 2657SOL    HW210947   0.392   7.244   2.797
 2657SOL    HW310948   0.414   7.324   2.671
 2657SOL    MW410949   0.391   7.321   2.754
 2658SOL     OW10950   1.005   6.811   3.005
 2658SOL    HW210951   0.937   6.745   3.021
 2658SOL    HW310952   1.023   6.805   2.912
 2658SOL    MW410953   0.998   6.802   2.996
 2659SOL     OW10954   0.094   7.086   3.256
 2659SOL    HW210955   0.084   7.044   3.342
 2659SOL    HW310956   0.015   7.139   3.246
 2659SOL    MW410957   0.083   7.087   3.267
 2660SOL     OW10958   0.998   5.950   2.826
 2660SOL    HW210959   0.928   5.902   2.871
 2660SOL    HW310960   1.030   6.013   2.890
 2660SOL    MW410961   0.993   5.952   2.840
 2661SOL     OW10962   0.649   6.386   3.446
 2661SOL    HW210963   0.642   6.481   3.434
 2661SOL    HW310964   0.658   6.375   3.541
 2661SOL    MW410965   0.650   6.398   3.456
 2662SOL     OW10966   0.370   6.901   3.704
 2662SOL    HW210967   0.442   6.903   3.641
 2662SOL    HW310968   0.340   6.810   3.703
 2662SOL    MW410969   0.375   6.890   3.696
 2663SOL     OW10970   1.454   5.664   3.171
 2663SOL    HW210971   1.525   5.610   3.135
 2663SOL    HW310972   1.453   5.643   3.264
 2663SOL    MW410973   1.463   5.655   3.179
 2664SOL     OW10974   1.654   7.194   3.655
 2664SOL    HW210975   1.627   7.191   3.746
 2664SOL    HW310976   1.750   7.198   3.658
 2664SOL    MW410977   1.664   7.194   3.667
 2665SOL     OW10978   0.465   6.056   2.639
 2665SOL    HW210979   0.536   6.004   2.602
 2665SOL    HW310980   0.451   6.021   2.726
 2665SOL    MW410981   0.473   6.045   2.646
 2666SOL     OW10982   0.020   7.391   3.711
 2666SOL    HW210983   0.070   7.369   3.633
 2666SOL    HW310984   0.028   7.486   3.719
 2666SOL    MW410985   0.028   7.400   3.702
 2667SOL     OW10986   0.781   7.149   2.715
 2667SOL    HW210987   0.709   7.086   2.728
 2667SOL    HW310988   0.742   7.234   2.733
 2667SOL    MW410989   0.765   7.152   2.718
 2668SOL     OW10990   1.101   5.997   2.363
 2668SOL    HW210991   1.123   5.934   2.295
 2668SOL    HW310992   1.006   5.989   2.374
 2668SOL    MW410993   1.091   5.988   2.355
 2669SOL     OW10994   0.186   5.687   2.295
 2669SOL    HW210995   0.257   5.708   2.234
 2669SOL    HW310996   0.140   5.615   2.253
 2669SOL    MW410997   0.190   5.681   2.281
 2670SOL     OW10998   0.017   6.154   3.438
 2670SOL    HW210999   0.081   6.220   3.413
 2670SOL    HW311000  -0.064   6.181   3.395
 2670SOL    MW411001   0.015   6.166   3.430
 2671SOL     OW11002   1.755   7.061   2.395
 2671SOL    HW211003   1.725   6.994   2.456
 2671SOL    HW311004   1.849   7.067   2.409
 2671SOL    MW411005   1.763   7.053   2.405
 2672SOL     OW11006   1.311   6.738   2.325
 2672SOL    HW211007   1.283   6.824   2.358
 2672SOL    HW311008   1.339   6.754   2.235
 2672SOL    MW411009   1.311   6.752   2.317
 2673SOL     OW11010   0.973   5.658   2.378
 2673SOL    HW211011   1.010   5.717   2.443
 2673SOL    HW311012   0.950   5.714   2.304
 2673SOL    MW411013   0.974   5.673   2.377
 2674SOL     OW11014   1.826   6.540   2.800
 2674SOL    HW211015   1.817   6.572   2.711
 2674SOL    HW311016   1.779   6.456   2.800
 2674SOL    MW411017   1.819   6.533   2.790
 2675SOL     OW11018   0.202   6.380   3.379
 2675SOL    HW211019   0.223   6.449   3.317
 2675SOL    HW311020   0.282   6.327   3.384
 2675SOL    MW411021   0.215   6.381   3.373
 2676SOL     OW11022   1.738   6.471   2.501
 2676SOL    HW211023   1.832   6.460   2.489
 2676SOL    HW311024   1.714   6.543   2.442
 2676SOL    MW411025   1.748   6.479   2.492
 2677SOL     OW11026   0.187   6.395   3.646
 2677SOL    HW211027   0.113   6.339   3.672
 2677SOL    HW311028   0.182   6.398   3.551
 2677SOL    MW411029   0.176   6.388   3.636
 2678SOL     OW11030   0.353   5.682   3.096
 2678SOL    HW211031   0.396   5.766   3.116
 2678SOL    HW311032   0.426   5.620   3.089
 2678SOL    MW411033   0.368   5.685   3.097
 2679SOL     OW11034   0.394   6.349   2.274
 2679SOL    HW211035   0.394   6.444   2.259
 2679SOL    HW311036   0.471   6.333   2.328
 2679SOL    MW411037   0.404   6.360   2.279
 2680SOL     OW11038   1.170   6.208   3.338
 2680SOL    HW211039   1.206   6.181   3.254
 2680SOL    HW311040   1.083   6.242   3.317
 2680SOL    MW411041   1.164   6.209   3.325
 2681SOL     OW11042   0.153   6.080   2.563
 2681SOL    HW211043   0.215   6.087   2.636
 2681SOL    HW311044   0.153   5.987   2.540
 2681SOL    MW411045   0.161   6.069   2.570
 2682SOL     OW11046   1.700   7.420   2.095
 2682SOL    HW211047   1.767   7.453   2.035
 2682SOL    HW311048   1.657   7.499   2.129
 2682SOL    MW411049   1.702   7.435   2.091
 2683SOL     OW11050   0.835   6.341   3.047
 2683SOL    HW211051   0.793   6.259   3.023
 2683SOL    HW311052   0.836   6.340   3.143
 2683SOL    MW411053   0.828   6.330   3.056
 2684SOL     OW11054   1.506   7.474   3.446
 2684SOL    HW211055   1.509   7.380   3.429
 2684SOL    HW311056   1.529   7.482   3.538
 2684SOL    MW411057   1.509   7.462   3.456
 2685SOL     OW11058   0.639   5.811   3.152
 2685SOL    HW211059   0.570   5.874   3.173
 2685SOL    HW311060   0.666   5.775   3.237
 2685SOL    MW411061   0.633   5.814   3.165
 2686SOL     OW11062   0.022   6.652   2.021
 2686SOL    HW211063  -0.009   6.717   2.084
 2686SOL    HW311064  -0.029   6.574   2.040
 2686SOL    MW411065   0.012   6.649   2.031
 2687SOL     OW11066   1.434   5.664   2.769
 2687SOL    HW211067   1.522   5.673   2.806
 2687SOL    HW311068   1.444   5.605   2.695
 2687SOL    MW411069   1.448   5.658   2.763
 2688SOL     OW11070   1.466   6.403   2.613
 2688SOL    HW211071   1.546   6.418   2.562
 2688SOL    HW311072   1.459   6.308   2.619
 2688SOL    MW411073   1.475   6.392   2.608
 2689SOL     OW11074   0.606   7.452   1.963
 2689SOL    HW211075   0.511   7.452   1.955
 2689SOL    HW311076   0.622   7.398   2.041
 2689SOL    MW411077   0.596   7.446   1.972
 2690SOL     OW11078   0.916   6.329   3.310
 2690SOL    HW211079   0.985   6.396   3.307
 2690SOL    HW311080   0.849   6.367   3.366
 2690SOL    MW411081   0.917   6.342   3.317
 2691SOL     OW11082   0.334   6.629   3.558
 2691SOL    HW211083   0.288   6.545   3.560
 2691SOL    HW311084   0.391   6.623   3.482
 2691SOL    MW411085   0.336   6.617   3.550
 2692SOL     OW11086   1.451   6.272   1.879
 2692SOL    HW211087   1.379   6.248   1.821
 2692SOL    HW311088   1.517   6.309   1.821
 2692SOL    MW411089   1.450   6.274   1.864
 2693SOL     OW11090   0.585   7.004   2.559
 2693SOL    HW211091   0.650   6.937   2.580
 2693SOL    HW311092   0.637   7.081   2.536
 2693SOL    MW411093   0.600   7.006   2.558
 2694SOL     OW11094   0.846   6.169   2.689
 2694SOL    HW211095   0.786   6.187   2.761
 2694SOL    HW311096   0.880   6.081   2.708
 2694SOL    MW411097   0.842   6.159   2.702
 2695SOL     OW11098   1.787   5.668   3.358
 2695SOL    HW211099   1.708   5.714   3.386
 2695SOL    HW311100   1.822   5.722   3.287
 2695SOL    MW411101   1.781   5.681   3.352
 2696SOL     OW11102   1.071   6.752   2.708
 2696SOL    HW211103   1.163   6.733   2.726
 2696SOL    HW311104   1.044   6.682   2.648
 2696SOL    MW411105   1.079   6.740   2.702
 2697SOL     OW11106   0.864   6.572   2.063
 2697SOL    HW211107   0.850   6.484   2.028
 2697SOL    HW311108   0.815   6.629   2.004
 2697SOL    MW411109   0.856   6.567   2.051
 2698SOL     OW11110   1.345   6.990   2.804
 2698SOL    HW211111   1.318   7.074   2.769
 2698SOL    HW311112   1.305   6.985   2.891
 2698SOL    MW411113   1.338   6.999   2.810
 2699SOL     OW11114   1.264   6.938   3.072
 2699SOL    HW211115   1.275   6.905   3.161
 2699SOL    HW311116   1.183   6.897   3.041
 2699SOL    MW411117   1.254   6.930   3.078
 2700SOL     OW11118   0.277   6.296   2.842
 2700SOL    HW211119   0.227   6.295   2.923
 2700SOL    HW311120   0.297   6.388   2.826
 2700SOL    MW411121   0.273   6.308   2.850
 2701SOL     OW11122   1.344   7.060   3.604
 2701SOL    HW211123   1.344   7.154   3.620
 2701SOL    HW311124   1.389   7.050   3.520
 2701SOL    MW411125   1.350   7.070   3.595
 2702SOL     OW11126   1.583   5.778   2.165
 2702SOL    HW211127   1.576   5.782   2.260
 2702SOL    HW311128   1.595   5.869   2.138
 2702SOL    MW411129   1.584   5.791   2.173
 2703SOL     OW11130   0.872   6.341   2.279
 2703SOL    HW211131   0.852   6.327   2.186
 2703SOL    HW311132   0.965   6.320   2.286
 2703SOL    MW411133   0.882   6.336   2.268
 2704SOL     OW11134   0.199   5.964   3.583
 2704SOL    HW211135   0.156   6.023   3.520
 2704SOL    HW311136   0.267   6.019   3.623
 2704SOL    MW411137   0.203   5.979   3.580
 2705SOL     OW11138   1.311   6.584   3.128
 2705SOL    HW211139   1.374   6.581   3.201
 2705SOL    HW311140   1.227   6.602   3.170
 2705SOL    MW411141   1.307   6.586   3.143
 2706SOL     OW11142   0.855   7.299   2.317
 2706SOL    HW211143   0.913   7.370   2.344
 2706SOL    HW311144   0.878   7.227   2.375
 2706SOL    MW411145   0.866   7.299   2.328
 2707SOL     OW11146   1.650   5.761   2.907
 2707SOL    HW211147   1.695   5.679   2.926
 2707SOL    HW311148   1.670   5.817   2.983
 2707SOL    MW411149   1.660   5.757   2.919
 2708SOL     OW11150   0.098   5.604   3.006
 2708SOL    HW211151   0.089   5.605   2.911
 2708SOL    HW311152   0.192   5.616   3.021
 2708SOL    MW411153   0.110   5.607   2.997
 2709SOL     OW11154   1.735   6.797   2.626
 2709SOL    HW211155   1.714   6.743   2.549
 2709SOL    HW311156   1.831   6.795   2.630
 2709SOL    MW411157   1.744   6.790   2.615
 2710SOL     OW11158   0.427   6.942   3.369
 2710SOL    HW211159   0.348   6.892   3.392
 2710SOL    HW311160   0.497   6.901   3.419
 2710SOL    MW411161   0.425   6.930   3.379
 2711SOL     OW11162   0.311   5.731   2.052
 2711SOL    HW211163   0.240   5.786   2.020
 2711SOL    HW311164   0.353   5.697   1.973
 2711SOL    MW411165   0.307   5.733   2.038
 2712SOL     OW11166   1.435   6.228   2.888
 2712SOL    HW211167   1.358   6.274   2.854
 2712SOL    HW311168   1.492   6.297   2.922
 2712SOL    MW411169   1.432   6.243   2.888
 2713SOL     OW11170   0.067   5.830   1.901
 2713SOL    HW211171   0.034   5.909   1.945
 2713SOL    HW311172   0.122   5.863   1.830
 2713SOL    MW411173   0.070   5.844   1.898
 2714SOL     OW11174   0.101   7.087   2.090
 2714SOL    HW211175   0.118   7.171   2.132
 2714SOL    HW311176   0.136   7.096   2.002
 2714SOL    MW411177   0.106   7.100   2.084
 2715SOL     OW11178   1.373   7.176   2.307
 2715SOL    HW211179   1.436   7.166   2.236
 2715SOL    HW311180   1.290   7.196   2.262
 2715SOL    MW411181   1.370   7.177   2.292
 2716SOL     OW11182   1.736   6.444   3.993
 2716SOL    HW211183   1.777   6.386   4.058
 2716SOL    HW311184   1.643   6.436   4.010
 2716SOL    MW411185   1.730   6.436   4.003
 2717SOL     OW11186   1.602   6.376   4.988
 2717SOL    HW211187   1.557   6.443   5.039
 2717SOL    HW311188   1.690   6.412   4.974
 2717SOL    MW411189   1.608   6.389   4.992
 2718SOL     OW11190   0.530   6.627   4.222
 2718SOL    HW211191   0.620   6.602   4.206
 2718SOL    HW311192   0.526   6.720   4.199
 2718SOL    MW411193   0.542   6.636   4.217
 2719SOL     OW11194   1.646   7.330   4.364
 2719SOL    HW211195   1.658   7.276   4.442
 2719SOL    HW311196   1.683   7.278   4.293
 2719SOL    MW411197   1.652   7.315   4.365
 2720SOL     OW11198   1.025   7.215   5.365
 2720SOL    HW211199   1.066   7.251   5.286
 2720SOL    HW311200   1.060   7.126   5.372
 2720SOL    MW411201   1.036   7.208   5.356
 2721SOL     OW11202   1.582   6.770   4.969
 2721SOL    HW211203   1.503   6.735   4.927
 2721SOL    HW311204   1.609   6.842   4.913
 2721SOL    MW411205   1.575   6.775   4.956
 2722SOL     OW11206   0.814   6.083   4.235
 2722SOL    HW211207   0.789   6.171   4.263
 2722SOL    HW311208   0.811   6.086   4.139
 2722SOL    MW411209   0.810   6.095   4.227
 2723SOL     OW11210   0.256   6.111   4.163
 2723SOL    HW211211   0.288   6.199   4.145
 2723SOL    HW311212   0.244   6.109   4.258
 2723SOL    MW411213   0.259   6.123   4.175
 2724SOL     OW11214   0.334   6.524   5.064
 2724SOL    HW211215   0.397   6.471   5.015
 2724SOL    HW311216   0.315   6.598   5.007
 2724SOL    MW411217   0.340   6.526   5.051
 2725SOL     OW11218   0.655   5.866   4.250
 2725SOL    HW211219   0.713   5.942   4.252
 2725SOL    HW311220   0.590   5.887   4.183
 2725SOL    MW411221   0.654   5.878   4.241
 2726SOL     OW11222   0.742   6.793   4.425
 2726SOL    HW211223   0.822   6.796   4.477
 2726SOL    HW311224   0.770   6.760   4.339
 2726SOL    MW411225   0.756   6.789   4.420
 2727SOL     OW11226   0.767   7.134   5.328
 2727SOL    HW211227   0.851   7.160   5.367
 2727SOL    HW311228   0.791   7.078   5.254
 2727SOL    MW411229   0.781   7.130   5.323
 2728SOL     OW11230   0.519   6.297   4.416
 2728SOL    HW211231   0.504   6.217   4.467
 2728SOL    HW311232   0.601   6.332   4.450
 2728SOL    MW411233   0.527   6.289   4.428
 2729SOL     OW11234   0.856   6.983   5.101
 2729SOL    HW211235   0.820   7.049   5.041
 2729SOL    HW311236   0.784   6.921   5.114
 2729SOL    MW411237   0.842   6.983   5.095
 2730SOL     OW11238   0.661   6.123   4.793
 2730SOL    HW211239   0.567   6.119   4.811
 2730SOL    HW311240   0.691   6.032   4.802
 2730SOL    MW411241   0.652   6.111   4.796
 2731SOL     OW11242   0.407   6.537   4.697
 2731SOL    HW211243   0.362   6.544   4.613
 2731SOL    HW311244   0.387   6.620   4.741
 2731SOL    MW411245   0.399   6.549   4.691
 2732SOL     OW11246   0.104   7.383   4.572
 2732SOL    HW211247   0.193   7.375   4.607
 2732SOL    HW311248   0.068   7.295   4.577
 2732SOL    MW411249   0.111   7.370   4.577
 2733SOL     OW11250   1.369   6.775   3.941
 2733SOL    HW211251   1.287   6.811   3.907
 2733SOL    HW311252   1.437   6.818   3.890
 2733SOL    MW411253   1.367   6.785   3.929
 2734SOL     OW11254   0.368   6.910   4.607
 2734SOL    HW211255   0.344   6.963   4.683
 2734SOL    HW311256   0.424   6.968   4.555
 2734SOL    MW411257   0.372   6.925   4.610
 2735SOL     OW11258   0.930   6.554   4.417
 2735SOL    HW211259   0.844   6.541   4.457
 2735SOL    HW311260   0.983   6.481   4.449
 2735SOL    MW411261   0.926   6.543   4.426
 2736SOL     OW11262   0.338   7.206   5.202
 2736SOL    HW211263   0.246   7.182   5.187
 2736SOL    HW311264   0.382   7.123   5.219
 2736SOL    MW411265   0.332   7.191   5.201
 2737SOL     OW11266   0.921   6.916   4.134
 2737SOL    HW211267   0.898   6.978   4.202
 2737SOL    HW311268   0.878   6.834   4.160
 2737SOL    MW411269   0.913   6.912   4.145
 2738SOL     OW11270   1.794   5.917   4.590
 2738SOL    HW211271   1.731   5.897   4.659
 2738SOL    HW311272   1.784   5.846   4.527
 2738SOL    MW411273   1.784   5.904   4.591
 2739SOL     OW11274   0.418   5.889   4.102
 2739SOL    HW211275   0.392   5.851   4.018
 2739SOL    HW311276   0.355   5.959   4.118
 2739SOL    MW411277   0.407   5.892   4.093
 2740SOL     OW11278   0.253   6.850   4.139
 2740SOL    HW211279   0.201   6.918   4.095
 2740SOL    HW311280   0.250   6.776   4.079
 2740SOL    MW411281   0.245   6.849   4.126
 2741SOL     OW11282   0.915   7.313   3.917
 2741SOL    HW211283   0.870   7.329   4.000
 2741SOL    HW311284   0.846   7.278   3.859
 2741SOL    MW411285   0.901   7.310   3.919
 2742SOL     OW11286   1.850   6.086   3.892
 2742SOL    HW211287   1.759   6.088   3.920
 2742SOL    HW311288   1.895   6.148   3.950
 2742SOL    MW411289   1.843   6.094   3.902
 2743SOL     OW11290   1.595   6.689   4.242
 2743SOL    HW211291   1.505   6.689   4.277
 2743SOL    HW311292   1.588   6.735   4.159
 2743SOL    MW411293   1.582   6.695   4.236
 2744SOL     OW11294   1.395   6.324   5.314
 2744SOL    HW211295   1.464   6.262   5.291
 2744SOL    HW311296   1.320   6.298   5.261
 2744SOL    MW411297   1.395   6.311   5.305
 2745SOL     OW11298   0.136   7.204   4.866
 2745SOL    HW211299   0.119   7.150   4.943
 2745SOL    HW311300   0.124   7.294   4.896
 2745SOL    MW411301   0.133   7.208   4.880
 2746SOL     OW11302   1.131   6.711   5.306
 2746SOL    HW211303   1.116   6.804   5.291
 2746SOL    HW311304   1.226   6.701   5.306
 2746SOL    MW411305   1.140   6.721   5.303
 2747SOL     OW11306   0.927   6.135   5.507
 2747SOL    HW211307   1.017   6.136   5.474
 2747SOL    HW311308   0.886   6.060   5.465
 2747SOL    MW411309   0.933   6.125   5.498
 2748SOL     OW11310   1.502   6.667   4.634
 2748SOL    HW211311   1.505   6.601   4.565
 2748SOL    HW311312   1.587   6.710   4.630
 2748SOL    MW411313   1.514   6.663   4.625
 2749SOL     OW11314   1.122   6.270   4.203
 2749SOL    HW211315   1.148   6.294   4.114
 2749SOL    HW311316   1.104   6.177   4.199
 2749SOL    MW411317   1.124   6.262   4.190
 2750SOL     OW11318   1.787   6.890   4.054
 2750SOL    HW211319   1.743   6.931   4.129
 2750SOL    HW311320   1.844   6.958   4.019
 2750SOL    MW411321   1.789   6.904   4.059
 2751SOL     OW11322   0.707   5.939   5.457
 2751SOL    HW211323   0.717   5.865   5.397
 2751SOL    HW311324   0.743   5.908   5.540
 2751SOL    MW411325   0.713   5.925   5.459
 2752SOL     OW11326   0.443   7.306   4.372
 2752SOL    HW211327   0.475   7.394   4.350
 2752SOL    HW311328   0.396   7.278   4.294
 2752SOL    MW411329   0.442   7.314   4.359
 2753SOL     OW11330   1.827   5.668   4.421
 2753SOL    HW211331   1.881   5.619   4.483
 2753SOL    HW311332   1.770   5.602   4.382
 2753SOL    MW411333   1.827   5.652   4.423
 2754SOL     OW11334   0.159   7.366   3.949
 2754SOL    HW211335   0.188   7.456   3.941
 2754SOL    HW311336   0.109   7.349   3.870
 2754SOL    MW411337   0.157   7.374   3.938
 2755SOL     OW11338   0.946   5.621   4.834
 2755SOL    HW211339   0.905   5.699   4.796
 2755SOL    HW311340   1.040   5.639   4.829
 2755SOL    MW411341   0.952   5.633   4.829
 2756SOL     OW11342   1.563   7.174   3.920
 2756SOL    HW211343   1.611   7.243   3.966
 2756SOL    HW311344   1.484   7.218   3.889
 2756SOL    MW411345   1.558   7.188   3.923
 2757SOL     OW11346   0.961   6.299   3.864
 2757SOL    HW211347   0.963   6.246   3.785
 2757SOL    HW311348   1.049   6.336   3.870
 2757SOL    MW411349   0.973   6.298   3.853
 2758SOL     OW11350   1.575   6.225   4.200
 2758SOL    HW211351   1.614   6.225   4.287
 2758SOL    HW311352   1.516   6.301   4.200
 2758SOL    MW411353   1.572   6.236   4.211
 2759SOL     OW11354   0.892   6.592   5.329
 2759SOL    HW211355   0.869   6.572   5.419
 2759SOL    HW311356   0.977   6.636   5.334
 2759SOL    MW411357   0.899   6.595   5.341
 2760SOL     OW11358   0.972   5.729   5.089
 2760SOL    HW211359   0.978   5.691   5.002
 2760SOL    HW311360   0.961   5.823   5.074
 2760SOL    MW411361   0.973   5.737   5.077
 2761SOL     OW11362   1.061   6.218   4.923
 2761SOL    HW211363   1.136   6.247   4.870
 2761SOL    HW311364   0.993   6.283   4.907
 2761SOL    MW411365   1.062   6.230   4.913
 2762SOL     OW11366   1.611   6.186   5.200
 2762SOL    HW211367   1.592   6.095   5.179
 2762SOL    HW311368   1.589   6.235   5.121
 2762SOL    MW411369   1.606   6.179   5.187
 2763SOL     OW11370   1.753   7.280   5.104
 2763SOL    HW211371   1.681   7.242   5.155
 2763SOL    HW311372   1.770   7.365   5.145
 2763SOL    MW411373   1.747   7.285   5.116
 2764SOL     OW11374   1.058   5.924   5.306
 2764SOL    HW211375   1.024   5.963   5.225
 2764SOL    HW311376   1.036   5.832   5.299
 2764SOL    MW411377   1.051   5.917   5.296
 2765SOL     OW11378   1.467   6.738   5.382
 2765SOL    HW211379   1.549   6.779   5.412
 2765SOL    HW311380   1.430   6.700   5.462
 2765SOL    MW411381   1.473   6.739   5.397
 2766SOL     OW11382   1.762   6.111   4.366
 2766SOL    HW211383   1.851   6.080   4.383
 2766SOL    HW311384   1.705   6.051   4.414
 2766SOL    MW411385   1.765   6.099   4.375
 2767SOL     OW11386   0.188   5.825   4.395
 2767SOL    HW211387   0.179   5.765   4.321
 2767SOL    HW311388   0.121   5.796   4.458
 2767SOL    MW411389   0.178   5.812   4.393
 2768SOL     OW11390   1.131   6.918   3.956
 2768SOL    HW211391   1.081   6.920   4.038
 2768SOL    HW311392   1.065   6.936   3.888
 2768SOL    MW411393   1.117   6.920   3.958
 2769SOL     OW11394   0.135   5.998   4.758
 2769SOL    HW211395   0.107   6.089   4.767
 2769SOL    HW311396   0.072   5.959   4.697
 2769SOL    MW411397   0.122   6.004   4.752
 2770SOL     OW11398   0.594   7.336   4.064
 2770SOL    HW211399   0.515   7.294   4.097
 2770SOL    HW311400   0.660   7.319   4.131
 2770SOL    MW411401   0.593   7.328   4.077
 2771SOL     OW11402   1.722   6.856   5.461
 2771SOL    HW211403   1.772   6.782   5.493
 2771SOL    HW311404   1.668   6.883   5.536
 2771SOL    MW411405   1.722   6.850   5.474
 2772SOL     OW11406   0.730   6.751   3.771
 2772SOL    HW211407   0.652   6.697   3.758
 2772SOL    HW311408   0.701   6.824   3.824
 2772SOL    MW411409   0.716   6.753   3.776
 2773SOL     OW11410   1.856   6.491   4.963
 2773SOL    HW211411   1.872   6.529   4.876
 2773SOL    HW311412   1.890   6.557   5.024
 2773SOL    MW411413   1.863   6.504   4.959
 2774SOL     OW11414   1.648   7.200   4.632
 2774SOL    HW211415   1.677   7.267   4.693
 2774SOL    HW311416   1.629   7.124   4.687
 2774SOL    MW411417   1.650   7.200   4.647
 2775SOL     OW11418   1.311   7.267   3.839
 2775SOL    HW211419   1.237   7.230   3.889
 2775SOL    HW311420   1.319   7.357   3.872
 2775SOL    MW411421   1.302   7.274   3.851
 2776SOL     OW11422   0.119   6.273   4.928
 2776SOL    HW211423   0.181   6.303   4.994
 2776SOL    HW311424   0.053   6.342   4.922
 2776SOL    MW411425   0.118   6.286   4.935
 2777SOL     OW11426   1.535   6.941   3.781
 2777SOL    HW211427   1.482   6.990   3.717
 2777SOL    HW311428   1.566   7.007   3.842
 2777SOL    MW411429   1.533   6.955   3.779
 2778SOL     OW11430   0.760   5.830   3.836
 2778SOL    HW211431   0.708   5.750   3.824
 2778SOL    HW311432   0.847   5.807   3.804
 2778SOL    MW411433   0.763   5.816   3.830
 2779SOL     OW11434   0.214   7.382   5.380
 2779SOL    HW211435   0.188   7.450   5.318
 2779SOL    HW311436   0.262   7.319   5.328
 2779SOL    MW411437   0.216   7.382   5.366
 2780SOL     OW11438   0.266   6.701   4.887
 2780SOL    HW211439   0.319   6.776   4.912
 2780SOL    HW311440   0.185   6.739   4.853
 2780SOL    MW411441   0.262   6.716   4.887
 2781SOL     OW11442   0.806   6.605   4.875
 2781SOL    HW211443   0.834   6.514   4.887
 2781SOL    HW311444   0.735   6.599   4.811
 2781SOL    MW411445   0.799   6.593   4.870
 2782SOL     OW11446   0.121   6.470   4.293
 2782SOL    HW211447   0.212   6.485   4.320
 2782SOL    HW311448   0.124   6.391   4.239
 2782SOL    MW411449   0.133   6.462   4.291
 2783SOL     OW11450   0.357   6.178   5.547
 2783SOL    HW211451   0.304   6.258   5.554
 2783SOL    HW311452   0.427   6.190   5.612
 2783SOL    MW411453   0.359   6.191   5.555
 2784SOL     OW11454   0.743   5.728   5.254
 2784SOL    HW211455   0.720   5.636   5.256
 2784SOL    HW311456   0.829   5.730   5.211
 2784SOL    MW411457   0.750   5.718   5.250
 2785SOL     OW11458   0.427   6.252   5.293
 2785SOL    HW211459   0.507   6.302   5.279
 2785SOL    HW311460   0.418   6.246   5.388
 2785SOL    MW411461   0.436   6.258   5.303
 2786SOL     OW11462   0.748   7.402   4.667
 2786SOL    HW211463   0.837   7.417   4.697
 2786SOL    HW311464   0.743   7.449   4.583
 2786SOL    MW411465   0.758   7.410   4.660
 2787SOL     OW11466   1.404   5.777   5.564
 2787SOL    HW211467   1.460   5.704   5.590
 2787SOL    HW311468   1.374   5.815   5.646
 2787SOL    MW411469   1.408   5.772   5.577
 2788SOL     OW11470   0.129   7.082   4.332
 2788SOL    HW211471   0.101   7.121   4.414
 2788SOL    HW311472   0.149   6.991   4.354
 2788SOL    MW411473   0.127   7.074   4.345
 2789SOL     OW11474   0.962   7.125   4.367
 2789SOL    HW211475   1.045   7.079   4.351
 2789SOL    HW311476   0.952   7.124   4.463
 2789SOL    MW411477   0.972   7.118   4.377
 2790SOL     OW11478   1.794   6.270   4.681
 2790SOL    HW211479   1.883   6.300   4.663
 2790SOL    HW311480   1.774   6.210   4.610
 2790SOL    MW411481   1.803   6.267   4.670
 2791SOL     OW11482   1.645   6.449   5.561
 2791SOL    HW211483   1.700   6.373   5.542
 2791SOL    HW311484   1.647   6.457   5.656
 2791SOL    MW411485   1.653   6.440   5.569
 2792SOL     OW11486   0.695   7.182   3.772
 2792SOL    HW211487   0.635   7.251   3.742
 2792SOL    HW311488   0.640   7.124   3.825
 2792SOL    MW411489   0.679   7.184   3.774
 2793SOL     OW11490   1.133   5.827   3.995
 2793SOL    HW211491   1.066   5.803   3.932
 2793SOL    HW311492   1.198   5.876   3.944
 2793SOL    MW411493   1.133   5.829   3.980
 2794SOL     OW11494   0.940   6.011   5.080
 2794SOL    HW211495   0.859   6.052   5.108
 2794SOL    HW311496   0.987   6.079   5.032
 2794SOL    MW411497   0.935   6.026   5.078
 2795SOL     OW11498   1.200   6.349   4.703
 2795SOL    HW211499   1.213   6.443   4.713
 2795SOL    HW311500   1.161   6.339   4.617
 2795SOL    MW411501   1.196   6.360   4.693
 2796SOL     OW11502   0.652   6.544   4.507
 2796SOL    HW211503   0.563   6.535   4.540
 2796SOL    HW311504   0.656   6.634   4.475
 2796SOL    MW411505   0.641   6.555   4.507
 2797SOL     OW11506   1.451   6.127   4.502
 2797SOL    HW211507   1.396   6.048   4.501
 2797SOL    HW311508   1.433   6.168   4.586
 2797SOL    MW411509   1.441   6.122   4.511
 2798SOL     OW11510   0.422   5.814   5.319
 2798SOL    HW211511   0.343   5.832   5.371
 2798SOL    HW311512   0.417   5.876   5.246
 2798SOL    MW411513   0.412   5.824   5.316
 2799SOL     OW11514   1.070   6.331   4.459
 2799SOL    HW211515   1.007   6.263   4.483
 2799SOL    HW311516   1.090   6.312   4.367
 2799SOL    MW411517   1.064   6.318   4.451
 2800SOL     OW11518   0.326   7.226   4.161
 2800SOL    HW211519   0.287   7.273   4.087
 2800SOL    HW311520   0.260   7.161   4.186
 2800SOL    MW411521   0.313   7.224   4.155
 2801SOL     OW11522   0.818   6.635   4.185
 2801SOL    HW211523   0.820   6.609   4.092
 2801SOL    HW311524   0.876   6.572   4.228
 2801SOL    MW411525   0.826   6.624   4.179
 2802SOL     OW11526   1.371   7.195   4.957
 2802SOL    HW211527   1.296   7.241   4.995
 2802SOL    HW311528   1.353   7.102   4.974
 2802SOL    MW411529   1.360   7.189   4.965
 2803SOL     OW11530   1.375   7.403   4.387
 2803SOL    HW211531   1.318   7.356   4.326
 2803SOL    HW311532   1.461   7.364   4.374
 2803SOL    MW411533   1.378   7.394   4.377
 2804SOL     OW11534   1.328   5.879   4.518
 2804SOL    HW211535   1.356   5.811   4.579
 2804SOL    HW311536   1.242   5.850   4.488
 2804SOL    MW411537   1.321   5.866   4.522
 2805SOL     OW11538   0.133   6.813   4.452
 2805SOL    HW211539   0.197   6.845   4.515
 2805SOL    HW311540   0.182   6.749   4.400
 2805SOL    MW411541   0.148   6.809   4.453
 2806SOL     OW11542   0.633   6.889   5.434
 2806SOL    HW211543   0.681   6.972   5.421
 2806SOL    HW311544   0.690   6.837   5.490
 2806SOL    MW411545   0.647   6.893   5.440
 2807SOL     OW11546   0.209   7.131   5.574
 2807SOL    HW211547   0.265   7.055   5.589
 2807SOL    HW311548   0.158   7.109   5.496
 2807SOL    MW411549   0.209   7.118   5.565
 2808SOL     OW11550   1.308   5.983   3.853
 2808SOL    HW211551   1.281   6.049   3.789
 2808SOL    HW311552   1.378   6.026   3.903
 2808SOL    MW411553   1.313   5.996   3.850
 2809SOL     OW11554   0.976   5.688   3.790
 2809SOL    HW211555   1.032   5.680   3.712
 2809SOL    HW311556   0.953   5.598   3.812
 2809SOL    MW411557   0.981   5.675   3.783
 2810SOL     OW11558   1.481   6.539   3.995
 2810SOL    HW211559   1.448   6.628   3.985
 2810SOL    HW311560   1.446   6.510   4.080
 2810SOL    MW411561   1.471   6.548   4.006
 2811SOL     OW11562   1.094   6.968   5.183
 2811SOL    HW211563   1.005   6.974   5.151
 2811SOL    HW311564   1.138   7.047   5.151
 2811SOL    MW411565   1.089   6.978   5.175
 2812SOL     OW11566   0.387   5.636   5.525
 2812SOL    HW211567   0.315   5.601   5.473
 2812SOL    HW311568   0.445   5.677   5.460
 2812SOL    MW411569   0.385   5.637   5.510
 2813SOL     OW11570   0.411   7.126   4.824
 2813SOL    HW211571   0.456   7.188   4.881
 2813SOL    HW311572   0.318   7.145   4.837
 2813SOL    MW411573   0.404   7.136   4.831
 2814SOL     OW11574   1.851   6.655   5.178
 2814SOL    HW211575   1.766   6.668   5.137
 2814SOL    HW311576   1.831   6.619   5.265
 2814SOL    MW411577   1.838   6.651   5.183
 2815SOL     OW11578   0.833   7.194   4.932
 2815SOL    HW211579   0.857   7.183   4.841
 2815SOL    HW311580   0.756   7.251   4.930
 2815SOL    MW411581   0.825   7.199   4.921
 2816SOL     OW11582   0.475   6.577   3.787
 2816SOL    HW211583   0.398   6.590   3.843
 2816SOL    HW311584   0.439   6.541   3.706
 2816SOL    MW411585   0.461   6.573   3.784
 2817SOL     OW11586   1.128   6.550   4.030
 2817SOL    HW211587   1.038   6.571   4.005
 2817SOL    HW311588   1.155   6.623   4.086
 2817SOL    MW411589   1.120   6.562   4.033
 2818SOL     OW11590   0.628   6.899   4.722
 2818SOL    HW211591   0.621   6.878   4.816
 2818SOL    HW311592   0.546   6.867   4.685
 2818SOL    MW411593   0.616   6.893   4.729
 2819SOL     OW11594   1.492   5.909   5.124
 2819SOL    HW211595   1.439   5.911   5.204
 2819SOL    HW311596   1.477   5.822   5.087
 2819SOL    MW411597   1.484   5.899   5.129
 2820SOL     OW11598   1.828   5.833   4.997
 2820SOL    HW211599   1.809   5.900   4.932
 2820SOL    HW311600   1.885   5.771   4.952
 2820SOL    MW411601   1.832   5.834   4.983
 2821SOL     OW11602   0.074   6.991   5.385
 2821SOL    HW211603   0.118   6.924   5.331
 2821SOL    HW311604  -0.011   6.953   5.405
 2821SOL    MW411605   0.069   6.977   5.381
 2822SOL     OW11606   0.757   5.666   4.437
 2822SOL    HW211607   0.686   5.727   4.419
 2822SOL    HW311608   0.808   5.663   4.356
 2822SOL    MW411609   0.753   5.672   4.424
 2823SOL     OW11610   0.515   6.906   4.186
 2823SOL    HW211611   0.508   6.938   4.276
 2823SOL    HW311612   0.425   6.890   4.158
 2823SOL    MW411613   0.503   6.908   4.193
 2824SOL     OW11614   1.110   7.299   5.095
 2824SOL    HW211615   1.030   7.284   5.045
 2824SOL    HW311616   1.117   7.394   5.102
 2824SOL    MW411617   1.101   7.310   5.089
 2825SOL     OW11618   1.224   7.264   4.585
 2825SOL    HW211619   1.271   7.337   4.544
 2825SOL    HW311620   1.145   7.303   4.621
 2825SOL    MW411621   1.219   7.279   4.584
 2826SOL     OW11622   1.632   7.359   4.860
 2826SOL    HW211623   1.675   7.329   4.940
 2826SOL    HW311624   1.551   7.307   4.857
 2826SOL    MW411625   1.627   7.348   4.870
 2827SOL     OW11626   0.717   6.323   5.567
 2827SOL    HW211627   0.787   6.265   5.539
 2827SOL    HW311628   0.660   6.268   5.622
 2827SOL    MW411629   0.719   6.310   5.571
 2828SOL     OW11630   1.504   6.535   5.200
 2828SOL    HW211631   1.509   6.588   5.280
 2828SOL    HW311632   1.466   6.452   5.228
 2828SOL    MW411633   1.500   6.530   5.215
 2829SOL     OW11634   1.144   5.670   5.446
 2829SOL    HW211635   1.139   5.577   5.427
 2829SOL    HW311636   1.227   5.681   5.492
 2829SOL    MW411637   1.152   5.659   5.450
 2830SOL     OW11638   0.518   6.190   3.900
 2830SOL    HW211639   0.484   6.246   3.970
 2830SOL    HW311640   0.589   6.140   3.940
 2830SOL    MW411641   0.524   6.191   3.914
 2831SOL     OW11642   1.614   6.941   4.722
 2831SOL    HW211643   1.649   6.923   4.635
 2831SOL    HW311644   1.519   6.942   4.709
 2831SOL    MW411645   1.606   6.938   4.709
 2832SOL     OW11646   1.043   6.589   5.091
 2832SOL    HW211647   1.086   6.624   5.169
 2832SOL    HW311648   1.026   6.666   5.037
 2832SOL    MW411649   1.046   6.604   5.094
 2833SOL     OW11650   1.574   6.076   3.964
 2833SOL    HW211651   1.566   6.147   3.901
 2833SOL    HW311652   1.592   6.120   4.047
 2833SOL    MW411653   1.575   6.090   3.966
 2834SOL     OW11654   0.434   5.731   4.393
 2834SOL    HW211655   0.484   5.774   4.324
 2834SOL    HW311656   0.349   5.775   4.393
 2834SOL    MW411657   0.431   5.744   4.384
 2835SOL     OW11658   0.193   6.793   5.253
 2835SOL    HW211659   0.221   6.746   5.331
 2835SOL    HW311660   0.114   6.748   5.224
 2835SOL    MW411661   0.186   6.782   5.259
 2836SOL     OW11662   0.701   6.120   5.220
 2836SOL    HW211663   0.673   6.208   5.244
 2836SOL    HW311664   0.670   6.064   5.291
 2836SOL    MW411665   0.693   6.123   5.232
 2837SOL     OW11666   1.243   6.338   3.939
 2837SOL    HW211667   1.290   6.356   3.858
 2837SOL    HW311668   1.209   6.422   3.967
 2837SOL    MW411669   1.245   6.352   3.932
 2838SOL     OW11670   0.356   6.516   4.433
 2838SOL    HW211671   0.414   6.572   4.381
 2838SOL    HW311672   0.400   6.431   4.435
 2838SOL    MW411673   0.369   6.513   4.426
 2839SOL     OW11674   1.496   5.868   4.270
 2839SOL    HW211675   1.418   5.818   4.295
 2839SOL    HW311676   1.467   5.959   4.270
 2839SOL    MW411677   1.482   5.872   4.273
 2840SOL     OW11678   1.082   5.830   4.429
 2840SOL    HW211679   1.102   5.905   4.373
 2840SOL    HW311680   1.062   5.869   4.514
 2840SOL    MW411681   1.083   5.846   4.433
 2841SOL     OW11682   0.978   7.080   3.761
 2841SOL    HW211683   1.005   7.158   3.713
 2841SOL    HW311684   0.885   7.095   3.780
 2841SOL    MW411685   0.969   7.093   3.757
 2842SOL     OW11686   1.842   6.603   5.448
 2842SOL    HW211687   1.755   6.583   5.484
 2842SOL    HW311688   1.896   6.529   5.473
 2842SOL    MW411689   1.837   6.592   5.456
 2843SOL     OW11690   0.063   7.116   4.605
 2843SOL    HW211691   0.095   7.120   4.696
 2843SOL    HW311692  -0.032   7.124   4.613
 2843SOL    MW411693   0.055   7.119   4.618
 2844SOL     OW11694   0.018   6.242   4.152
 2844SOL    HW211695  -0.042   6.214   4.222
 2844SOL    HW311696   0.092   6.182   4.158
 2844SOL    MW411697   0.020   6.231   4.161
 2845SOL     OW11698   1.586   7.454   5.586
 2845SOL    HW211699   1.631   7.378   5.551
 2845SOL    HW311700   1.624   7.467   5.673
 2845SOL    MW411701   1.596   7.447   5.592
 2846SOL     OW11702   1.186   6.973   4.312
 2846SOL    HW211703   1.209   6.924   4.390
 2846SOL    HW311704   1.267   7.015   4.284
 2846SOL    MW411705   1.199   6.973   4.319
 2847SOL     OW11706   0.444   5.981   5.041
 2847SOL    HW211707   0.477   6.062   5.081
 2847SOL    HW311708   0.417   6.007   4.953
 2847SOL    MW411709   0.443   5.995   5.035
 2848SOL     OW11710   0.398   5.948   4.777
 2848SOL    HW211711   0.428   5.862   4.748
 2848SOL    HW311712   0.303   5.941   4.780
 2848SOL    MW411713   0.390   5.937   4.775
 2849SOL     OW11714   1.227   6.157   5.468
 2849SOL    HW211715   1.279   6.092   5.421
 2849SOL    HW311716   1.185   6.208   5.398
 2849SOL    MW411717   1.228   6.154   5.451
 2850SOL     OW11718   1.326   5.952   5.329
 2850SOL    HW211719   1.233   5.936   5.316
 2850SOL    HW311720   1.352   5.890   5.397
 2850SOL    MW411721   1.316   5.942   5.336
 2851SOL     OW11722   0.541   5.726   4.668
 2851SOL    HW211723   0.551   5.635   4.694
 2851SOL    HW311724   0.497   5.722   4.583
 2851SOL    MW411725   0.537   5.714   4.660
 2852SOL     OW11726   0.635   7.341   5.214
 2852SOL    HW211727   0.552   7.326   5.259
 2852SOL    HW311728   0.694   7.274   5.249
 2852SOL    MW411729   0.633   7.331   5.224
 2853SOL     OW11730   1.692   6.048   4.839
 2853SOL    HW211731   1.625   6.081   4.899
 2853SOL    HW311732   1.735   6.126   4.805
 2853SOL    MW411733   1.690   6.063   4.843
 2854SOL     OW11734   1.870   6.768   4.809
 2854SOL    HW211735   1.863   6.708   4.734
 2854SOL    HW311736   1.796   6.828   4.798
 2854SOL    MW411737   1.860   6.768   4.798
 2855SOL     OW11738   1.252   6.630   4.727
 2855SOL    HW211739   1.266   6.602   4.818
 2855SOL    HW311740   1.338   6.661   4.699
 2855SOL    MW411741   1.265   6.631   4.736
 2856SOL     OW11742   1.335   6.125   5.006
 2856SOL    HW211743   1.356   6.126   4.913
 2856SOL    HW311744   1.380   6.047   5.039
 2856SOL    MW411745   1.342   6.115   4.998
 2857SOL     OW11746   1.828   6.256   5.548
 2857SOL    HW211747   1.865   6.201   5.617
 2857SOL    HW311748   1.853   6.213   5.466
 2857SOL    MW411749   1.835   6.244   5.547
 2858SOL     OW11750   1.375   6.554   5.600
 2858SOL    HW211751   1.441   6.502   5.554
 2858SOL    HW311752   1.395   6.541   5.693
 2858SOL    MW411753   1.386   6.545   5.607
 2859SOL     OW11754   1.326   5.640   3.948
 2859SOL    HW211755   1.400   5.684   3.991
 2859SOL    HW311756   1.250   5.694   3.970
 2859SOL    MW411757   1.326   5.652   3.956
 2860SOL     OW11758   1.386   6.415   4.226
 2860SOL    HW211759   1.301   6.385   4.196
 2860SOL    HW311760   1.378   6.422   4.321
 2860SOL    MW411761   1.374   6.413   4.235
 2861SOL     OW11762   0.462   6.878   4.957
 2861SOL    HW211763   0.474   6.905   5.048
 2861SOL    HW311764   0.443   6.959   4.910
 2861SOL    MW411765   0.461   6.893   4.962
 2862SOL     OW11766   0.746   5.858   4.780
 2862SOL    HW211767   0.719   5.860   4.871
 2862SOL    HW311768   0.676   5.810   4.735
 2862SOL    MW411769   0.734   5.854   4.787
 2863SOL     OW11770   0.600   7.350   4.942
 2863SOL    HW211771   0.652   7.427   4.919
 2863SOL    HW311772   0.609   7.342   5.037
 2863SOL    MW411773   0.609   7.357   4.953
 2864SOL     OW11774   1.502   6.935   5.174
 2864SOL    HW211775   1.487   6.864   5.237
 2864SOL    HW311776   1.548   6.893   5.102
 2864SOL    MW411777   1.508   6.919   5.174
 2865SOL     OW11778   0.576   6.666   5.291
 2865SOL    HW211779   0.613   6.671   5.203
 2865SOL    HW311780   0.615   6.739   5.338
 2865SOL    MW411781   0.586   6.676   5.286
 2866SOL     OW11782   0.756   6.709   5.103
 2866SOL    HW211783   0.815   6.655   5.156
 2866SOL    HW311784   0.771   6.681   5.013
 2866SOL    MW411785   0.766   6.698   5.099
 2867SOL     OW11786   0.759   6.081   3.952
 2867SOL    HW211787   0.832   6.130   3.915
 2867SOL    HW311788   0.775   5.990   3.926
 2867SOL    MW411789   0.771   6.076   3.945
 2868SOL     OW11790   1.567   7.198   5.275
 2868SOL    HW211791   1.609   7.183   5.360
 2868SOL    HW311792   1.558   7.111   5.237
 2868SOL    MW411793   1.571   7.186   5.282
 2869SOL     OW11794   1.227   5.677   4.866
 2869SOL    HW211795   1.282   5.686   4.788
 2869SOL    HW311796   1.282   5.711   4.937
 2869SOL    MW411797   1.241   5.682   4.865
 2870SOL     OW11798   0.234   6.590   4.050
 2870SOL    HW211799   0.171   6.606   3.979
 2870SOL    HW311800   0.181   6.553   4.121
 2870SOL    MW411801   0.219   6.587   4.050
 2871SOL     OW11802   0.590   6.944   3.909
 2871SOL    HW211803   0.605   6.920   4.001
 2871SOL    HW311804   0.498   6.922   3.893
 2871SOL    MW411805   0.580   6.937   3.919
 2872SOL     OW11806   1.129   7.175   4.061
 2872SOL    HW211807   1.137   7.093   4.012
 2872SOL    HW311808   1.048   7.214   4.028
 2872SOL    MW411809   1.119   7.170   4.051
 2873SOL     OW11810   0.388   7.333   4.630
 2873SOL    HW211811   0.392   7.244   4.665
 2873SOL    HW311812   0.414   7.324   4.539
 2873SOL    MW411813   0.391   7.321   4.622
 2874SOL     OW11814   1.005   6.811   4.873
 2874SOL    HW211815   0.937   6.745   4.889
 2874SOL    HW311816   1.023   6.805   4.780
 2874SOL    MW411817   0.998   6.802   4.864
 2875SOL     OW11818   0.094   7.086   5.124
 2875SOL    HW211819   0.084   7.044   5.210
 2875SOL    HW311820   0.015   7.139   5.114
 2875SOL    MW411821   0.083   7.087   5.135
 2876SOL     OW11822   0.998   5.950   4.694
 2876SOL    HW211823   0.928   5.902   4.739
 2876SOL    HW311824   1.030   6.013   4.758
 2876SOL    MW411825   0.993   5.952   4.708
 2877SOL     OW11826   0.649   6.386   5.314
 2877SOL    HW211827   0.642   6.481   5.302
 2877SOL    HW311828   0.658   6.375   5.409
 2877SOL    MW411829   0.650   6.398   5.324
 2878SOL     OW11830   0.370   6.901   5.572
 2878SOL    HW211831   0.442   6.903   5.509
 2878SOL    HW311832   0.340   6.810   5.571
 2878SOL    MW411833   0.375   6.890   5.564
 2879SOL     OW11834   1.454   5.664   5.039
 2879SOL    HW211835   1.525   5.610   5.003
 2879SOL    HW311836   1.453   5.643   5.132
 2879SOL    MW411837   1.463   5.655   5.047
 2880SOL     OW11838   1.654   7.194   5.523
 2880SOL    HW211839   1.627   7.191   5.614
 2880SOL    HW311840   1.750   7.198   5.526
 2880SOL    MW411841   1.664   7.194   5.535
 2881SOL     OW11842   0.465   6.056   4.507
 2881SOL    HW211843   0.536   6.004   4.470
 2881SOL    HW311844   0.451   6.021   4.594
 2881SOL    MW411845   0.473   6.045   4.514
 2882SOL     OW11846   0.020   7.391   5.579
 2882SOL    HW211847   0.070   7.369   5.501
 2882SOL    HW311848   0.028   7.486   5.587
 2882SOL    MW411849   0.028   7.400   5.570
 2883SOL     OW11850   0.781   7.149   4.583
 2883SOL    HW211851   0.709   7.086   4.596
 2883SOL    HW311852   0.742   7.234   4.601
 2883SOL    MW411853   0.765   7.152   4.586
 2884SOL     OW11854   1.101   5.997   4.231
 2884SOL    HW211855   1.123   5.934   4.163
 2884SOL    HW311856   1.006   5.989   4.242
 2884SOL    MW411857   1.091   5.988   4.223
 2885SOL     OW11858   0.186   5.687   4.163
 2885SOL    HW211859   0.257   5.708   4.102
 2885SOL    HW311860   0.140   5.615   4.121
 2885SOL    MW411861   0.190   5.681   4.149
 2886SOL     OW11862   0.017   6.154   5.306
 2886SOL    HW211863   0.081   6.220   5.281
 2886SOL    HW311864  -0.064   6.181   5.263
 2886SOL    MW411865   0.015   6.166   5.298
 2887SOL     OW11866   1.755   7.061   4.263
 2887SOL    HW211867   1.725   6.994   4.324
 2887SOL    HW311868   1.849   7.067   4.277
 2887SOL    MW411869   1.763   7.053   4.273
 2888SOL     OW11870   1.311   6.738   4.193
 2888SOL    HW211871   1.283   6.824   4.226
 2888SOL    HW311872   1.339   6.754   4.103
 2888SOL    MW411873   1.311   6.752   4.185
 2889SOL     OW11874   0.973   5.658   4.246
 2889SOL    HW211875   1.010   5.717   4.311
 2889SOL    HW311876   0.950   5.714   4.172
 2889SOL    MW411877   0.974   5.673   4.245
 2890SOL     OW11878   1.826   6.540   4.668
 2890SOL    HW211879   1.817   6.572   4.579
 2890SOL    HW311880   1.779   6.456   4.668
 2890SOL    MW411881   1.819   6.533   4.658
 2891SOL     OW11882   0.202   6.380   5.247
 2891SOL    HW211883   0.223   6.449   5.185
 2891SOL    HW311884   0.282   6.327   5.252
 2891SOL    MW411885   0.215   6.381   5.241
 2892SOL     OW11886   1.738   6.471   4.369
 2892SOL    HW211887   1.832   6.460   4.357
 2892SOL    HW311888   1.714   6.543   4.310
 2892SOL    MW411889   1.748   6.479   4.360
 2893SOL     OW11890   0.187   6.395   5.514
 2893SOL    HW211891   0.113   6.339   5.540
 2893SOL    HW311892   0.182   6.398   5.419
 2893SOL    MW411893   0.176   6.388   5.504
 2894SOL     OW11894   0.353   5.682   4.964
 2894SOL    HW211895   0.396   5.766   4.984
 2894SOL    HW311896   0.426   5.620   4.957
 2894SOL    MW411897   0.368   5.685   4.965
 2895SOL     OW11898   0.394   6.349   4.142
 2895SOL    HW211899   0.394   6.444   4.127
 2895SOL    HW311900   0.471   6.333   4.196
 2895SOL    MW411901   0.404   6.360   4.147
 2896SOL     OW11902   1.170   6.208   5.206
 2896SOL    HW211903   1.206   6.181   5.122
 2896SOL    HW311904   1.083   6.242   5.185
 2896SOL    MW411905   1.164   6.209   5.193
 2897SOL     OW11906   0.153   6.080   4.431
 2897SOL    HW211907   0.215   6.087   4.504
 2897SOL    HW311908   0.153   5.987   4.408
 2897SOL    MW411909   0.161   6.069   4.438
 2898SOL     OW11910   1.700   7.420   3.963
 2898SOL    HW211911   1.767   7.453   3.903
 2898SOL    HW311912   1.657   7.499   3.997
 2898SOL    MW411913   1.702   7.435   3.959
 2899SOL     OW11914   0.835   6.341   4.915
 2899SOL    HW211915   0.793   6.259   4.891
 2899SOL    HW311916   0.836   6.340   5.011
 2899SOL    MW411917   0.828   6.330   4.924
 2900SOL     OW11918   1.506   7.474   5.314
 2900SOL    HW211919   1.509   7.380   5.297
 2900SOL    HW311920   1.529   7.482   5.406
 2900SOL    MW411921   1.509   7.462   5.324
 2901SOL     OW11922   0.639   5.811   5.020
 2901SOL    HW211923   0.570   5.874   5.041
 2901SOL    HW311924   0.666   5.775   5.105
 2901SOL    MW411925   0.633   5.814   5.033
 2902SOL     OW11926   0.022   6.652   3.889
 2902SOL    HW211927  -0.009   6.717   3.952
 2902SOL    HW311928  -0.029   6.574   3.908
 2902SOL    MW411929   0.012   6.649   3.899
 2903SOL     OW11930   1.434   5.664   4.637
 2903SOL    HW211931   1.522   5.673   4.674
 2903SOL    HW311932   1.444   5.605   4.563
 2903SOL    MW411933   1.448   5.658   4.631
 2904SOL     OW11934   1.466   6.403   4.481
 2904SOL    HW211935   1.546   6.418   4.430
 2904SOL    HW311936   1.459   6.308   4.487
 2904SOL    MW411937   1.475   6.392   4.476
 2905SOL     OW11938   0.606   7.452   3.831
 2905SOL    HW211939   0.511   7.452   3.823
 2905SOL    HW311940   0.622   7.398   3.909
 2905SOL    MW411941   0.596   7.446   3.840
 2906SOL     OW11942   0.916   6.329   5.178
 2906SOL    HW211943   0.985   6.396   5.175
 2906SOL    HW311944   0.849   6.367   5.234
 2906SOL    MW411945   0.917   6.342   5.185
 2907SOL     OW11946   0.334   6.629   5.426
 2907SOL    HW211947   0.288   6.545   5.428
 2907SOL    HW311948   0.391   6.623   5.350
 2907SOL    MW411949   0.336   6.617   5.418
 2908SOL     OW11950   1.451   6.272   3.747
 2908SOL    HW211951   1.379   6.248   3.689
 2908SOL    HW311952   1.517   6.309   3.689
 2908SOL    MW411953   1.450   6.274   3.732
 2909SOL     OW11954   0.585   7.004   4.427
 2909SOL    HW211955   0.650   6.937   4.448
 2909SOL    HW311956   0.637   7.081   4.404
 2909SOL    MW411957   0.600   7.006   4.426
 2910SOL     OW11958   0.846   6.169   4.557
 2910SOL    HW211959   0.786   6.187   4.629
 2910SOL    HW311960   0.880   6.081   4.576
 2910SOL    MW411961   0.842   6.159   4.570
 2911SOL     OW11962   1.787   5.668   5.226
 2911SOL    HW211963   1.708   5.714   5.254
 2911SOL    HW311964   1.822   5.722   5.155
 2911SOL    MW411965   1.781   5.681   5.220
 2912SOL     OW11966   1.071   6.752   4.576
 2912SOL    HW211967   1.163   6.733   4.594
 2912SOL    HW311968   1.044   6.682   4.516
 2912SOL    MW411969   1.079   6.740   4.570
 2913SOL     OW11970   0.864   6.572   3.931
 2913SOL    HW211971   0.850   6.484   3.896
 2913SOL    HW311972   0.815   6.629   3.872
 2913SOL    MW411973   0.856   6.567   3.919
 2914SOL     OW11974   1.345   6.990   4.672
 2914SOL    HW211975   1.318   7.074   4.637
 2914SOL    HW311976   1.305   6.985   4.759
 2914SOL    MW411977   1.338   6.999   4.678
 2915SOL     OW11978   1.264   6.938   4.940
 2915SOL    HW211979   1.275   6.905   5.029
 2915SOL    HW311980   1.183   6.897   4.909
 2915SOL    MW411981   1.254   6.930   4.946
 2916SOL     OW11982   0.277   6.296   4.710
 2916SOL    HW211983   0.227   6.295   4.791
 2916SOL    HW311984   0.297   6.388   4.694
 2916SOL    MW411985   0.273   6.308   4.718
 2917SOL     OW11986   1.344   7.060   5.472
 2917SOL    HW211987   1.344   7.154   5.488
 2917SOL    HW311988   1.389   7.050   5.388
 2917SOL    MW411989   1.350   7.070   5.463
 2918SOL     OW11990   1.583   5.778   4.033
 2918SOL    HW211991   1.576   5.782   4.128
 2918SOL    HW311992   1.595   5.869   4.006
 2918SOL    MW411993   1.584   5.791   4.041
 2919SOL     OW11994   0.872   6.341   4.147
 2919SOL    HW211995   0.852   6.327   4.054
 2919SOL    HW311996   0.965   6.320   4.154
 2919SOL    MW411997   0.882   6.336   4.136
 2920SOL     OW11998   0.199   5.964   5.451
 2920SOL    HW211999   0.156   6.023   5.388
 2920SOL    HW312000   0.267   6.019   5.491
 2920SOL    MW412001   0.203   5.979   5.448
 2921SOL     OW12002   1.311   6.584   4.996
 2921SOL    HW212003   1.374   6.581   5.069
 2921SOL    HW312004   1.227   6.602   5.038
 2921SOL    MW412005   1.307   6.586   5.011
 2922SOL     OW12006   0.855   7.299   4.185
 2922SOL    HW212007   0.913   7.370   4.212
 2922SOL    HW312008   0.878   7.227   4.243
 2922SOL    MW412009   0.866   7.299   4.196
 2923SOL     OW12010   1.650   5.761   4.775
 2923SOL    HW212011   1.695   5.679   4.794
 2923SOL    HW312012   1.670   5.817   4.851
 2923SOL    MW412013   1.660   5.757   4.787
 2924SOL     OW12014   0.098   5.604   4.874
 2924SOL    HW212015   0.089   5.605   4.779
 2924SOL    HW312016   0.192   5.616   4.889
 2924SOL    MW412017   0.110   5.607   4.865
 2925SOL     OW12018   1.735   6.797   4.494
 2925SOL    HW212019   1.714   6.743   4.417
 2925SOL    HW312020   1.831   6.795   4.498
 2925SOL    MW412021   1.744   6.790   4.483
 2926SOL     OW12022   0.427   6.942   5.237
 2926SOL    HW212023   0.348   6.892   5.260
 2926SOL    HW312024   0.497   6.901   5.287
 2926SOL    MW412025   0.425   6.930   5.247
 2927SOL     OW12026   0.311   5.731   3.920
 2927SOL    HW212027   0.240   5.786   3.888
 2927SOL    HW312028   0.353   5.697   3.841
 2927SOL    MW412029   0.307   5.733   3.906
 2928SOL     OW12030   1.435   6.228   4.756
 2928SOL    HW212031   1.358   6.274   4.722
 2928SOL    HW312032   1.492   6.297   4.790
 2928SOL    MW412033   1.432   6.243   4.756
 2929SOL     OW12034   0.067   5.830   3.769
 2929SOL    HW212035   0.034   5.909   3.813
 2929SOL    HW312036   0.122   5.863   3.698
 2929SOL    MW412037   0.070   5.844   3.766
 2930SOL     OW12038   0.101   7.087   3.958
 2930SOL    HW212039   0.118   7.171   4.000
 2930SOL    HW312040   0.136   7.096   3.870
 2930SOL    MW412041   0.106   7.100   3.952
 2931SOL     OW12042   1.373   7.176   4.175
 2931SOL    HW212043   1.436   7.166   4.104
 2931SOL    HW312044   1.290   7.196   4.130
 2931SOL    MW412045   1.370   7.177   4.160
 2932SOL     OW12046   1.736   6.444   5.862
 2932SOL    HW212047   1.777   6.386   5.927
 2932SOL    HW312048   1.643   6.436   5.879
 2932SOL    MW412049   1.730   6.436   5.872
 2933SOL     OW12050   0.530   6.627   6.091
 2933SOL    HW212051   0.620   6.602   6.075
 2933SOL    HW312052   0.526   6.720   6.068
 2933SOL    MW412053   0.542   6.636   6.086
 2934SOL     OW12054   1.646   7.330   6.233
 2934SOL    HW212055   1.658   7.276   6.311
 2934SOL    HW312056   1.683   7.278   6.162
 2934SOL    MW412057   1.652   7.315   6.234
 2935SOL     OW12058   0.814   6.083   6.104
 2935SOL    HW212059   0.789   6.171   6.132
 2935SOL    HW312060   0.811   6.086   6.008
 2935SOL    MW412061   0.810   6.095   6.096
 2936SOL     OW12062   0.256   6.111   6.032
 2936SOL    HW212063   0.288   6.199   6.014
 2936SOL    HW312064   0.244   6.109   6.127
 2936SOL    MW412065   0.259   6.123   6.044
 2937SOL     OW12066   0.655   5.866   6.119
 2937SOL    HW212067   0.713   5.942   6.121
 2937SOL    HW312068   0.590   5.887   6.052
 2937SOL    MW412069   0.654   5.878   6.110
 2938SOL     OW12070   0.742   6.793   6.294
 2938SOL    HW212071   0.822   6.796   6.346
 2938SOL    HW312072   0.770   6.760   6.208
 2938SOL    MW412073   0.756   6.789   6.289
 2939SOL     OW12074   0.519   6.297   6.285
 2939SOL    HW212075   0.504   6.217   6.336
 2939SOL    HW312076   0.601   6.332   6.319
 2939SOL    MW412077   0.527   6.289   6.297
 2940SOL     OW12078   0.104   7.383   6.441
 2940SOL    HW212079   0.193   7.375   6.476
 2940SOL    HW312080   0.068   7.295   6.446
 2940SOL    MW412081   0.111   7.370   6.446
 2941SOL     OW12082   1.369   6.775   5.810
 2941SOL    HW212083   1.287   6.811   5.776
 2941SOL    HW312084   1.437   6.818   5.759
 2941SOL    MW412085   1.367   6.785   5.798
 2942SOL     OW12086   0.368   6.910   6.476
 2942SOL    HW212087   0.344   6.963   6.552
 2942SOL    HW312088   0.424   6.968   6.424
 2942SOL    MW412089   0.372   6.925   6.479
 2943SOL     OW12090   0.930   6.554   6.286
 2943SOL    HW212091   0.844   6.541   6.326
 2943SOL    HW312092   0.983   6.481   6.318
 2943SOL    MW412093   0.926   6.543   6.295
 2944SOL     OW12094   0.921   6.916   6.003
 2944SOL    HW212095   0.898   6.978   6.071
 2944SOL    HW312096   0.878   6.834   6.029
 2944SOL    MW412097   0.913   6.912   6.014
 2945SOL     OW12098   1.794   5.917   6.459
 2945SOL    HW212099   1.731   5.897   6.528
 2945SOL    HW312100   1.784   5.846   6.396
 2945SOL    MW412101   1.784   5.904   6.460
 2946SOL     OW12102   0.418   5.889   5.971
 2946SOL    HW212103   0.392   5.851   5.887
 2946SOL    HW312104   0.355   5.959   5.987
 2946SOL    MW412105   0.407   5.892   5.962
 2947SOL     OW12106   0.253   6.850   6.008
 2947SOL    HW212107   0.201   6.918   5.964
 2947SOL    HW312108   0.250   6.776   5.948
 2947SOL    MW412109   0.245   6.849   5.995
 2948SOL     OW12110   0.915   7.313   5.786
 2948SOL    HW212111   0.870   7.329   5.869
 2948SOL    HW312112   0.846   7.278   5.728
 2948SOL    MW412113   0.901   7.310   5.788
 2949SOL     OW12114   1.850   6.086   5.761
 2949SOL    HW212115   1.759   6.088   5.789
 2949SOL    HW312116   1.895   6.148   5.819
 2949SOL    MW412117   1.843   6.094   5.771
 2950SOL     OW12118   1.595   6.689   6.111
 2950SOL    HW212119   1.505   6.689   6.146
 2950SOL    HW312120   1.588   6.735   6.028
 2950SOL    MW412121   1.582   6.695   6.105
 2951SOL     OW12122   1.502   6.667   6.503
 2951SOL    HW212123   1.505   6.601   6.434
 2951SOL    HW312124   1.587   6.710   6.499
 2951SOL    MW412125   1.514   6.663   6.494
 2952SOL     OW12126   1.122   6.270   6.072
 2952SOL    HW212127   1.148   6.294   5.983
 2952SOL    HW312128   1.104   6.177   6.068
 2952SOL    MW412129   1.124   6.262   6.059
 2953SOL     OW12130   1.787   6.890   5.923
 2953SOL    HW212131   1.743   6.931   5.998
 2953SOL    HW312132   1.844   6.958   5.888
 2953SOL    MW412133   1.789   6.904   5.928
 2954SOL     OW12134   0.443   7.306   6.241
 2954SOL    HW212135   0.475   7.394   6.219
 2954SOL    HW312136   0.396   7.278   6.163
 2954SOL    MW412137   0.442   7.314   6.228
 2955SOL     OW12138   1.827   5.668   6.290
 2955SOL    HW212139   1.881   5.619   6.352
 2955SOL    HW312140   1.770   5.602   6.251
 2955SOL    MW412141   1.827   5.652   6.292
 2956SOL     OW12142   0.159   7.366   5.818
 2956SOL    HW212143   0.188   7.456   5.810
 2956SOL    HW312144   0.109   7.349   5.739
 2956SOL    MW412145   0.157   7.374   5.807
 2957SOL     OW12146   1.563   7.174   5.789
 2957SOL    HW212147   1.611   7.243   5.835
 2957SOL    HW312148   1.484   7.218   5.758
 2957SOL    MW412149   1.558   7.188   5.792
 2958SOL     OW12150   0.961   6.299   5.733
 2958SOL    HW212151   0.963   6.246   5.654
 2958SOL    HW312152   1.049   6.336   5.739
 2958SOL    MW412153   0.973   6.298   5.722
 2959SOL     OW12154   1.575   6.225   6.069
 2959SOL    HW212155   1.614   6.225   6.156
 2959SOL    HW312156   1.516   6.301   6.069
 2959SOL    MW412157   1.572   6.236   6.080
 2960SOL     OW12158   1.762   6.111   6.235
 2960SOL    HW212159   1.851   6.080   6.252
 2960SOL    HW312160   1.705   6.051   6.283
 2960SOL    MW412161   1.765   6.099   6.244
 2961SOL     OW12162   0.188   5.825   6.264
 2961SOL    HW212163   0.179   5.765   6.190
 2961SOL    HW312164   0.121   5.796   6.327
 2961SOL    MW412165   0.178   5.812   6.262
 2962SOL     OW12166   1.131   6.918   5.825
 2962SOL    HW212167   1.081   6.920   5.907
 2962SOL    HW312168   1.065   6.936   5.757
 2962SOL    MW412169   1.117   6.920   5.827
 2963SOL     OW12170   0.594   7.336   5.933
 2963SOL    HW212171   0.515   7.294   5.966
 2963SOL    HW312172   0.660   7.319   6.000
 2963SOL    MW412173   0.593   7.328   5.946
 2964SOL     OW12174   0.730   6.751   5.640
 2964SOL    HW212175   0.652   6.697   5.627
 2964SOL    HW312176   0.701   6.824   5.693
 2964SOL    MW412177   0.716   6.753   5.645
 2965SOL     OW12178   1.311   7.267   5.708
 2965SOL    HW212179   1.237   7.230   5.758
 2965SOL    HW312180   1.319   7.357   5.741
 2965SOL    MW412181   1.302   7.274   5.720
 2966SOL     OW12182   1.535   6.941   5.650
 2966SOL    HW212183   1.482   6.990   5.586
 2966SOL    HW312184   1.566   7.007   5.711
 2966SOL    MW412185   1.533   6.955   5.648
 2967SOL     OW12186   0.760   5.830   5.705
 2967SOL    HW212187   0.708   5.750   5.693
 2967SOL    HW312188   0.847   5.807   5.673
 2967SOL    MW412189   0.763   5.816   5.699
 2968SOL     OW12190   0.121   6.470   6.162
 2968SOL    HW212191   0.212   6.485   6.189
 2968SOL    HW312192   0.124   6.391   6.108
 2968SOL    MW412193   0.133   6.462   6.160
 2969SOL     OW12194   0.129   7.082   6.201
 2969SOL    HW212195   0.101   7.121   6.283
 2969SOL    HW312196   0.149   6.991   6.223
 2969SOL    MW412197   0.127   7.074   6.214
 2970SOL     OW12198   0.962   7.125   6.236
 2970SOL    HW212199   1.045   7.079   6.220
 2970SOL    HW312200   0.952   7.124   6.332
 2970SOL    MW412201   0.972   7.118   6.246
 2971SOL     OW12202   0.695   7.182   5.641
 2971SOL    HW212203   0.635   7.251   5.611
 2971SOL    HW312204   0.640   7.124   5.694
 2971SOL    MW412205   0.679   7.184   5.643
 2972SOL     OW12206   1.133   5.827   5.864
 2972SOL    HW212207   1.066   5.803   5.801
 2972SOL    HW312208   1.198   5.876   5.813
 2972SOL    MW412209   1.133   5.829   5.849
 2973SOL     OW12210   0.652   6.544   6.376
 2973SOL    HW212211   0.563   6.535   6.409
 2973SOL    HW312212   0.656   6.634   6.344
 2973SOL    MW412213   0.641   6.555   6.376
 2974SOL     OW12214   1.451   6.127   6.371
 2974SOL    HW212215   1.396   6.048   6.370
 2974SOL    HW312216   1.433   6.168   6.455
 2974SOL    MW412217   1.441   6.122   6.380
 2975SOL     OW12218   1.070   6.331   6.328
 2975SOL    HW212219   1.007   6.263   6.352
 2975SOL    HW312220   1.090   6.312   6.236
 2975SOL    MW412221   1.064   6.318   6.320
 2976SOL     OW12222   0.326   7.226   6.030
 2976SOL    HW212223   0.287   7.273   5.956
 2976SOL    HW312224   0.260   7.161   6.055
 2976SOL    MW412225   0.313   7.224   6.024
 2977SOL     OW12226   0.818   6.635   6.054
 2977SOL    HW212227   0.820   6.609   5.961
 2977SOL    HW312228   0.876   6.572   6.097
 2977SOL    MW412229   0.826   6.624   6.048
 2978SOL     OW12230   1.375   7.403   6.256
 2978SOL    HW212231   1.318   7.356   6.195
 2978SOL    HW312232   1.461   7.364   6.243
 2978SOL    MW412233   1.378   7.394   6.246
 2979SOL     OW12234   1.328   5.879   6.387
 2979SOL    HW212235   1.356   5.811   6.448
 2979SOL    HW312236   1.242   5.850   6.357
 2979SOL    MW412237   1.321   5.866   6.391
 2980SOL     OW12238   0.133   6.813   6.321
 2980SOL    HW212239   0.197   6.845   6.384
 2980SOL    HW312240   0.182   6.749   6.269
 2980SOL    MW412241   0.148   6.809   6.322
 2981SOL     OW12242   1.308   5.983   5.722
 2981SOL    HW212243   1.281   6.049   5.658
 2981SOL    HW312244   1.378   6.026   5.772
 2981SOL    MW412245   1.313   5.996   5.719
 2982SOL     OW12246   0.976   5.688   5.659
 2982SOL    HW212247   1.032   5.680   5.581
 2982SOL    HW312248   0.953   5.598   5.681
 2982SOL    MW412249   0.981   5.675   5.652
 2983SOL     OW12250   1.481   6.539   5.864
 2983SOL    HW212251   1.448   6.628   5.854
 2983SOL    HW312252   1.446   6.510   5.949
 2983SOL    MW412253   1.471   6.548   5.875
 2984SOL     OW12254   0.475   6.577   5.656
 2984SOL    HW212255   0.398   6.590   5.712
 2984SOL    HW312256   0.439   6.541   5.575
 2984SOL    MW412257   0.461   6.573   5.653
 2985SOL     OW12258   1.128   6.550   5.899
 2985SOL    HW212259   1.038   6.571   5.874
 2985SOL    HW312260   1.155   6.623   5.955
 2985SOL    MW412261   1.120   6.562   5.902
 2986SOL     OW12262   0.757   5.666   6.306
 2986SOL    HW212263   0.686   5.727   6.288
 2986SOL    HW312264   0.808   5.663   6.225
 2986SOL    MW412265   0.753   5.672   6.293
 2987SOL     OW12266   0.515   6.906   6.055
 2987SOL    HW212267   0.508   6.938   6.145
 2987SOL    HW312268   0.425   6.890   6.027
 2987SOL    MW412269   0.503   6.908   6.062
 2988SOL     OW12270   1.224   7.264   6.454
 2988SOL    HW212271   1.271   7.337   6.413
 2988SOL    HW312272   1.145   7.303   6.490
 2988SOL    MW412273   1.219   7.279   6.453
 2989SOL     OW12274   0.518   6.190   5.769
 2989SOL    HW212275   0.484   6.246   5.839
 2989SOL    HW312276   0.589   6.140   5.809
 2989SOL    MW412277   0.524   6.191   5.783
 2990SOL     OW12278   1.574   6.076   5.833
 2990SOL    HW212279   1.566   6.147   5.770
 2990SOL    HW312280   1.592   6.120   5.916
 2990SOL    MW412281   1.575   6.090   5.835
 2991SOL     OW12282   0.434   5.731   6.262
 2991SOL    HW212283   0.484   5.774   6.193
 2991SOL    HW312284   0.349   5.775   6.262
 2991SOL    MW412285   0.431   5.744   6.253
 2992SOL     OW12286   1.243   6.338   5.808
 2992SOL    HW212287   1.290   6.356   5.727
 2992SOL    HW312288   1.209   6.422   5.836
 2992SOL    MW412289   1.245   6.352   5.801
 2993SOL     OW12290   0.356   6.516   6.302
 2993SOL    HW212291   0.414   6.572   6.250
 2993SOL    HW312292   0.400   6.431   6.304
 2993SOL    MW412293   0.369   6.513   6.295
 2994SOL     OW12294   1.496   5.868   6.139
 2994SOL    HW212295   1.418   5.818   6.164
 2994SOL    HW312296   1.467   5.959   6.139
 2994SOL    MW412297   1.482   5.872   6.142
 2995SOL     OW12298   1.082   5.830   6.298
 2995SOL    HW212299   1.102   5.905   6.242
 2995SOL    HW312300   1.062   5.869   6.383
 2995SOL    MW412301   1.083   5.846   6.302
 2996SOL     OW12302   0.978   7.080   5.630
 2996SOL    HW212303   1.005   7.158   5.582
 2996SOL    HW312304   0.885   7.095   5.649
 2996SOL    MW412305   0.969   7.093   5.626
 2997SOL     OW12306   0.018   6.242   6.021
 2997SOL    HW212307  -0.042   6.214   6.091
 2997SOL    HW312308   0.092   6.182   6.027
 2997SOL    MW412309   0.020   6.231   6.030
 2998SOL     OW12310   1.186   6.973   6.181
 2998SOL    HW212311   1.209   6.924   6.259
 2998SOL    HW312312   1.267   7.015   6.153
 2998SOL    MW412313   1.199   6.973   6.188
 2999SOL     OW12314   0.541   5.726   6.537
 2999SOL    HW212315   0.551   5.635   6.563
 2999SOL    HW312316   0.497   5.722   6.452
 2999SOL    MW412317   0.537   5.714   6.529
 3000SOL     OW12318   1.326   5.640   5.817
 3000SOL    HW212319   1.400   5.684   5.860
 3000SOL    HW312320   1.250   5.694   5.839
 3000SOL    MW412321   1.326   5.652   5.825
 3001SOL     OW12322   1.386   6.415   6.095
 3001SOL    HW212323   1.301   6.385   6.065
 3001SOL    HW312324   1.378   6.422   6.190
 3001SOL    MW412325   1.374   6.413   6.104
 3002SOL     OW12326   0.759   6.081   5.821
 3002SOL    HW212327   0.832   6.130   5.784
 3002SOL    HW312328   0.775   5.990   5.795
 3002SOL    MW412329   0.771   6.076   5.814
 3003SOL     OW12330   0.234   6.590   5.919
 3003SOL    HW212331   0.171   6.606   5.848
 3003SOL    HW312332   0.181   6.553   5.990
 3003SOL    MW412333   0.219   6.587   5.919
 3004SOL     OW12334   0.590   6.944   5.778
 3004SOL    HW212335   0.605   6.920   5.870
 3004SOL    HW312336   0.498   6.922   5.762
 3004SOL    MW412337   0.580   6.937   5.788
 3005SOL     OW12338   1.129   7.175   5.930
 3005SOL    HW212339   1.137   7.093   5.881
 3005SOL    HW312340   1.048   7.214   5.897
 3005SOL    MW412341   1.119   7.170   5.920
 3006SOL     OW12342   0.388   7.333   6.499
 3006SOL    HW212343   0.392   7.244   6.534
 3006SOL    HW312344   0.414   7.324   6.408
 3006SOL    MW412345   0.391   7.321   6.491
 3007SOL     OW12346   0.465   6.056   6.376
 3007SOL    HW212347   0.536   6.004   6.339
 3007SOL    HW312348   0.451   6.021   6.463
 3007SOL    MW412349   0.473   6.045   6.383
 3008SOL     OW12350   0.781   7.149   6.452
 3008SOL    HW212351   0.709   7.086   6.465
 3008SOL    HW312352   0.742   7.234   6.470
 3008SOL    MW412353   0.765   7.152   6.455
 3009SOL     OW12354   1.101   5.997   6.100
 3009SOL    HW212355   1.123   5.934   6.032
 3009SOL    HW312356   1.006   5.989   6.111
 3009SOL    MW412357   1.091   5.988   6.092
 3010SOL     OW12358   0.186   5.687   6.032
 3010SOL    HW212359   0.257   5.708   5.971
 3010SOL    HW312360   0.140   5.615   5.990
 3010SOL    MW412361   0.190   5.681   6.018
 3011SOL     OW12362   1.755   7.061   6.132
 3011SOL    HW212363   1.725   6.994   6.193
 3011SOL    HW312364   1.849   7.067   6.146
 3011SOL    MW412365   1.763   7.053   6.142
 3012SOL     OW12366   1.311   6.738   6.062
 3012SOL    HW212367   1.283   6.824   6.095
 3012SOL    HW312368   1.339   6.754   5.972
 3012SOL    MW412369   1.311   6.752   6.054
 3013SOL     OW12370   0.973   5.658   6.115
 3013SOL    HW212371   1.010   5.717   6.180
 3013SOL    HW312372   0.950   5.714   6.041
 3013SOL    MW412373   0.974   5.673   6.114
 3014SOL     OW12374   1.826   6.540   6.537
 3014SOL    HW212375   1.817   6.572   6.448
 3014SOL    HW312376   1.779   6.456   6.537
 3014SOL    MW412377   1.819   6.533   6.527
 3015SOL     OW12378   1.738   6.471   6.238
 3015SOL    HW212379   1.832   6.460   6.226
 3015SOL    HW312380   1.714   6.543   6.179
 3015SOL    MW412381   1.748   6.479   6.229
 3016SOL     OW12382   0.394   6.349   6.011
 3016SOL    HW212383   0.394   6.444   5.996
 3016SOL    HW312384   0.471   6.333   6.065
 3016SOL    MW412385   0.404   6.360   6.016
 3017SOL     OW12386   0.153   6.080   6.300
 3017SOL    HW212387   0.215   6.087   6.373
 3017SOL    HW312388   0.153   5.987   6.277
 3017SOL    MW412389   0.161   6.069   6.307
 3018SOL     OW12390   1.700   7.420   5.832
 3018SOL    HW212391   1.767   7.453   5.772
 3018SOL    HW312392   1.657   7.499   5.866
 3018SOL    MW412393   1.702   7.435   5.828
 3019SOL     OW12394   0.022   6.652   5.758
 3019SOL    HW212395  -0.009   6.717   5.821
 3019SOL    HW312396  -0.029   6.574   5.777
 3019SOL    MW412397   0.012   6.649   5.768
 3020SOL     OW12398   1.434   5.664   6.506
 3020SOL    HW212399   1.522   5.673   6.543
 3020SOL    HW312400   1.444   5.605   6.432
 3020SOL    MW412401   1.448   5.658   6.500
 3021SOL     OW12402   1.466   6.403   6.350
 3021SOL    HW212403   1.546   6.418   6.299
 3021SOL    HW312404   1.459   6.308   6.356
 3021SOL    MW412405   1.475   6.392   6.345
 3022SOL     OW12406   0.606   7.452   5.700
 3022SOL    HW212407   0.511   7.452   5.692
 3022SOL    HW312408   0.622   7.398   5.778
 3022SOL    MW412409   0.596   7.446   5.709
 3023SOL     OW12410   1.451   6.272   5.615
 3023SOL    HW212411   1.379   6.248   5.557
 3023SOL    HW312412   1.517   6.309   5.557
 3023SOL    MW412413   1.450   6.274   5.600
 3024SOL     OW12414   0.585   7.004   6.296
 3024SOL    HW212415   0.650   6.937   6.317
 3024SOL    HW312416   0.637   7.081   6.273
 3024SOL    MW412417   0.600   7.006   6.295
 3025SOL     OW12418   0.846   6.169   6.426
 3025SOL    HW212419   0.786   6.187   6.498
 3025SOL    HW312420   0.880   6.081   6.445
 3025SOL    MW412421   0.842   6.159   6.439
 3026SOL     OW12422   1.071   6.752   6.445
 3026SOL    HW212423   1.163   6.733   6.463
 3026SOL    HW312424   1.044   6.682   6.385
 3026SOL    MW412425   1.079   6.740   6.439
 3027SOL     OW12426   0.864   6.572   5.800
 3027SOL    HW212427   0.850   6.484   5.765
 3027SOL    HW312428   0.815   6.629   5.741
 3027SOL    MW412429   0.856   6.567   5.788
 3028SOL     OW12430   1.583   5.778   5.902
 3028SOL    HW212431   1.576   5.782   5.997
 3028SOL    HW312432   1.595   5.869   5.875
 3028SOL    MW412433   1.584   5.791   5.910
 3029SOL     OW12434   0.872   6.341   6.016
 3029SOL    HW212435   0.852   6.327   5.923
 3029SOL    HW312436   0.965   6.320   6.023
 3029SOL    MW412437   0.882   6.336   6.005
 3030SOL     OW12438   0.855   7.299   6.054
 3030SOL    HW212439   0.913   7.370   6.081
 3030SOL    HW312440   0.878   7.227   6.112
 3030SOL    MW412441   0.866   7.299   6.065
 3031SOL     OW12442   1.735   6.797   6.363
 3031SOL    HW212443   1.714   6.743   6.286
 3031SOL    HW312444   1.831   6.795   6.367
 3031SOL    MW412445   1.744   6.790   6.352
 3032SOL     OW12446   0.311   5.731   5.789
 3032SOL    HW212447   0.240   5.786   5.757
 3032SOL    HW312448   0.353   5.697   5.710
 3032SOL    MW412449   0.307   5.733   5.775
 3033SOL     OW12450   0.067   5.830   5.638
 3033SOL    HW212451   0.034   5.909   5.682
 3033SOL    HW312452   0.122   5.863   5.567
 3033SOL    MW412453   0.070   5.844   5.635
 3034SOL     OW12454   0.101   7.087   5.827
 3034SOL    HW212455   0.118   7.171   5.869
 3034SOL    HW312456   0.136   7.096   5.739
 3034SOL    MW412457   0.106   7.100   5.821
 3035SOL     OW12458   1.373   7.176   6.044
 3035SOL    HW212459   1.436   7.166   5.973
 3035SOL    HW312460   1.290   7.196   5.999
 3035SOL    MW412461   1.370   7.177   6.029
 3036SOL     OW12462   3.470   0.771   1.252
 3036SOL    HW212463   3.425   0.838   1.303
 3036SOL    HW312464   3.558   0.807   1.238
 3036SOL    MW412465   3.476   0.784   1.256
 3037SOL     OW12466   2.398   1.022   0.486
 3037SOL    HW212467   2.488   0.997   0.470
 3037SOL    HW312468   2.394   1.115   0.463
 3037SOL    MW412469   2.410   1.031   0.481
 3038SOL     OW12470   3.514   1.725   0.628
 3038SOL    HW212471   3.526   1.671   0.706
 3038SOL    HW312472   3.551   1.673   0.557
 3038SOL    MW412473   3.520   1.710   0.629
 3039SOL     OW12474   2.893   1.610   1.629
 3039SOL    HW212475   2.934   1.646   1.550
 3039SOL    HW312476   2.928   1.521   1.636
 3039SOL    MW412477   2.904   1.603   1.620
 3040SOL     OW12478   3.450   1.165   1.233
 3040SOL    HW212479   3.371   1.130   1.191
 3040SOL    HW312480   3.477   1.237   1.177
 3040SOL    MW412481   3.443   1.170   1.220
 3041SOL     OW12482   2.682   0.478   0.499
 3041SOL    HW212483   2.657   0.566   0.527
 3041SOL    HW312484   2.679   0.481   0.403
 3041SOL    MW412485   2.678   0.490   0.491
 3042SOL     OW12486   2.124   0.506   0.427
 3042SOL    HW212487   2.156   0.594   0.409
 3042SOL    HW312488   2.112   0.504   0.522
 3042SOL    MW412489   2.127   0.518   0.439
 3043SOL     OW12490   2.202   0.919   1.328
 3043SOL    HW212491   2.265   0.866   1.279
 3043SOL    HW312492   2.183   0.993   1.271
 3043SOL    MW412493   2.208   0.921   1.315
 3044SOL     OW12494   2.523   0.261   0.514
 3044SOL    HW212495   2.581   0.337   0.516
 3044SOL    HW312496   2.458   0.282   0.447
 3044SOL    MW412497   2.522   0.273   0.505
 3045SOL     OW12498   2.610   1.188   0.689
 3045SOL    HW212499   2.690   1.191   0.741
 3045SOL    HW312500   2.638   1.155   0.603
 3045SOL    MW412501   2.624   1.184   0.684
 3046SOL     OW12502   2.635   1.529   1.592
 3046SOL    HW212503   2.719   1.555   1.631
 3046SOL    HW312504   2.659   1.473   1.518
 3046SOL    MW412505   2.649   1.525   1.587
 3047SOL     OW12506   2.387   0.692   0.680
 3047SOL    HW212507   2.372   0.612   0.731
 3047SOL    HW312508   2.469   0.727   0.714
 3047SOL    MW412509   2.395   0.684   0.692
 3048SOL     OW12510   2.724   1.378   1.365
 3048SOL    HW212511   2.688   1.444   1.305
 3048SOL    HW312512   2.652   1.316   1.378
 3048SOL    MW412513   2.710   1.378   1.359
 3049SOL     OW12514   2.529   0.518   1.057
 3049SOL    HW212515   2.435   0.514   1.075
 3049SOL    HW312516   2.559   0.427   1.066
 3049SOL    MW412517   2.520   0.506   1.060
 3050SOL     OW12518   2.275   0.932   0.961
 3050SOL    HW212519   2.230   0.939   0.877
 3050SOL    HW312520   2.255   1.015   1.005
 3050SOL    MW412521   2.267   0.944   0.955
 3051SOL     OW12522   1.972   1.778   0.836
 3051SOL    HW212523   2.061   1.770   0.871
 3051SOL    HW312524   1.936   1.690   0.841
 3051SOL    MW412525   1.979   1.765   0.841
 3052SOL     OW12526   2.236   1.305   0.871
 3052SOL    HW212527   2.212   1.358   0.947
 3052SOL    HW312528   2.292   1.363   0.819
 3052SOL    MW412529   2.240   1.320   0.874
 3053SOL     OW12530   2.798   0.949   0.681
 3053SOL    HW212531   2.712   0.936   0.721
 3053SOL    HW312532   2.851   0.876   0.713
 3053SOL    MW412533   2.794   0.938   0.690
 3054SOL     OW12534   2.206   1.601   1.466
 3054SOL    HW212535   2.114   1.577   1.451
 3054SOL    HW312536   2.250   1.518   1.483
 3054SOL    MW412537   2.200   1.586   1.465
 3055SOL     OW12538   2.789   1.311   0.398
 3055SOL    HW212539   2.766   1.373   0.466
 3055SOL    HW312540   2.746   1.229   0.424
 3055SOL    MW412541   2.781   1.307   0.409
 3056SOL     OW12542   3.662   0.312   0.854
 3056SOL    HW212543   3.599   0.292   0.923
 3056SOL    HW312544   3.652   0.241   0.791
 3056SOL    MW412545   3.652   0.299   0.855
 3057SOL     OW12546   2.286   0.284   0.366
 3057SOL    HW212547   2.260   0.246   0.282
 3057SOL    HW312548   2.223   0.354   0.382
 3057SOL    MW412549   2.275   0.287   0.357
 3058SOL     OW12550   2.121   1.245   0.403
 3058SOL    HW212551   2.069   1.313   0.359
 3058SOL    HW312552   2.118   1.171   0.343
 3058SOL    MW412553   2.113   1.244   0.390
 3059SOL     OW12554   3.463   1.084   0.506
 3059SOL    HW212555   3.373   1.084   0.541
 3059SOL    HW312556   3.456   1.130   0.423
 3059SOL    MW412557   3.450   1.090   0.500
 3060SOL     OW12558   3.263   0.719   1.578
 3060SOL    HW212559   3.332   0.657   1.555
 3060SOL    HW312560   3.188   0.693   1.525
 3060SOL    MW412561   3.263   0.706   1.569
 3061SOL     OW12562   2.004   1.599   1.130
 3061SOL    HW212563   1.987   1.545   1.207
 3061SOL    HW312564   1.992   1.689   1.160
 3061SOL    MW412565   2.001   1.603   1.144
 3062SOL     OW12566   2.999   1.106   1.570
 3062SOL    HW212567   2.984   1.199   1.555
 3062SOL    HW312568   3.094   1.096   1.570
 3062SOL    MW412569   3.008   1.116   1.567
 3063SOL     OW12570   2.795   0.530   1.771
 3063SOL    HW212571   2.885   0.531   1.738
 3063SOL    HW312572   2.754   0.455   1.729
 3063SOL    MW412573   2.801   0.520   1.762
 3064SOL     OW12574   3.370   1.062   0.898
 3064SOL    HW212575   3.373   0.996   0.829
 3064SOL    HW312576   3.455   1.105   0.894
 3064SOL    MW412577   3.382   1.058   0.889
 3065SOL     OW12578   2.990   0.665   0.467
 3065SOL    HW212579   3.016   0.689   0.378
 3065SOL    HW312580   2.972   0.572   0.463
 3065SOL    MW412581   2.992   0.657   0.454
 3066SOL     OW12582   2.575   0.334   1.721
 3066SOL    HW212583   2.585   0.260   1.661
 3066SOL    HW312584   2.611   0.303   1.804
 3066SOL    MW412585   2.581   0.320   1.723
 3067SOL     OW12586   2.311   1.701   0.636
 3067SOL    HW212587   2.343   1.789   0.614
 3067SOL    HW312588   2.264   1.673   0.558
 3067SOL    MW412589   2.310   1.709   0.623
 3068SOL     OW12590   3.695   0.063   0.685
 3068SOL    HW212591   3.749   0.014   0.747
 3068SOL    HW312592   3.638  -0.003   0.646
 3068SOL    MW412593   3.695   0.047   0.687
 3069SOL     OW12594   2.027   1.761   0.213
 3069SOL    HW212595   2.056   1.851   0.205
 3069SOL    HW312596   1.977   1.744   0.134
 3069SOL    MW412597   2.025   1.769   0.202
 3070SOL     OW12598   2.814   0.016   1.098
 3070SOL    HW212599   2.773   0.094   1.060
 3070SOL    HW312600   2.908   0.034   1.093
 3070SOL    MW412601   2.820   0.028   1.093
 3071SOL     OW12602   3.443   0.620   0.464
 3071SOL    HW212603   3.482   0.620   0.551
 3071SOL    HW312604   3.384   0.696   0.464
 3071SOL    MW412605   3.440   0.631   0.475
 3072SOL     OW12606   2.760   0.987   1.593
 3072SOL    HW212607   2.737   0.967   1.683
 3072SOL    HW312608   2.845   1.031   1.598
 3072SOL    MW412609   2.767   0.990   1.605
 3073SOL     OW12610   2.840   0.124   1.353
 3073SOL    HW212611   2.846   0.086   1.266
 3073SOL    HW312612   2.829   0.218   1.338
 3073SOL    MW412613   2.841   0.132   1.341
 3074SOL     OW12614   2.929   0.613   1.187
 3074SOL    HW212615   3.004   0.642   1.134
 3074SOL    HW312616   2.861   0.678   1.171
 3074SOL    MW412617   2.930   0.625   1.177
 3075SOL     OW12618   3.479   0.581   1.464
 3075SOL    HW212619   3.460   0.490   1.443
 3075SOL    HW312620   3.457   0.630   1.385
 3075SOL    MW412621   3.474   0.574   1.451
 3076SOL     OW12622   3.621   1.675   1.368
 3076SOL    HW212623   3.549   1.637   1.419
 3076SOL    HW312624   3.638   1.760   1.409
 3076SOL    MW412625   3.615   1.680   1.380
 3077SOL     OW12626   2.926   0.319   1.570
 3077SOL    HW212627   2.892   0.358   1.489
 3077SOL    HW312628   2.904   0.227   1.563
 3077SOL    MW412629   2.919   0.312   1.560
 3078SOL     OW12630   3.335   1.133   1.646
 3078SOL    HW212631   3.417   1.174   1.676
 3078SOL    HW312632   3.298   1.095   1.726
 3078SOL    MW412633   3.341   1.134   1.661
 3079SOL     OW12634   3.630   0.506   0.630
 3079SOL    HW212635   3.719   0.475   0.647
 3079SOL    HW312636   3.573   0.446   0.678
 3079SOL    MW412637   3.633   0.494   0.639
 3080SOL     OW12638   2.056   0.220   0.659
 3080SOL    HW212639   2.047   0.160   0.585
 3080SOL    HW312640   1.989   0.191   0.722
 3080SOL    MW412641   2.046   0.207   0.657
 3081SOL     OW12642   2.003   0.393   1.022
 3081SOL    HW212643   1.975   0.484   1.031
 3081SOL    HW312644   1.940   0.354   0.961
 3081SOL    MW412645   1.990   0.399   1.016
 3082SOL     OW12646   2.462   1.731   0.328
 3082SOL    HW212647   2.383   1.689   0.361
 3082SOL    HW312648   2.528   1.714   0.395
 3082SOL    MW412649   2.461   1.723   0.341
 3083SOL     OW12650   3.590   1.251   1.725
 3083SOL    HW212651   3.640   1.177   1.757
 3083SOL    HW312652   3.536   1.278   1.800
 3083SOL    MW412653   3.590   1.245   1.738
 3084SOL     OW12654   3.724   0.886   1.227
 3084SOL    HW212655   3.740   0.924   1.140
 3084SOL    HW312656   3.758   0.952   1.288
 3084SOL    MW412657   3.731   0.899   1.223
 3085SOL     OW12658   3.516   1.595   0.896
 3085SOL    HW212659   3.545   1.662   0.957
 3085SOL    HW312660   3.497   1.519   0.951
 3085SOL    MW412661   3.518   1.595   0.911
 3086SOL     OW12662   1.987   0.668   1.192
 3086SOL    HW212663   2.049   0.698   1.258
 3086SOL    HW312664   1.921   0.737   1.186
 3086SOL    MW412665   1.986   0.681   1.199
 3087SOL     OW12666   2.082   1.777   1.644
 3087SOL    HW212667   2.056   1.845   1.582
 3087SOL    HW312668   2.130   1.714   1.592
 3087SOL    MW412669   2.084   1.777   1.630
 3088SOL     OW12670   2.134   1.096   1.151
 3088SOL    HW212671   2.187   1.171   1.176
 3088SOL    HW312672   2.053   1.134   1.117
 3088SOL    MW412673   2.130   1.111   1.151
 3089SOL     OW12674   2.674   1.000   1.139
 3089SOL    HW212675   2.702   0.909   1.151
 3089SOL    HW312676   2.603   0.994   1.075
 3089SOL    MW412677   2.667   0.988   1.134
 3090SOL     OW12678   1.989   0.865   0.557
 3090SOL    HW212679   2.080   0.880   0.584
 3090SOL    HW312680   1.992   0.786   0.503
 3090SOL    MW412681   2.001   0.857   0.555
 3091SOL     OW12682   2.225   0.573   1.811
 3091SOL    HW212683   2.172   0.653   1.818
 3091SOL    HW312684   2.295   0.585   1.876
 3091SOL    MW412685   2.227   0.586   1.819
 3092SOL     OW12686   2.611   0.123   1.518
 3092SOL    HW212687   2.588   0.031   1.520
 3092SOL    HW312688   2.697   0.125   1.475
 3092SOL    MW412689   2.618   0.113   1.514
 3093SOL     OW12690   2.295   0.647   1.557
 3093SOL    HW212691   2.375   0.697   1.543
 3093SOL    HW312692   2.286   0.641   1.652
 3093SOL    MW412693   2.304   0.653   1.567
 3094SOL     OW12694   2.616   1.797   0.931
 3094SOL    HW212695   2.705   1.812   0.961
 3094SOL    HW312696   2.611   1.844   0.847
 3094SOL    MW412697   2.626   1.805   0.924
 3095SOL     OW12698   3.272   0.172   1.828
 3095SOL    HW212699   3.328   0.099   1.854
 3095SOL    HW312700   3.242   0.210   1.910
 3095SOL    MW412701   3.276   0.167   1.841
 3096SOL     OW12702   1.997   1.477   0.596
 3096SOL    HW212703   1.969   1.516   0.678
 3096SOL    HW312704   2.017   1.386   0.618
 3096SOL    MW412705   1.995   1.469   0.609
 3097SOL     OW12706   2.830   1.520   0.631
 3097SOL    HW212707   2.913   1.474   0.615
 3097SOL    HW312708   2.820   1.519   0.727
 3097SOL    MW412709   2.840   1.513   0.641
 3098SOL     OW12710   3.662   0.665   0.945
 3098SOL    HW212711   3.751   0.695   0.927
 3098SOL    HW312712   3.642   0.605   0.874
 3098SOL    MW412713   3.671   0.662   0.934
 3099SOL     OW12714   3.513   0.844   1.825
 3099SOL    HW212715   3.568   0.768   1.806
 3099SOL    HW312716   3.515   0.852   1.920
 3099SOL    MW412717   3.521   0.835   1.833
 3100SOL     OW12718   2.808   0.406   1.344
 3100SOL    HW212719   2.727   0.447   1.372
 3100SOL    HW312720   2.855   0.474   1.296
 3100SOL    MW412721   2.803   0.421   1.342
 3101SOL     OW12722   3.068   0.744   0.967
 3101SOL    HW212723   3.081   0.838   0.977
 3101SOL    HW312724   3.029   0.734   0.881
 3101SOL    MW412725   3.064   0.755   0.957
 3102SOL     OW12726   2.520   0.939   0.771
 3102SOL    HW212727   2.431   0.930   0.804
 3102SOL    HW312728   2.524   1.029   0.739
 3102SOL    MW412729   2.509   0.950   0.771
 3103SOL     OW12730   3.319   0.522   0.766
 3103SOL    HW212731   3.264   0.443   0.765
 3103SOL    HW312732   3.301   0.563   0.850
 3103SOL    MW412733   3.309   0.517   0.775
 3104SOL     OW12734   2.290   0.209   1.583
 3104SOL    HW212735   2.211   0.227   1.635
 3104SOL    HW312736   2.285   0.271   1.510
 3104SOL    MW412737   2.280   0.219   1.580
 3105SOL     OW12738   2.938   0.726   0.723
 3105SOL    HW212739   2.875   0.658   0.747
 3105SOL    HW312740   2.958   0.707   0.631
 3105SOL    MW412741   2.932   0.713   0.715
 3106SOL     OW12742   2.194   1.621   0.425
 3106SOL    HW212743   2.155   1.668   0.351
 3106SOL    HW312744   2.128   1.556   0.450
 3106SOL    MW412745   2.181   1.619   0.419
 3107SOL     OW12746   2.686   1.030   0.449
 3107SOL    HW212747   2.688   1.004   0.356
 3107SOL    HW312748   2.744   0.967   0.492
 3107SOL    MW412749   2.694   1.019   0.443
 3108SOL     OW12750   3.239   1.590   1.221
 3108SOL    HW212751   3.164   1.636   1.259
 3108SOL    HW312752   3.221   1.497   1.238
 3108SOL    MW412753   3.228   1.584   1.229
 3109SOL     OW12754   3.243   1.798   0.651
 3109SOL    HW212755   3.186   1.751   0.590
 3109SOL    HW312756   3.329   1.759   0.638
 3109SOL    MW412757   3.246   1.789   0.641
 3110SOL     OW12758   3.196   0.274   0.782
 3110SOL    HW212759   3.224   0.206   0.843
 3110SOL    HW312760   3.110   0.245   0.752
 3110SOL    MW412761   3.189   0.261   0.786
 3111SOL     OW12762   2.001   1.208   0.716
 3111SOL    HW212763   2.065   1.240   0.779
 3111SOL    HW312764   2.050   1.144   0.664
 3111SOL    MW412765   2.016   1.204   0.717
 3112SOL     OW12766   2.501   1.284   1.698
 3112SOL    HW212767   2.549   1.367   1.685
 3112SOL    HW312768   2.558   1.232   1.754
 3112SOL    MW412769   2.515   1.288   1.704
 3113SOL     OW12770   2.077   1.526   1.838
 3113SOL    HW212771   2.133   1.450   1.853
 3113SOL    HW312772   2.026   1.504   1.760
 3113SOL    MW412773   2.077   1.513   1.829
 3114SOL     OW12774   3.349   0.934   0.259
 3114SOL    HW212775   3.316   1.023   0.249
 3114SOL    HW312776   3.314   0.905   0.344
 3114SOL    MW412777   3.339   0.943   0.270
 3115SOL     OW12778   2.962   1.363   1.447
 3115SOL    HW212779   2.873   1.369   1.415
 3115SOL    HW312780   3.006   1.442   1.415
 3115SOL    MW412781   2.957   1.373   1.439
 3116SOL     OW12782   2.255   0.031   1.789
 3116SOL    HW212783   2.183  -0.004   1.737
 3116SOL    HW312784   2.313   0.072   1.724
 3116SOL    MW412785   2.253   0.032   1.774
 3117SOL     OW12786   2.279   1.521   1.088
 3117SOL    HW212787   2.324   1.583   1.145
 3117SOL    HW312788   2.186   1.540   1.101
 3117SOL    MW412789   2.272   1.531   1.095
 3118SOL     OW12790   3.719   1.050   1.442
 3118SOL    HW212791   3.634   1.063   1.401
 3118SOL    HW312792   3.699   1.014   1.529
 3118SOL    MW412793   3.706   1.046   1.447
 3119SOL     OW12794   2.701   1.589   1.196
 3119SOL    HW212795   2.725   1.578   1.105
 3119SOL    HW312796   2.624   1.646   1.194
 3119SOL    MW412797   2.693   1.594   1.185
 3120SOL     OW12798   2.343   0.972   0.051
 3120SOL    HW212799   2.266   0.985   0.107
 3120SOL    HW312800   2.307   0.936  -0.030
 3120SOL    MW412801   2.329   0.968   0.048
 3121SOL     OW12802   2.996   0.945   0.294
 3121SOL    HW212803   2.906   0.966   0.269
 3121SOL    HW312804   3.023   1.018   0.350
 3121SOL    MW412805   2.988   0.957   0.297
 3122SOL     OW12806   2.496   1.294   0.986
 3122SOL    HW212807   2.489   1.273   1.080
 3122SOL    HW312808   2.414   1.262   0.949
 3122SOL    MW412809   2.484   1.288   0.993
 3123SOL     OW12810   3.360   0.304   1.388
 3123SOL    HW212811   3.307   0.306   1.468
 3123SOL    HW312812   3.345   0.217   1.351
 3123SOL    MW412813   3.352   0.294   1.393
 3124SOL     OW12814   3.696   0.228   1.261
 3124SOL    HW212815   3.677   0.295   1.196
 3124SOL    HW312816   3.753   0.166   1.216
 3124SOL    MW412817   3.700   0.229   1.247
 3125SOL     OW12818   1.942   1.386   1.649
 3125SOL    HW212819   1.986   1.319   1.595
 3125SOL    HW312820   1.857   1.348   1.669
 3125SOL    MW412821   1.937   1.372   1.645
 3126SOL     OW12822   2.625   0.061   0.701
 3126SOL    HW212823   2.554   0.122   0.683
 3126SOL    HW312824   2.676   0.058   0.620
 3126SOL    MW412825   2.621   0.067   0.688
 3127SOL     OW12826   2.383   1.301   0.450
 3127SOL    HW212827   2.376   1.333   0.540
 3127SOL    HW312828   2.293   1.285   0.422
 3127SOL    MW412829   2.371   1.303   0.457
 3128SOL     OW12830   2.978   1.694   1.359
 3128SOL    HW212831   2.898   1.679   1.309
 3128SOL    HW312832   2.985   1.789   1.366
 3128SOL    MW412833   2.969   1.705   1.353
 3129SOL     OW12834   3.092   1.659   0.849
 3129SOL    HW212835   3.139   1.732   0.808
 3129SOL    HW312836   3.013   1.698   0.885
 3129SOL    MW412837   3.087   1.674   0.848
 3130SOL     OW12838   3.500   1.754   1.124
 3130SOL    HW212839   3.543   1.724   1.204
 3130SOL    HW312840   3.419   1.702   1.121
 3130SOL    MW412841   3.495   1.743   1.134
 3131SOL     OW12842   2.585   0.718   1.831
 3131SOL    HW212843   2.655   0.660   1.803
 3131SOL    HW312844   2.528   0.663   1.886
 3131SOL    MW412845   2.587   0.705   1.835
 3132SOL     OW12846   3.372   0.930   1.464
 3132SOL    HW212847   3.377   0.983   1.544
 3132SOL    HW312848   3.334   0.847   1.492
 3132SOL    MW412849   3.368   0.925   1.479
 3133SOL     OW12850   3.012   0.065   1.710
 3133SOL    HW212851   3.007  -0.028   1.691
 3133SOL    HW312852   3.095   0.076   1.756
 3133SOL    MW412853   3.020   0.054   1.714
 3134SOL     OW12854   2.386   0.585   0.164
 3134SOL    HW212855   2.352   0.641   0.234
 3134SOL    HW312856   2.457   0.535   0.204
 3134SOL    MW412857   2.392   0.586   0.178
 3135SOL     OW12858   3.482   1.336   0.986
 3135SOL    HW212859   3.517   1.318   0.899
 3135SOL    HW312860   3.387   1.337   0.973
 3135SOL    MW412861   3.474   1.333   0.973
 3136SOL     OW12862   2.911   0.984   1.355
 3136SOL    HW212863   2.954   1.019   1.433
 3136SOL    HW312864   2.894   1.061   1.301
 3136SOL    MW412865   2.914   0.999   1.358
 3137SOL     OW12866   2.302   0.126   0.657
 3137SOL    HW212867   2.352   0.169   0.588
 3137SOL    HW312868   2.217   0.170   0.657
 3137SOL    MW412869   2.299   0.139   0.648
 3138SOL     OW12870   2.061   1.188   1.517
 3138SOL    HW212871   2.089   1.141   1.595
 3138SOL    HW312872   1.982   1.143   1.488
 3138SOL    MW412873   2.054   1.177   1.523
 3139SOL     OW12874   2.569   0.515   1.484
 3139SOL    HW212875   2.541   0.603   1.508
 3139SOL    HW312876   2.538   0.459   1.555
 3139SOL    MW412877   2.561   0.518   1.496
 3140SOL     OW12878   2.224   0.911   0.697
 3140SOL    HW212879   2.282   0.967   0.645
 3140SOL    HW312880   2.268   0.826   0.699
 3140SOL    MW412881   2.237   0.908   0.690
 3141SOL     OW12882   3.364   0.263   0.534
 3141SOL    HW212883   3.286   0.213   0.559
 3141SOL    HW312884   3.335   0.354   0.534
 3141SOL    MW412885   3.350   0.267   0.537
 3142SOL     OW12886   2.950   0.225   0.693
 3142SOL    HW212887   2.970   0.300   0.637
 3142SOL    HW312888   2.930   0.264   0.778
 3142SOL    MW412889   2.951   0.241   0.697
 3143SOL     OW12890   3.710   0.998   1.712
 3143SOL    HW212891   3.623   0.978   1.748
 3143SOL    HW312892   3.764   0.924   1.737
 3143SOL    MW412893   3.705   0.987   1.720
 3144SOL     OW12894   1.931   1.511   0.869
 3144SOL    HW212895   1.963   1.515   0.960
 3144SOL    HW312896   1.836   1.519   0.877
 3144SOL    MW412897   1.923   1.514   0.882
 3145SOL     OW12898   1.886   0.637   0.416
 3145SOL    HW212899   1.826   0.609   0.486
 3145SOL    HW312900   1.960   0.577   0.422
 3145SOL    MW412901   1.888   0.626   0.425
 3146SOL     OW12902   3.454   1.849   1.850
 3146SOL    HW212903   3.499   1.773   1.815
 3146SOL    HW312904   3.492   1.862   1.937
 3146SOL    MW412905   3.464   1.842   1.856
 3147SOL     OW12906   3.054   1.368   0.576
 3147SOL    HW212907   3.077   1.319   0.654
 3147SOL    HW312908   3.135   1.410   0.548
 3147SOL    MW412909   3.067   1.368   0.583
 3148SOL     OW12910   2.312   0.376   1.305
 3148SOL    HW212911   2.345   0.457   1.345
 3148SOL    HW312912   2.285   0.402   1.217
 3148SOL    MW412913   2.311   0.390   1.299
 3149SOL     OW12914   2.266   0.343   1.041
 3149SOL    HW212915   2.296   0.257   1.012
 3149SOL    HW312916   2.171   0.336   1.044
 3149SOL    MW412917   2.258   0.332   1.039
 3150SOL     OW12918   3.095   0.552   1.732
 3150SOL    HW212919   3.147   0.487   1.685
 3150SOL    HW312920   3.053   0.603   1.662
 3150SOL    MW412921   3.096   0.549   1.715
 3151SOL     OW12922   3.194   0.347   1.593
 3151SOL    HW212923   3.101   0.331   1.580
 3151SOL    HW312924   3.220   0.285   1.661
 3151SOL    MW412925   3.184   0.337   1.600
 3152SOL     OW12926   2.409   0.121   0.932
 3152SOL    HW212927   2.419   0.030   0.958
 3152SOL    HW312928   2.365   0.117   0.847
 3152SOL    MW412929   2.405   0.109   0.924
 3153SOL     OW12930   2.503   1.736   1.478
 3153SOL    HW212931   2.420   1.721   1.523
 3153SOL    HW312932   2.562   1.669   1.513
 3153SOL    MW412933   2.501   1.726   1.488
 3154SOL     OW12934   3.560   0.443   1.103
 3154SOL    HW212935   3.493   0.476   1.163
 3154SOL    HW312936   3.603   0.521   1.069
 3154SOL    MW412937   3.558   0.458   1.107
 3155SOL     OW12938   3.738   1.163   1.073
 3155SOL    HW212939   3.731   1.103   0.998
 3155SOL    HW312940   3.664   1.223   1.062
 3155SOL    MW412941   3.728   1.163   1.062
 3156SOL     OW12942   3.120   1.025   0.991
 3156SOL    HW212943   3.134   0.997   1.082
 3156SOL    HW312944   3.206   1.056   0.963
 3156SOL    MW412945   3.133   1.026   1.000
 3157SOL     OW12946   3.203   0.520   1.270
 3157SOL    HW212947   3.224   0.521   1.177
 3157SOL    HW312948   3.248   0.442   1.303
 3157SOL    MW412949   3.210   0.510   1.262
 3158SOL     OW12950   3.696   0.651   1.812
 3158SOL    HW212951   3.733   0.596   1.881
 3158SOL    HW312952   3.721   0.608   1.730
 3158SOL    MW412953   3.703   0.639   1.811
 3159SOL     OW12954   3.243   0.949   1.863
 3159SOL    HW212955   3.309   0.897   1.817
 3159SOL    HW312956   3.263   0.936   1.956
 3159SOL    MW412957   3.254   0.940   1.870
 3160SOL     OW12958   3.254   0.810   0.490
 3160SOL    HW212959   3.169   0.780   0.460
 3160SOL    HW312960   3.246   0.817   0.585
 3160SOL    MW412961   3.242   0.808   0.499
 3161SOL     OW12962   2.330   1.273   1.221
 3161SOL    HW212963   2.342   1.300   1.312
 3161SOL    HW312964   2.311   1.354   1.174
 3161SOL    MW412965   2.329   1.288   1.226
 3162SOL     OW12966   2.614   0.253   1.044
 3162SOL    HW212967   2.587   0.255   1.135
 3162SOL    HW312968   2.544   0.205   0.999
 3162SOL    MW412969   2.602   0.249   1.051
 3163SOL     OW12970   2.468   1.745   1.206
 3163SOL    HW212971   2.520   1.822   1.183
 3163SOL    HW312972   2.477   1.737   1.301
 3163SOL    MW412973   2.477   1.752   1.217
 3164SOL     OW12974   3.370   1.330   1.438
 3164SOL    HW212975   3.355   1.259   1.501
 3164SOL    HW312976   3.416   1.288   1.366
 3164SOL    MW412977   3.376   1.314   1.438
 3165SOL     OW12978   2.444   1.061   1.555
 3165SOL    HW212979   2.481   1.066   1.467
 3165SOL    HW312980   2.483   1.134   1.602
 3165SOL    MW412981   2.454   1.071   1.550
 3166SOL     OW12982   2.624   1.104   1.367
 3166SOL    HW212983   2.683   1.050   1.420
 3166SOL    HW312984   2.639   1.076   1.277
 3166SOL    MW412985   2.634   1.093   1.363
 3167SOL     OW12986   3.435   1.593   1.539
 3167SOL    HW212987   3.477   1.578   1.624
 3167SOL    HW312988   3.426   1.506   1.501
 3167SOL    MW412989   3.439   1.581   1.546
 3168SOL     OW12990   3.095   0.072   1.130
 3168SOL    HW212991   3.150   0.081   1.052
 3168SOL    HW312992   3.150   0.106   1.201
 3168SOL    MW412993   3.109   0.077   1.129
 3169SOL     OW12994   2.102   0.985   0.314
 3169SOL    HW212995   2.039   1.001   0.243
 3169SOL    HW312996   2.049   0.948   0.385
 3169SOL    MW412997   2.087   0.982   0.314
 3170SOL     OW12998   2.458   1.339   0.173
 3170SOL    HW212999   2.473   1.315   0.265
 3170SOL    HW313000   2.366   1.317   0.157
 3170SOL    MW413001   2.448   1.332   0.183
 3171SOL     OW13002   2.256   1.728   0.894
 3171SOL    HW213003   2.260   1.639   0.929
 3171SOL    HW313004   2.282   1.719   0.803
 3171SOL    MW413005   2.259   1.716   0.886
 3172SOL     OW13006   2.873   1.206   1.137
 3172SOL    HW213007   2.805   1.140   1.153
 3172SOL    HW313008   2.891   1.200   1.044
 3172SOL    MW413009   2.866   1.197   1.128
 3173SOL     OW13010   1.962   1.481   1.388
 3173SOL    HW213011   1.952   1.439   1.474
 3173SOL    HW313012   1.883   1.534   1.378
 3173SOL    MW413013   1.951   1.482   1.399
 3174SOL     OW13014   2.866   0.345   0.958
 3174SOL    HW213015   2.796   0.297   1.003
 3174SOL    HW313016   2.898   0.408   1.022
 3174SOL    MW413017   2.861   0.347   0.972
 3175SOL     OW13018   2.517   0.781   1.578
 3175SOL    HW213019   2.510   0.876   1.566
 3175SOL    HW313020   2.526   0.770   1.673
 3175SOL    MW413021   2.518   0.793   1.588
 3176SOL     OW13022   2.238   1.296   1.836
 3176SOL    HW213023   2.310   1.298   1.773
 3176SOL    HW313024   2.208   1.205   1.835
 3176SOL    MW413025   2.243   1.285   1.828
 3177SOL     OW13026   3.322   0.059   1.303
 3177SOL    HW213027   3.393   0.005   1.267
 3177SOL    HW313028   3.321   0.038   1.396
 3177SOL    MW413029   3.331   0.050   1.311
 3178SOL     OW13030   3.522   1.589   1.787
 3178SOL    HW213031   3.495   1.586   1.878
 3178SOL    HW313032   3.618   1.593   1.790
 3178SOL    MW413033   3.532   1.589   1.799
 3179SOL     OW13034   2.333   0.451   0.771
 3179SOL    HW213035   2.404   0.399   0.734
 3179SOL    HW313036   2.319   0.416   0.858
 3179SOL    MW413037   2.341   0.440   0.778
 3180SOL     OW13038   1.888   1.786   1.843
 3180SOL    HW213039   1.938   1.764   1.765
 3180SOL    HW313040   1.896   1.881   1.851
 3180SOL    MW413041   1.896   1.795   1.834
 3181SOL     OW13042   2.649   1.544   0.847
 3181SOL    HW213043   2.577   1.481   0.860
 3181SOL    HW313044   2.610   1.629   0.865
 3181SOL    MW413045   2.633   1.547   0.850
 3182SOL     OW13046   2.054   0.082   0.427
 3182SOL    HW213047   2.125   0.103   0.366
 3182SOL    HW313048   2.008   0.010   0.385
 3182SOL    MW413049   2.058   0.076   0.413
 3183SOL     OW13050   1.885   0.549   1.570
 3183SOL    HW213051   1.949   0.615   1.545
 3183SOL    HW313052   1.804   0.576   1.527
 3183SOL    MW413053   1.883   0.561   1.562
 3184SOL     OW13054   3.623   1.456   0.527
 3184SOL    HW213055   3.593   1.389   0.588
 3184SOL    HW313056   3.717   1.462   0.541
 3184SOL    MW413057   3.631   1.448   0.537
 3185SOL     OW13058   3.179   1.133   0.457
 3185SOL    HW213059   3.151   1.219   0.490
 3185SOL    HW313060   3.207   1.149   0.367
 3185SOL    MW413061   3.179   1.147   0.449
 3186SOL     OW13062   2.841   0.053   0.510
 3186SOL    HW213063   2.878   0.112   0.575
 3186SOL    HW313064   2.818   0.109   0.436
 3186SOL    MW413065   2.842   0.068   0.509
 3187SOL     OW13066   3.694   0.935   0.932
 3187SOL    HW213067   3.685   0.967   0.843
 3187SOL    HW313068   3.647   0.851   0.932
 3187SOL    MW413069   3.687   0.928   0.922
 3188SOL     OW13070   2.070   0.775   1.511
 3188SOL    HW213071   2.091   0.844   1.449
 3188SOL    HW313072   2.150   0.722   1.516
 3188SOL    MW413073   2.083   0.776   1.505
 3189SOL     OW13074   3.606   0.866   0.633
 3189SOL    HW213075   3.700   0.855   0.621
 3189SOL    HW313076   3.582   0.938   0.574
 3189SOL    MW413077   3.616   0.874   0.624
 3190SOL     OW13078   2.055   0.790   1.778
 3190SOL    HW213079   1.981   0.734   1.804
 3190SOL    HW313080   2.050   0.793   1.683
 3190SOL    MW413081   2.044   0.783   1.768
 3191SOL     OW13082   2.221   0.077   1.228
 3191SOL    HW213083   2.264   0.161   1.248
 3191SOL    HW313084   2.294   0.015   1.221
 3191SOL    MW413085   2.236   0.080   1.229
 3192SOL     OW13086   2.262   0.744   0.406
 3192SOL    HW213087   2.262   0.839   0.391
 3192SOL    HW313088   2.339   0.728   0.460
 3192SOL    MW413089   2.272   0.755   0.411
 3193SOL     OW13090   3.038   0.603   1.470
 3193SOL    HW213091   3.074   0.576   1.386
 3193SOL    HW313092   2.951   0.637   1.449
 3193SOL    MW413093   3.032   0.604   1.457
 3194SOL     OW13094   2.021   0.475   0.695
 3194SOL    HW213095   2.083   0.482   0.768
 3194SOL    HW313096   2.021   0.382   0.672
 3194SOL    MW413097   2.029   0.464   0.702
 3195SOL     OW13098   2.703   0.736   1.179
 3195SOL    HW213099   2.661   0.654   1.155
 3195SOL    HW313100   2.704   0.735   1.275
 3195SOL    MW413101   2.696   0.725   1.188
 3196SOL     OW13102   3.374   1.869   1.578
 3196SOL    HW213103   3.377   1.775   1.561
 3196SOL    HW313104   3.397   1.877   1.670
 3196SOL    MW413105   3.377   1.857   1.588
 3197SOL     OW13106   2.507   0.206   1.284
 3197SOL    HW213107   2.438   0.269   1.305
 3197SOL    HW313108   2.534   0.170   1.369
 3197SOL    MW413109   2.501   0.209   1.297
 3198SOL     OW13110   1.890   1.047   0.153
 3198SOL    HW213111   1.859   1.112   0.216
 3198SOL    HW313112   1.839   0.969   0.172
 3198SOL    MW413113   1.880   1.044   0.163
 3199SOL     OW13114   3.302   0.059   0.901
 3199SOL    HW213115   3.390   0.068   0.938
 3199SOL    HW313116   3.312   0.000   0.827
 3199SOL    MW413117   3.316   0.053   0.895
 3200SOL     OW13118   3.334   0.798   0.745
 3200SOL    HW213119   3.414   0.813   0.694
 3200SOL    HW313120   3.327   0.703   0.751
 3200SOL    MW413121   3.343   0.787   0.740
 3201SOL     OW13122   2.474   1.847   0.095
 3201SOL    HW213123   2.379   1.847   0.087
 3201SOL    HW313124   2.490   1.793   0.173
 3201SOL    MW413125   2.464   1.841   0.104
 3202SOL     OW13126   2.784   0.724   1.442
 3202SOL    HW213127   2.853   0.791   1.439
 3202SOL    HW313128   2.717   0.762   1.498
 3202SOL    MW413129   2.785   0.737   1.449
 3203SOL     OW13130   2.202   1.024   1.690
 3203SOL    HW213131   2.156   0.940   1.692
 3203SOL    HW313132   2.259   1.018   1.614
 3203SOL    MW413133   2.204   1.012   1.682
 3204SOL     OW13134   2.453   1.399   0.691
 3204SOL    HW213135   2.518   1.332   0.712
 3204SOL    HW313136   2.505   1.476   0.668
 3204SOL    MW413137   2.468   1.401   0.690
 3205SOL     OW13138   2.714   0.564   0.821
 3205SOL    HW213139   2.654   0.582   0.893
 3205SOL    HW313140   2.748   0.476   0.840
 3205SOL    MW413141   2.710   0.554   0.834
 3206SOL     OW13142   3.655   0.063   1.490
 3206SOL    HW213143   3.576   0.109   1.518
 3206SOL    HW313144   3.690   0.117   1.419
 3206SOL    MW413145   3.649   0.076   1.484
 3207SOL     OW13146   2.939   1.147   0.840
 3207SOL    HW213147   3.031   1.128   0.858
 3207SOL    HW313148   2.912   1.077   0.780
 3207SOL    MW413149   2.947   1.135   0.834
 3208SOL     OW13150   2.732   0.967   0.195
 3208SOL    HW213151   2.718   0.879   0.160
 3208SOL    HW313152   2.683   1.024   0.136
 3208SOL    MW413153   2.724   0.962   0.183
 3209SOL     OW13154   3.213   1.385   0.936
 3209SOL    HW213155   3.186   1.469   0.901
 3209SOL    HW313156   3.173   1.380   1.023
 3209SOL    MW413157   3.206   1.394   0.942
 3210SOL     OW13158   3.132   1.333   1.204
 3210SOL    HW213159   3.143   1.300   1.293
 3210SOL    HW313160   3.051   1.292   1.173
 3210SOL    MW413161   3.122   1.325   1.210
 3211SOL     OW13162   2.145   0.691   0.974
 3211SOL    HW213163   2.095   0.690   1.055
 3211SOL    HW313164   2.165   0.783   0.958
 3211SOL    MW413165   2.141   0.703   0.982
 3212SOL     OW13166   3.212   1.455   1.736
 3212SOL    HW213167   3.212   1.549   1.752
 3212SOL    HW313168   3.257   1.445   1.652
 3212SOL    MW413169   3.218   1.465   1.727
 3213SOL     OW13170   2.740   0.736   0.411
 3213SOL    HW213171   2.720   0.722   0.318
 3213SOL    HW313172   2.833   0.715   0.418
 3213SOL    MW413173   2.750   0.731   0.400
 3214SOL     OW13174   2.067   0.359   1.715
 3214SOL    HW213175   2.024   0.418   1.652
 3214SOL    HW313176   2.135   0.414   1.755
 3214SOL    MW413177   2.071   0.374   1.712
 3215SOL     OW13178   3.179   0.979   1.260
 3215SOL    HW213179   3.242   0.976   1.333
 3215SOL    HW313180   3.095   0.997   1.302
 3215SOL    MW413181   3.175   0.981   1.275
 3216SOL     OW13182   2.723   1.694   0.449
 3216SOL    HW213183   2.781   1.765   0.476
 3216SOL    HW313184   2.746   1.622   0.507
 3216SOL    MW413185   2.734   1.694   0.460
 3217SOL     OW13186   3.518   0.156   1.039
 3217SOL    HW213187   3.563   0.074   1.058
 3217SOL    HW313188   3.538   0.212   1.115
 3217SOL    MW413189   3.528   0.152   1.051
 3218SOL     OW13190   1.966  -0.001   1.138
 3218SOL    HW213191   1.957   0.000   1.043
 3218SOL    HW313192   2.060   0.011   1.153
 3218SOL    MW413193   1.978   0.002   1.129
 3219SOL     OW13194   3.603   1.192   0.758
 3219SOL    HW213195   3.582   1.138   0.681
 3219SOL    HW313196   3.699   1.190   0.762
 3219SOL    MW413197   3.612   1.185   0.747
 3220SOL     OW13198   2.295   1.337   1.501
 3220SOL    HW213199   2.216   1.287   1.524
 3220SOL    HW313200   2.365   1.296   1.551
 3220SOL    MW413201   2.293   1.325   1.511
 3221SOL     OW13202   2.179   0.126   0.184
 3221SOL    HW213203   2.108   0.181   0.152
 3221SOL    HW313204   2.221   0.092   0.105
 3221SOL    MW413205   2.175   0.128   0.170
 3222SOL     OW13206   3.303   0.623   1.020
 3222SOL    HW213207   3.226   0.669   0.986
 3222SOL    HW313208   3.360   0.692   1.054
 3222SOL    MW413209   3.300   0.638   1.020
 3223SOL     OW13210   1.935   0.225   0.033
 3223SOL    HW213211   1.902   0.304   0.077
 3223SOL    HW313212   1.990   0.258  -0.038
 3223SOL    MW413213   1.938   0.239   0.030
 3224SOL     OW13214   1.969   1.482   0.222
 3224SOL    HW213215   1.986   1.566   0.264
 3224SOL    HW313216   2.004   1.491   0.134
 3224SOL    MW413217   1.974   1.495   0.216
 3225SOL     OW13218   3.241   1.571   0.439
 3225SOL    HW213219   3.304   1.561   0.368
 3225SOL    HW313220   3.158   1.591   0.394
 3225SOL    MW413221   3.238   1.572   0.424
 3226SOL     OW13222   3.604   0.839   2.125
 3226SOL    HW213223   3.645   0.781   2.190
 3226SOL    HW313224   3.511   0.831   2.142
 3226SOL    MW413225   3.598   0.831   2.135
 3227SOL     OW13226   3.470   0.771   3.120
 3227SOL    HW213227   3.425   0.838   3.171
 3227SOL    HW313228   3.558   0.807   3.106
 3227SOL    MW413229   3.476   0.784   3.124
 3228SOL     OW13230   2.398   1.022   2.354
 3228SOL    HW213231   2.488   0.997   2.338
 3228SOL    HW313232   2.394   1.115   2.331
 3228SOL    MW413233   2.410   1.031   2.349
 3229SOL     OW13234   3.514   1.725   2.496
 3229SOL    HW213235   3.526   1.671   2.574
 3229SOL    HW313236   3.551   1.673   2.425
 3229SOL    MW413237   3.520   1.710   2.497
 3230SOL     OW13238   2.893   1.610   3.497
 3230SOL    HW213239   2.934   1.646   3.418
 3230SOL    HW313240   2.928   1.521   3.504
 3230SOL    MW413241   2.904   1.603   3.488
 3231SOL     OW13242   3.450   1.165   3.101
 3231SOL    HW213243   3.371   1.130   3.059
 3231SOL    HW313244   3.477   1.237   3.045
 3231SOL    MW413245   3.443   1.170   3.088
 3232SOL     OW13246   2.682   0.478   2.367
 3232SOL    HW213247   2.657   0.566   2.395
 3232SOL    HW313248   2.679   0.481   2.271
 3232SOL    MW413249   2.678   0.490   2.359
 3233SOL     OW13250   2.124   0.506   2.295
 3233SOL    HW213251   2.156   0.594   2.277
 3233SOL    HW313252   2.112   0.504   2.390
 3233SOL    MW413253   2.127   0.518   2.307
 3234SOL     OW13254   2.202   0.919   3.196
 3234SOL    HW213255   2.265   0.866   3.147
 3234SOL    HW313256   2.183   0.993   3.139
 3234SOL    MW413257   2.208   0.921   3.183
 3235SOL     OW13258   2.523   0.261   2.382
 3235SOL    HW213259   2.581   0.337   2.384
 3235SOL    HW313260   2.458   0.282   2.315
 3235SOL    MW413261   2.522   0.273   2.373
 3236SOL     OW13262   2.610   1.188   2.557
 3236SOL    HW213263   2.690   1.191   2.609
 3236SOL    HW313264   2.638   1.155   2.471
 3236SOL    MW413265   2.624   1.184   2.552
 3237SOL     OW13266   2.635   1.529   3.460
 3237SOL    HW213267   2.719   1.555   3.499
 3237SOL    HW313268   2.659   1.473   3.386
 3237SOL    MW413269   2.649   1.525   3.455
 3238SOL     OW13270   2.387   0.692   2.548
 3238SOL    HW213271   2.372   0.612   2.599
 3238SOL    HW313272   2.469   0.727   2.582
 3238SOL    MW413273   2.395   0.684   2.560
 3239SOL     OW13274   2.724   1.378   3.233
 3239SOL    HW213275   2.688   1.444   3.173
 3239SOL    HW313276   2.652   1.316   3.246
 3239SOL    MW413277   2.710   1.378   3.227
 3240SOL     OW13278   2.529   0.518   2.925
 3240SOL    HW213279   2.435   0.514   2.943
 3240SOL    HW313280   2.559   0.427   2.934
 3240SOL    MW413281   2.520   0.506   2.928
 3241SOL     OW13282   2.275   0.932   2.829
 3241SOL    HW213283   2.230   0.939   2.745
 3241SOL    HW313284   2.255   1.015   2.873
 3241SOL    MW413285   2.267   0.944   2.823
 3242SOL     OW13286   1.972   1.778   2.704
 3242SOL    HW213287   2.061   1.770   2.739
 3242SOL    HW313288   1.936   1.690   2.709
 3242SOL    MW413289   1.979   1.765   2.709
 3243SOL     OW13290   3.237   1.170   2.073
 3243SOL    HW213291   3.155   1.206   2.039
 3243SOL    HW313292   3.305   1.213   2.022
 3243SOL    MW413293   3.235   1.180   2.061
 3244SOL     OW13294   2.236   1.305   2.739
 3244SOL    HW213295   2.212   1.358   2.815
 3244SOL    HW313296   2.292   1.363   2.687
 3244SOL    MW413297   2.240   1.320   2.742
 3245SOL     OW13298   2.798   0.949   2.549
 3245SOL    HW213299   2.712   0.936   2.589
 3245SOL    HW313300   2.851   0.876   2.581
 3245SOL    MW413301   2.794   0.938   2.558
 3246SOL     OW13302   2.206   1.601   3.334
 3246SOL    HW213303   2.114   1.577   3.319
 3246SOL    HW313304   2.250   1.518   3.351
 3246SOL    MW413305   2.200   1.586   3.333
 3247SOL     OW13306   2.789   1.311   2.266
 3247SOL    HW213307   2.766   1.373   2.334
 3247SOL    HW313308   2.746   1.229   2.292
 3247SOL    MW413309   2.781   1.307   2.277
 3248SOL     OW13310   3.662   0.312   2.722
 3248SOL    HW213311   3.599   0.292   2.791
 3248SOL    HW313312   3.652   0.241   2.659
 3248SOL    MW413313   3.652   0.299   2.723
 3249SOL     OW13314   2.286   0.284   2.234
 3249SOL    HW213315   2.260   0.246   2.150
 3249SOL    HW313316   2.223   0.354   2.250
 3249SOL    MW413317   2.275   0.287   2.225
 3250SOL     OW13318   2.121   1.245   2.271
 3250SOL    HW213319   2.069   1.313   2.227
 3250SOL    HW313320   2.118   1.171   2.211
 3250SOL    MW413321   2.113   1.244   2.258
 3251SOL     OW13322   2.783   1.708   2.049
 3251SOL    HW213323   2.738   1.724   2.132
 3251SOL    HW313324   2.714   1.673   1.991
 3251SOL    MW413325   2.769   1.705   2.051
 3252SOL     OW13326   3.718   0.481   2.024
 3252SOL    HW213327   3.627   0.483   2.052
 3252SOL    HW313328   3.763   0.543   2.082
 3252SOL    MW413329   3.711   0.489   2.034
 3253SOL     OW13330   3.463   1.084   2.374
 3253SOL    HW213331   3.373   1.084   2.409
 3253SOL    HW313332   3.456   1.130   2.291
 3253SOL    MW413333   3.450   1.090   2.368
 3254SOL     OW13334   3.263   0.719   3.446
 3254SOL    HW213335   3.332   0.657   3.423
 3254SOL    HW313336   3.188   0.693   3.393
 3254SOL    MW413337   3.263   0.706   3.437
 3255SOL     OW13338   2.004   1.599   2.998
 3255SOL    HW213339   1.987   1.545   3.075
 3255SOL    HW313340   1.992   1.689   3.028
 3255SOL    MW413341   2.001   1.603   3.012
 3256SOL     OW13342   2.999   1.106   3.438
 3256SOL    HW213343   2.984   1.199   3.423
 3256SOL    HW313344   3.094   1.096   3.438
 3256SOL    MW413345   3.008   1.116   3.435
 3257SOL     OW13346   2.795   0.530   3.639
 3257SOL    HW213347   2.885   0.531   3.606
 3257SOL    HW313348   2.754   0.455   3.597
 3257SOL    MW413349   2.801   0.520   3.630
 3258SOL     OW13350   3.370   1.062   2.766
 3258SOL    HW213351   3.373   0.996   2.697
 3258SOL    HW313352   3.455   1.105   2.762
 3258SOL    MW413353   3.382   1.058   2.757
 3259SOL     OW13354   2.990   0.665   2.335
 3259SOL    HW213355   3.016   0.689   2.246
 3259SOL    HW313356   2.972   0.572   2.331
 3259SOL    MW413357   2.992   0.657   2.322
 3260SOL     OW13358   3.655   1.285   2.186
 3260SOL    HW213359   3.611   1.326   2.261
 3260SOL    HW313360   3.712   1.353   2.151
 3260SOL    MW413361   3.657   1.299   2.191
 3261SOL     OW13362   2.575   0.334   3.589
 3261SOL    HW213363   2.585   0.260   3.529
 3261SOL    HW313364   2.611   0.303   3.672
 3261SOL    MW413365   2.581   0.320   3.591
 3262SOL     OW13366   2.311   1.701   2.504
 3262SOL    HW213367   2.343   1.789   2.482
 3262SOL    HW313368   2.264   1.673   2.426
 3262SOL    MW413369   2.310   1.709   2.491
 3263SOL     OW13370   3.695   0.063   2.553
 3263SOL    HW213371   3.749   0.014   2.615
 3263SOL    HW313372   3.638  -0.003   2.514
 3263SOL    MW413373   3.695   0.047   2.555
 3264SOL     OW13374   2.027   1.761   2.081
 3264SOL    HW213375   2.056   1.851   2.073
 3264SOL    HW313376   1.977   1.744   2.002
 3264SOL    MW413377   2.025   1.769   2.070
 3265SOL     OW13378   2.814   0.016   2.966
 3265SOL    HW213379   2.773   0.094   2.928
 3265SOL    HW313380   2.908   0.034   2.961
 3265SOL    MW413381   2.820   0.028   2.961
 3266SOL     OW13382   3.431   1.569   2.052
 3266SOL    HW213383   3.479   1.638   2.098
 3266SOL    HW313384   3.352   1.613   2.021
 3266SOL    MW413385   3.426   1.583   2.055
 3267SOL     OW13386   2.829   0.694   1.996
 3267SOL    HW213387   2.831   0.641   1.917
 3267SOL    HW313388   2.917   0.731   2.002
 3267SOL    MW413389   2.841   0.693   1.985
 3268SOL     OW13390   3.443   0.620   2.332
 3268SOL    HW213391   3.482   0.620   2.419
 3268SOL    HW313392   3.384   0.696   2.332
 3268SOL    MW413393   3.440   0.631   2.343
 3269SOL     OW13394   2.760   0.987   3.461
 3269SOL    HW213395   2.737   0.967   3.551
 3269SOL    HW313396   2.845   1.031   3.466
 3269SOL    MW413397   2.767   0.990   3.473
 3270SOL     OW13398   2.840   0.124   3.221
 3270SOL    HW213399   2.846   0.086   3.134
 3270SOL    HW313400   2.829   0.218   3.206
 3270SOL    MW413401   2.841   0.132   3.209
 3271SOL     OW13402   2.929   0.613   3.055
 3271SOL    HW213403   3.004   0.642   3.002
 3271SOL    HW313404   2.861   0.678   3.039
 3271SOL    MW413405   2.930   0.625   3.045
 3272SOL     OW13406   3.479   0.581   3.332
 3272SOL    HW213407   3.460   0.490   3.311
 3272SOL    HW313408   3.457   0.630   3.253
 3272SOL    MW413409   3.474   0.574   3.319
 3273SOL     OW13410   3.621   1.675   3.236
 3273SOL    HW213411   3.549   1.637   3.287
 3273SOL    HW313412   3.638   1.760   3.277
 3273SOL    MW413413   3.615   1.680   3.248
 3274SOL     OW13414   2.926   0.319   3.438
 3274SOL    HW213415   2.892   0.358   3.357
 3274SOL    HW313416   2.904   0.227   3.431
 3274SOL    MW413417   2.919   0.312   3.428
 3275SOL     OW13418   3.335   1.133   3.514
 3275SOL    HW213419   3.417   1.174   3.544
 3275SOL    HW313420   3.298   1.095   3.594
 3275SOL    MW413421   3.341   1.134   3.529
 3276SOL     OW13422   3.630   0.506   2.498
 3276SOL    HW213423   3.719   0.475   2.515
 3276SOL    HW313424   3.573   0.446   2.546
 3276SOL    MW413425   3.633   0.494   2.507
 3277SOL     OW13426   2.056   0.220   2.527
 3277SOL    HW213427   2.047   0.160   2.453
 3277SOL    HW313428   1.989   0.191   2.590
 3277SOL    MW413429   2.046   0.207   2.525
 3278SOL     OW13430   2.999   1.313   2.088
 3278SOL    HW213431   2.949   1.315   2.170
 3278SOL    HW313432   2.933   1.331   2.020
 3278SOL    MW413433   2.985   1.315   2.090
 3279SOL     OW13434   2.003   0.393   2.890
 3279SOL    HW213435   1.975   0.484   2.899
 3279SOL    HW313436   1.940   0.354   2.829
 3279SOL    MW413437   1.990   0.399   2.884
 3280SOL     OW13438   2.462   1.731   2.196
 3280SOL    HW213439   2.383   1.689   2.229
 3280SOL    HW313440   2.528   1.714   2.263
 3280SOL    MW413441   2.461   1.723   2.209
 3281SOL     OW13442   3.590   1.251   3.593
 3281SOL    HW213443   3.640   1.177   3.625
 3281SOL    HW313444   3.536   1.278   3.668
 3281SOL    MW413445   3.590   1.245   3.606
 3282SOL     OW13446   2.598   1.146   1.903
 3282SOL    HW213447   2.520   1.092   1.890
 3282SOL    HW313448   2.569   1.219   1.956
 3282SOL    MW413449   2.584   1.148   1.908
 3283SOL     OW13450   3.724   0.886   3.095
 3283SOL    HW213451   3.740   0.924   3.008
 3283SOL    HW313452   3.758   0.952   3.156
 3283SOL    MW413453   3.731   0.899   3.091
 3284SOL     OW13454   3.516   1.595   2.764
 3284SOL    HW213455   3.545   1.662   2.825
 3284SOL    HW313456   3.497   1.519   2.819
 3284SOL    MW413457   3.518   1.595   2.779
 3285SOL     OW13458   3.179   1.662   1.971
 3285SOL    HW213459   3.105   1.625   2.021
 3285SOL    HW313460   3.187   1.752   2.004
 3285SOL    MW413461   3.170   1.669   1.983
 3286SOL     OW13462   1.987   0.668   3.060
 3286SOL    HW213463   2.049   0.698   3.126
 3286SOL    HW313464   1.921   0.737   3.054
 3286SOL    MW413465   1.986   0.681   3.067
 3287SOL     OW13466   3.403   1.336   1.913
 3287SOL    HW213467   3.350   1.385   1.849
 3287SOL    HW313468   3.434   1.402   1.974
 3287SOL    MW413469   3.401   1.350   1.911
 3288SOL     OW13470   2.628   0.225   1.968
 3288SOL    HW213471   2.576   0.145   1.956
 3288SOL    HW313472   2.715   0.202   1.936
 3288SOL    MW413473   2.631   0.211   1.962
 3289SOL     OW13474   2.082   1.777   3.512
 3289SOL    HW213475   2.056   1.845   3.450
 3289SOL    HW313476   2.130   1.714   3.460
 3289SOL    MW413477   2.084   1.777   3.498
 3290SOL     OW13478   2.134   1.096   3.019
 3290SOL    HW213479   2.187   1.171   3.044
 3290SOL    HW313480   2.053   1.134   2.985
 3290SOL    MW413481   2.130   1.111   3.019
 3291SOL     OW13482   2.674   1.000   3.007
 3291SOL    HW213483   2.702   0.909   3.019
 3291SOL    HW313484   2.603   0.994   2.943
 3291SOL    MW413485   2.667   0.988   3.002
 3292SOL     OW13486   1.989   0.865   2.425
 3292SOL    HW213487   2.080   0.880   2.452
 3292SOL    HW313488   1.992   0.786   2.371
 3292SOL    MW413489   2.001   0.857   2.423
 3293SOL     OW13490   2.225   0.573   3.679
 3293SOL    HW213491   2.172   0.653   3.686
 3293SOL    HW313492   2.295   0.585   3.744
 3293SOL    MW413493   2.227   0.586   3.687
 3294SOL     OW13494   2.611   0.123   3.386
 3294SOL    HW213495   2.588   0.031   3.388
 3294SOL    HW313496   2.697   0.125   3.343
 3294SOL    MW413497   2.618   0.113   3.382
 3295SOL     OW13498   2.295   0.647   3.425
 3295SOL    HW213499   2.375   0.697   3.411
 3295SOL    HW313500   2.286   0.641   3.520
 3295SOL    MW413501   2.304   0.653   3.435
 3296SOL     OW13502   2.616   1.797   2.799
 3296SOL    HW213503   2.705   1.812   2.829
 3296SOL    HW313504   2.611   1.844   2.715
 3296SOL    MW413505   2.626   1.805   2.792
 3297SOL     OW13506   3.272   0.172   3.696
 3297SOL    HW213507   3.328   0.099   3.722
 3297SOL    HW313508   3.242   0.210   3.778
 3297SOL    MW413509   3.276   0.167   3.709
 3298SOL     OW13510   1.997   1.477   2.464
 3298SOL    HW213511   1.969   1.516   2.546
 3298SOL    HW313512   2.017   1.386   2.486
 3298SOL    MW413513   1.995   1.469   2.477
 3299SOL     OW13514   2.830   1.520   2.499
 3299SOL    HW213515   2.913   1.474   2.483
 3299SOL    HW313516   2.820   1.519   2.595
 3299SOL    MW413517   2.840   1.513   2.509
 3300SOL     OW13518   3.662   0.665   2.813
 3300SOL    HW213519   3.751   0.695   2.795
 3300SOL    HW313520   3.642   0.605   2.742
 3300SOL    MW413521   3.671   0.662   2.802
 3301SOL     OW13522   3.513   0.844   3.693
 3301SOL    HW213523   3.568   0.768   3.674
 3301SOL    HW313524   3.515   0.852   3.788
 3301SOL    MW413525   3.521   0.835   3.701
 3302SOL     OW13526   2.563   1.577   1.904
 3302SOL    HW213527   2.503   1.646   1.874
 3302SOL    HW313528   2.508   1.519   1.957
 3302SOL    MW413529   2.547   1.579   1.906
 3303SOL     OW13530   3.001   0.222   2.127
 3303SOL    HW213531   2.934   0.198   2.064
 3303SOL    HW313532   3.066   0.271   2.076
 3303SOL    MW413533   3.001   0.224   2.112
 3304SOL     OW13534   2.808   0.406   3.212
 3304SOL    HW213535   2.727   0.447   3.240
 3304SOL    HW313536   2.855   0.474   3.164
 3304SOL    MW413537   2.803   0.421   3.210
 3305SOL     OW13538   3.068   0.744   2.835
 3305SOL    HW213539   3.081   0.838   2.845
 3305SOL    HW313540   3.029   0.734   2.749
 3305SOL    MW413541   3.064   0.755   2.825
 3306SOL     OW13542   2.520   0.939   2.639
 3306SOL    HW213543   2.431   0.930   2.672
 3306SOL    HW313544   2.524   1.029   2.607
 3306SOL    MW413545   2.509   0.950   2.639
 3307SOL     OW13546   3.319   0.522   2.634
 3307SOL    HW213547   3.264   0.443   2.633
 3307SOL    HW313548   3.301   0.563   2.718
 3307SOL    MW413549   3.309   0.517   2.643
 3308SOL     OW13550   2.290   0.209   3.451
 3308SOL    HW213551   2.211   0.227   3.503
 3308SOL    HW313552   2.285   0.271   3.378
 3308SOL    MW413553   2.280   0.219   3.448
 3309SOL     OW13554   2.938   0.726   2.591
 3309SOL    HW213555   2.875   0.658   2.615
 3309SOL    HW313556   2.958   0.707   2.499
 3309SOL    MW413557   2.932   0.713   2.583
 3310SOL     OW13558   2.194   1.621   2.293
 3310SOL    HW213559   2.155   1.668   2.219
 3310SOL    HW313560   2.128   1.556   2.318
 3310SOL    MW413561   2.181   1.619   2.287
 3311SOL     OW13562   2.686   1.030   2.317
 3311SOL    HW213563   2.688   1.004   2.224
 3311SOL    HW313564   2.744   0.967   2.360
 3311SOL    MW413565   2.694   1.019   2.311
 3312SOL     OW13566   3.239   1.590   3.089
 3312SOL    HW213567   3.164   1.636   3.127
 3312SOL    HW313568   3.221   1.497   3.106
 3312SOL    MW413569   3.228   1.584   3.097
 3313SOL     OW13570   3.243   1.798   2.519
 3313SOL    HW213571   3.186   1.751   2.458
 3313SOL    HW313572   3.329   1.759   2.506
 3313SOL    MW413573   3.246   1.789   2.509
 3314SOL     OW13574   3.196   0.274   2.650
 3314SOL    HW213575   3.224   0.206   2.711
 3314SOL    HW313576   3.110   0.245   2.620
 3314SOL    MW413577   3.189   0.261   2.654
 3315SOL     OW13578   2.001   1.208   2.584
 3315SOL    HW213579   2.065   1.240   2.647
 3315SOL    HW313580   2.050   1.144   2.532
 3315SOL    MW413581   2.016   1.204   2.585
 3316SOL     OW13582   2.501   1.284   3.566
 3316SOL    HW213583   2.549   1.367   3.553
 3316SOL    HW313584   2.558   1.232   3.622
 3316SOL    MW413585   2.515   1.288   3.572
 3317SOL     OW13586   2.077   1.526   3.706
 3317SOL    HW213587   2.133   1.450   3.721
 3317SOL    HW313588   2.026   1.504   3.628
 3317SOL    MW413589   2.077   1.513   3.697
 3318SOL     OW13590   3.176   0.378   1.985
 3318SOL    HW213591   3.149   0.444   1.921
 3318SOL    HW313592   3.246   0.421   2.035
 3318SOL    MW413593   3.181   0.391   1.982
 3319SOL     OW13594   2.844   0.083   1.922
 3319SOL    HW213595   2.900   0.075   1.844
 3319SOL    HW313596   2.821  -0.007   1.944
 3319SOL    MW413597   2.849   0.070   1.915
 3320SOL     OW13598   3.349   0.934   2.127
 3320SOL    HW213599   3.316   1.023   2.117
 3320SOL    HW313600   3.314   0.905   2.212
 3320SOL    MW413601   3.339   0.943   2.138
 3321SOL     OW13602   2.962   1.363   3.315
 3321SOL    HW213603   2.873   1.369   3.283
 3321SOL    HW313604   3.006   1.442   3.283
 3321SOL    MW413605   2.957   1.373   3.307
 3322SOL     OW13606   2.255   0.031   3.657
 3322SOL    HW213607   2.183  -0.004   3.605
 3322SOL    HW313608   2.313   0.072   3.592
 3322SOL    MW413609   2.253   0.032   3.642
 3323SOL     OW13610   2.279   1.521   2.956
 3323SOL    HW213611   2.324   1.583   3.013
 3323SOL    HW313612   2.186   1.540   2.969
 3323SOL    MW413613   2.272   1.531   2.963
 3324SOL     OW13614   3.719   1.050   3.310
 3324SOL    HW213615   3.634   1.063   3.269
 3324SOL    HW313616   3.699   1.014   3.397
 3324SOL    MW413617   3.706   1.046   3.315
 3325SOL     OW13618   2.701   1.589   3.064
 3325SOL    HW213619   2.725   1.578   2.973
 3325SOL    HW313620   2.624   1.646   3.062
 3325SOL    MW413621   2.693   1.594   3.053
 3326SOL     OW13622   2.343   0.972   1.919
 3326SOL    HW213623   2.266   0.985   1.975
 3326SOL    HW313624   2.307   0.936   1.838
 3326SOL    MW413625   2.329   0.968   1.916
 3327SOL     OW13626   2.996   0.945   2.162
 3327SOL    HW213627   2.906   0.966   2.137
 3327SOL    HW313628   3.023   1.018   2.218
 3327SOL    MW413629   2.988   0.957   2.165
 3328SOL     OW13630   2.496   1.294   2.854
 3328SOL    HW213631   2.489   1.273   2.948
 3328SOL    HW313632   2.414   1.262   2.817
 3328SOL    MW413633   2.484   1.288   2.861
 3329SOL     OW13634   3.360   0.304   3.256
 3329SOL    HW213635   3.307   0.306   3.336
 3329SOL    HW313636   3.345   0.217   3.219
 3329SOL    MW413637   3.352   0.294   3.261
 3330SOL     OW13638   3.696   0.228   3.129
 3330SOL    HW213639   3.677   0.295   3.064
 3330SOL    HW313640   3.753   0.166   3.084
 3330SOL    MW413641   3.700   0.229   3.115
 3331SOL     OW13642   1.942   1.386   3.517
 3331SOL    HW213643   1.986   1.319   3.463
 3331SOL    HW313644   1.857   1.348   3.537
 3331SOL    MW413645   1.937   1.372   3.513
 3332SOL     OW13646   2.625   0.061   2.569
 3332SOL    HW213647   2.554   0.122   2.551
 3332SOL    HW313648   2.676   0.058   2.488
 3332SOL    MW413649   2.621   0.067   2.556
 3333SOL     OW13650   2.383   1.301   2.318
 3333SOL    HW213651   2.376   1.333   2.408
 3333SOL    HW313652   2.293   1.285   2.290
 3333SOL    MW413653   2.371   1.303   2.325
 3334SOL     OW13654   2.978   1.694   3.227
 3334SOL    HW213655   2.898   1.679   3.177
 3334SOL    HW313656   2.985   1.789   3.234
 3334SOL    MW413657   2.969   1.705   3.221
 3335SOL     OW13658   3.092   1.659   2.717
 3335SOL    HW213659   3.139   1.732   2.676
 3335SOL    HW313660   3.013   1.698   2.753
 3335SOL    MW413661   3.087   1.674   2.716
 3336SOL     OW13662   3.500   1.754   2.992
 3336SOL    HW213663   3.543   1.724   3.072
 3336SOL    HW313664   3.419   1.702   2.989
 3336SOL    MW413665   3.495   1.743   3.002
 3337SOL     OW13666   2.585   0.718   3.699
 3337SOL    HW213667   2.655   0.660   3.671
 3337SOL    HW313668   2.528   0.663   3.754
 3337SOL    MW413669   2.587   0.705   3.703
 3338SOL     OW13670   3.372   0.930   3.332
 3338SOL    HW213671   3.377   0.983   3.412
 3338SOL    HW313672   3.334   0.847   3.360
 3338SOL    MW413673   3.368   0.925   3.347
 3339SOL     OW13674   3.012   0.065   3.578
 3339SOL    HW213675   3.007  -0.028   3.559
 3339SOL    HW313676   3.095   0.076   3.624
 3339SOL    MW413677   3.020   0.054   3.582
 3340SOL     OW13678   2.386   0.585   2.032
 3340SOL    HW213679   2.352   0.641   2.102
 3340SOL    HW313680   2.457   0.535   2.072
 3340SOL    MW413681   2.392   0.586   2.046
 3341SOL     OW13682   3.482   1.336   2.854
 3341SOL    HW213683   3.517   1.318   2.767
 3341SOL    HW313684   3.387   1.337   2.841
 3341SOL    MW413685   3.474   1.333   2.841
 3342SOL     OW13686   2.911   0.984   3.223
 3342SOL    HW213687   2.954   1.019   3.301
 3342SOL    HW313688   2.894   1.061   3.169
 3342SOL    MW413689   2.914   0.999   3.226
 3343SOL     OW13690   3.442   0.471   2.096
 3343SOL    HW213691   3.434   0.542   2.033
 3343SOL    HW313692   3.460   0.515   2.179
 3343SOL    MW413693   3.443   0.485   2.098
 3344SOL     OW13694   2.302   0.126   2.525
 3344SOL    HW213695   2.352   0.169   2.456
 3344SOL    HW313696   2.217   0.170   2.525
 3344SOL    MW413697   2.299   0.139   2.516
 3345SOL     OW13698   2.061   1.188   3.385
 3345SOL    HW213699   2.089   1.141   3.463
 3345SOL    HW313700   1.982   1.143   3.356
 3345SOL    MW413701   2.054   1.177   3.391
 3346SOL     OW13702   2.569   0.515   3.352
 3346SOL    HW213703   2.541   0.603   3.376
 3346SOL    HW313704   2.538   0.459   3.423
 3346SOL    MW413705   2.561   0.518   3.364
 3347SOL     OW13706   3.111   0.733   2.071
 3347SOL    HW213707   3.158   0.751   1.990
 3347SOL    HW313708   3.077   0.817   2.099
 3347SOL    MW413709   3.113   0.747   2.064
 3348SOL     OW13710   2.224   0.911   2.565
 3348SOL    HW213711   2.282   0.967   2.513
 3348SOL    HW313712   2.268   0.826   2.567
 3348SOL    MW413713   2.237   0.908   2.558
 3349SOL     OW13714   3.364   0.263   2.402
 3349SOL    HW213715   3.286   0.213   2.427
 3349SOL    HW313716   3.335   0.354   2.402
 3349SOL    MW413717   3.350   0.267   2.405
 3350SOL     OW13718   2.950   0.225   2.561
 3350SOL    HW213719   2.970   0.300   2.505
 3350SOL    HW313720   2.930   0.264   2.646
 3350SOL    MW413721   2.951   0.241   2.565
 3351SOL     OW13722   2.846   1.475   1.893
 3351SOL    HW213723   2.873   1.553   1.845
 3351SOL    HW313724   2.753   1.490   1.912
 3351SOL    MW413725   2.837   1.488   1.889
 3352SOL     OW13726   3.710   0.998   3.580
 3352SOL    HW213727   3.623   0.978   3.616
 3352SOL    HW313728   3.764   0.924   3.605
 3352SOL    MW413729   3.705   0.987   3.588
 3353SOL     OW13730   1.931   1.511   2.737
 3353SOL    HW213731   1.963   1.515   2.828
 3353SOL    HW313732   1.836   1.519   2.745
 3353SOL    MW413733   1.923   1.514   2.750
 3354SOL     OW13734   1.886   0.637   2.284
 3354SOL    HW213735   1.826   0.609   2.354
 3354SOL    HW313736   1.960   0.577   2.290
 3354SOL    MW413737   1.888   0.626   2.293
 3355SOL     OW13738   3.454   1.849   3.718
 3355SOL    HW213739   3.499   1.773   3.683
 3355SOL    HW313740   3.492   1.862   3.805
 3355SOL    MW413741   3.464   1.842   3.724
 3356SOL     OW13742   3.054   1.368   2.444
 3356SOL    HW213743   3.077   1.319   2.522
 3356SOL    HW313744   3.135   1.410   2.416
 3356SOL    MW413745   3.067   1.368   2.451
 3357SOL     OW13746   2.312   0.376   3.173
 3357SOL    HW213747   2.345   0.457   3.213
 3357SOL    HW313748   2.285   0.402   3.085
 3357SOL    MW413749   2.311   0.390   3.167
 3358SOL     OW13750   2.266   0.343   2.909
 3358SOL    HW213751   2.296   0.257   2.880
 3358SOL    HW313752   2.171   0.336   2.912
 3358SOL    MW413753   2.258   0.332   2.907
 3359SOL     OW13754   3.095   0.552   3.600
 3359SOL    HW213755   3.147   0.487   3.553
 3359SOL    HW313756   3.053   0.603   3.530
 3359SOL    MW413757   3.096   0.549   3.583
 3360SOL     OW13758   3.194   0.347   3.461
 3360SOL    HW213759   3.101   0.331   3.448
 3360SOL    HW313760   3.220   0.285   3.529
 3360SOL    MW413761   3.184   0.337   3.468
 3361SOL     OW13762   2.409   0.121   2.800
 3361SOL    HW213763   2.419   0.030   2.826
 3361SOL    HW313764   2.365   0.117   2.715
 3361SOL    MW413765   2.405   0.109   2.792
 3362SOL     OW13766   2.503   1.736   3.346
 3362SOL    HW213767   2.420   1.721   3.391
 3362SOL    HW313768   2.562   1.669   3.381
 3362SOL    MW413769   2.501   1.726   3.356
 3363SOL     OW13770   3.560   0.443   2.971
 3363SOL    HW213771   3.493   0.476   3.031
 3363SOL    HW313772   3.603   0.521   2.937
 3363SOL    MW413773   3.558   0.458   2.975
 3364SOL     OW13774   3.738   1.163   2.941
 3364SOL    HW213775   3.731   1.103   2.866
 3364SOL    HW313776   3.664   1.223   2.930
 3364SOL    MW413777   3.728   1.163   2.930
 3365SOL     OW13778   3.120   1.025   2.859
 3365SOL    HW213779   3.134   0.997   2.950
 3365SOL    HW313780   3.206   1.056   2.831
 3365SOL    MW413781   3.133   1.026   2.868
 3366SOL     OW13782   3.203   0.520   3.138
 3366SOL    HW213783   3.224   0.521   3.045
 3366SOL    HW313784   3.248   0.442   3.171
 3366SOL    MW413785   3.210   0.510   3.130
 3367SOL     OW13786   3.696   0.651   3.680
 3367SOL    HW213787   3.733   0.596   3.749
 3367SOL    HW313788   3.721   0.608   3.598
 3367SOL    MW413789   3.703   0.639   3.679
 3368SOL     OW13790   3.243   0.949   3.731
 3368SOL    HW213791   3.309   0.897   3.685
 3368SOL    HW313792   3.263   0.936   3.824
 3368SOL    MW413793   3.254   0.940   3.738
 3369SOL     OW13794   3.194   0.035   2.080
 3369SOL    HW213795   3.268   0.079   2.123
 3369SOL    HW313796   3.118   0.089   2.102
 3369SOL    MW413797   3.194   0.047   2.088
 3370SOL     OW13798   3.254   0.810   2.358
 3370SOL    HW213799   3.169   0.780   2.328
 3370SOL    HW313800   3.246   0.817   2.453
 3370SOL    MW413801   3.242   0.808   2.367
 3371SOL     OW13802   2.330   1.273   3.089
 3371SOL    HW213803   2.342   1.300   3.180
 3371SOL    HW313804   2.311   1.354   3.042
 3371SOL    MW413805   2.329   1.288   3.094
 3372SOL     OW13806   2.614   0.253   2.912
 3372SOL    HW213807   2.587   0.255   3.003
 3372SOL    HW313808   2.544   0.205   2.867
 3372SOL    MW413809   2.602   0.249   2.919
 3373SOL     OW13810   2.468   1.745   3.074
 3373SOL    HW213811   2.520   1.822   3.051
 3373SOL    HW313812   2.477   1.737   3.169
 3373SOL    MW413813   2.477   1.752   3.085
 3374SOL     OW13814   3.370   1.330   3.306
 3374SOL    HW213815   3.355   1.259   3.369
 3374SOL    HW313816   3.416   1.288   3.234
 3374SOL    MW413817   3.376   1.314   3.306
 3375SOL     OW13818   2.444   1.061   3.423
 3375SOL    HW213819   2.481   1.066   3.335
 3375SOL    HW313820   2.483   1.134   3.470
 3375SOL    MW413821   2.454   1.071   3.418
 3376SOL     OW13822   2.624   1.104   3.235
 3376SOL    HW213823   2.683   1.050   3.288
 3376SOL    HW313824   2.639   1.076   3.145
 3376SOL    MW413825   2.634   1.093   3.231
 3377SOL     OW13826   2.627   0.476   2.084
 3377SOL    HW213827   2.700   0.525   2.047
 3377SOL    HW313828   2.643   0.385   2.058
 3377SOL    MW413829   2.639   0.471   2.077
 3378SOL     OW13830   3.435   1.593   3.407
 3378SOL    HW213831   3.477   1.578   3.492
 3378SOL    HW313832   3.426   1.506   3.369
 3378SOL    MW413833   3.439   1.581   3.414
 3379SOL     OW13834   3.095   0.072   2.998
 3379SOL    HW213835   3.150   0.081   2.920
 3379SOL    HW313836   3.150   0.106   3.069
 3379SOL    MW413837   3.109   0.077   2.997
 3380SOL     OW13838   2.102   0.985   2.182
 3380SOL    HW213839   2.039   1.001   2.111
 3380SOL    HW313840   2.049   0.948   2.253
 3380SOL    MW413841   2.087   0.982   2.182
 3381SOL     OW13842   2.458   1.339   2.041
 3381SOL    HW213843   2.473   1.315   2.133
 3381SOL    HW313844   2.366   1.317   2.025
 3381SOL    MW413845   2.448   1.332   2.051
 3382SOL     OW13846   2.997   1.570   2.193
 3382SOL    HW213847   3.005   1.488   2.144
 3382SOL    HW313848   2.916   1.609   2.160
 3382SOL    MW413849   2.987   1.565   2.183
 3383SOL     OW13850   2.256   1.728   2.762
 3383SOL    HW213851   2.260   1.639   2.797
 3383SOL    HW313852   2.282   1.719   2.671
 3383SOL    MW413853   2.259   1.716   2.754
 3384SOL     OW13854   2.873   1.206   3.005
 3384SOL    HW213855   2.805   1.140   3.021
 3384SOL    HW313856   2.891   1.200   2.912
 3384SOL    MW413857   2.866   1.197   2.996
 3385SOL     OW13858   1.962   1.481   3.256
 3385SOL    HW213859   1.952   1.439   3.342
 3385SOL    HW313860   1.883   1.534   3.246
 3385SOL    MW413861   1.951   1.482   3.267
 3386SOL     OW13862   2.866   0.345   2.826
 3386SOL    HW213863   2.796   0.297   2.871
 3386SOL    HW313864   2.898   0.408   2.890
 3386SOL    MW413865   2.861   0.347   2.840
 3387SOL     OW13866   2.517   0.781   3.446
 3387SOL    HW213867   2.510   0.876   3.434
 3387SOL    HW313868   2.526   0.770   3.541
 3387SOL    MW413869   2.518   0.793   3.456
 3388SOL     OW13870   2.238   1.296   3.704
 3388SOL    HW213871   2.310   1.298   3.641
 3388SOL    HW313872   2.208   1.205   3.703
 3388SOL    MW413873   2.243   1.285   3.696
 3389SOL     OW13874   3.322   0.059   3.171
 3389SOL    HW213875   3.393   0.005   3.135
 3389SOL    HW313876   3.321   0.038   3.264
 3389SOL    MW413877   3.331   0.050   3.179
 3390SOL     OW13878   3.522   1.589   3.655
 3390SOL    HW213879   3.495   1.586   3.746
 3390SOL    HW313880   3.618   1.593   3.658
 3390SOL    MW413881   3.532   1.589   3.667
 3391SOL     OW13882   2.333   0.451   2.639
 3391SOL    HW213883   2.404   0.399   2.602
 3391SOL    HW313884   2.319   0.416   2.726
 3391SOL    MW413885   2.341   0.440   2.646
 3392SOL     OW13886   1.888   1.786   3.711
 3392SOL    HW213887   1.938   1.764   3.633
 3392SOL    HW313888   1.896   1.881   3.719
 3392SOL    MW413889   1.896   1.795   3.702
 3393SOL     OW13890   2.649   1.544   2.715
 3393SOL    HW213891   2.577   1.481   2.728
 3393SOL    HW313892   2.610   1.629   2.733
 3393SOL    MW413893   2.633   1.547   2.718
 3394SOL     OW13894   2.969   0.392   2.363
 3394SOL    HW213895   2.991   0.329   2.295
 3394SOL    HW313896   2.874   0.384   2.374
 3394SOL    MW413897   2.959   0.383   2.355
 3395SOL     OW13898   2.054   0.082   2.295
 3395SOL    HW213899   2.125   0.103   2.234
 3395SOL    HW313900   2.008   0.010   2.253
 3395SOL    MW413901   2.058   0.076   2.281
 3396SOL     OW13902   1.885   0.549   3.438
 3396SOL    HW213903   1.949   0.615   3.413
 3396SOL    HW313904   1.804   0.576   3.395
 3396SOL    MW413905   1.883   0.561   3.430
 3397SOL     OW13906   3.623   1.456   2.395
 3397SOL    HW213907   3.593   1.389   2.456
 3397SOL    HW313908   3.717   1.462   2.409
 3397SOL    MW413909   3.631   1.448   2.405
 3398SOL     OW13910   3.179   1.133   2.325
 3398SOL    HW213911   3.151   1.219   2.358
 3398SOL    HW313912   3.207   1.149   2.235
 3398SOL    MW413913   3.179   1.147   2.317
 3399SOL     OW13914   2.841   0.053   2.378
 3399SOL    HW213915   2.878   0.112   2.443
 3399SOL    HW313916   2.818   0.109   2.304
 3399SOL    MW413917   2.842   0.068   2.377
 3400SOL     OW13918   3.694   0.935   2.800
 3400SOL    HW213919   3.685   0.967   2.711
 3400SOL    HW313920   3.647   0.851   2.800
 3400SOL    MW413921   3.687   0.928   2.790
 3401SOL     OW13922   2.070   0.775   3.379
 3401SOL    HW213923   2.091   0.844   3.317
 3401SOL    HW313924   2.150   0.722   3.384
 3401SOL    MW413925   2.083   0.776   3.373
 3402SOL     OW13926   3.606   0.866   2.501
 3402SOL    HW213927   3.700   0.855   2.489
 3402SOL    HW313928   3.582   0.938   2.442
 3402SOL    MW413929   3.616   0.874   2.492
 3403SOL     OW13930   2.055   0.790   3.646
 3403SOL    HW213931   1.981   0.734   3.672
 3403SOL    HW313932   2.050   0.793   3.551
 3403SOL    MW413933   2.044   0.783   3.636
 3404SOL     OW13934   2.221   0.077   3.096
 3404SOL    HW213935   2.264   0.161   3.116
 3404SOL    HW313936   2.294   0.015   3.089
 3404SOL    MW413937   2.236   0.080   3.097
 3405SOL     OW13938   2.262   0.744   2.274
 3405SOL    HW213939   2.262   0.839   2.259
 3405SOL    HW313940   2.339   0.728   2.328
 3405SOL    MW413941   2.272   0.755   2.279
 3406SOL     OW13942   3.038   0.603   3.338
 3406SOL    HW213943   3.074   0.576   3.254
 3406SOL    HW313944   2.951   0.637   3.317
 3406SOL    MW413945   3.032   0.604   3.325
 3407SOL     OW13946   2.021   0.475   2.563
 3407SOL    HW213947   2.083   0.482   2.636
 3407SOL    HW313948   2.021   0.382   2.540
 3407SOL    MW413949   2.029   0.464   2.570
 3408SOL     OW13950   3.568   1.815   2.095
 3408SOL    HW213951   3.635   1.848   2.035
 3408SOL    HW313952   3.525   1.894   2.129
 3408SOL    MW413953   3.570   1.830   2.091
 3409SOL     OW13954   2.703   0.736   3.047
 3409SOL    HW213955   2.661   0.654   3.023
 3409SOL    HW313956   2.704   0.735   3.143
 3409SOL    MW413957   2.696   0.725   3.056
 3410SOL     OW13958   3.374   1.869   3.446
 3410SOL    HW213959   3.377   1.775   3.429
 3410SOL    HW313960   3.397   1.877   3.538
 3410SOL    MW413961   3.377   1.857   3.456
 3411SOL     OW13962   2.507   0.206   3.152
 3411SOL    HW213963   2.438   0.269   3.173
 3411SOL    HW313964   2.534   0.170   3.237
 3411SOL    MW413965   2.501   0.209   3.165
 3412SOL     OW13966   1.890   1.047   2.021
 3412SOL    HW213967   1.859   1.112   2.084
 3412SOL    HW313968   1.839   0.969   2.040
 3412SOL    MW413969   1.880   1.044   2.031
 3413SOL     OW13970   3.302   0.059   2.769
 3413SOL    HW213971   3.390   0.068   2.806
 3413SOL    HW313972   3.312   0.000   2.695
 3413SOL    MW413973   3.316   0.053   2.763
 3414SOL     OW13974   3.334   0.798   2.613
 3414SOL    HW213975   3.414   0.813   2.562
 3414SOL    HW313976   3.327   0.703   2.619
 3414SOL    MW413977   3.343   0.787   2.608
 3415SOL     OW13978   2.474   1.847   1.963
 3415SOL    HW213979   2.379   1.847   1.955
 3415SOL    HW313980   2.490   1.793   2.041
 3415SOL    MW413981   2.464   1.841   1.972
 3416SOL     OW13982   2.784   0.724   3.310
 3416SOL    HW213983   2.853   0.791   3.307
 3416SOL    HW313984   2.717   0.762   3.366
 3416SOL    MW413985   2.785   0.737   3.317
 3417SOL     OW13986   2.202   1.024   3.558
 3417SOL    HW213987   2.156   0.940   3.560
 3417SOL    HW313988   2.259   1.018   3.482
 3417SOL    MW413989   2.204   1.012   3.550
 3418SOL     OW13990   3.319   0.667   1.879
 3418SOL    HW213991   3.247   0.643   1.821
 3418SOL    HW313992   3.385   0.704   1.821
 3418SOL    MW413993   3.318   0.669   1.864
 3419SOL     OW13994   2.453   1.399   2.559
 3419SOL    HW213995   2.518   1.332   2.580
 3419SOL    HW313996   2.505   1.476   2.536
 3419SOL    MW413997   2.468   1.401   2.558
 3420SOL     OW13998   2.714   0.564   2.689
 3420SOL    HW213999   2.654   0.582   2.761
 3420SOL    HW314000   2.748   0.476   2.708
 3420SOL    MW414001   2.710   0.554   2.702
 3421SOL     OW14002   3.655   0.063   3.358
 3421SOL    HW214003   3.576   0.109   3.386
 3421SOL    HW314004   3.690   0.117   3.287
 3421SOL    MW414005   3.649   0.076   3.352
 3422SOL     OW14006   2.939   1.147   2.708
 3422SOL    HW214007   3.031   1.128   2.726
 3422SOL    HW314008   2.912   1.077   2.648
 3422SOL    MW414009   2.947   1.135   2.702
 3423SOL     OW14010   2.732   0.967   2.063
 3423SOL    HW214011   2.718   0.879   2.028
 3423SOL    HW314012   2.683   1.024   2.004
 3423SOL    MW414013   2.724   0.962   2.051
 3424SOL     OW14014   3.213   1.385   2.804
 3424SOL    HW214015   3.186   1.469   2.769
 3424SOL    HW314016   3.173   1.380   2.891
 3424SOL    MW414017   3.206   1.394   2.810
 3425SOL     OW14018   3.132   1.333   3.072
 3425SOL    HW214019   3.143   1.300   3.161
 3425SOL    HW314020   3.051   1.292   3.041
 3425SOL    MW414021   3.122   1.325   3.078
 3426SOL     OW14022   2.145   0.691   2.842
 3426SOL    HW214023   2.095   0.690   2.923
 3426SOL    HW314024   2.165   0.783   2.826
 3426SOL    MW414025   2.141   0.703   2.850
 3427SOL     OW14026   3.212   1.455   3.604
 3427SOL    HW214027   3.212   1.549   3.620
 3427SOL    HW314028   3.257   1.445   3.520
 3427SOL    MW414029   3.218   1.465   3.595
 3428SOL     OW14030   3.451   0.173   2.165
 3428SOL    HW214031   3.444   0.177   2.260
 3428SOL    HW314032   3.463   0.264   2.138
 3428SOL    MW414033   3.452   0.186   2.173
 3429SOL     OW14034   2.740   0.736   2.279
 3429SOL    HW214035   2.720   0.722   2.186
 3429SOL    HW314036   2.833   0.715   2.286
 3429SOL    MW414037   2.750   0.731   2.268
 3430SOL     OW14038   2.067   0.359   3.583
 3430SOL    HW214039   2.024   0.418   3.520
 3430SOL    HW314040   2.135   0.414   3.623
 3430SOL    MW414041   2.071   0.374   3.580
 3431SOL     OW14042   3.179   0.979   3.128
 3431SOL    HW214043   3.242   0.976   3.201
 3431SOL    HW314044   3.095   0.997   3.170
 3431SOL    MW414045   3.175   0.981   3.143
 3432SOL     OW14046   2.723   1.694   2.317
 3432SOL    HW214047   2.781   1.765   2.344
 3432SOL    HW314048   2.746   1.622   2.375
 3432SOL    MW414049   2.734   1.694   2.328
 3433SOL     OW14050   3.518   0.156   2.907
 3433SOL    HW214051   3.563   0.074   2.926
 3433SOL    HW314052   3.538   0.212   2.983
 3433SOL    MW414053   3.528   0.152   2.919
 3434SOL     OW14054   1.966  -0.001   3.006
 3434SOL    HW214055   1.957   0.000   2.911
 3434SOL    HW314056   2.060   0.011   3.021
 3434SOL    MW414057   1.978   0.002   2.997
 3435SOL     OW14058   3.603   1.192   2.626
 3435SOL    HW214059   3.582   1.138   2.549
 3435SOL    HW314060   3.699   1.190   2.630
 3435SOL    MW414061   3.612   1.185   2.615
 3436SOL     OW14062   2.295   1.337   3.369
 3436SOL    HW214063   2.216   1.287   3.392
 3436SOL    HW314064   2.365   1.296   3.419
 3436SOL    MW414065   2.293   1.325   3.379
 3437SOL     OW14066   2.179   0.126   2.052
 3437SOL    HW214067   2.108   0.181   2.020
 3437SOL    HW314068   2.221   0.092   1.973
 3437SOL    MW414069   2.175   0.128   2.038
 3438SOL     OW14070   3.303   0.623   2.888
 3438SOL    HW214071   3.226   0.669   2.854
 3438SOL    HW314072   3.360   0.692   2.922
 3438SOL    MW414073   3.300   0.638   2.888
 3439SOL     OW14074   1.935   0.225   1.901
 3439SOL    HW214075   1.902   0.304   1.945
 3439SOL    HW314076   1.990   0.258   1.830
 3439SOL    MW414077   1.938   0.239   1.898
 3440SOL     OW14078   1.969   1.482   2.090
 3440SOL    HW214079   1.986   1.566   2.132
 3440SOL    HW314080   2.004   1.491   2.002
 3440SOL    MW414081   1.974   1.495   2.084
 3441SOL     OW14082   3.241   1.571   2.307
 3441SOL    HW214083   3.304   1.561   2.236
 3441SOL    HW314084   3.158   1.591   2.262
 3441SOL    MW414085   3.238   1.572   2.292
 3442SOL     OW14086   3.604   0.839   3.993
 3442SOL    HW214087   3.645   0.781   4.058
 3442SOL    HW314088   3.511   0.831   4.010
 3442SOL    MW414089   3.598   0.831   4.003
 3443SOL     OW14090   3.470   0.771   4.988
 3443SOL    HW214091   3.425   0.838   5.039
 3443SOL    HW314092   3.558   0.807   4.974
 3443SOL    MW414093   3.476   0.784   4.992
 3444SOL     OW14094   2.398   1.022   4.222
 3444SOL    HW214095   2.488   0.997   4.206
 3444SOL    HW314096   2.394   1.115   4.199
 3444SOL    MW414097   2.410   1.031   4.217
 3445SOL     OW14098   3.514   1.725   4.364
 3445SOL    HW214099   3.526   1.671   4.442
 3445SOL    HW314100   3.551   1.673   4.293
 3445SOL    MW414101   3.520   1.710   4.365
 3446SOL     OW14102   2.893   1.610   5.365
 3446SOL    HW214103   2.934   1.646   5.286
 3446SOL    HW314104   2.928   1.521   5.372
 3446SOL    MW414105   2.904   1.603   5.356
 3447SOL     OW14106   3.450   1.165   4.969
 3447SOL    HW214107   3.371   1.130   4.927
 3447SOL    HW314108   3.477   1.237   4.913
 3447SOL    MW414109   3.443   1.170   4.956
 3448SOL     OW14110   2.682   0.478   4.235
 3448SOL    HW214111   2.657   0.566   4.263
 3448SOL    HW314112   2.679   0.481   4.139
 3448SOL    MW414113   2.678   0.490   4.227
 3449SOL     OW14114   2.124   0.506   4.163
 3449SOL    HW214115   2.156   0.594   4.145
 3449SOL    HW314116   2.112   0.504   4.258
 3449SOL    MW414117   2.127   0.518   4.175
 3450SOL     OW14118   2.202   0.919   5.064
 3450SOL    HW214119   2.265   0.866   5.015
 3450SOL    HW314120   2.183   0.993   5.007
 3450SOL    MW414121   2.208   0.921   5.051
 3451SOL     OW14122   2.523   0.261   4.250
 3451SOL    HW214123   2.581   0.337   4.252
 3451SOL    HW314124   2.458   0.282   4.183
 3451SOL    MW414125   2.522   0.273   4.241
 3452SOL     OW14126   2.610   1.188   4.425
 3452SOL    HW214127   2.690   1.191   4.477
 3452SOL    HW314128   2.638   1.155   4.339
 3452SOL    MW414129   2.624   1.184   4.420
 3453SOL     OW14130   2.635   1.529   5.328
 3453SOL    HW214131   2.719   1.555   5.367
 3453SOL    HW314132   2.659   1.473   5.254
 3453SOL    MW414133   2.649   1.525   5.323
 3454SOL     OW14134   2.387   0.692   4.416
 3454SOL    HW214135   2.372   0.612   4.467
 3454SOL    HW314136   2.469   0.727   4.450
 3454SOL    MW414137   2.395   0.684   4.428
 3455SOL     OW14138   2.724   1.378   5.101
 3455SOL    HW214139   2.688   1.444   5.041
 3455SOL    HW314140   2.652   1.316   5.114
 3455SOL    MW414141   2.710   1.378   5.095
 3456SOL     OW14142   2.529   0.518   4.793
 3456SOL    HW214143   2.435   0.514   4.811
 3456SOL    HW314144   2.559   0.427   4.802
 3456SOL    MW414145   2.520   0.506   4.796
 3457SOL     OW14146   2.275   0.932   4.697
 3457SOL    HW214147   2.230   0.939   4.613
 3457SOL    HW314148   2.255   1.015   4.741
 3457SOL    MW414149   2.267   0.944   4.691
 3458SOL     OW14150   1.972   1.778   4.572
 3458SOL    HW214151   2.061   1.770   4.607
 3458SOL    HW314152   1.936   1.690   4.577
 3458SOL    MW414153   1.979   1.765   4.577
 3459SOL     OW14154   3.237   1.170   3.941
 3459SOL    HW214155   3.155   1.206   3.907
 3459SOL    HW314156   3.305   1.213   3.890
 3459SOL    MW414157   3.235   1.180   3.929
 3460SOL     OW14158   2.236   1.305   4.607
 3460SOL    HW214159   2.212   1.358   4.683
 3460SOL    HW314160   2.292   1.363   4.555
 3460SOL    MW414161   2.240   1.320   4.610
 3461SOL     OW14162   2.798   0.949   4.417
 3461SOL    HW214163   2.712   0.936   4.457
 3461SOL    HW314164   2.851   0.876   4.449
 3461SOL    MW414165   2.794   0.938   4.426
 3462SOL     OW14166   2.206   1.601   5.202
 3462SOL    HW214167   2.114   1.577   5.187
 3462SOL    HW314168   2.250   1.518   5.219
 3462SOL    MW414169   2.200   1.586   5.201
 3463SOL     OW14170   2.789   1.311   4.134
 3463SOL    HW214171   2.766   1.373   4.202
 3463SOL    HW314172   2.746   1.229   4.160
 3463SOL    MW414173   2.781   1.307   4.145
 3464SOL     OW14174   3.662   0.312   4.590
 3464SOL    HW214175   3.599   0.292   4.659
 3464SOL    HW314176   3.652   0.241   4.527
 3464SOL    MW414177   3.652   0.299   4.591
 3465SOL     OW14178   2.286   0.284   4.102
 3465SOL    HW214179   2.260   0.246   4.018
 3465SOL    HW314180   2.223   0.354   4.118
 3465SOL    MW414181   2.275   0.287   4.093
 3466SOL     OW14182   2.121   1.245   4.139
 3466SOL    HW214183   2.069   1.313   4.095
 3466SOL    HW314184   2.118   1.171   4.079
 3466SOL    MW414185   2.113   1.244   4.126
 3467SOL     OW14186   2.783   1.708   3.917
 3467SOL    HW214187   2.738   1.724   4.000
 3467SOL    HW314188   2.714   1.673   3.859
 3467SOL    MW414189   2.769   1.705   3.919
 3468SOL     OW14190   3.718   0.481   3.892
 3468SOL    HW214191   3.627   0.483   3.920
 3468SOL    HW314192   3.763   0.543   3.950
 3468SOL    MW414193   3.711   0.489   3.902
 3469SOL     OW14194   3.463   1.084   4.242
 3469SOL    HW214195   3.373   1.084   4.277
 3469SOL    HW314196   3.456   1.130   4.159
 3469SOL    MW414197   3.450   1.090   4.236
 3470SOL     OW14198   3.263   0.719   5.314
 3470SOL    HW214199   3.332   0.657   5.291
 3470SOL    HW314200   3.188   0.693   5.261
 3470SOL    MW414201   3.263   0.706   5.305
 3471SOL     OW14202   2.004   1.599   4.866
 3471SOL    HW214203   1.987   1.545   4.943
 3471SOL    HW314204   1.992   1.689   4.896
 3471SOL    MW414205   2.001   1.603   4.880
 3472SOL     OW14206   2.999   1.106   5.306
 3472SOL    HW214207   2.984   1.199   5.291
 3472SOL    HW314208   3.094   1.096   5.306
 3472SOL    MW414209   3.008   1.116   5.303
 3473SOL     OW14210   2.795   0.530   5.507
 3473SOL    HW214211   2.885   0.531   5.474
 3473SOL    HW314212   2.754   0.455   5.465
 3473SOL    MW414213   2.801   0.520   5.498
 3474SOL     OW14214   3.370   1.062   4.634
 3474SOL    HW214215   3.373   0.996   4.565
 3474SOL    HW314216   3.455   1.105   4.630
 3474SOL    MW414217   3.382   1.058   4.625
 3475SOL     OW14218   2.990   0.665   4.203
 3475SOL    HW214219   3.016   0.689   4.114
 3475SOL    HW314220   2.972   0.572   4.199
 3475SOL    MW414221   2.992   0.657   4.190
 3476SOL     OW14222   3.655   1.285   4.054
 3476SOL    HW214223   3.611   1.326   4.129
 3476SOL    HW314224   3.712   1.353   4.019
 3476SOL    MW414225   3.657   1.299   4.059
 3477SOL     OW14226   2.575   0.334   5.457
 3477SOL    HW214227   2.585   0.260   5.397
 3477SOL    HW314228   2.611   0.303   5.540
 3477SOL    MW414229   2.581   0.320   5.459
 3478SOL     OW14230   2.311   1.701   4.372
 3478SOL    HW214231   2.343   1.789   4.350
 3478SOL    HW314232   2.264   1.673   4.294
 3478SOL    MW414233   2.310   1.709   4.359
 3479SOL     OW14234   3.695   0.063   4.421
 3479SOL    HW214235   3.749   0.014   4.483
 3479SOL    HW314236   3.638  -0.003   4.382
 3479SOL    MW414237   3.695   0.047   4.423
 3480SOL     OW14238   2.027   1.761   3.949
 3480SOL    HW214239   2.056   1.851   3.941
 3480SOL    HW314240   1.977   1.744   3.870
 3480SOL    MW414241   2.025   1.769   3.938
 3481SOL     OW14242   2.814   0.016   4.834
 3481SOL    HW214243   2.773   0.094   4.796
 3481SOL    HW314244   2.908   0.034   4.829
 3481SOL    MW414245   2.820   0.028   4.829
 3482SOL     OW14246   3.431   1.569   3.920
 3482SOL    HW214247   3.479   1.638   3.966
 3482SOL    HW314248   3.352   1.613   3.889
 3482SOL    MW414249   3.426   1.583   3.923
 3483SOL     OW14250   2.829   0.694   3.864
 3483SOL    HW214251   2.831   0.641   3.785
 3483SOL    HW314252   2.917   0.731   3.870
 3483SOL    MW414253   2.841   0.693   3.853
 3484SOL     OW14254   3.443   0.620   4.200
 3484SOL    HW214255   3.482   0.620   4.287
 3484SOL    HW314256   3.384   0.696   4.200
 3484SOL    MW414257   3.440   0.631   4.211
 3485SOL     OW14258   2.760   0.987   5.329
 3485SOL    HW214259   2.737   0.967   5.419
 3485SOL    HW314260   2.845   1.031   5.334
 3485SOL    MW414261   2.767   0.990   5.341
 3486SOL     OW14262   2.840   0.124   5.089
 3486SOL    HW214263   2.846   0.086   5.002
 3486SOL    HW314264   2.829   0.218   5.074
 3486SOL    MW414265   2.841   0.132   5.077
 3487SOL     OW14266   2.929   0.613   4.923
 3487SOL    HW214267   3.004   0.642   4.870
 3487SOL    HW314268   2.861   0.678   4.907
 3487SOL    MW414269   2.930   0.625   4.913
 3488SOL     OW14270   3.479   0.581   5.200
 3488SOL    HW214271   3.460   0.490   5.179
 3488SOL    HW314272   3.457   0.630   5.121
 3488SOL    MW414273   3.474   0.574   5.187
 3489SOL     OW14274   3.621   1.675   5.104
 3489SOL    HW214275   3.549   1.637   5.155
 3489SOL    HW314276   3.638   1.760   5.145
 3489SOL    MW414277   3.615   1.680   5.116
 3490SOL     OW14278   2.926   0.319   5.306
 3490SOL    HW214279   2.892   0.358   5.225
 3490SOL    HW314280   2.904   0.227   5.299
 3490SOL    MW414281   2.919   0.312   5.296
 3491SOL     OW14282   3.335   1.133   5.382
 3491SOL    HW214283   3.417   1.174   5.412
 3491SOL    HW314284   3.298   1.095   5.462
 3491SOL    MW414285   3.341   1.134   5.397
 3492SOL     OW14286   3.630   0.506   4.366
 3492SOL    HW214287   3.719   0.475   4.383
 3492SOL    HW314288   3.573   0.446   4.414
 3492SOL    MW414289   3.633   0.494   4.375
 3493SOL     OW14290   2.056   0.220   4.395
 3493SOL    HW214291   2.047   0.160   4.321
 3493SOL    HW314292   1.989   0.191   4.458
 3493SOL    MW414293   2.046   0.207   4.393
 3494SOL     OW14294   2.999   1.313   3.956
 3494SOL    HW214295   2.949   1.315   4.038
 3494SOL    HW314296   2.933   1.331   3.888
 3494SOL    MW414297   2.985   1.315   3.958
 3495SOL     OW14298   2.003   0.393   4.758
 3495SOL    HW214299   1.975   0.484   4.767
 3495SOL    HW314300   1.940   0.354   4.697
 3495SOL    MW414301   1.990   0.399   4.752
 3496SOL     OW14302   2.462   1.731   4.064
 3496SOL    HW214303   2.383   1.689   4.097
 3496SOL    HW314304   2.528   1.714   4.131
 3496SOL    MW414305   2.461   1.723   4.077
 3497SOL     OW14306   3.590   1.251   5.461
 3497SOL    HW214307   3.640   1.177   5.493
 3497SOL    HW314308   3.536   1.278   5.536
 3497SOL    MW414309   3.590   1.245   5.474
 3498SOL     OW14310   2.598   1.146   3.771
 3498SOL    HW214311   2.520   1.092   3.758
 3498SOL    HW314312   2.569   1.219   3.824
 3498SOL    MW414313   2.584   1.148   3.776
 3499SOL     OW14314   3.724   0.886   4.963
 3499SOL    HW214315   3.740   0.924   4.876
 3499SOL    HW314316   3.758   0.952   5.024
 3499SOL    MW414317   3.731   0.899   4.959
 3500SOL     OW14318   3.516   1.595   4.632
 3500SOL    HW214319   3.545   1.662   4.693
 3500SOL    HW314320   3.497   1.519   4.687
 3500SOL    MW414321   3.518   1.595   4.647
 3501SOL     OW14322   3.179   1.662   3.839
 3501SOL    HW214323   3.105   1.625   3.889
 3501SOL    HW314324   3.187   1.752   3.872
 3501SOL    MW414325   3.170   1.669   3.851
 3502SOL     OW14326   1.987   0.668   4.928
 3502SOL    HW214327   2.049   0.698   4.994
 3502SOL    HW314328   1.921   0.737   4.922
 3502SOL    MW414329   1.986   0.681   4.935
 3503SOL     OW14330   3.403   1.336   3.781
 3503SOL    HW214331   3.350   1.385   3.717
 3503SOL    HW314332   3.434   1.402   3.842
 3503SOL    MW414333   3.401   1.350   3.779
 3504SOL     OW14334   2.628   0.225   3.836
 3504SOL    HW214335   2.576   0.145   3.824
 3504SOL    HW314336   2.715   0.202   3.804
 3504SOL    MW414337   2.631   0.211   3.830
 3505SOL     OW14338   2.082   1.777   5.380
 3505SOL    HW214339   2.056   1.845   5.318
 3505SOL    HW314340   2.130   1.714   5.328
 3505SOL    MW414341   2.084   1.777   5.366
 3506SOL     OW14342   2.134   1.096   4.887
 3506SOL    HW214343   2.187   1.171   4.912
 3506SOL    HW314344   2.053   1.134   4.853
 3506SOL    MW414345   2.130   1.111   4.887
 3507SOL     OW14346   2.674   1.000   4.875
 3507SOL    HW214347   2.702   0.909   4.887
 3507SOL    HW314348   2.603   0.994   4.811
 3507SOL    MW414349   2.667   0.988   4.870
 3508SOL     OW14350   1.989   0.865   4.293
 3508SOL    HW214351   2.080   0.880   4.320
 3508SOL    HW314352   1.992   0.786   4.239
 3508SOL    MW414353   2.001   0.857   4.291
 3509SOL     OW14354   2.225   0.573   5.547
 3509SOL    HW214355   2.172   0.653   5.554
 3509SOL    HW314356   2.295   0.585   5.612
 3509SOL    MW414357   2.227   0.586   5.555
 3510SOL     OW14358   2.611   0.123   5.254
 3510SOL    HW214359   2.588   0.031   5.256
 3510SOL    HW314360   2.697   0.125   5.211
 3510SOL    MW414361   2.618   0.113   5.250
 3511SOL     OW14362   2.295   0.647   5.293
 3511SOL    HW214363   2.375   0.697   5.279
 3511SOL    HW314364   2.286   0.641   5.388
 3511SOL    MW414365   2.304   0.653   5.303
 3512SOL     OW14366   2.616   1.797   4.667
 3512SOL    HW214367   2.705   1.812   4.697
 3512SOL    HW314368   2.611   1.844   4.583
 3512SOL    MW414369   2.626   1.805   4.660
 3513SOL     OW14370   3.272   0.172   5.564
 3513SOL    HW214371   3.328   0.099   5.590
 3513SOL    HW314372   3.242   0.210   5.646
 3513SOL    MW414373   3.276   0.167   5.577
 3514SOL     OW14374   1.997   1.477   4.332
 3514SOL    HW214375   1.969   1.516   4.414
 3514SOL    HW314376   2.017   1.386   4.354
 3514SOL    MW414377   1.995   1.469   4.345
 3515SOL     OW14378   2.830   1.520   4.367
 3515SOL    HW214379   2.913   1.474   4.351
 3515SOL    HW314380   2.820   1.519   4.463
 3515SOL    MW414381   2.840   1.513   4.377
 3516SOL     OW14382   3.662   0.665   4.681
 3516SOL    HW214383   3.751   0.695   4.663
 3516SOL    HW314384   3.642   0.605   4.610
 3516SOL    MW414385   3.671   0.662   4.670
 3517SOL     OW14386   3.513   0.844   5.561
 3517SOL    HW214387   3.568   0.768   5.542
 3517SOL    HW314388   3.515   0.852   5.656
 3517SOL    MW414389   3.521   0.835   5.569
 3518SOL     OW14390   2.563   1.577   3.772
 3518SOL    HW214391   2.503   1.646   3.742
 3518SOL    HW314392   2.508   1.519   3.825
 3518SOL    MW414393   2.547   1.579   3.774
 3519SOL     OW14394   3.001   0.222   3.995
 3519SOL    HW214395   2.934   0.198   3.932
 3519SOL    HW314396   3.066   0.271   3.944
 3519SOL    MW414397   3.001   0.224   3.980
 3520SOL     OW14398   2.808   0.406   5.080
 3520SOL    HW214399   2.727   0.447   5.108
 3520SOL    HW314400   2.855   0.474   5.032
 3520SOL    MW414401   2.803   0.421   5.078
 3521SOL     OW14402   3.068   0.744   4.703
 3521SOL    HW214403   3.081   0.838   4.713
 3521SOL    HW314404   3.029   0.734   4.617
 3521SOL    MW414405   3.064   0.755   4.693
 3522SOL     OW14406   2.520   0.939   4.507
 3522SOL    HW214407   2.431   0.930   4.540
 3522SOL    HW314408   2.524   1.029   4.475
 3522SOL    MW414409   2.509   0.950   4.507
 3523SOL     OW14410   3.319   0.522   4.502
 3523SOL    HW214411   3.264   0.443   4.501
 3523SOL    HW314412   3.301   0.563   4.586
 3523SOL    MW414413   3.309   0.517   4.511
 3524SOL     OW14414   2.290   0.209   5.319
 3524SOL    HW214415   2.211   0.227   5.371
 3524SOL    HW314416   2.285   0.271   5.246
 3524SOL    MW414417   2.280   0.219   5.316
 3525SOL     OW14418   2.938   0.726   4.459
 3525SOL    HW214419   2.875   0.658   4.483
 3525SOL    HW314420   2.958   0.707   4.367
 3525SOL    MW414421   2.932   0.713   4.451
 3526SOL     OW14422   2.194   1.621   4.161
 3526SOL    HW214423   2.155   1.668   4.087
 3526SOL    HW314424   2.128   1.556   4.186
 3526SOL    MW414425   2.181   1.619   4.155
 3527SOL     OW14426   2.686   1.030   4.185
 3527SOL    HW214427   2.688   1.004   4.092
 3527SOL    HW314428   2.744   0.967   4.228
 3527SOL    MW414429   2.694   1.019   4.179
 3528SOL     OW14430   3.239   1.590   4.957
 3528SOL    HW214431   3.164   1.636   4.995
 3528SOL    HW314432   3.221   1.497   4.974
 3528SOL    MW414433   3.228   1.584   4.965
 3529SOL     OW14434   3.243   1.798   4.387
 3529SOL    HW214435   3.186   1.751   4.326
 3529SOL    HW314436   3.329   1.759   4.374
 3529SOL    MW414437   3.246   1.789   4.377
 3530SOL     OW14438   3.196   0.274   4.518
 3530SOL    HW214439   3.224   0.206   4.579
 3530SOL    HW314440   3.110   0.245   4.488
 3530SOL    MW414441   3.189   0.261   4.522
 3531SOL     OW14442   2.001   1.208   4.452
 3531SOL    HW214443   2.065   1.240   4.515
 3531SOL    HW314444   2.050   1.144   4.400
 3531SOL    MW414445   2.016   1.204   4.453
 3532SOL     OW14446   2.501   1.284   5.434
 3532SOL    HW214447   2.549   1.367   5.421
 3532SOL    HW314448   2.558   1.232   5.490
 3532SOL    MW414449   2.515   1.288   5.440
 3533SOL     OW14450   2.077   1.526   5.574
 3533SOL    HW214451   2.133   1.450   5.589
 3533SOL    HW314452   2.026   1.504   5.496
 3533SOL    MW414453   2.077   1.513   5.565
 3534SOL     OW14454   3.176   0.378   3.853
 3534SOL    HW214455   3.149   0.444   3.789
 3534SOL    HW314456   3.246   0.421   3.903
 3534SOL    MW414457   3.181   0.391   3.850
 3535SOL     OW14458   2.844   0.083   3.790
 3535SOL    HW214459   2.900   0.075   3.712
 3535SOL    HW314460   2.821  -0.007   3.812
 3535SOL    MW414461   2.849   0.070   3.783
 3536SOL     OW14462   3.349   0.934   3.995
 3536SOL    HW214463   3.316   1.023   3.985
 3536SOL    HW314464   3.314   0.905   4.080
 3536SOL    MW414465   3.339   0.943   4.006
 3537SOL     OW14466   2.962   1.363   5.183
 3537SOL    HW214467   2.873   1.369   5.151
 3537SOL    HW314468   3.006   1.442   5.151
 3537SOL    MW414469   2.957   1.373   5.175
 3538SOL     OW14470   2.255   0.031   5.525
 3538SOL    HW214471   2.183  -0.004   5.473
 3538SOL    HW314472   2.313   0.072   5.460
 3538SOL    MW414473   2.253   0.032   5.510
 3539SOL     OW14474   2.279   1.521   4.824
 3539SOL    HW214475   2.324   1.583   4.881
 3539SOL    HW314476   2.186   1.540   4.837
 3539SOL    MW414477   2.272   1.531   4.831
 3540SOL     OW14478   3.719   1.050   5.178
 3540SOL    HW214479   3.634   1.063   5.137
 3540SOL    HW314480   3.699   1.014   5.265
 3540SOL    MW414481   3.706   1.046   5.183
 3541SOL     OW14482   2.701   1.589   4.932
 3541SOL    HW214483   2.725   1.578   4.841
 3541SOL    HW314484   2.624   1.646   4.930
 3541SOL    MW414485   2.693   1.594   4.921
 3542SOL     OW14486   2.343   0.972   3.787
 3542SOL    HW214487   2.266   0.985   3.843
 3542SOL    HW314488   2.307   0.936   3.706
 3542SOL    MW414489   2.329   0.968   3.784
 3543SOL     OW14490   2.996   0.945   4.030
 3543SOL    HW214491   2.906   0.966   4.005
 3543SOL    HW314492   3.023   1.018   4.086
 3543SOL    MW414493   2.988   0.957   4.033
 3544SOL     OW14494   2.496   1.294   4.722
 3544SOL    HW214495   2.489   1.273   4.816
 3544SOL    HW314496   2.414   1.262   4.685
 3544SOL    MW414497   2.484   1.288   4.729
 3545SOL     OW14498   3.360   0.304   5.124
 3545SOL    HW214499   3.307   0.306   5.204
 3545SOL    HW314500   3.345   0.217   5.087
 3545SOL    MW414501   3.352   0.294   5.129
 3546SOL     OW14502   3.696   0.228   4.997
 3546SOL    HW214503   3.677   0.295   4.932
 3546SOL    HW314504   3.753   0.166   4.952
 3546SOL    MW414505   3.700   0.229   4.983
 3547SOL     OW14506   1.942   1.386   5.385
 3547SOL    HW214507   1.986   1.319   5.331
 3547SOL    HW314508   1.857   1.348   5.405
 3547SOL    MW414509   1.937   1.372   5.381
 3548SOL     OW14510   2.625   0.061   4.437
 3548SOL    HW214511   2.554   0.122   4.419
 3548SOL    HW314512   2.676   0.058   4.356
 3548SOL    MW414513   2.621   0.067   4.424
 3549SOL     OW14514   2.383   1.301   4.186
 3549SOL    HW214515   2.376   1.333   4.276
 3549SOL    HW314516   2.293   1.285   4.158
 3549SOL    MW414517   2.371   1.303   4.193
 3550SOL     OW14518   2.978   1.694   5.095
 3550SOL    HW214519   2.898   1.679   5.045
 3550SOL    HW314520   2.985   1.789   5.102
 3550SOL    MW414521   2.969   1.705   5.089
 3551SOL     OW14522   3.092   1.659   4.585
 3551SOL    HW214523   3.139   1.732   4.544
 3551SOL    HW314524   3.013   1.698   4.621
 3551SOL    MW414525   3.087   1.674   4.584
 3552SOL     OW14526   3.500   1.754   4.860
 3552SOL    HW214527   3.543   1.724   4.940
 3552SOL    HW314528   3.419   1.702   4.857
 3552SOL    MW414529   3.495   1.743   4.870
 3553SOL     OW14530   2.585   0.718   5.567
 3553SOL    HW214531   2.655   0.660   5.539
 3553SOL    HW314532   2.528   0.663   5.622
 3553SOL    MW414533   2.587   0.705   5.571
 3554SOL     OW14534   3.372   0.930   5.200
 3554SOL    HW214535   3.377   0.983   5.280
 3554SOL    HW314536   3.334   0.847   5.228
 3554SOL    MW414537   3.368   0.925   5.215
 3555SOL     OW14538   3.012   0.065   5.446
 3555SOL    HW214539   3.007  -0.028   5.427
 3555SOL    HW314540   3.095   0.076   5.492
 3555SOL    MW414541   3.020   0.054   5.450
 3556SOL     OW14542   2.386   0.585   3.900
 3556SOL    HW214543   2.352   0.641   3.970
 3556SOL    HW314544   2.457   0.535   3.940
 3556SOL    MW414545   2.392   0.586   3.914
 3557SOL     OW14546   3.482   1.336   4.722
 3557SOL    HW214547   3.517   1.318   4.635
 3557SOL    HW314548   3.387   1.337   4.709
 3557SOL    MW414549   3.474   1.333   4.709
 3558SOL     OW14550   2.911   0.984   5.091
 3558SOL    HW214551   2.954   1.019   5.169
 3558SOL    HW314552   2.894   1.061   5.037
 3558SOL    MW414553   2.914   0.999   5.094
 3559SOL     OW14554   3.442   0.471   3.964
 3559SOL    HW214555   3.434   0.542   3.901
 3559SOL    HW314556   3.460   0.515   4.047
 3559SOL    MW414557   3.443   0.485   3.966
 3560SOL     OW14558   2.302   0.126   4.393
 3560SOL    HW214559   2.352   0.169   4.324
 3560SOL    HW314560   2.217   0.170   4.393
 3560SOL    MW414561   2.299   0.139   4.384
 3561SOL     OW14562   2.061   1.188   5.253
 3561SOL    HW214563   2.089   1.141   5.331
 3561SOL    HW314564   1.982   1.143   5.224
 3561SOL    MW414565   2.054   1.177   5.259
 3562SOL     OW14566   2.569   0.515   5.220
 3562SOL    HW214567   2.541   0.603   5.244
 3562SOL    HW314568   2.538   0.459   5.291
 3562SOL    MW414569   2.561   0.518   5.232
 3563SOL     OW14570   3.111   0.733   3.939
 3563SOL    HW214571   3.158   0.751   3.858
 3563SOL    HW314572   3.077   0.817   3.967
 3563SOL    MW414573   3.113   0.747   3.932
 3564SOL     OW14574   2.224   0.911   4.433
 3564SOL    HW214575   2.282   0.967   4.381
 3564SOL    HW314576   2.268   0.826   4.435
 3564SOL    MW414577   2.237   0.908   4.426
 3565SOL     OW14578   3.364   0.263   4.270
 3565SOL    HW214579   3.286   0.213   4.295
 3565SOL    HW314580   3.335   0.354   4.270
 3565SOL    MW414581   3.350   0.267   4.273
 3566SOL     OW14582   2.950   0.225   4.429
 3566SOL    HW214583   2.970   0.300   4.373
 3566SOL    HW314584   2.930   0.264   4.514
 3566SOL    MW414585   2.951   0.241   4.433
 3567SOL     OW14586   2.846   1.475   3.761
 3567SOL    HW214587   2.873   1.553   3.713
 3567SOL    HW314588   2.753   1.490   3.780
 3567SOL    MW414589   2.837   1.488   3.757
 3568SOL     OW14590   3.710   0.998   5.448
 3568SOL    HW214591   3.623   0.978   5.484
 3568SOL    HW314592   3.764   0.924   5.473
 3568SOL    MW414593   3.705   0.987   5.456
 3569SOL     OW14594   1.931   1.511   4.605
 3569SOL    HW214595   1.963   1.515   4.696
 3569SOL    HW314596   1.836   1.519   4.613
 3569SOL    MW414597   1.923   1.514   4.618
 3570SOL     OW14598   1.886   0.637   4.152
 3570SOL    HW214599   1.826   0.609   4.222
 3570SOL    HW314600   1.960   0.577   4.158
 3570SOL    MW414601   1.888   0.626   4.161
 3571SOL     OW14602   3.454   1.849   5.586
 3571SOL    HW214603   3.499   1.773   5.551
 3571SOL    HW314604   3.492   1.862   5.673
 3571SOL    MW414605   3.464   1.842   5.592
 3572SOL     OW14606   3.054   1.368   4.312
 3572SOL    HW214607   3.077   1.319   4.390
 3572SOL    HW314608   3.135   1.410   4.284
 3572SOL    MW414609   3.067   1.368   4.319
 3573SOL     OW14610   2.312   0.376   5.041
 3573SOL    HW214611   2.345   0.457   5.081
 3573SOL    HW314612   2.285   0.402   4.953
 3573SOL    MW414613   2.311   0.390   5.035
 3574SOL     OW14614   2.266   0.343   4.777
 3574SOL    HW214615   2.296   0.257   4.748
 3574SOL    HW314616   2.171   0.336   4.780
 3574SOL    MW414617   2.258   0.332   4.775
 3575SOL     OW14618   3.095   0.552   5.468
 3575SOL    HW214619   3.147   0.487   5.421
 3575SOL    HW314620   3.053   0.603   5.398
 3575SOL    MW414621   3.096   0.549   5.451
 3576SOL     OW14622   3.194   0.347   5.329
 3576SOL    HW214623   3.101   0.331   5.316
 3576SOL    HW314624   3.220   0.285   5.397
 3576SOL    MW414625   3.184   0.337   5.336
 3577SOL     OW14626   2.409   0.121   4.668
 3577SOL    HW214627   2.419   0.030   4.694
 3577SOL    HW314628   2.365   0.117   4.583
 3577SOL    MW414629   2.405   0.109   4.660
 3578SOL     OW14630   2.503   1.736   5.214
 3578SOL    HW214631   2.420   1.721   5.259
 3578SOL    HW314632   2.562   1.669   5.249
 3578SOL    MW414633   2.501   1.726   5.224
 3579SOL     OW14634   3.560   0.443   4.839
 3579SOL    HW214635   3.493   0.476   4.899
 3579SOL    HW314636   3.603   0.521   4.805
 3579SOL    MW414637   3.558   0.458   4.843
 3580SOL     OW14638   3.738   1.163   4.809
 3580SOL    HW214639   3.731   1.103   4.734
 3580SOL    HW314640   3.664   1.223   4.798
 3580SOL    MW414641   3.728   1.163   4.798
 3581SOL     OW14642   3.120   1.025   4.727
 3581SOL    HW214643   3.134   0.997   4.818
 3581SOL    HW314644   3.206   1.056   4.699
 3581SOL    MW414645   3.133   1.026   4.736
 3582SOL     OW14646   3.203   0.520   5.006
 3582SOL    HW214647   3.224   0.521   4.913
 3582SOL    HW314648   3.248   0.442   5.039
 3582SOL    MW414649   3.210   0.510   4.998
 3583SOL     OW14650   3.696   0.651   5.548
 3583SOL    HW214651   3.733   0.596   5.617
 3583SOL    HW314652   3.721   0.608   5.466
 3583SOL    MW414653   3.703   0.639   5.547
 3584SOL     OW14654   3.243   0.949   5.600
 3584SOL    HW214655   3.309   0.897   5.554
 3584SOL    HW314656   3.263   0.936   5.693
 3584SOL    MW414657   3.254   0.940   5.607
 3585SOL     OW14658   3.194   0.035   3.948
 3585SOL    HW214659   3.268   0.079   3.991
 3585SOL    HW314660   3.118   0.089   3.970
 3585SOL    MW414661   3.194   0.047   3.956
 3586SOL     OW14662   3.254   0.810   4.226
 3586SOL    HW214663   3.169   0.780   4.196
 3586SOL    HW314664   3.246   0.817   4.321
 3586SOL    MW414665   3.242   0.808   4.235
 3587SOL     OW14666   2.330   1.273   4.957
 3587SOL    HW214667   2.342   1.300   5.048
 3587SOL    HW314668   2.311   1.354   4.910
 3587SOL    MW414669   2.329   1.288   4.962
 3588SOL     OW14670   2.614   0.253   4.780
 3588SOL    HW214671   2.587   0.255   4.871
 3588SOL    HW314672   2.544   0.205   4.735
 3588SOL    MW414673   2.602   0.249   4.787
 3589SOL     OW14674   2.468   1.745   4.942
 3589SOL    HW214675   2.520   1.822   4.919
 3589SOL    HW314676   2.477   1.737   5.037
 3589SOL    MW414677   2.477   1.752   4.953
 3590SOL     OW14678   3.370   1.330   5.174
 3590SOL    HW214679   3.355   1.259   5.237
 3590SOL    HW314680   3.416   1.288   5.102
 3590SOL    MW414681   3.376   1.314   5.174
 3591SOL     OW14682   2.444   1.061   5.291
 3591SOL    HW214683   2.481   1.066   5.203
 3591SOL    HW314684   2.483   1.134   5.338
 3591SOL    MW414685   2.454   1.071   5.286
 3592SOL     OW14686   2.624   1.104   5.103
 3592SOL    HW214687   2.683   1.050   5.156
 3592SOL    HW314688   2.639   1.076   5.013
 3592SOL    MW414689   2.634   1.093   5.099
 3593SOL     OW14690   2.627   0.476   3.952
 3593SOL    HW214691   2.700   0.525   3.915
 3593SOL    HW314692   2.643   0.385   3.926
 3593SOL    MW414693   2.639   0.471   3.945
 3594SOL     OW14694   3.435   1.593   5.275
 3594SOL    HW214695   3.477   1.578   5.360
 3594SOL    HW314696   3.426   1.506   5.237
 3594SOL    MW414697   3.439   1.581   5.282
 3595SOL     OW14698   3.095   0.072   4.866
 3595SOL    HW214699   3.150   0.081   4.788
 3595SOL    HW314700   3.150   0.106   4.937
 3595SOL    MW414701   3.109   0.077   4.865
 3596SOL     OW14702   2.102   0.985   4.050
 3596SOL    HW214703   2.039   1.001   3.979
 3596SOL    HW314704   2.049   0.948   4.121
 3596SOL    MW414705   2.087   0.982   4.050
 3597SOL     OW14706   2.458   1.339   3.909
 3597SOL    HW214707   2.473   1.315   4.001
 3597SOL    HW314708   2.366   1.317   3.893
 3597SOL    MW414709   2.448   1.332   3.919
 3598SOL     OW14710   2.997   1.570   4.061
 3598SOL    HW214711   3.005   1.488   4.012
 3598SOL    HW314712   2.916   1.609   4.028
 3598SOL    MW414713   2.987   1.565   4.051
 3599SOL     OW14714   2.256   1.728   4.630
 3599SOL    HW214715   2.260   1.639   4.665
 3599SOL    HW314716   2.282   1.719   4.539
 3599SOL    MW414717   2.259   1.716   4.622
 3600SOL     OW14718   2.873   1.206   4.873
 3600SOL    HW214719   2.805   1.140   4.889
 3600SOL    HW314720   2.891   1.200   4.780
 3600SOL    MW414721   2.866   1.197   4.864
 3601SOL     OW14722   1.962   1.481   5.124
 3601SOL    HW214723   1.952   1.439   5.210
 3601SOL    HW314724   1.883   1.534   5.114
 3601SOL    MW414725   1.951   1.482   5.135
 3602SOL     OW14726   2.866   0.345   4.694
 3602SOL    HW214727   2.796   0.297   4.739
 3602SOL    HW314728   2.898   0.408   4.758
 3602SOL    MW414729   2.861   0.347   4.708
 3603SOL     OW14730   2.517   0.781   5.314
 3603SOL    HW214731   2.510   0.876   5.302
 3603SOL    HW314732   2.526   0.770   5.409
 3603SOL    MW414733   2.518   0.793   5.324
 3604SOL     OW14734   2.238   1.296   5.572
 3604SOL    HW214735   2.310   1.298   5.509
 3604SOL    HW314736   2.208   1.205   5.571
 3604SOL    MW414737   2.243   1.285   5.564
 3605SOL     OW14738   3.322   0.059   5.039
 3605SOL    HW214739   3.393   0.005   5.003
 3605SOL    HW314740   3.321   0.038   5.132
 3605SOL    MW414741   3.331   0.050   5.047
 3606SOL     OW14742   3.522   1.589   5.523
 3606SOL    HW214743   3.495   1.586   5.614
 3606SOL    HW314744   3.618   1.593   5.526
 3606SOL    MW414745   3.532   1.589   5.535
 3607SOL     OW14746   2.333   0.451   4.507
 3607SOL    HW214747   2.404   0.399   4.470
 3607SOL    HW314748   2.319   0.416   4.594
 3607SOL    MW414749   2.341   0.440   4.514
 3608SOL     OW14750   1.888   1.786   5.579
 3608SOL    HW214751   1.938   1.764   5.501
 3608SOL    HW314752   1.896   1.881   5.587
 3608SOL    MW414753   1.896   1.795   5.570
 3609SOL     OW14754   2.649   1.544   4.583
 3609SOL    HW214755   2.577   1.481   4.596
 3609SOL    HW314756   2.610   1.629   4.601
 3609SOL    MW414757   2.633   1.547   4.586
 3610SOL     OW14758   2.969   0.392   4.231
 3610SOL    HW214759   2.991   0.329   4.163
 3610SOL    HW314760   2.874   0.384   4.242
 3610SOL    MW414761   2.959   0.383   4.223
 3611SOL     OW14762   2.054   0.082   4.163
 3611SOL    HW214763   2.125   0.103   4.102
 3611SOL    HW314764   2.008   0.010   4.121
 3611SOL    MW414765   2.058   0.076   4.149
 3612SOL     OW14766   1.885   0.549   5.306
 3612SOL    HW214767   1.949   0.615   5.281
 3612SOL    HW314768   1.804   0.576   5.263
 3612SOL    MW414769   1.883   0.561   5.298
 3613SOL     OW14770   3.623   1.456   4.263
 3613SOL    HW214771   3.593   1.389   4.324
 3613SOL    HW314772   3.717   1.462   4.277
 3613SOL    MW414773   3.631   1.448   4.273
 3614SOL     OW14774   3.179   1.133   4.193
 3614SOL    HW214775   3.151   1.219   4.226
 3614SOL    HW314776   3.207   1.149   4.103
 3614SOL    MW414777   3.179   1.147   4.185
 3615SOL     OW14778   2.841   0.053   4.246
 3615SOL    HW214779   2.878   0.112   4.311
 3615SOL    HW314780   2.818   0.109   4.172
 3615SOL    MW414781   2.842   0.068   4.245
 3616SOL     OW14782   3.694   0.935   4.668
 3616SOL    HW214783   3.685   0.967   4.579
 3616SOL    HW314784   3.647   0.851   4.668
 3616SOL    MW414785   3.687   0.928   4.658
 3617SOL     OW14786   2.070   0.775   5.247
 3617SOL    HW214787   2.091   0.844   5.185
 3617SOL    HW314788   2.150   0.722   5.252
 3617SOL    MW414789   2.083   0.776   5.241
 3618SOL     OW14790   3.606   0.866   4.369
 3618SOL    HW214791   3.700   0.855   4.357
 3618SOL    HW314792   3.582   0.938   4.310
 3618SOL    MW414793   3.616   0.874   4.360
 3619SOL     OW14794   2.055   0.790   5.514
 3619SOL    HW214795   1.981   0.734   5.540
 3619SOL    HW314796   2.050   0.793   5.419
 3619SOL    MW414797   2.044   0.783   5.504
 3620SOL     OW14798   2.221   0.077   4.964
 3620SOL    HW214799   2.264   0.161   4.984
 3620SOL    HW314800   2.294   0.015   4.957
 3620SOL    MW414801   2.236   0.080   4.965
 3621SOL     OW14802   2.262   0.744   4.142
 3621SOL    HW214803   2.262   0.839   4.127
 3621SOL    HW314804   2.339   0.728   4.196
 3621SOL    MW414805   2.272   0.755   4.147
 3622SOL     OW14806   3.038   0.603   5.206
 3622SOL    HW214807   3.074   0.576   5.122
 3622SOL    HW314808   2.951   0.637   5.185
 3622SOL    MW414809   3.032   0.604   5.193
 3623SOL     OW14810   2.021   0.475   4.431
 3623SOL    HW214811   2.083   0.482   4.504
 3623SOL    HW314812   2.021   0.382   4.408
 3623SOL    MW414813   2.029   0.464   4.438
 3624SOL     OW14814   3.568   1.815   3.963
 3624SOL    HW214815   3.635   1.848   3.903
 3624SOL    HW314816   3.525   1.894   3.997
 3624SOL    MW414817   3.570   1.830   3.959
 3625SOL     OW14818   2.703   0.736   4.915
 3625SOL    HW214819   2.661   0.654   4.891
 3625SOL    HW314820   2.704   0.735   5.011
 3625SOL    MW414821   2.696   0.725   4.924
 3626SOL     OW14822   3.374   1.869   5.314
 3626SOL    HW214823   3.377   1.775   5.297
 3626SOL    HW314824   3.397   1.877   5.406
 3626SOL    MW414825   3.377   1.857   5.324
 3627SOL     OW14826   2.507   0.206   5.020
 3627SOL    HW214827   2.438   0.269   5.041
 3627SOL    HW314828   2.534   0.170   5.105
 3627SOL    MW414829   2.501   0.209   5.033
 3628SOL     OW14830   1.890   1.047   3.889
 3628SOL    HW214831   1.859   1.112   3.952
 3628SOL    HW314832   1.839   0.969   3.908
 3628SOL    MW414833   1.880   1.044   3.899
 3629SOL     OW14834   3.302   0.059   4.637
 3629SOL    HW214835   3.390   0.068   4.674
 3629SOL    HW314836   3.312   0.000   4.563
 3629SOL    MW414837   3.316   0.053   4.631
 3630SOL     OW14838   3.334   0.798   4.481
 3630SOL    HW214839   3.414   0.813   4.430
 3630SOL    HW314840   3.327   0.703   4.487
 3630SOL    MW414841   3.343   0.787   4.476
 3631SOL     OW14842   2.474   1.847   3.831
 3631SOL    HW214843   2.379   1.847   3.823
 3631SOL    HW314844   2.490   1.793   3.909
 3631SOL    MW414845   2.464   1.841   3.840
 3632SOL     OW14846   2.784   0.724   5.178
 3632SOL    HW214847   2.853   0.791   5.175
 3632SOL    HW314848   2.717   0.762   5.234
 3632SOL    MW414849   2.785   0.737   5.185
 3633SOL     OW14850   2.202   1.024   5.426
 3633SOL    HW214851   2.156   0.940   5.428
 3633SOL    HW314852   2.259   1.018   5.350
 3633SOL    MW414853   2.204   1.012   5.418
 3634SOL     OW14854   3.319   0.667   3.747
 3634SOL    HW214855   3.247   0.643   3.689
 3634SOL    HW314856   3.385   0.704   3.689
 3634SOL    MW414857   3.318   0.669   3.732
 3635SOL     OW14858   2.453   1.399   4.427
 3635SOL    HW214859   2.518   1.332   4.448
 3635SOL    HW314860   2.505   1.476   4.404
 3635SOL    MW414861   2.468   1.401   4.426
 3636SOL     OW14862   2.714   0.564   4.557
 3636SOL    HW214863   2.654   0.582   4.629
 3636SOL    HW314864   2.748   0.476   4.576
 3636SOL    MW414865   2.710   0.554   4.570
 3637SOL     OW14866   3.655   0.063   5.226
 3637SOL    HW214867   3.576   0.109   5.254
 3637SOL    HW314868   3.690   0.117   5.155
 3637SOL    MW414869   3.649   0.076   5.220
 3638SOL     OW14870   2.939   1.147   4.576
 3638SOL    HW214871   3.031   1.128   4.594
 3638SOL    HW314872   2.912   1.077   4.516
 3638SOL    MW414873   2.947   1.135   4.570
 3639SOL     OW14874   2.732   0.967   3.931
 3639SOL    HW214875   2.718   0.879   3.896
 3639SOL    HW314876   2.683   1.024   3.872
 3639SOL    MW414877   2.724   0.962   3.919
 3640SOL     OW14878   3.213   1.385   4.672
 3640SOL    HW214879   3.186   1.469   4.637
 3640SOL    HW314880   3.173   1.380   4.759
 3640SOL    MW414881   3.206   1.394   4.678
 3641SOL     OW14882   3.132   1.333   4.940
 3641SOL    HW214883   3.143   1.300   5.029
 3641SOL    HW314884   3.051   1.292   4.909
 3641SOL    MW414885   3.122   1.325   4.946
 3642SOL     OW14886   2.145   0.691   4.710
 3642SOL    HW214887   2.095   0.690   4.791
 3642SOL    HW314888   2.165   0.783   4.694
 3642SOL    MW414889   2.141   0.703   4.718
 3643SOL     OW14890   3.212   1.455   5.472
 3643SOL    HW214891   3.212   1.549   5.488
 3643SOL    HW314892   3.257   1.445   5.388
 3643SOL    MW414893   3.218   1.465   5.463
 3644SOL     OW14894   3.451   0.173   4.033
 3644SOL    HW214895   3.444   0.177   4.128
 3644SOL    HW314896   3.463   0.264   4.006
 3644SOL    MW414897   3.452   0.186   4.041
 3645SOL     OW14898   2.740   0.736   4.147
 3645SOL    HW214899   2.720   0.722   4.054
 3645SOL    HW314900   2.833   0.715   4.154
 3645SOL    MW414901   2.750   0.731   4.136
 3646SOL     OW14902   2.067   0.359   5.451
 3646SOL    HW214903   2.024   0.418   5.388
 3646SOL    HW314904   2.135   0.414   5.491
 3646SOL    MW414905   2.071   0.374   5.448
 3647SOL     OW14906   3.179   0.979   4.996
 3647SOL    HW214907   3.242   0.976   5.069
 3647SOL    HW314908   3.095   0.997   5.038
 3647SOL    MW414909   3.175   0.981   5.011
 3648SOL     OW14910   2.723   1.694   4.185
 3648SOL    HW214911   2.781   1.765   4.212
 3648SOL    HW314912   2.746   1.622   4.243
 3648SOL    MW414913   2.734   1.694   4.196
 3649SOL     OW14914   3.518   0.156   4.775
 3649SOL    HW214915   3.563   0.074   4.794
 3649SOL    HW314916   3.538   0.212   4.851
 3649SOL    MW414917   3.528   0.152   4.787
 3650SOL     OW14918   1.966  -0.001   4.874
 3650SOL    HW214919   1.957   0.000   4.779
 3650SOL    HW314920   2.060   0.011   4.889
 3650SOL    MW414921   1.978   0.002   4.865
 3651SOL     OW14922   3.603   1.192   4.494
 3651SOL    HW214923   3.582   1.138   4.417
 3651SOL    HW314924   3.699   1.190   4.498
 3651SOL    MW414925   3.612   1.185   4.483
 3652SOL     OW14926   2.295   1.337   5.237
 3652SOL    HW214927   2.216   1.287   5.260
 3652SOL    HW314928   2.365   1.296   5.287
 3652SOL    MW414929   2.293   1.325   5.247
 3653SOL     OW14930   2.179   0.126   3.920
 3653SOL    HW214931   2.108   0.181   3.888
 3653SOL    HW314932   2.221   0.092   3.841
 3653SOL    MW414933   2.175   0.128   3.906
 3654SOL     OW14934   3.303   0.623   4.756
 3654SOL    HW214935   3.226   0.669   4.722
 3654SOL    HW314936   3.360   0.692   4.790
 3654SOL    MW414937   3.300   0.638   4.756
 3655SOL     OW14938   1.935   0.225   3.769
 3655SOL    HW214939   1.902   0.304   3.813
 3655SOL    HW314940   1.990   0.258   3.698
 3655SOL    MW414941   1.938   0.239   3.766
 3656SOL     OW14942   1.969   1.482   3.958
 3656SOL    HW214943   1.986   1.566   4.000
 3656SOL    HW314944   2.004   1.491   3.870
 3656SOL    MW414945   1.974   1.495   3.952
 3657SOL     OW14946   3.241   1.571   4.175
 3657SOL    HW214947   3.304   1.561   4.104
 3657SOL    HW314948   3.158   1.591   4.130
 3657SOL    MW414949   3.238   1.572   4.160
 3658SOL     OW14950   3.604   0.839   5.862
 3658SOL    HW214951   3.645   0.781   5.927
 3658SOL    HW314952   3.511   0.831   5.879
 3658SOL    MW414953   3.598   0.831   5.872
 3659SOL     OW14954   2.398   1.022   6.091
 3659SOL    HW214955   2.488   0.997   6.075
 3659SOL    HW314956   2.394   1.115   6.068
 3659SOL    MW414957   2.410   1.031   6.086
 3660SOL     OW14958   2.124   0.506   6.032
 3660SOL    HW214959   2.156   0.594   6.014
 3660SOL    HW314960   2.112   0.504   6.127
 3660SOL    MW414961   2.127   0.518   6.044
 3661SOL     OW14962   2.387   0.692   6.285
 3661SOL    HW214963   2.372   0.612   6.336
 3661SOL    HW314964   2.469   0.727   6.319
 3661SOL    MW414965   2.395   0.684   6.297
 3662SOL     OW14966   1.972   1.778   6.441
 3662SOL    HW214967   2.061   1.770   6.476
 3662SOL    HW314968   1.936   1.690   6.446
 3662SOL    MW414969   1.979   1.765   6.446
 3663SOL     OW14970   3.237   1.170   5.810
 3663SOL    HW214971   3.155   1.206   5.776
 3663SOL    HW314972   3.305   1.213   5.759
 3663SOL    MW414973   3.235   1.180   5.798
 3664SOL     OW14974   2.236   1.305   6.476
 3664SOL    HW214975   2.212   1.358   6.552
 3664SOL    HW314976   2.292   1.363   6.424
 3664SOL    MW414977   2.240   1.320   6.479
 3665SOL     OW14978   2.798   0.949   6.286
 3665SOL    HW214979   2.712   0.936   6.326
 3665SOL    HW314980   2.851   0.876   6.318
 3665SOL    MW414981   2.794   0.938   6.295
 3666SOL     OW14982   2.789   1.311   6.003
 3666SOL    HW214983   2.766   1.373   6.071
 3666SOL    HW314984   2.746   1.229   6.029
 3666SOL    MW414985   2.781   1.307   6.014
 3667SOL     OW14986   2.286   0.284   5.971
 3667SOL    HW214987   2.260   0.246   5.887
 3667SOL    HW314988   2.223   0.354   5.987
 3667SOL    MW414989   2.275   0.287   5.962
 3668SOL     OW14990   2.121   1.245   6.008
 3668SOL    HW214991   2.069   1.313   5.964
 3668SOL    HW314992   2.118   1.171   5.948
 3668SOL    MW414993   2.113   1.244   5.995
 3669SOL     OW14994   2.783   1.708   5.786
 3669SOL    HW214995   2.738   1.724   5.869
 3669SOL    HW314996   2.714   1.673   5.728
 3669SOL    MW414997   2.769   1.705   5.788
 3670SOL     OW14998   3.718   0.481   5.761
 3670SOL    HW214999   3.627   0.483   5.789
 3670SOL    HW315000   3.763   0.543   5.819
 3670SOL    MW415001   3.711   0.489   5.771
 3671SOL     OW15002   3.463   1.084   6.111
 3671SOL    HW215003   3.373   1.084   6.146
 3671SOL    HW315004   3.456   1.130   6.028
 3671SOL    MW415005   3.450   1.090   6.105
 3672SOL     OW15006   2.990   0.665   6.072
 3672SOL    HW215007   3.016   0.689   5.983
 3672SOL    HW315008   2.972   0.572   6.068
 3672SOL    MW415009   2.992   0.657   6.059
 3673SOL     OW15010   3.655   1.285   5.923
 3673SOL    HW215011   3.611   1.326   5.998
 3673SOL    HW315012   3.712   1.353   5.888
 3673SOL    MW415013   3.657   1.299   5.928
 3674SOL     OW15014   2.311   1.701   6.241
 3674SOL    HW215015   2.343   1.789   6.219
 3674SOL    HW315016   2.264   1.673   6.163
 3674SOL    MW415017   2.310   1.709   6.228
 3675SOL     OW15018   2.027   1.761   5.818
 3675SOL    HW215019   2.056   1.851   5.810
 3675SOL    HW315020   1.977   1.744   5.739
 3675SOL    MW415021   2.025   1.769   5.807
 3676SOL     OW15022   3.431   1.569   5.789
 3676SOL    HW215023   3.479   1.638   5.835
 3676SOL    HW315024   3.352   1.613   5.758
 3676SOL    MW415025   3.426   1.583   5.792
 3677SOL     OW15026   2.829   0.694   5.733
 3677SOL    HW215027   2.831   0.641   5.654
 3677SOL    HW315028   2.917   0.731   5.739
 3677SOL    MW415029   2.841   0.693   5.722
 3678SOL     OW15030   3.443   0.620   6.069
 3678SOL    HW215031   3.482   0.620   6.156
 3678SOL    HW315032   3.384   0.696   6.069
 3678SOL    MW415033   3.440   0.631   6.080
 3679SOL     OW15034   2.056   0.220   6.264
 3679SOL    HW215035   2.047   0.160   6.190
 3679SOL    HW315036   1.989   0.191   6.327
 3679SOL    MW415037   2.046   0.207   6.262
 3680SOL     OW15038   2.999   1.313   5.825
 3680SOL    HW215039   2.949   1.315   5.907
 3680SOL    HW315040   2.933   1.331   5.757
 3680SOL    MW415041   2.985   1.315   5.827
 3681SOL     OW15042   2.462   1.731   5.933
 3681SOL    HW215043   2.383   1.689   5.966
 3681SOL    HW315044   2.528   1.714   6.000
 3681SOL    MW415045   2.461   1.723   5.946
 3682SOL     OW15046   2.598   1.146   5.640
 3682SOL    HW215047   2.520   1.092   5.627
 3682SOL    HW315048   2.569   1.219   5.693
 3682SOL    MW415049   2.584   1.148   5.645
 3683SOL     OW15050   3.179   1.662   5.708
 3683SOL    HW215051   3.105   1.625   5.758
 3683SOL    HW315052   3.187   1.752   5.741
 3683SOL    MW415053   3.170   1.669   5.720
 3684SOL     OW15054   3.403   1.336   5.650
 3684SOL    HW215055   3.350   1.385   5.586
 3684SOL    HW315056   3.434   1.402   5.711
 3684SOL    MW415057   3.401   1.350   5.648
 3685SOL     OW15058   2.628   0.225   5.705
 3685SOL    HW215059   2.576   0.145   5.693
 3685SOL    HW315060   2.715   0.202   5.673
 3685SOL    MW415061   2.631   0.211   5.699
 3686SOL     OW15062   1.989   0.865   6.162
 3686SOL    HW215063   2.080   0.880   6.189
 3686SOL    HW315064   1.992   0.786   6.108
 3686SOL    MW415065   2.001   0.857   6.160
 3687SOL     OW15066   1.997   1.477   6.201
 3687SOL    HW215067   1.969   1.516   6.283
 3687SOL    HW315068   2.017   1.386   6.223
 3687SOL    MW415069   1.995   1.469   6.214
 3688SOL     OW15070   2.830   1.520   6.236
 3688SOL    HW215071   2.913   1.474   6.220
 3688SOL    HW315072   2.820   1.519   6.332
 3688SOL    MW415073   2.840   1.513   6.246
 3689SOL     OW15074   2.563   1.577   5.641
 3689SOL    HW215075   2.503   1.646   5.611
 3689SOL    HW315076   2.508   1.519   5.694
 3689SOL    MW415077   2.547   1.579   5.643
 3690SOL     OW15078   3.001   0.222   5.864
 3690SOL    HW215079   2.934   0.198   5.801
 3690SOL    HW315080   3.066   0.271   5.813
 3690SOL    MW415081   3.001   0.224   5.849
 3691SOL     OW15082   2.194   1.621   6.030
 3691SOL    HW215083   2.155   1.668   5.956
 3691SOL    HW315084   2.128   1.556   6.055
 3691SOL    MW415085   2.181   1.619   6.024
 3692SOL     OW15086   2.686   1.030   6.054
 3692SOL    HW215087   2.688   1.004   5.961
 3692SOL    HW315088   2.744   0.967   6.097
 3692SOL    MW415089   2.694   1.019   6.048
 3693SOL     OW15090   2.001   1.208   6.321
 3693SOL    HW215091   2.065   1.240   6.384
 3693SOL    HW315092   2.050   1.144   6.269
 3693SOL    MW415093   2.016   1.204   6.322
 3694SOL     OW15094   3.176   0.378   5.722
 3694SOL    HW215095   3.149   0.444   5.658
 3694SOL    HW315096   3.246   0.421   5.772
 3694SOL    MW415097   3.181   0.391   5.719
 3695SOL     OW15098   2.844   0.083   5.659
 3695SOL    HW215099   2.900   0.075   5.581
 3695SOL    HW315100   2.821  -0.007   5.681
 3695SOL    MW415101   2.849   0.070   5.652
 3696SOL     OW15102   3.349   0.934   5.864
 3696SOL    HW215103   3.316   1.023   5.854
 3696SOL    HW315104   3.314   0.905   5.949
 3696SOL    MW415105   3.339   0.943   5.875
 3697SOL     OW15106   2.343   0.972   5.656
 3697SOL    HW215107   2.266   0.985   5.712
 3697SOL    HW315108   2.307   0.936   5.575
 3697SOL    MW415109   2.329   0.968   5.653
 3698SOL     OW15110   2.996   0.945   5.899
 3698SOL    HW215111   2.906   0.966   5.874
 3698SOL    HW315112   3.023   1.018   5.955
 3698SOL    MW415113   2.988   0.957   5.902
 3699SOL     OW15114   2.383   1.301   6.055
 3699SOL    HW215115   2.376   1.333   6.145
 3699SOL    HW315116   2.293   1.285   6.027
 3699SOL    MW415117   2.371   1.303   6.062
 3700SOL     OW15118   2.386   0.585   5.769
 3700SOL    HW215119   2.352   0.641   5.839
 3700SOL    HW315120   2.457   0.535   5.809
 3700SOL    MW415121   2.392   0.586   5.783
 3701SOL     OW15122   3.442   0.471   5.833
 3701SOL    HW215123   3.434   0.542   5.770
 3701SOL    HW315124   3.460   0.515   5.916
 3701SOL    MW415125   3.443   0.485   5.835
 3702SOL     OW15126   2.302   0.126   6.262
 3702SOL    HW215127   2.352   0.169   6.193
 3702SOL    HW315128   2.217   0.170   6.262
 3702SOL    MW415129   2.299   0.139   6.253
 3703SOL     OW15130   3.111   0.733   5.808
 3703SOL    HW215131   3.158   0.751   5.727
 3703SOL    HW315132   3.077   0.817   5.836
 3703SOL    MW415133   3.113   0.747   5.801
 3704SOL     OW15134   2.224   0.911   6.302
 3704SOL    HW215135   2.282   0.967   6.250
 3704SOL    HW315136   2.268   0.826   6.304
 3704SOL    MW415137   2.237   0.908   6.295
 3705SOL     OW15138   3.364   0.263   6.139
 3705SOL    HW215139   3.286   0.213   6.164
 3705SOL    HW315140   3.335   0.354   6.139
 3705SOL    MW415141   3.350   0.267   6.142
 3706SOL     OW15142   2.846   1.475   5.630
 3706SOL    HW215143   2.873   1.553   5.582
 3706SOL    HW315144   2.753   1.490   5.649
 3706SOL    MW415145   2.837   1.488   5.626
 3707SOL     OW15146   1.886   0.637   6.021
 3707SOL    HW215147   1.826   0.609   6.091
 3707SOL    HW315148   1.960   0.577   6.027
 3707SOL    MW415149   1.888   0.626   6.030
 3708SOL     OW15150   3.054   1.368   6.181
 3708SOL    HW215151   3.077   1.319   6.259
 3708SOL    HW315152   3.135   1.410   6.153
 3708SOL    MW415153   3.067   1.368   6.188
 3709SOL     OW15154   2.409   0.121   6.537
 3709SOL    HW215155   2.419   0.030   6.563
 3709SOL    HW315156   2.365   0.117   6.452
 3709SOL    MW415157   2.405   0.109   6.529
 3710SOL     OW15158   3.194   0.035   5.817
 3710SOL    HW215159   3.268   0.079   5.860
 3710SOL    HW315160   3.118   0.089   5.839
 3710SOL    MW415161   3.194   0.047   5.825
 3711SOL     OW15162   3.254   0.810   6.095
 3711SOL    HW215163   3.169   0.780   6.065
 3711SOL    HW315164   3.246   0.817   6.190
 3711SOL    MW415165   3.242   0.808   6.104
 3712SOL     OW15166   2.627   0.476   5.821
 3712SOL    HW215167   2.700   0.525   5.784
 3712SOL    HW315168   2.643   0.385   5.795
 3712SOL    MW415169   2.639   0.471   5.814
 3713SOL     OW15170   2.102   0.985   5.919
 3713SOL    HW215171   2.039   1.001   5.848
 3713SOL    HW315172   2.049   0.948   5.990
 3713SOL    MW415173   2.087   0.982   5.919
 3714SOL     OW15174   2.458   1.339   5.778
 3714SOL    HW215175   2.473   1.315   5.870
 3714SOL    HW315176   2.366   1.317   5.762
 3714SOL    MW415177   2.448   1.332   5.788
 3715SOL     OW15178   2.997   1.570   5.930
 3715SOL    HW215179   3.005   1.488   5.881
 3715SOL    HW315180   2.916   1.609   5.897
 3715SOL    MW415181   2.987   1.565   5.920
 3716SOL     OW15182   2.256   1.728   6.499
 3716SOL    HW215183   2.260   1.639   6.534
 3716SOL    HW315184   2.282   1.719   6.408
 3716SOL    MW415185   2.259   1.716   6.491
 3717SOL     OW15186   2.333   0.451   6.376
 3717SOL    HW215187   2.404   0.399   6.339
 3717SOL    HW315188   2.319   0.416   6.463
 3717SOL    MW415189   2.341   0.440   6.383
 3718SOL     OW15190   2.969   0.392   6.100
 3718SOL    HW215191   2.991   0.329   6.032
 3718SOL    HW315192   2.874   0.384   6.111
 3718SOL    MW415193   2.959   0.383   6.092
 3719SOL     OW15194   2.054   0.082   6.032
 3719SOL    HW215195   2.125   0.103   5.971
 3719SOL    HW315196   2.008   0.010   5.990
 3719SOL    MW415197   2.058   0.076   6.018
 3720SOL     OW15198   3.623   1.456   6.132
 3720SOL    HW215199   3.593   1.389   6.193
 3720SOL    HW315200   3.717   1.462   6.146
 3720SOL    MW415201   3.631   1.448   6.142
 3721SOL     OW15202   3.179   1.133   6.062
 3721SOL    HW215203   3.151   1.219   6.095
 3721SOL    HW315204   3.207   1.149   5.972
 3721SOL    MW415205   3.179   1.147   6.054
 3722SOL     OW15206   2.841   0.053   6.115
 3722SOL    HW215207   2.878   0.112   6.180
 3722SOL    HW315208   2.818   0.109   6.041
 3722SOL    MW415209   2.842   0.068   6.114
 3723SOL     OW15210   2.262   0.744   6.011
 3723SOL    HW215211   2.262   0.839   5.996
 3723SOL    HW315212   2.339   0.728   6.065
 3723SOL    MW415213   2.272   0.755   6.016
 3724SOL     OW15214   2.021   0.475   6.300
 3724SOL    HW215215   2.083   0.482   6.373
 3724SOL    HW315216   2.021   0.382   6.277
 3724SOL    MW415217   2.029   0.464   6.307
 3725SOL     OW15218   3.568   1.815   5.832
 3725SOL    HW215219   3.635   1.848   5.772
 3725SOL    HW315220   3.525   1.894   5.866
 3725SOL    MW415221   3.570   1.830   5.828
 3726SOL     OW15222   1.890   1.047   5.758
 3726SOL    HW215223   1.859   1.112   5.821
 3726SOL    HW315224   1.839   0.969   5.777
 3726SOL    MW415225   1.880   1.044   5.768
 3727SOL     OW15226   2.474   1.847   5.700
 3727SOL    HW215227   2.379   1.847   5.692
 3727SOL    HW315228   2.490   1.793   5.778
 3727SOL    MW415229   2.464   1.841   5.709
 3728SOL     OW15230   3.319   0.667   5.615
 3728SOL    HW215231   3.247   0.643   5.557
 3728SOL    HW315232   3.385   0.704   5.557
 3728SOL    MW415233   3.318   0.669   5.600
 3729SOL     OW15234   2.714   0.564   6.426
 3729SOL    HW215235   2.654   0.582   6.498
 3729SOL    HW315236   2.748   0.476   6.445
 3729SOL    MW415237   2.710   0.554   6.439
 3730SOL     OW15238   2.732   0.967   5.800
 3730SOL    HW215239   2.718   0.879   5.765
 3730SOL    HW315240   2.683   1.024   5.741
 3730SOL    MW415241   2.724   0.962   5.788
 3731SOL     OW15242   3.451   0.173   5.902
 3731SOL    HW215243   3.444   0.177   5.997
 3731SOL    HW315244   3.463   0.264   5.875
 3731SOL    MW415245   3.452   0.186   5.910
 3732SOL     OW15246   2.740   0.736   6.016
 3732SOL    HW215247   2.720   0.722   5.923
 3732SOL    HW315248   2.833   0.715   6.023
 3732SOL    MW415249   2.750   0.731   6.005
 3733SOL     OW15250   2.723   1.694   6.054
 3733SOL    HW215251   2.781   1.765   6.081
 3733SOL    HW315252   2.746   1.622   6.112
 3733SOL    MW415253   2.734   1.694   6.065
 3734SOL     OW15254   2.179   0.126   5.789
 3734SOL    HW215255   2.108   0.181   5.757
 3734SOL    HW315256   2.221   0.092   5.710
 3734SOL    MW415257   2.175   0.128   5.775
 3735SOL     OW15258   1.935   0.225   5.638
 3735SOL    HW215259   1.902   0.304   5.682
 3735SOL    HW315260   1.990   0.258   5.567
 3735SOL    MW415261   1.938   0.239   5.635
 3736SOL     OW15262   1.969   1.482   5.827
 3736SOL    HW215263   1.986   1.566   5.869
 3736SOL    HW315264   2.004   1.491   5.739
 3736SOL    MW415265   1.974   1.495   5.821
 3737SOL     OW15266   3.241   1.571   6.044
 3737SOL    HW215267   3.304   1.561   5.973
 3737SOL    HW315268   3.158   1.591   5.999
 3737SOL    MW415269   3.238   1.572   6.029
 3738SOL     OW15270   3.470   2.639   1.252
 3738SOL    HW215271   3.425   2.706   1.303
 3738SOL    HW315272   3.558   2.675   1.238
 3738SOL    MW415273   3.476   2.652   1.256
 3739SOL     OW15274   2.398   2.890   0.486
 3739SOL    HW215275   2.488   2.865   0.470
 3739SOL    HW315276   2.394   2.983   0.463
 3739SOL    MW415277   2.410   2.899   0.481
 3740SOL     OW15278   3.514   3.593   0.628
 3740SOL    HW215279   3.526   3.539   0.706
 3740SOL    HW315280   3.551   3.541   0.557
 3740SOL    MW415281   3.520   3.578   0.629
 3741SOL     OW15282   2.893   3.478   1.629
 3741SOL    HW215283   2.934   3.514   1.550
 3741SOL    HW315284   2.928   3.389   1.636
 3741SOL    MW415285   2.904   3.471   1.620
 3742SOL     OW15286   3.450   3.033   1.233
 3742SOL    HW215287   3.371   2.998   1.191
 3742SOL    HW315288   3.477   3.105   1.177
 3742SOL    MW415289   3.443   3.038   1.220
 3743SOL     OW15290   2.682   2.346   0.499
 3743SOL    HW215291   2.657   2.434   0.527
 3743SOL    HW315292   2.679   2.349   0.403
 3743SOL    MW415293   2.678   2.358   0.491
 3744SOL     OW15294   2.124   2.374   0.427
 3744SOL    HW215295   2.156   2.462   0.409
 3744SOL    HW315296   2.112   2.372   0.522
 3744SOL    MW415297   2.127   2.386   0.439
 3745SOL     OW15298   2.202   2.787   1.328
 3745SOL    HW215299   2.265   2.734   1.279
 3745SOL    HW315300   2.183   2.861   1.271
 3745SOL    MW415301   2.208   2.789   1.315
 3746SOL     OW15302   2.523   2.129   0.514
 3746SOL    HW215303   2.581   2.205   0.516
 3746SOL    HW315304   2.458   2.150   0.447
 3746SOL    MW415305   2.522   2.141   0.505
 3747SOL     OW15306   2.610   3.056   0.689
 3747SOL    HW215307   2.690   3.059   0.741
 3747SOL    HW315308   2.638   3.023   0.603
 3747SOL    MW415309   2.624   3.052   0.684
 3748SOL     OW15310   2.635   3.397   1.592
 3748SOL    HW215311   2.719   3.423   1.631
 3748SOL    HW315312   2.659   3.341   1.518
 3748SOL    MW415313   2.649   3.393   1.587
 3749SOL     OW15314   2.387   2.560   0.680
 3749SOL    HW215315   2.372   2.480   0.731
 3749SOL    HW315316   2.469   2.595   0.714
 3749SOL    MW415317   2.395   2.552   0.692
 3750SOL     OW15318   2.724   3.246   1.365
 3750SOL    HW215319   2.688   3.312   1.305
 3750SOL    HW315320   2.652   3.184   1.378
 3750SOL    MW415321   2.710   3.246   1.359
 3751SOL     OW15322   2.529   2.386   1.057
 3751SOL    HW215323   2.435   2.382   1.075
 3751SOL    HW315324   2.559   2.295   1.066
 3751SOL    MW415325   2.520   2.374   1.060
 3752SOL     OW15326   2.275   2.800   0.961
 3752SOL    HW215327   2.230   2.807   0.877
 3752SOL    HW315328   2.255   2.883   1.005
 3752SOL    MW415329   2.267   2.812   0.955
 3753SOL     OW15330   1.972   3.646   0.836
 3753SOL    HW215331   2.061   3.638   0.871
 3753SOL    HW315332   1.936   3.558   0.841
 3753SOL    MW415333   1.979   3.633   0.841
 3754SOL     OW15334   2.236   3.173   0.871
 3754SOL    HW215335   2.212   3.226   0.947
 3754SOL    HW315336   2.292   3.231   0.819
 3754SOL    MW415337   2.240   3.188   0.874
 3755SOL     OW15338   2.798   2.817   0.681
 3755SOL    HW215339   2.712   2.804   0.721
 3755SOL    HW315340   2.851   2.744   0.713
 3755SOL    MW415341   2.794   2.806   0.690
 3756SOL     OW15342   2.206   3.469   1.466
 3756SOL    HW215343   2.114   3.445   1.451
 3756SOL    HW315344   2.250   3.386   1.483
 3756SOL    MW415345   2.200   3.454   1.465
 3757SOL     OW15346   2.789   3.179   0.398
 3757SOL    HW215347   2.766   3.241   0.466
 3757SOL    HW315348   2.746   3.097   0.424
 3757SOL    MW415349   2.781   3.175   0.409
 3758SOL     OW15350   3.662   2.180   0.854
 3758SOL    HW215351   3.599   2.160   0.923
 3758SOL    HW315352   3.652   2.109   0.791
 3758SOL    MW415353   3.652   2.167   0.855
 3759SOL     OW15354   2.286   2.152   0.366
 3759SOL    HW215355   2.260   2.114   0.282
 3759SOL    HW315356   2.223   2.222   0.382
 3759SOL    MW415357   2.275   2.155   0.357
 3760SOL     OW15358   2.121   3.113   0.403
 3760SOL    HW215359   2.069   3.181   0.359
 3760SOL    HW315360   2.118   3.039   0.343
 3760SOL    MW415361   2.113   3.112   0.390
 3761SOL     OW15362   3.463   2.952   0.506
 3761SOL    HW215363   3.373   2.952   0.541
 3761SOL    HW315364   3.456   2.998   0.423
 3761SOL    MW415365   3.450   2.958   0.500
 3762SOL     OW15366   3.263   2.587   1.578
 3762SOL    HW215367   3.332   2.525   1.555
 3762SOL    HW315368   3.188   2.561   1.525
 3762SOL    MW415369   3.263   2.574   1.569
 3763SOL     OW15370   2.004   3.467   1.130
 3763SOL    HW215371   1.987   3.413   1.207
 3763SOL    HW315372   1.992   3.557   1.160
 3763SOL    MW415373   2.001   3.471   1.144
 3764SOL     OW15374   2.999   2.974   1.570
 3764SOL    HW215375   2.984   3.067   1.555
 3764SOL    HW315376   3.094   2.964   1.570
 3764SOL    MW415377   3.008   2.984   1.567
 3765SOL     OW15378   2.795   2.398   1.771
 3765SOL    HW215379   2.885   2.399   1.738
 3765SOL    HW315380   2.754   2.323   1.729
 3765SOL    MW415381   2.801   2.388   1.762
 3766SOL     OW15382   3.370   2.930   0.898
 3766SOL    HW215383   3.373   2.864   0.829
 3766SOL    HW315384   3.455   2.973   0.894
 3766SOL    MW415385   3.382   2.926   0.889
 3767SOL     OW15386   2.990   2.533   0.467
 3767SOL    HW215387   3.016   2.557   0.378
 3767SOL    HW315388   2.972   2.440   0.463
 3767SOL    MW415389   2.992   2.525   0.454
 3768SOL     OW15390   2.575   2.202   1.721
 3768SOL    HW215391   2.585   2.128   1.661
 3768SOL    HW315392   2.611   2.171   1.804
 3768SOL    MW415393   2.581   2.188   1.723
 3769SOL     OW15394   2.311   3.569   0.636
 3769SOL    HW215395   2.343   3.657   0.614
 3769SOL    HW315396   2.264   3.541   0.558
 3769SOL    MW415397   2.310   3.577   0.623
 3770SOL     OW15398   3.695   1.931   0.685
 3770SOL    HW215399   3.749   1.882   0.747
 3770SOL    HW315400   3.638   1.865   0.646
 3770SOL    MW415401   3.695   1.915   0.687
 3771SOL     OW15402   2.027   3.629   0.213
 3771SOL    HW215403   2.056   3.719   0.205
 3771SOL    HW315404   1.977   3.612   0.134
 3771SOL    MW415405   2.025   3.637   0.202
 3772SOL     OW15406   2.814   1.884   1.098
 3772SOL    HW215407   2.773   1.962   1.060
 3772SOL    HW315408   2.908   1.902   1.093
 3772SOL    MW415409   2.820   1.896   1.093
 3773SOL     OW15410   3.443   2.488   0.464
 3773SOL    HW215411   3.482   2.488   0.551
 3773SOL    HW315412   3.384   2.564   0.464
 3773SOL    MW415413   3.440   2.499   0.475
 3774SOL     OW15414   2.760   2.855   1.593
 3774SOL    HW215415   2.737   2.835   1.683
 3774SOL    HW315416   2.845   2.899   1.598
 3774SOL    MW415417   2.767   2.858   1.605
 3775SOL     OW15418   2.840   1.992   1.353
 3775SOL    HW215419   2.846   1.954   1.266
 3775SOL    HW315420   2.829   2.086   1.338
 3775SOL    MW415421   2.841   2.000   1.341
 3776SOL     OW15422   2.929   2.481   1.187
 3776SOL    HW215423   3.004   2.510   1.134
 3776SOL    HW315424   2.861   2.546   1.171
 3776SOL    MW415425   2.930   2.493   1.177
 3777SOL     OW15426   3.479   2.449   1.464
 3777SOL    HW215427   3.460   2.358   1.443
 3777SOL    HW315428   3.457   2.498   1.385
 3777SOL    MW415429   3.474   2.442   1.451
 3778SOL     OW15430   3.621   3.543   1.368
 3778SOL    HW215431   3.549   3.505   1.419
 3778SOL    HW315432   3.638   3.628   1.409
 3778SOL    MW415433   3.615   3.548   1.380
 3779SOL     OW15434   2.926   2.187   1.570
 3779SOL    HW215435   2.892   2.226   1.489
 3779SOL    HW315436   2.904   2.095   1.563
 3779SOL    MW415437   2.919   2.180   1.560
 3780SOL     OW15438   3.335   3.001   1.646
 3780SOL    HW215439   3.417   3.042   1.676
 3780SOL    HW315440   3.298   2.963   1.726
 3780SOL    MW415441   3.341   3.002   1.661
 3781SOL     OW15442   3.630   2.374   0.630
 3781SOL    HW215443   3.719   2.343   0.647
 3781SOL    HW315444   3.573   2.314   0.678
 3781SOL    MW415445   3.633   2.362   0.639
 3782SOL     OW15446   2.056   2.088   0.659
 3782SOL    HW215447   2.047   2.028   0.585
 3782SOL    HW315448   1.989   2.059   0.722
 3782SOL    MW415449   2.046   2.075   0.657
 3783SOL     OW15450   2.003   2.261   1.022
 3783SOL    HW215451   1.975   2.352   1.031
 3783SOL    HW315452   1.940   2.222   0.961
 3783SOL    MW415453   1.990   2.267   1.016
 3784SOL     OW15454   2.462   3.599   0.328
 3784SOL    HW215455   2.383   3.557   0.361
 3784SOL    HW315456   2.528   3.582   0.395
 3784SOL    MW415457   2.461   3.591   0.341
 3785SOL     OW15458   3.590   3.119   1.725
 3785SOL    HW215459   3.640   3.045   1.757
 3785SOL    HW315460   3.536   3.146   1.800
 3785SOL    MW415461   3.590   3.113   1.738
 3786SOL     OW15462   3.724   2.754   1.227
 3786SOL    HW215463   3.740   2.792   1.140
 3786SOL    HW315464   3.758   2.820   1.288
 3786SOL    MW415465   3.731   2.767   1.223
 3787SOL     OW15466   3.516   3.463   0.896
 3787SOL    HW215467   3.545   3.530   0.957
 3787SOL    HW315468   3.497   3.387   0.951
 3787SOL    MW415469   3.518   3.463   0.911
 3788SOL     OW15470   1.987   2.536   1.192
 3788SOL    HW215471   2.049   2.566   1.258
 3788SOL    HW315472   1.921   2.605   1.186
 3788SOL    MW415473   1.986   2.549   1.199
 3789SOL     OW15474   2.082   3.645   1.644
 3789SOL    HW215475   2.056   3.713   1.582
 3789SOL    HW315476   2.130   3.582   1.592
 3789SOL    MW415477   2.084   3.645   1.630
 3790SOL     OW15478   2.134   2.964   1.151
 3790SOL    HW215479   2.187   3.039   1.176
 3790SOL    HW315480   2.053   3.002   1.117
 3790SOL    MW415481   2.130   2.979   1.151
 3791SOL     OW15482   2.674   2.868   1.139
 3791SOL    HW215483   2.702   2.777   1.151
 3791SOL    HW315484   2.603   2.862   1.075
 3791SOL    MW415485   2.667   2.856   1.134
 3792SOL     OW15486   1.989   2.733   0.557
 3792SOL    HW215487   2.080   2.748   0.584
 3792SOL    HW315488   1.992   2.654   0.503
 3792SOL    MW415489   2.001   2.725   0.555
 3793SOL     OW15490   2.225   2.441   1.811
 3793SOL    HW215491   2.172   2.521   1.818
 3793SOL    HW315492   2.295   2.453   1.876
 3793SOL    MW415493   2.227   2.454   1.819
 3794SOL     OW15494   2.611   1.991   1.518
 3794SOL    HW215495   2.588   1.899   1.520
 3794SOL    HW315496   2.697   1.993   1.475
 3794SOL    MW415497   2.618   1.981   1.514
 3795SOL     OW15498   2.295   2.515   1.557
 3795SOL    HW215499   2.375   2.565   1.543
 3795SOL    HW315500   2.286   2.509   1.652
 3795SOL    MW415501   2.304   2.521   1.567
 3796SOL     OW15502   2.616   3.665   0.931
 3796SOL    HW215503   2.705   3.680   0.961
 3796SOL    HW315504   2.611   3.712   0.847
 3796SOL    MW415505   2.626   3.673   0.924
 3797SOL     OW15506   3.272   2.040   1.828
 3797SOL    HW215507   3.328   1.967   1.854
 3797SOL    HW315508   3.242   2.078   1.910
 3797SOL    MW415509   3.276   2.035   1.841
 3798SOL     OW15510   1.997   3.345   0.596
 3798SOL    HW215511   1.969   3.384   0.678
 3798SOL    HW315512   2.017   3.254   0.618
 3798SOL    MW415513   1.995   3.337   0.609
 3799SOL     OW15514   2.830   3.388   0.631
 3799SOL    HW215515   2.913   3.342   0.615
 3799SOL    HW315516   2.820   3.387   0.727
 3799SOL    MW415517   2.840   3.381   0.641
 3800SOL     OW15518   3.662   2.533   0.945
 3800SOL    HW215519   3.751   2.563   0.927
 3800SOL    HW315520   3.642   2.473   0.874
 3800SOL    MW415521   3.671   2.530   0.934
 3801SOL     OW15522   3.513   2.712   1.825
 3801SOL    HW215523   3.568   2.636   1.806
 3801SOL    HW315524   3.515   2.720   1.920
 3801SOL    MW415525   3.521   2.703   1.833
 3802SOL     OW15526   2.808   2.274   1.344
 3802SOL    HW215527   2.727   2.315   1.372
 3802SOL    HW315528   2.855   2.342   1.296
 3802SOL    MW415529   2.803   2.289   1.342
 3803SOL     OW15530   3.068   2.612   0.967
 3803SOL    HW215531   3.081   2.706   0.977
 3803SOL    HW315532   3.029   2.602   0.881
 3803SOL    MW415533   3.064   2.623   0.957
 3804SOL     OW15534   2.520   2.807   0.771
 3804SOL    HW215535   2.431   2.798   0.804
 3804SOL    HW315536   2.524   2.897   0.739
 3804SOL    MW415537   2.509   2.818   0.771
 3805SOL     OW15538   3.319   2.390   0.766
 3805SOL    HW215539   3.264   2.311   0.765
 3805SOL    HW315540   3.301   2.431   0.850
 3805SOL    MW415541   3.309   2.385   0.775
 3806SOL     OW15542   2.290   2.077   1.583
 3806SOL    HW215543   2.211   2.095   1.635
 3806SOL    HW315544   2.285   2.139   1.510
 3806SOL    MW415545   2.280   2.087   1.580
 3807SOL     OW15546   2.938   2.594   0.723
 3807SOL    HW215547   2.875   2.526   0.747
 3807SOL    HW315548   2.958   2.575   0.631
 3807SOL    MW415549   2.932   2.581   0.715
 3808SOL     OW15550   2.194   3.489   0.425
 3808SOL    HW215551   2.155   3.536   0.351
 3808SOL    HW315552   2.128   3.424   0.450
 3808SOL    MW415553   2.181   3.487   0.419
 3809SOL     OW15554   2.686   2.898   0.449
 3809SOL    HW215555   2.688   2.872   0.356
 3809SOL    HW315556   2.744   2.835   0.492
 3809SOL    MW415557   2.694   2.887   0.443
 3810SOL     OW15558   3.239   3.458   1.221
 3810SOL    HW215559   3.164   3.504   1.259
 3810SOL    HW315560   3.221   3.365   1.238
 3810SOL    MW415561   3.228   3.452   1.229
 3811SOL     OW15562   3.243   3.666   0.651
 3811SOL    HW215563   3.186   3.619   0.590
 3811SOL    HW315564   3.329   3.627   0.638
 3811SOL    MW415565   3.246   3.657   0.641
 3812SOL     OW15566   3.196   2.142   0.782
 3812SOL    HW215567   3.224   2.074   0.843
 3812SOL    HW315568   3.110   2.113   0.752
 3812SOL    MW415569   3.189   2.129   0.786
 3813SOL     OW15570   2.001   3.076   0.716
 3813SOL    HW215571   2.065   3.108   0.779
 3813SOL    HW315572   2.050   3.012   0.664
 3813SOL    MW415573   2.016   3.072   0.717
 3814SOL     OW15574   2.501   3.152   1.698
 3814SOL    HW215575   2.549   3.235   1.685
 3814SOL    HW315576   2.558   3.100   1.754
 3814SOL    MW415577   2.515   3.156   1.704
 3815SOL     OW15578   2.077   3.394   1.838
 3815SOL    HW215579   2.133   3.318   1.853
 3815SOL    HW315580   2.026   3.372   1.760
 3815SOL    MW415581   2.077   3.381   1.829
 3816SOL     OW15582   3.349   2.802   0.259
 3816SOL    HW215583   3.316   2.891   0.249
 3816SOL    HW315584   3.314   2.773   0.344
 3816SOL    MW415585   3.339   2.811   0.270
 3817SOL     OW15586   2.962   3.231   1.447
 3817SOL    HW215587   2.873   3.237   1.415
 3817SOL    HW315588   3.006   3.310   1.415
 3817SOL    MW415589   2.957   3.241   1.439
 3818SOL     OW15590   2.255   1.899   1.789
 3818SOL    HW215591   2.183   1.864   1.737
 3818SOL    HW315592   2.313   1.940   1.724
 3818SOL    MW415593   2.253   1.900   1.774
 3819SOL     OW15594   2.279   3.389   1.088
 3819SOL    HW215595   2.324   3.451   1.145
 3819SOL    HW315596   2.186   3.408   1.101
 3819SOL    MW415597   2.272   3.399   1.095
 3820SOL     OW15598   3.719   2.918   1.442
 3820SOL    HW215599   3.634   2.931   1.401
 3820SOL    HW315600   3.699   2.882   1.529
 3820SOL    MW415601   3.706   2.914   1.447
 3821SOL     OW15602   2.701   3.457   1.196
 3821SOL    HW215603   2.725   3.446   1.105
 3821SOL    HW315604   2.624   3.514   1.194
 3821SOL    MW415605   2.693   3.462   1.185
 3822SOL     OW15606   2.343   2.840   0.051
 3822SOL    HW215607   2.266   2.853   0.107
 3822SOL    HW315608   2.307   2.804  -0.030
 3822SOL    MW415609   2.329   2.836   0.048
 3823SOL     OW15610   2.996   2.813   0.294
 3823SOL    HW215611   2.906   2.834   0.269
 3823SOL    HW315612   3.023   2.886   0.350
 3823SOL    MW415613   2.988   2.825   0.297
 3824SOL     OW15614   2.496   3.162   0.986
 3824SOL    HW215615   2.489   3.141   1.080
 3824SOL    HW315616   2.414   3.130   0.949
 3824SOL    MW415617   2.484   3.156   0.993
 3825SOL     OW15618   3.360   2.172   1.388
 3825SOL    HW215619   3.307   2.174   1.468
 3825SOL    HW315620   3.345   2.085   1.351
 3825SOL    MW415621   3.352   2.162   1.393
 3826SOL     OW15622   3.696   2.096   1.261
 3826SOL    HW215623   3.677   2.163   1.196
 3826SOL    HW315624   3.753   2.034   1.216
 3826SOL    MW415625   3.700   2.097   1.247
 3827SOL     OW15626   1.942   3.254   1.649
 3827SOL    HW215627   1.986   3.187   1.595
 3827SOL    HW315628   1.857   3.216   1.669
 3827SOL    MW415629   1.937   3.240   1.645
 3828SOL     OW15630   2.625   1.929   0.701
 3828SOL    HW215631   2.554   1.990   0.683
 3828SOL    HW315632   2.676   1.926   0.620
 3828SOL    MW415633   2.621   1.935   0.688
 3829SOL     OW15634   2.383   3.169   0.450
 3829SOL    HW215635   2.376   3.201   0.540
 3829SOL    HW315636   2.293   3.153   0.422
 3829SOL    MW415637   2.371   3.171   0.457
 3830SOL     OW15638   2.978   3.562   1.359
 3830SOL    HW215639   2.898   3.547   1.309
 3830SOL    HW315640   2.985   3.657   1.366
 3830SOL    MW415641   2.969   3.573   1.353
 3831SOL     OW15642   3.092   3.527   0.849
 3831SOL    HW215643   3.139   3.600   0.808
 3831SOL    HW315644   3.013   3.566   0.885
 3831SOL    MW415645   3.087   3.542   0.848
 3832SOL     OW15646   3.500   3.622   1.124
 3832SOL    HW215647   3.543   3.592   1.204
 3832SOL    HW315648   3.419   3.570   1.121
 3832SOL    MW415649   3.495   3.611   1.134
 3833SOL     OW15650   2.585   2.586   1.831
 3833SOL    HW215651   2.655   2.528   1.803
 3833SOL    HW315652   2.528   2.531   1.886
 3833SOL    MW415653   2.587   2.573   1.835
 3834SOL     OW15654   3.372   2.798   1.464
 3834SOL    HW215655   3.377   2.851   1.544
 3834SOL    HW315656   3.334   2.715   1.492
 3834SOL    MW415657   3.368   2.793   1.479
 3835SOL     OW15658   3.012   1.933   1.710
 3835SOL    HW215659   3.007   1.840   1.691
 3835SOL    HW315660   3.095   1.944   1.756
 3835SOL    MW415661   3.020   1.922   1.714
 3836SOL     OW15662   2.386   2.453   0.164
 3836SOL    HW215663   2.352   2.509   0.234
 3836SOL    HW315664   2.457   2.403   0.204
 3836SOL    MW415665   2.392   2.454   0.178
 3837SOL     OW15666   3.482   3.204   0.986
 3837SOL    HW215667   3.517   3.186   0.899
 3837SOL    HW315668   3.387   3.205   0.973
 3837SOL    MW415669   3.474   3.201   0.973
 3838SOL     OW15670   2.911   2.852   1.355
 3838SOL    HW215671   2.954   2.887   1.433
 3838SOL    HW315672   2.894   2.929   1.301
 3838SOL    MW415673   2.914   2.867   1.358
 3839SOL     OW15674   2.302   1.994   0.657
 3839SOL    HW215675   2.352   2.037   0.588
 3839SOL    HW315676   2.217   2.038   0.657
 3839SOL    MW415677   2.299   2.007   0.648
 3840SOL     OW15678   2.061   3.056   1.517
 3840SOL    HW215679   2.089   3.009   1.595
 3840SOL    HW315680   1.982   3.011   1.488
 3840SOL    MW415681   2.054   3.045   1.523
 3841SOL     OW15682   2.569   2.383   1.484
 3841SOL    HW215683   2.541   2.471   1.508
 3841SOL    HW315684   2.538   2.327   1.555
 3841SOL    MW415685   2.561   2.386   1.496
 3842SOL     OW15686   2.224   2.779   0.697
 3842SOL    HW215687   2.282   2.835   0.645
 3842SOL    HW315688   2.268   2.694   0.699
 3842SOL    MW415689   2.237   2.776   0.690
 3843SOL     OW15690   3.364   2.131   0.534
 3843SOL    HW215691   3.286   2.081   0.559
 3843SOL    HW315692   3.335   2.222   0.534
 3843SOL    MW415693   3.350   2.135   0.537
 3844SOL     OW15694   2.950   2.093   0.693
 3844SOL    HW215695   2.970   2.168   0.637
 3844SOL    HW315696   2.930   2.132   0.778
 3844SOL    MW415697   2.951   2.109   0.697
 3845SOL     OW15698   3.710   2.866   1.712
 3845SOL    HW215699   3.623   2.846   1.748
 3845SOL    HW315700   3.764   2.792   1.737
 3845SOL    MW415701   3.705   2.855   1.720
 3846SOL     OW15702   1.931   3.379   0.869
 3846SOL    HW215703   1.963   3.383   0.960
 3846SOL    HW315704   1.836   3.387   0.877
 3846SOL    MW415705   1.923   3.382   0.882
 3847SOL     OW15706   1.886   2.505   0.416
 3847SOL    HW215707   1.826   2.477   0.486
 3847SOL    HW315708   1.960   2.445   0.422
 3847SOL    MW415709   1.888   2.494   0.425
 3848SOL     OW15710   3.454   3.717   1.850
 3848SOL    HW215711   3.499   3.641   1.815
 3848SOL    HW315712   3.492   3.730   1.937
 3848SOL    MW415713   3.464   3.710   1.856
 3849SOL     OW15714   3.054   3.236   0.576
 3849SOL    HW215715   3.077   3.187   0.654
 3849SOL    HW315716   3.135   3.278   0.548
 3849SOL    MW415717   3.067   3.236   0.583
 3850SOL     OW15718   2.312   2.244   1.305
 3850SOL    HW215719   2.345   2.325   1.345
 3850SOL    HW315720   2.285   2.270   1.217
 3850SOL    MW415721   2.311   2.258   1.299
 3851SOL     OW15722   2.266   2.211   1.041
 3851SOL    HW215723   2.296   2.125   1.012
 3851SOL    HW315724   2.171   2.204   1.044
 3851SOL    MW415725   2.258   2.200   1.039
 3852SOL     OW15726   3.095   2.420   1.732
 3852SOL    HW215727   3.147   2.355   1.685
 3852SOL    HW315728   3.053   2.471   1.662
 3852SOL    MW415729   3.096   2.417   1.715
 3853SOL     OW15730   3.194   2.215   1.593
 3853SOL    HW215731   3.101   2.199   1.580
 3853SOL    HW315732   3.220   2.153   1.661
 3853SOL    MW415733   3.184   2.205   1.600
 3854SOL     OW15734   2.409   1.989   0.932
 3854SOL    HW215735   2.419   1.898   0.958
 3854SOL    HW315736   2.365   1.985   0.847
 3854SOL    MW415737   2.405   1.977   0.924
 3855SOL     OW15738   2.503   3.604   1.478
 3855SOL    HW215739   2.420   3.589   1.523
 3855SOL    HW315740   2.562   3.537   1.513
 3855SOL    MW415741   2.501   3.594   1.488
 3856SOL     OW15742   3.560   2.311   1.103
 3856SOL    HW215743   3.493   2.344   1.163
 3856SOL    HW315744   3.603   2.389   1.069
 3856SOL    MW415745   3.558   2.326   1.107
 3857SOL     OW15746   3.738   3.031   1.073
 3857SOL    HW215747   3.731   2.971   0.998
 3857SOL    HW315748   3.664   3.091   1.062
 3857SOL    MW415749   3.728   3.031   1.062
 3858SOL     OW15750   3.120   2.893   0.991
 3858SOL    HW215751   3.134   2.865   1.082
 3858SOL    HW315752   3.206   2.924   0.963
 3858SOL    MW415753   3.133   2.894   1.000
 3859SOL     OW15754   3.203   2.388   1.270
 3859SOL    HW215755   3.224   2.389   1.177
 3859SOL    HW315756   3.248   2.310   1.303
 3859SOL    MW415757   3.210   2.378   1.262
 3860SOL     OW15758   3.696   2.519   1.812
 3860SOL    HW215759   3.733   2.464   1.881
 3860SOL    HW315760   3.721   2.476   1.730
 3860SOL    MW415761   3.703   2.507   1.811
 3861SOL     OW15762   3.243   2.817   1.863
 3861SOL    HW215763   3.309   2.765   1.817
 3861SOL    HW315764   3.263   2.804   1.956
 3861SOL    MW415765   3.254   2.808   1.870
 3862SOL     OW15766   3.254   2.678   0.490
 3862SOL    HW215767   3.169   2.648   0.460
 3862SOL    HW315768   3.246   2.685   0.585
 3862SOL    MW415769   3.242   2.676   0.499
 3863SOL     OW15770   2.330   3.141   1.221
 3863SOL    HW215771   2.342   3.168   1.312
 3863SOL    HW315772   2.311   3.222   1.174
 3863SOL    MW415773   2.329   3.156   1.226
 3864SOL     OW15774   2.614   2.121   1.044
 3864SOL    HW215775   2.587   2.123   1.135
 3864SOL    HW315776   2.544   2.073   0.999
 3864SOL    MW415777   2.602   2.117   1.051
 3865SOL     OW15778   2.468   3.613   1.206
 3865SOL    HW215779   2.520   3.690   1.183
 3865SOL    HW315780   2.477   3.605   1.301
 3865SOL    MW415781   2.477   3.620   1.217
 3866SOL     OW15782   3.370   3.198   1.438
 3866SOL    HW215783   3.355   3.127   1.501
 3866SOL    HW315784   3.416   3.156   1.366
 3866SOL    MW415785   3.376   3.182   1.438
 3867SOL     OW15786   2.444   2.929   1.555
 3867SOL    HW215787   2.481   2.934   1.467
 3867SOL    HW315788   2.483   3.002   1.602
 3867SOL    MW415789   2.454   2.939   1.550
 3868SOL     OW15790   2.624   2.972   1.367
 3868SOL    HW215791   2.683   2.918   1.420
 3868SOL    HW315792   2.639   2.944   1.277
 3868SOL    MW415793   2.634   2.961   1.363
 3869SOL     OW15794   3.435   3.461   1.539
 3869SOL    HW215795   3.477   3.446   1.624
 3869SOL    HW315796   3.426   3.374   1.501
 3869SOL    MW415797   3.439   3.449   1.546
 3870SOL     OW15798   3.095   1.940   1.130
 3870SOL    HW215799   3.150   1.949   1.052
 3870SOL    HW315800   3.150   1.974   1.201
 3870SOL    MW415801   3.109   1.945   1.129
 3871SOL     OW15802   2.102   2.853   0.314
 3871SOL    HW215803   2.039   2.869   0.243
 3871SOL    HW315804   2.049   2.816   0.385
 3871SOL    MW415805   2.087   2.850   0.314
 3872SOL     OW15806   2.458   3.207   0.173
 3872SOL    HW215807   2.473   3.183   0.265
 3872SOL    HW315808   2.366   3.185   0.157
 3872SOL    MW415809   2.448   3.200   0.183
 3873SOL     OW15810   2.256   3.596   0.894
 3873SOL    HW215811   2.260   3.507   0.929
 3873SOL    HW315812   2.282   3.587   0.803
 3873SOL    MW415813   2.259   3.584   0.886
 3874SOL     OW15814   2.873   3.074   1.137
 3874SOL    HW215815   2.805   3.008   1.153
 3874SOL    HW315816   2.891   3.068   1.044
 3874SOL    MW415817   2.866   3.065   1.128
 3875SOL     OW15818   1.962   3.349   1.388
 3875SOL    HW215819   1.952   3.307   1.474
 3875SOL    HW315820   1.883   3.402   1.378
 3875SOL    MW415821   1.951   3.350   1.399
 3876SOL     OW15822   2.866   2.213   0.958
 3876SOL    HW215823   2.796   2.165   1.003
 3876SOL    HW315824   2.898   2.276   1.022
 3876SOL    MW415825   2.861   2.215   0.972
 3877SOL     OW15826   2.517   2.649   1.578
 3877SOL    HW215827   2.510   2.744   1.566
 3877SOL    HW315828   2.526   2.638   1.673
 3877SOL    MW415829   2.518   2.661   1.588
 3878SOL     OW15830   2.238   3.164   1.836
 3878SOL    HW215831   2.310   3.166   1.773
 3878SOL    HW315832   2.208   3.073   1.835
 3878SOL    MW415833   2.243   3.153   1.828
 3879SOL     OW15834   3.322   1.927   1.303
 3879SOL    HW215835   3.393   1.873   1.267
 3879SOL    HW315836   3.321   1.906   1.396
 3879SOL    MW415837   3.331   1.918   1.311
 3880SOL     OW15838   3.522   3.457   1.787
 3880SOL    HW215839   3.495   3.454   1.878
 3880SOL    HW315840   3.618   3.461   1.790
 3880SOL    MW415841   3.532   3.457   1.799
 3881SOL     OW15842   2.333   2.319   0.771
 3881SOL    HW215843   2.404   2.267   0.734
 3881SOL    HW315844   2.319   2.284   0.858
 3881SOL    MW415845   2.341   2.308   0.778
 3882SOL     OW15846   1.888   3.654   1.843
 3882SOL    HW215847   1.938   3.632   1.765
 3882SOL    HW315848   1.896   3.749   1.851
 3882SOL    MW415849   1.896   3.663   1.834
 3883SOL     OW15850   2.649   3.412   0.847
 3883SOL    HW215851   2.577   3.349   0.860
 3883SOL    HW315852   2.610   3.497   0.865
 3883SOL    MW415853   2.633   3.415   0.850
 3884SOL     OW15854   2.054   1.950   0.427
 3884SOL    HW215855   2.125   1.971   0.366
 3884SOL    HW315856   2.008   1.878   0.385
 3884SOL    MW415857   2.058   1.944   0.413
 3885SOL     OW15858   1.885   2.417   1.570
 3885SOL    HW215859   1.949   2.483   1.545
 3885SOL    HW315860   1.804   2.444   1.527
 3885SOL    MW415861   1.883   2.429   1.562
 3886SOL     OW15862   3.623   3.324   0.527
 3886SOL    HW215863   3.593   3.257   0.588
 3886SOL    HW315864   3.717   3.330   0.541
 3886SOL    MW415865   3.631   3.316   0.537
 3887SOL     OW15866   3.179   3.001   0.457
 3887SOL    HW215867   3.151   3.087   0.490
 3887SOL    HW315868   3.207   3.017   0.367
 3887SOL    MW415869   3.179   3.015   0.449
 3888SOL     OW15870   2.841   1.921   0.510
 3888SOL    HW215871   2.878   1.980   0.575
 3888SOL    HW315872   2.818   1.977   0.436
 3888SOL    MW415873   2.842   1.936   0.509
 3889SOL     OW15874   3.694   2.803   0.932
 3889SOL    HW215875   3.685   2.835   0.843
 3889SOL    HW315876   3.647   2.719   0.932
 3889SOL    MW415877   3.687   2.796   0.922
 3890SOL     OW15878   2.070   2.643   1.511
 3890SOL    HW215879   2.091   2.712   1.449
 3890SOL    HW315880   2.150   2.590   1.516
 3890SOL    MW415881   2.083   2.644   1.505
 3891SOL     OW15882   3.606   2.734   0.633
 3891SOL    HW215883   3.700   2.723   0.621
 3891SOL    HW315884   3.582   2.806   0.574
 3891SOL    MW415885   3.616   2.742   0.624
 3892SOL     OW15886   2.055   2.658   1.778
 3892SOL    HW215887   1.981   2.602   1.804
 3892SOL    HW315888   2.050   2.661   1.683
 3892SOL    MW415889   2.044   2.651   1.768
 3893SOL     OW15890   2.221   1.945   1.228
 3893SOL    HW215891   2.264   2.029   1.248
 3893SOL    HW315892   2.294   1.883   1.221
 3893SOL    MW415893   2.236   1.948   1.229
 3894SOL     OW15894   2.262   2.612   0.406
 3894SOL    HW215895   2.262   2.707   0.391
 3894SOL    HW315896   2.339   2.596   0.460
 3894SOL    MW415897   2.272   2.623   0.411
 3895SOL     OW15898   3.038   2.471   1.470
 3895SOL    HW215899   3.074   2.444   1.386
 3895SOL    HW315900   2.951   2.505   1.449
 3895SOL    MW415901   3.032   2.472   1.457
 3896SOL     OW15902   2.021   2.343   0.695
 3896SOL    HW215903   2.083   2.350   0.768
 3896SOL    HW315904   2.021   2.250   0.672
 3896SOL    MW415905   2.029   2.332   0.702
 3897SOL     OW15906   2.703   2.604   1.179
 3897SOL    HW215907   2.661   2.522   1.155
 3897SOL    HW315908   2.704   2.603   1.275
 3897SOL    MW415909   2.696   2.593   1.188
 3898SOL     OW15910   3.374   3.737   1.578
 3898SOL    HW215911   3.377   3.643   1.561
 3898SOL    HW315912   3.397   3.745   1.670
 3898SOL    MW415913   3.377   3.725   1.588
 3899SOL     OW15914   2.507   2.074   1.284
 3899SOL    HW215915   2.438   2.137   1.305
 3899SOL    HW315916   2.534   2.038   1.369
 3899SOL    MW415917   2.501   2.077   1.297
 3900SOL     OW15918   1.890   2.915   0.153
 3900SOL    HW215919   1.859   2.980   0.216
 3900SOL    HW315920   1.839   2.837   0.172
 3900SOL    MW415921   1.880   2.912   0.163
 3901SOL     OW15922   3.302   1.927   0.901
 3901SOL    HW215923   3.390   1.936   0.938
 3901SOL    HW315924   3.312   1.868   0.827
 3901SOL    MW415925   3.316   1.921   0.895
 3902SOL     OW15926   3.334   2.666   0.745
 3902SOL    HW215927   3.414   2.681   0.694
 3902SOL    HW315928   3.327   2.571   0.751
 3902SOL    MW415929   3.343   2.655   0.740
 3903SOL     OW15930   2.474   3.715   0.095
 3903SOL    HW215931   2.379   3.715   0.087
 3903SOL    HW315932   2.490   3.661   0.173
 3903SOL    MW415933   2.464   3.709   0.104
 3904SOL     OW15934   2.784   2.592   1.442
 3904SOL    HW215935   2.853   2.659   1.439
 3904SOL    HW315936   2.717   2.630   1.498
 3904SOL    MW415937   2.785   2.605   1.449
 3905SOL     OW15938   2.202   2.892   1.690
 3905SOL    HW215939   2.156   2.808   1.692
 3905SOL    HW315940   2.259   2.886   1.614
 3905SOL    MW415941   2.204   2.880   1.682
 3906SOL     OW15942   2.453   3.267   0.691
 3906SOL    HW215943   2.518   3.200   0.712
 3906SOL    HW315944   2.505   3.344   0.668
 3906SOL    MW415945   2.468   3.269   0.690
 3907SOL     OW15946   2.714   2.432   0.821
 3907SOL    HW215947   2.654   2.450   0.893
 3907SOL    HW315948   2.748   2.344   0.840
 3907SOL    MW415949   2.710   2.422   0.834
 3908SOL     OW15950   3.655   1.931   1.490
 3908SOL    HW215951   3.576   1.977   1.518
 3908SOL    HW315952   3.690   1.985   1.419
 3908SOL    MW415953   3.649   1.944   1.484
 3909SOL     OW15954   2.939   3.015   0.840
 3909SOL    HW215955   3.031   2.996   0.858
 3909SOL    HW315956   2.912   2.945   0.780
 3909SOL    MW415957   2.947   3.003   0.834
 3910SOL     OW15958   2.732   2.835   0.195
 3910SOL    HW215959   2.718   2.747   0.160
 3910SOL    HW315960   2.683   2.892   0.136
 3910SOL    MW415961   2.724   2.830   0.183
 3911SOL     OW15962   3.213   3.253   0.936
 3911SOL    HW215963   3.186   3.337   0.901
 3911SOL    HW315964   3.173   3.248   1.023
 3911SOL    MW415965   3.206   3.262   0.942
 3912SOL     OW15966   3.132   3.201   1.204
 3912SOL    HW215967   3.143   3.168   1.293
 3912SOL    HW315968   3.051   3.160   1.173
 3912SOL    MW415969   3.122   3.193   1.210
 3913SOL     OW15970   2.145   2.559   0.974
 3913SOL    HW215971   2.095   2.558   1.055
 3913SOL    HW315972   2.165   2.651   0.958
 3913SOL    MW415973   2.141   2.571   0.982
 3914SOL     OW15974   3.212   3.323   1.736
 3914SOL    HW215975   3.212   3.417   1.752
 3914SOL    HW315976   3.257   3.313   1.652
 3914SOL    MW415977   3.218   3.333   1.727
 3915SOL     OW15978   2.740   2.604   0.411
 3915SOL    HW215979   2.720   2.590   0.318
 3915SOL    HW315980   2.833   2.583   0.418
 3915SOL    MW415981   2.750   2.599   0.400
 3916SOL     OW15982   2.067   2.227   1.715
 3916SOL    HW215983   2.024   2.286   1.652
 3916SOL    HW315984   2.135   2.282   1.755
 3916SOL    MW415985   2.071   2.242   1.712
 3917SOL     OW15986   3.179   2.847   1.260
 3917SOL    HW215987   3.242   2.844   1.333
 3917SOL    HW315988   3.095   2.865   1.302
 3917SOL    MW415989   3.175   2.849   1.275
 3918SOL     OW15990   2.723   3.562   0.449
 3918SOL    HW215991   2.781   3.633   0.476
 3918SOL    HW315992   2.746   3.490   0.507
 3918SOL    MW415993   2.734   3.562   0.460
 3919SOL     OW15994   3.518   2.024   1.039
 3919SOL    HW215995   3.563   1.942   1.058
 3919SOL    HW315996   3.538   2.080   1.115
 3919SOL    MW415997   3.528   2.020   1.051
 3920SOL     OW15998   1.966   1.867   1.138
 3920SOL    HW215999   1.957   1.868   1.043
 3920SOL    HW316000   2.060   1.879   1.153
 3920SOL    MW416001   1.978   1.870   1.129
 3921SOL     OW16002   3.603   3.060   0.758
 3921SOL    HW216003   3.582   3.006   0.681
 3921SOL    HW316004   3.699   3.058   0.762
 3921SOL    MW416005   3.612   3.053   0.747
 3922SOL     OW16006   2.295   3.205   1.501
 3922SOL    HW216007   2.216   3.155   1.524
 3922SOL    HW316008   2.365   3.164   1.551
 3922SOL    MW416009   2.293   3.193   1.511
 3923SOL     OW16010   2.179   1.994   0.184
 3923SOL    HW216011   2.108   2.049   0.152
 3923SOL    HW316012   2.221   1.960   0.105
 3923SOL    MW416013   2.175   1.996   0.170
 3924SOL     OW16014   3.303   2.491   1.020
 3924SOL    HW216015   3.226   2.537   0.986
 3924SOL    HW316016   3.360   2.560   1.054
 3924SOL    MW416017   3.300   2.506   1.020
 3925SOL     OW16018   1.935   2.093   0.033
 3925SOL    HW216019   1.902   2.172   0.077
 3925SOL    HW316020   1.990   2.126  -0.038
 3925SOL    MW416021   1.938   2.107   0.030
 3926SOL     OW16022   1.969   3.350   0.222
 3926SOL    HW216023   1.986   3.434   0.264
 3926SOL    HW316024   2.004   3.359   0.134
 3926SOL    MW416025   1.974   3.363   0.216
 3927SOL     OW16026   3.241   3.439   0.439
 3927SOL    HW216027   3.304   3.429   0.368
 3927SOL    HW316028   3.158   3.459   0.394
 3927SOL    MW416029   3.238   3.440   0.424
 3928SOL     OW16030   3.604   2.707   2.125
 3928SOL    HW216031   3.645   2.649   2.190
 3928SOL    HW316032   3.511   2.699   2.142
 3928SOL    MW416033   3.598   2.699   2.135
 3929SOL     OW16034   3.470   2.639   3.120
 3929SOL    HW216035   3.425   2.706   3.171
 3929SOL    HW316036   3.558   2.675   3.106
 3929SOL    MW416037   3.476   2.652   3.124
 3930SOL     OW16038   2.398   2.890   2.354
 3930SOL    HW216039   2.488   2.865   2.338
 3930SOL    HW316040   2.394   2.983   2.331
 3930SOL    MW416041   2.410   2.899   2.349
 3931SOL     OW16042   3.514   3.593   2.496
 3931SOL    HW216043   3.526   3.539   2.574
 3931SOL    HW316044   3.551   3.541   2.425
 3931SOL    MW416045   3.520   3.578   2.497
 3932SOL     OW16046   2.893   3.478   3.497
 3932SOL    HW216047   2.934   3.514   3.418
 3932SOL    HW316048   2.928   3.389   3.504
 3932SOL    MW416049   2.904   3.471   3.488
 3933SOL     OW16050   3.450   3.033   3.101
 3933SOL    HW216051   3.371   2.998   3.059
 3933SOL    HW316052   3.477   3.105   3.045
 3933SOL    MW416053   3.443   3.038   3.088
 3934SOL     OW16054   2.682   2.346   2.367
 3934SOL    HW216055   2.657   2.434   2.395
 3934SOL    HW316056   2.679   2.349   2.271
 3934SOL    MW416057   2.678   2.358   2.359
 3935SOL     OW16058   2.124   2.374   2.295
 3935SOL    HW216059   2.156   2.462   2.277
 3935SOL    HW316060   2.112   2.372   2.390
 3935SOL    MW416061   2.127   2.386   2.307
 3936SOL     OW16062   2.202   2.787   3.196
 3936SOL    HW216063   2.265   2.734   3.147
 3936SOL    HW316064   2.183   2.861   3.139
 3936SOL    MW416065   2.208   2.789   3.183
 3937SOL     OW16066   2.523   2.129   2.382
 3937SOL    HW216067   2.581   2.205   2.384
 3937SOL    HW316068   2.458   2.150   2.315
 3937SOL    MW416069   2.522   2.141   2.373
 3938SOL     OW16070   2.610   3.056   2.557
 3938SOL    HW216071   2.690   3.059   2.609
 3938SOL    HW316072   2.638   3.023   2.471
 3938SOL    MW416073   2.624   3.052   2.552
 3939SOL     OW16074   2.635   3.397   3.460
 3939SOL    HW216075   2.719   3.423   3.499
 3939SOL    HW316076   2.659   3.341   3.386
 3939SOL    MW416077   2.649   3.393   3.455
 3940SOL     OW16078   2.387   2.560   2.548
 3940SOL    HW216079   2.372   2.480   2.599
 3940SOL    HW316080   2.469   2.595   2.582
 3940SOL    MW416081   2.395   2.552   2.560
 3941SOL     OW16082   2.724   3.246   3.233
 3941SOL    HW216083   2.688   3.312   3.173
 3941SOL    HW316084   2.652   3.184   3.246
 3941SOL    MW416085   2.710   3.246   3.227
 3942SOL     OW16086   2.529   2.386   2.925
 3942SOL    HW216087   2.435   2.382   2.943
 3942SOL    HW316088   2.559   2.295   2.934
 3942SOL    MW416089   2.520   2.374   2.928
 3943SOL     OW16090   2.275   2.800   2.829
 3943SOL    HW216091   2.230   2.807   2.745
 3943SOL    HW316092   2.255   2.883   2.873
 3943SOL    MW416093   2.267   2.812   2.823
 3944SOL     OW16094   1.972   3.646   2.704
 3944SOL    HW216095   2.061   3.638   2.739
 3944SOL    HW316096   1.936   3.558   2.709
 3944SOL    MW416097   1.979   3.633   2.709
 3945SOL     OW16098   3.237   3.038   2.073
 3945SOL    HW216099   3.155   3.074   2.039
 3945SOL    HW316100   3.305   3.081   2.022
 3945SOL    MW416101   3.235   3.048   2.061
 3946SOL     OW16102   2.236   3.173   2.739
 3946SOL    HW216103   2.212   3.226   2.815
 3946SOL    HW316104   2.292   3.231   2.687
 3946SOL    MW416105   2.240   3.188   2.742
 3947SOL     OW16106   2.798   2.817   2.549
 3947SOL    HW216107   2.712   2.804   2.589
 3947SOL    HW316108   2.851   2.744   2.581
 3947SOL    MW416109   2.794   2.806   2.558
 3948SOL     OW16110   2.206   3.469   3.334
 3948SOL    HW216111   2.114   3.445   3.319
 3948SOL    HW316112   2.250   3.386   3.351
 3948SOL    MW416113   2.200   3.454   3.333
 3949SOL     OW16114   2.789   3.179   2.266
 3949SOL    HW216115   2.766   3.241   2.334
 3949SOL    HW316116   2.746   3.097   2.292
 3949SOL    MW416117   2.781   3.175   2.277
 3950SOL     OW16118   3.662   2.180   2.722
 3950SOL    HW216119   3.599   2.160   2.791
 3950SOL    HW316120   3.652   2.109   2.659
 3950SOL    MW416121   3.652   2.167   2.723
 3951SOL     OW16122   2.286   2.152   2.234
 3951SOL    HW216123   2.260   2.114   2.150
 3951SOL    HW316124   2.223   2.222   2.250
 3951SOL    MW416125   2.275   2.155   2.225
 3952SOL     OW16126   2.121   3.113   2.271
 3952SOL    HW216127   2.069   3.181   2.227
 3952SOL    HW316128   2.118   3.039   2.211
 3952SOL    MW416129   2.113   3.112   2.258
 3953SOL     OW16130   2.783   3.576   2.049
 3953SOL    HW216131   2.738   3.592   2.132
 3953SOL    HW316132   2.714   3.541   1.991
 3953SOL    MW416133   2.769   3.573   2.051
 3954SOL     OW16134   3.718   2.349   2.024
 3954SOL    HW216135   3.627   2.351   2.052
 3954SOL    HW316136   3.763   2.411   2.082
 3954SOL    MW416137   3.711   2.357   2.034
 3955SOL     OW16138   3.463   2.952   2.374
 3955SOL    HW216139   3.373   2.952   2.409
 3955SOL    HW316140   3.456   2.998   2.291
 3955SOL    MW416141   3.450   2.958   2.368
 3956SOL     OW16142   3.263   2.587   3.446
 3956SOL    HW216143   3.332   2.525   3.423
 3956SOL    HW316144   3.188   2.561   3.393
 3956SOL    MW416145   3.263   2.574   3.437
 3957SOL     OW16146   2.004   3.467   2.998
 3957SOL    HW216147   1.987   3.413   3.075
 3957SOL    HW316148   1.992   3.557   3.028
 3957SOL    MW416149   2.001   3.471   3.012
 3958SOL     OW16150   2.999   2.974   3.438
 3958SOL    HW216151   2.984   3.067   3.423
 3958SOL    HW316152   3.094   2.964   3.438
 3958SOL    MW416153   3.008   2.984   3.435
 3959SOL     OW16154   2.795   2.398   3.639
 3959SOL    HW216155   2.885   2.399   3.606
 3959SOL    HW316156   2.754   2.323   3.597
 3959SOL    MW416157   2.801   2.388   3.630
 3960SOL     OW16158   3.370   2.930   2.766
 3960SOL    HW216159   3.373   2.864   2.697
 3960SOL    HW316160   3.455   2.973   2.762
 3960SOL    MW416161   3.382   2.926   2.757
 3961SOL     OW16162   2.990   2.533   2.335
 3961SOL    HW216163   3.016   2.557   2.246
 3961SOL    HW316164   2.972   2.440   2.331
 3961SOL    MW416165   2.992   2.525   2.322
 3962SOL     OW16166   3.655   3.153   2.186
 3962SOL    HW216167   3.611   3.194   2.261
 3962SOL    HW316168   3.712   3.221   2.151
 3962SOL    MW416169   3.657   3.167   2.191
 3963SOL     OW16170   2.575   2.202   3.589
 3963SOL    HW216171   2.585   2.128   3.529
 3963SOL    HW316172   2.611   2.171   3.672
 3963SOL    MW416173   2.581   2.188   3.591
 3964SOL     OW16174   2.311   3.569   2.504
 3964SOL    HW216175   2.343   3.657   2.482
 3964SOL    HW316176   2.264   3.541   2.426
 3964SOL    MW416177   2.310   3.577   2.491
 3965SOL     OW16178   3.695   1.931   2.553
 3965SOL    HW216179   3.749   1.882   2.615
 3965SOL    HW316180   3.638   1.865   2.514
 3965SOL    MW416181   3.695   1.915   2.555
 3966SOL     OW16182   2.027   3.629   2.081
 3966SOL    HW216183   2.056   3.719   2.073
 3966SOL    HW316184   1.977   3.612   2.002
 3966SOL    MW416185   2.025   3.637   2.070
 3967SOL     OW16186   2.814   1.884   2.966
 3967SOL    HW216187   2.773   1.962   2.928
 3967SOL    HW316188   2.908   1.902   2.961
 3967SOL    MW416189   2.820   1.896   2.961
 3968SOL     OW16190   3.431   3.437   2.052
 3968SOL    HW216191   3.479   3.506   2.098
 3968SOL    HW316192   3.352   3.481   2.021
 3968SOL    MW416193   3.426   3.451   2.055
 3969SOL     OW16194   2.829   2.562   1.996
 3969SOL    HW216195   2.831   2.509   1.917
 3969SOL    HW316196   2.917   2.599   2.002
 3969SOL    MW416197   2.841   2.561   1.985
 3970SOL     OW16198   3.443   2.488   2.332
 3970SOL    HW216199   3.482   2.488   2.419
 3970SOL    HW316200   3.384   2.564   2.332
 3970SOL    MW416201   3.440   2.499   2.343
 3971SOL     OW16202   2.760   2.855   3.461
 3971SOL    HW216203   2.737   2.835   3.551
 3971SOL    HW316204   2.845   2.899   3.466
 3971SOL    MW416205   2.767   2.858   3.473
 3972SOL     OW16206   2.840   1.992   3.221
 3972SOL    HW216207   2.846   1.954   3.134
 3972SOL    HW316208   2.829   2.086   3.206
 3972SOL    MW416209   2.841   2.000   3.209
 3973SOL     OW16210   2.929   2.481   3.055
 3973SOL    HW216211   3.004   2.510   3.002
 3973SOL    HW316212   2.861   2.546   3.039
 3973SOL    MW416213   2.930   2.493   3.045
 3974SOL     OW16214   3.479   2.449   3.332
 3974SOL    HW216215   3.460   2.358   3.311
 3974SOL    HW316216   3.457   2.498   3.253
 3974SOL    MW416217   3.474   2.442   3.319
 3975SOL     OW16218   3.621   3.543   3.236
 3975SOL    HW216219   3.549   3.505   3.287
 3975SOL    HW316220   3.638   3.628   3.277
 3975SOL    MW416221   3.615   3.548   3.248
 3976SOL     OW16222   2.926   2.187   3.438
 3976SOL    HW216223   2.892   2.226   3.357
 3976SOL    HW316224   2.904   2.095   3.431
 3976SOL    MW416225   2.919   2.180   3.428
 3977SOL     OW16226   3.335   3.001   3.514
 3977SOL    HW216227   3.417   3.042   3.544
 3977SOL    HW316228   3.298   2.963   3.594
 3977SOL    MW416229   3.341   3.002   3.529
 3978SOL     OW16230   3.630   2.374   2.498
 3978SOL    HW216231   3.719   2.343   2.515
 3978SOL    HW316232   3.573   2.314   2.546
 3978SOL    MW416233   3.633   2.362   2.507
 3979SOL     OW16234   2.056   2.088   2.527
 3979SOL    HW216235   2.047   2.028   2.453
 3979SOL    HW316236   1.989   2.059   2.590
 3979SOL    MW416237   2.046   2.075   2.525
 3980SOL     OW16238   2.999   3.181   2.088
 3980SOL    HW216239   2.949   3.183   2.170
 3980SOL    HW316240   2.933   3.199   2.020
 3980SOL    MW416241   2.985   3.183   2.090
 3981SOL     OW16242   2.003   2.261   2.890
 3981SOL    HW216243   1.975   2.352   2.899
 3981SOL    HW316244   1.940   2.222   2.829
 3981SOL    MW416245   1.990   2.267   2.884
 3982SOL     OW16246   2.462   3.599   2.196
 3982SOL    HW216247   2.383   3.557   2.229
 3982SOL    HW316248   2.528   3.582   2.263
 3982SOL    MW416249   2.461   3.591   2.209
 3983SOL     OW16250   3.590   3.119   3.593
 3983SOL    HW216251   3.640   3.045   3.625
 3983SOL    HW316252   3.536   3.146   3.668
 3983SOL    MW416253   3.590   3.113   3.606
 3984SOL     OW16254   2.598   3.014   1.903
 3984SOL    HW216255   2.520   2.960   1.890
 3984SOL    HW316256   2.569   3.087   1.956
 3984SOL    MW416257   2.584   3.016   1.908
 3985SOL     OW16258   3.724   2.754   3.095
 3985SOL    HW216259   3.740   2.792   3.008
 3985SOL    HW316260   3.758   2.820   3.156
 3985SOL    MW416261   3.731   2.767   3.091
 3986SOL     OW16262   3.516   3.463   2.764
 3986SOL    HW216263   3.545   3.530   2.825
 3986SOL    HW316264   3.497   3.387   2.819
 3986SOL    MW416265   3.518   3.463   2.779
 3987SOL     OW16266   3.179   3.530   1.971
 3987SOL    HW216267   3.105   3.493   2.021
 3987SOL    HW316268   3.187   3.620   2.004
 3987SOL    MW416269   3.170   3.537   1.983
 3988SOL     OW16270   1.987   2.536   3.060
 3988SOL    HW216271   2.049   2.566   3.126
 3988SOL    HW316272   1.921   2.605   3.054
 3988SOL    MW416273   1.986   2.549   3.067
 3989SOL     OW16274   3.403   3.204   1.913
 3989SOL    HW216275   3.350   3.253   1.849
 3989SOL    HW316276   3.434   3.270   1.974
 3989SOL    MW416277   3.401   3.218   1.911
 3990SOL     OW16278   2.628   2.093   1.968
 3990SOL    HW216279   2.576   2.013   1.956
 3990SOL    HW316280   2.715   2.070   1.936
 3990SOL    MW416281   2.631   2.079   1.962
 3991SOL     OW16282   2.082   3.645   3.512
 3991SOL    HW216283   2.056   3.713   3.450
 3991SOL    HW316284   2.130   3.582   3.460
 3991SOL    MW416285   2.084   3.645   3.498
 3992SOL     OW16286   2.134   2.964   3.019
 3992SOL    HW216287   2.187   3.039   3.044
 3992SOL    HW316288   2.053   3.002   2.985
 3992SOL    MW416289   2.130   2.979   3.019
 3993SOL     OW16290   2.674   2.868   3.007
 3993SOL    HW216291   2.702   2.777   3.019
 3993SOL    HW316292   2.603   2.862   2.943
 3993SOL    MW416293   2.667   2.856   3.002
 3994SOL     OW16294   1.989   2.733   2.425
 3994SOL    HW216295   2.080   2.748   2.452
 3994SOL    HW316296   1.992   2.654   2.371
 3994SOL    MW416297   2.001   2.725   2.423
 3995SOL     OW16298   2.225   2.441   3.679
 3995SOL    HW216299   2.172   2.521   3.686
 3995SOL    HW316300   2.295   2.453   3.744
 3995SOL    MW416301   2.227   2.454   3.687
 3996SOL     OW16302   2.611   1.991   3.386
 3996SOL    HW216303   2.588   1.899   3.388
 3996SOL    HW316304   2.697   1.993   3.343
 3996SOL    MW416305   2.618   1.981   3.382
 3997SOL     OW16306   2.295   2.515   3.425
 3997SOL    HW216307   2.375   2.565   3.411
 3997SOL    HW316308   2.286   2.509   3.520
 3997SOL    MW416309   2.304   2.521   3.435
 3998SOL     OW16310   2.616   3.665   2.799
 3998SOL    HW216311   2.705   3.680   2.829
 3998SOL    HW316312   2.611   3.712   2.715
 3998SOL    MW416313   2.626   3.673   2.792
 3999SOL     OW16314   3.272   2.040   3.696
 3999SOL    HW216315   3.328   1.967   3.722
 3999SOL    HW316316   3.242   2.078   3.778
 3999SOL    MW416317   3.276   2.035   3.709
 4000SOL     OW16318   1.997   3.345   2.464
 4000SOL    HW216319   1.969   3.384   2.546
 4000SOL    HW316320   2.017   3.254   2.486
 4000SOL    MW416321   1.995   3.337   2.477
 4001SOL     OW16322   2.830   3.388   2.499
 4001SOL    HW216323   2.913   3.342   2.483
 4001SOL    HW316324   2.820   3.387   2.595
 4001SOL    MW416325   2.840   3.381   2.509
 4002SOL     OW16326   3.662   2.533   2.813
 4002SOL    HW216327   3.751   2.563   2.795
 4002SOL    HW316328   3.642   2.473   2.742
 4002SOL    MW416329   3.671   2.530   2.802
 4003SOL     OW16330   3.513   2.712   3.693
 4003SOL    HW216331   3.568   2.636   3.674
 4003SOL    HW316332   3.515   2.720   3.788
 4003SOL    MW416333   3.521   2.703   3.701
 4004SOL     OW16334   2.563   3.445   1.904
 4004SOL    HW216335   2.503   3.514   1.874
 4004SOL    HW316336   2.508   3.387   1.957
 4004SOL    MW416337   2.547   3.447   1.906
 4005SOL     OW16338   3.001   2.090   2.127
 4005SOL    HW216339   2.934   2.066   2.064
 4005SOL    HW316340   3.066   2.139   2.076
 4005SOL    MW416341   3.001   2.092   2.112
 4006SOL     OW16342   2.808   2.274   3.212
 4006SOL    HW216343   2.727   2.315   3.240
 4006SOL    HW316344   2.855   2.342   3.164
 4006SOL    MW416345   2.803   2.289   3.210
 4007SOL     OW16346   3.068   2.612   2.835
 4007SOL    HW216347   3.081   2.706   2.845
 4007SOL    HW316348   3.029   2.602   2.749
 4007SOL    MW416349   3.064   2.623   2.825
 4008SOL     OW16350   2.520   2.807   2.639
 4008SOL    HW216351   2.431   2.798   2.672
 4008SOL    HW316352   2.524   2.897   2.607
 4008SOL    MW416353   2.509   2.818   2.639
 4009SOL     OW16354   3.319   2.390   2.634
 4009SOL    HW216355   3.264   2.311   2.633
 4009SOL    HW316356   3.301   2.431   2.718
 4009SOL    MW416357   3.309   2.385   2.643
 4010SOL     OW16358   2.290   2.077   3.451
 4010SOL    HW216359   2.211   2.095   3.503
 4010SOL    HW316360   2.285   2.139   3.378
 4010SOL    MW416361   2.280   2.087   3.448
 4011SOL     OW16362   2.938   2.594   2.591
 4011SOL    HW216363   2.875   2.526   2.615
 4011SOL    HW316364   2.958   2.575   2.499
 4011SOL    MW416365   2.932   2.581   2.583
 4012SOL     OW16366   2.194   3.489   2.293
 4012SOL    HW216367   2.155   3.536   2.219
 4012SOL    HW316368   2.128   3.424   2.318
 4012SOL    MW416369   2.181   3.487   2.287
 4013SOL     OW16370   2.686   2.898   2.317
 4013SOL    HW216371   2.688   2.872   2.224
 4013SOL    HW316372   2.744   2.835   2.360
 4013SOL    MW416373   2.694   2.887   2.311
 4014SOL     OW16374   3.239   3.458   3.089
 4014SOL    HW216375   3.164   3.504   3.127
 4014SOL    HW316376   3.221   3.365   3.106
 4014SOL    MW416377   3.228   3.452   3.097
 4015SOL     OW16378   3.243   3.666   2.519
 4015SOL    HW216379   3.186   3.619   2.458
 4015SOL    HW316380   3.329   3.627   2.506
 4015SOL    MW416381   3.246   3.657   2.509
 4016SOL     OW16382   3.196   2.142   2.650
 4016SOL    HW216383   3.224   2.074   2.711
 4016SOL    HW316384   3.110   2.113   2.620
 4016SOL    MW416385   3.189   2.129   2.654
 4017SOL     OW16386   2.001   3.076   2.584
 4017SOL    HW216387   2.065   3.108   2.647
 4017SOL    HW316388   2.050   3.012   2.532
 4017SOL    MW416389   2.016   3.072   2.585
 4018SOL     OW16390   2.501   3.152   3.566
 4018SOL    HW216391   2.549   3.235   3.553
 4018SOL    HW316392   2.558   3.100   3.622
 4018SOL    MW416393   2.515   3.156   3.572
 4019SOL     OW16394   2.077   3.394   3.706
 4019SOL    HW216395   2.133   3.318   3.721
 4019SOL    HW316396   2.026   3.372   3.628
 4019SOL    MW416397   2.077   3.381   3.697
 4020SOL     OW16398   3.176   2.246   1.985
 4020SOL    HW216399   3.149   2.312   1.921
 4020SOL    HW316400   3.246   2.289   2.035
 4020SOL    MW416401   3.181   2.259   1.982
 4021SOL     OW16402   2.844   1.951   1.922
 4021SOL    HW216403   2.900   1.943   1.844
 4021SOL    HW316404   2.821   1.861   1.944
 4021SOL    MW416405   2.849   1.938   1.915
 4022SOL     OW16406   3.349   2.802   2.127
 4022SOL    HW216407   3.316   2.891   2.117
 4022SOL    HW316408   3.314   2.773   2.212
 4022SOL    MW416409   3.339   2.811   2.138
 4023SOL     OW16410   2.962   3.231   3.315
 4023SOL    HW216411   2.873   3.237   3.283
 4023SOL    HW316412   3.006   3.310   3.283
 4023SOL    MW416413   2.957   3.241   3.307
 4024SOL     OW16414   2.255   1.899   3.657
 4024SOL    HW216415   2.183   1.864   3.605
 4024SOL    HW316416   2.313   1.940   3.592
 4024SOL    MW416417   2.253   1.900   3.642
 4025SOL     OW16418   2.279   3.389   2.956
 4025SOL    HW216419   2.324   3.451   3.013
 4025SOL    HW316420   2.186   3.408   2.969
 4025SOL    MW416421   2.272   3.399   2.963
 4026SOL     OW16422   3.719   2.918   3.310
 4026SOL    HW216423   3.634   2.931   3.269
 4026SOL    HW316424   3.699   2.882   3.397
 4026SOL    MW416425   3.706   2.914   3.315
 4027SOL     OW16426   2.701   3.457   3.064
 4027SOL    HW216427   2.725   3.446   2.973
 4027SOL    HW316428   2.624   3.514   3.062
 4027SOL    MW416429   2.693   3.462   3.053
 4028SOL     OW16430   2.343   2.840   1.919
 4028SOL    HW216431   2.266   2.853   1.975
 4028SOL    HW316432   2.307   2.804   1.838
 4028SOL    MW416433   2.329   2.836   1.916
 4029SOL     OW16434   2.996   2.813   2.162
 4029SOL    HW216435   2.906   2.834   2.137
 4029SOL    HW316436   3.023   2.886   2.218
 4029SOL    MW416437   2.988   2.825   2.165
 4030SOL     OW16438   2.496   3.162   2.854
 4030SOL    HW216439   2.489   3.141   2.948
 4030SOL    HW316440   2.414   3.130   2.817
 4030SOL    MW416441   2.484   3.156   2.861
 4031SOL     OW16442   3.360   2.172   3.256
 4031SOL    HW216443   3.307   2.174   3.336
 4031SOL    HW316444   3.345   2.085   3.219
 4031SOL    MW416445   3.352   2.162   3.261
 4032SOL     OW16446   3.696   2.096   3.129
 4032SOL    HW216447   3.677   2.163   3.064
 4032SOL    HW316448   3.753   2.034   3.084
 4032SOL    MW416449   3.700   2.097   3.115
 4033SOL     OW16450   1.942   3.254   3.517
 4033SOL    HW216451   1.986   3.187   3.463
 4033SOL    HW316452   1.857   3.216   3.537
 4033SOL    MW416453   1.937   3.240   3.513
 4034SOL     OW16454   2.625   1.929   2.569
 4034SOL    HW216455   2.554   1.990   2.551
 4034SOL    HW316456   2.676   1.926   2.488
 4034SOL    MW416457   2.621   1.935   2.556
 4035SOL     OW16458   2.383   3.169   2.318
 4035SOL    HW216459   2.376   3.201   2.408
 4035SOL    HW316460   2.293   3.153   2.290
 4035SOL    MW416461   2.371   3.171   2.325
 4036SOL     OW16462   2.978   3.562   3.227
 4036SOL    HW216463   2.898   3.547   3.177
 4036SOL    HW316464   2.985   3.657   3.234
 4036SOL    MW416465   2.969   3.573   3.221
 4037SOL     OW16466   3.092   3.527   2.717
 4037SOL    HW216467   3.139   3.600   2.676
 4037SOL    HW316468   3.013   3.566   2.753
 4037SOL    MW416469   3.087   3.542   2.716
 4038SOL     OW16470   3.500   3.622   2.992
 4038SOL    HW216471   3.543   3.592   3.072
 4038SOL    HW316472   3.419   3.570   2.989
 4038SOL    MW416473   3.495   3.611   3.002
 4039SOL     OW16474   2.585   2.586   3.699
 4039SOL    HW216475   2.655   2.528   3.671
 4039SOL    HW316476   2.528   2.531   3.754
 4039SOL    MW416477   2.587   2.573   3.703
 4040SOL     OW16478   3.372   2.798   3.332
 4040SOL    HW216479   3.377   2.851   3.412
 4040SOL    HW316480   3.334   2.715   3.360
 4040SOL    MW416481   3.368   2.793   3.347
 4041SOL     OW16482   3.012   1.933   3.578
 4041SOL    HW216483   3.007   1.840   3.559
 4041SOL    HW316484   3.095   1.944   3.624
 4041SOL    MW416485   3.020   1.922   3.582
 4042SOL     OW16486   2.386   2.453   2.032
 4042SOL    HW216487   2.352   2.509   2.102
 4042SOL    HW316488   2.457   2.403   2.072
 4042SOL    MW416489   2.392   2.454   2.046
 4043SOL     OW16490   3.482   3.204   2.854
 4043SOL    HW216491   3.517   3.186   2.767
 4043SOL    HW316492   3.387   3.205   2.841
 4043SOL    MW416493   3.474   3.201   2.841
 4044SOL     OW16494   2.911   2.852   3.223
 4044SOL    HW216495   2.954   2.887   3.301
 4044SOL    HW316496   2.894   2.929   3.169
 4044SOL    MW416497   2.914   2.867   3.226
 4045SOL     OW16498   3.442   2.339   2.096
 4045SOL    HW216499   3.434   2.410   2.033
 4045SOL    HW316500   3.460   2.383   2.179
 4045SOL    MW416501   3.443   2.353   2.098
 4046SOL     OW16502   2.302   1.994   2.525
 4046SOL    HW216503   2.352   2.037   2.456
 4046SOL    HW316504   2.217   2.038   2.525
 4046SOL    MW416505   2.299   2.007   2.516
 4047SOL     OW16506   2.061   3.056   3.385
 4047SOL    HW216507   2.089   3.009   3.463
 4047SOL    HW316508   1.982   3.011   3.356
 4047SOL    MW416509   2.054   3.045   3.391
 4048SOL     OW16510   2.569   2.383   3.352
 4048SOL    HW216511   2.541   2.471   3.376
 4048SOL    HW316512   2.538   2.327   3.423
 4048SOL    MW416513   2.561   2.386   3.364
 4049SOL     OW16514   3.111   2.601   2.071
 4049SOL    HW216515   3.158   2.619   1.990
 4049SOL    HW316516   3.077   2.685   2.099
 4049SOL    MW416517   3.113   2.615   2.064
 4050SOL     OW16518   2.224   2.779   2.565
 4050SOL    HW216519   2.282   2.835   2.513
 4050SOL    HW316520   2.268   2.694   2.567
 4050SOL    MW416521   2.237   2.776   2.558
 4051SOL     OW16522   3.364   2.131   2.402
 4051SOL    HW216523   3.286   2.081   2.427
 4051SOL    HW316524   3.335   2.222   2.402
 4051SOL    MW416525   3.350   2.135   2.405
 4052SOL     OW16526   2.950   2.093   2.561
 4052SOL    HW216527   2.970   2.168   2.505
 4052SOL    HW316528   2.930   2.132   2.646
 4052SOL    MW416529   2.951   2.109   2.565
 4053SOL     OW16530   2.846   3.343   1.893
 4053SOL    HW216531   2.873   3.421   1.845
 4053SOL    HW316532   2.753   3.358   1.912
 4053SOL    MW416533   2.837   3.356   1.889
 4054SOL     OW16534   3.710   2.866   3.580
 4054SOL    HW216535   3.623   2.846   3.616
 4054SOL    HW316536   3.764   2.792   3.605
 4054SOL    MW416537   3.705   2.855   3.588
 4055SOL     OW16538   1.931   3.379   2.737
 4055SOL    HW216539   1.963   3.383   2.828
 4055SOL    HW316540   1.836   3.387   2.745
 4055SOL    MW416541   1.923   3.382   2.750
 4056SOL     OW16542   1.886   2.505   2.284
 4056SOL    HW216543   1.826   2.477   2.354
 4056SOL    HW316544   1.960   2.445   2.290
 4056SOL    MW416545   1.888   2.494   2.293
 4057SOL     OW16546   3.454   3.717   3.718
 4057SOL    HW216547   3.499   3.641   3.683
 4057SOL    HW316548   3.492   3.730   3.805
 4057SOL    MW416549   3.464   3.710   3.724
 4058SOL     OW16550   3.054   3.236   2.444
 4058SOL    HW216551   3.077   3.187   2.522
 4058SOL    HW316552   3.135   3.278   2.416
 4058SOL    MW416553   3.067   3.236   2.451
 4059SOL     OW16554   2.312   2.244   3.173
 4059SOL    HW216555   2.345   2.325   3.213
 4059SOL    HW316556   2.285   2.270   3.085
 4059SOL    MW416557   2.311   2.258   3.167
 4060SOL     OW16558   2.266   2.211   2.909
 4060SOL    HW216559   2.296   2.125   2.880
 4060SOL    HW316560   2.171   2.204   2.912
 4060SOL    MW416561   2.258   2.200   2.907
 4061SOL     OW16562   3.095   2.420   3.600
 4061SOL    HW216563   3.147   2.355   3.553
 4061SOL    HW316564   3.053   2.471   3.530
 4061SOL    MW416565   3.096   2.417   3.583
 4062SOL     OW16566   3.194   2.215   3.461
 4062SOL    HW216567   3.101   2.199   3.448
 4062SOL    HW316568   3.220   2.153   3.529
 4062SOL    MW416569   3.184   2.205   3.468
 4063SOL     OW16570   2.409   1.989   2.800
 4063SOL    HW216571   2.419   1.898   2.826
 4063SOL    HW316572   2.365   1.985   2.715
 4063SOL    MW416573   2.405   1.977   2.792
 4064SOL     OW16574   2.503   3.604   3.346
 4064SOL    HW216575   2.420   3.589   3.391
 4064SOL    HW316576   2.562   3.537   3.381
 4064SOL    MW416577   2.501   3.594   3.356
 4065SOL     OW16578   3.560   2.311   2.971
 4065SOL    HW216579   3.493   2.344   3.031
 4065SOL    HW316580   3.603   2.389   2.937
 4065SOL    MW416581   3.558   2.326   2.975
 4066SOL     OW16582   3.738   3.031   2.941
 4066SOL    HW216583   3.731   2.971   2.866
 4066SOL    HW316584   3.664   3.091   2.930
 4066SOL    MW416585   3.728   3.031   2.930
 4067SOL     OW16586   3.120   2.893   2.859
 4067SOL    HW216587   3.134   2.865   2.950
 4067SOL    HW316588   3.206   2.924   2.831
 4067SOL    MW416589   3.133   2.894   2.868
 4068SOL     OW16590   3.203   2.388   3.138
 4068SOL    HW216591   3.224   2.389   3.045
 4068SOL    HW316592   3.248   2.310   3.171
 4068SOL    MW416593   3.210   2.378   3.130
 4069SOL     OW16594   3.696   2.519   3.680
 4069SOL    HW216595   3.733   2.464   3.749
 4069SOL    HW316596   3.721   2.476   3.598
 4069SOL    MW416597   3.703   2.507   3.679
 4070SOL     OW16598   3.243   2.817   3.731
 4070SOL    HW216599   3.309   2.765   3.685
 4070SOL    HW316600   3.263   2.804   3.824
 4070SOL    MW416601   3.254   2.808   3.738
 4071SOL     OW16602   3.194   1.903   2.080
 4071SOL    HW216603   3.268   1.947   2.123
 4071SOL    HW316604   3.118   1.957   2.102
 4071SOL    MW416605   3.194   1.915   2.088
 4072SOL     OW16606   3.254   2.678   2.358
 4072SOL    HW216607   3.169   2.648   2.328
 4072SOL    HW316608   3.246   2.685   2.453
 4072SOL    MW416609   3.242   2.676   2.367
 4073SOL     OW16610   2.330   3.141   3.089
 4073SOL    HW216611   2.342   3.168   3.180
 4073SOL    HW316612   2.311   3.222   3.042
 4073SOL    MW416613   2.329   3.156   3.094
 4074SOL     OW16614   2.614   2.121   2.912
 4074SOL    HW216615   2.587   2.123   3.003
 4074SOL    HW316616   2.544   2.073   2.867
 4074SOL    MW416617   2.602   2.117   2.919
 4075SOL     OW16618   2.468   3.613   3.074
 4075SOL    HW216619   2.520   3.690   3.051
 4075SOL    HW316620   2.477   3.605   3.169
 4075SOL    MW416621   2.477   3.620   3.085
 4076SOL     OW16622   3.370   3.198   3.306
 4076SOL    HW216623   3.355   3.127   3.369
 4076SOL    HW316624   3.416   3.156   3.234
 4076SOL    MW416625   3.376   3.182   3.306
 4077SOL     OW16626   2.444   2.929   3.423
 4077SOL    HW216627   2.481   2.934   3.335
 4077SOL    HW316628   2.483   3.002   3.470
 4077SOL    MW416629   2.454   2.939   3.418
 4078SOL     OW16630   2.624   2.972   3.235
 4078SOL    HW216631   2.683   2.918   3.288
 4078SOL    HW316632   2.639   2.944   3.145
 4078SOL    MW416633   2.634   2.961   3.231
 4079SOL     OW16634   2.627   2.344   2.084
 4079SOL    HW216635   2.700   2.393   2.047
 4079SOL    HW316636   2.643   2.253   2.058
 4079SOL    MW416637   2.639   2.339   2.077
 4080SOL     OW16638   3.435   3.461   3.407
 4080SOL    HW216639   3.477   3.446   3.492
 4080SOL    HW316640   3.426   3.374   3.369
 4080SOL    MW416641   3.439   3.449   3.414
 4081SOL     OW16642   3.095   1.940   2.998
 4081SOL    HW216643   3.150   1.949   2.920
 4081SOL    HW316644   3.150   1.974   3.069
 4081SOL    MW416645   3.109   1.945   2.997
 4082SOL     OW16646   2.102   2.853   2.182
 4082SOL    HW216647   2.039   2.869   2.111
 4082SOL    HW316648   2.049   2.816   2.253
 4082SOL    MW416649   2.087   2.850   2.182
 4083SOL     OW16650   2.458   3.207   2.041
 4083SOL    HW216651   2.473   3.183   2.133
 4083SOL    HW316652   2.366   3.185   2.025
 4083SOL    MW416653   2.448   3.200   2.051
 4084SOL     OW16654   2.997   3.438   2.193
 4084SOL    HW216655   3.005   3.356   2.144
 4084SOL    HW316656   2.916   3.477   2.160
 4084SOL    MW416657   2.987   3.433   2.183
 4085SOL     OW16658   2.256   3.596   2.762
 4085SOL    HW216659   2.260   3.507   2.797
 4085SOL    HW316660   2.282   3.587   2.671
 4085SOL    MW416661   2.259   3.584   2.754
 4086SOL     OW16662   2.873   3.074   3.005
 4086SOL    HW216663   2.805   3.008   3.021
 4086SOL    HW316664   2.891   3.068   2.912
 4086SOL    MW416665   2.866   3.065   2.996
 4087SOL     OW16666   1.962   3.349   3.256
 4087SOL    HW216667   1.952   3.307   3.342
 4087SOL    HW316668   1.883   3.402   3.246
 4087SOL    MW416669   1.951   3.350   3.267
 4088SOL     OW16670   2.866   2.213   2.826
 4088SOL    HW216671   2.796   2.165   2.871
 4088SOL    HW316672   2.898   2.276   2.890
 4088SOL    MW416673   2.861   2.215   2.840
 4089SOL     OW16674   2.517   2.649   3.446
 4089SOL    HW216675   2.510   2.744   3.434
 4089SOL    HW316676   2.526   2.638   3.541
 4089SOL    MW416677   2.518   2.661   3.456
 4090SOL     OW16678   2.238   3.164   3.704
 4090SOL    HW216679   2.310   3.166   3.641
 4090SOL    HW316680   2.208   3.073   3.703
 4090SOL    MW416681   2.243   3.153   3.696
 4091SOL     OW16682   3.322   1.927   3.171
 4091SOL    HW216683   3.393   1.873   3.135
 4091SOL    HW316684   3.321   1.906   3.264
 4091SOL    MW416685   3.331   1.918   3.179
 4092SOL     OW16686   3.522   3.457   3.655
 4092SOL    HW216687   3.495   3.454   3.746
 4092SOL    HW316688   3.618   3.461   3.658
 4092SOL    MW416689   3.532   3.457   3.667
 4093SOL     OW16690   2.333   2.319   2.639
 4093SOL    HW216691   2.404   2.267   2.602
 4093SOL    HW316692   2.319   2.284   2.726
 4093SOL    MW416693   2.341   2.308   2.646
 4094SOL     OW16694   1.888   3.654   3.711
 4094SOL    HW216695   1.938   3.632   3.633
 4094SOL    HW316696   1.896   3.749   3.719
 4094SOL    MW416697   1.896   3.663   3.702
 4095SOL     OW16698   2.649   3.412   2.715
 4095SOL    HW216699   2.577   3.349   2.728
 4095SOL    HW316700   2.610   3.497   2.733
 4095SOL    MW416701   2.633   3.415   2.718
 4096SOL     OW16702   2.969   2.260   2.363
 4096SOL    HW216703   2.991   2.197   2.295
 4096SOL    HW316704   2.874   2.252   2.374
 4096SOL    MW416705   2.959   2.251   2.355
 4097SOL     OW16706   2.054   1.950   2.295
 4097SOL    HW216707   2.125   1.971   2.234
 4097SOL    HW316708   2.008   1.878   2.253
 4097SOL    MW416709   2.058   1.944   2.281
 4098SOL     OW16710   1.885   2.417   3.438
 4098SOL    HW216711   1.949   2.483   3.413
 4098SOL    HW316712   1.804   2.444   3.395
 4098SOL    MW416713   1.883   2.429   3.430
 4099SOL     OW16714   3.623   3.324   2.395
 4099SOL    HW216715   3.593   3.257   2.456
 4099SOL    HW316716   3.717   3.330   2.409
 4099SOL    MW416717   3.631   3.316   2.405
 4100SOL     OW16718   3.179   3.001   2.325
 4100SOL    HW216719   3.151   3.087   2.358
 4100SOL    HW316720   3.207   3.017   2.235
 4100SOL    MW416721   3.179   3.015   2.317
 4101SOL     OW16722   2.841   1.921   2.378
 4101SOL    HW216723   2.878   1.980   2.443
 4101SOL    HW316724   2.818   1.977   2.304
 4101SOL    MW416725   2.842   1.936   2.377
 4102SOL     OW16726   3.694   2.803   2.800
 4102SOL    HW216727   3.685   2.835   2.711
 4102SOL    HW316728   3.647   2.719   2.800
 4102SOL    MW416729   3.687   2.796   2.790
 4103SOL     OW16730   2.070   2.643   3.379
 4103SOL    HW216731   2.091   2.712   3.317
 4103SOL    HW316732   2.150   2.590   3.384
 4103SOL    MW416733   2.083   2.644   3.373
 4104SOL     OW16734   3.606   2.734   2.501
 4104SOL    HW216735   3.700   2.723   2.489
 4104SOL    HW316736   3.582   2.806   2.442
 4104SOL    MW416737   3.616   2.742   2.492
 4105SOL     OW16738   2.055   2.658   3.646
 4105SOL    HW216739   1.981   2.602   3.672
 4105SOL    HW316740   2.050   2.661   3.551
 4105SOL    MW416741   2.044   2.651   3.636
 4106SOL     OW16742   2.221   1.945   3.096
 4106SOL    HW216743   2.264   2.029   3.116
 4106SOL    HW316744   2.294   1.883   3.089
 4106SOL    MW416745   2.236   1.948   3.097
 4107SOL     OW16746   2.262   2.612   2.274
 4107SOL    HW216747   2.262   2.707   2.259
 4107SOL    HW316748   2.339   2.596   2.328
 4107SOL    MW416749   2.272   2.623   2.279
 4108SOL     OW16750   3.038   2.471   3.338
 4108SOL    HW216751   3.074   2.444   3.254
 4108SOL    HW316752   2.951   2.505   3.317
 4108SOL    MW416753   3.032   2.472   3.325
 4109SOL     OW16754   2.021   2.343   2.563
 4109SOL    HW216755   2.083   2.350   2.636
 4109SOL    HW316756   2.021   2.250   2.540
 4109SOL    MW416757   2.029   2.332   2.570
 4110SOL     OW16758   3.568   3.683   2.095
 4110SOL    HW216759   3.635   3.716   2.035
 4110SOL    HW316760   3.525   3.762   2.129
 4110SOL    MW416761   3.570   3.698   2.091
 4111SOL     OW16762   2.703   2.604   3.047
 4111SOL    HW216763   2.661   2.522   3.023
 4111SOL    HW316764   2.704   2.603   3.143
 4111SOL    MW416765   2.696   2.593   3.056
 4112SOL     OW16766   3.374   3.737   3.446
 4112SOL    HW216767   3.377   3.643   3.429
 4112SOL    HW316768   3.397   3.745   3.538
 4112SOL    MW416769   3.377   3.725   3.456
 4113SOL     OW16770   2.507   2.074   3.152
 4113SOL    HW216771   2.438   2.137   3.173
 4113SOL    HW316772   2.534   2.038   3.237
 4113SOL    MW416773   2.501   2.077   3.165
 4114SOL     OW16774   1.890   2.915   2.021
 4114SOL    HW216775   1.859   2.980   2.084
 4114SOL    HW316776   1.839   2.837   2.040
 4114SOL    MW416777   1.880   2.912   2.031
 4115SOL     OW16778   3.302   1.927   2.769
 4115SOL    HW216779   3.390   1.936   2.806
 4115SOL    HW316780   3.312   1.868   2.695
 4115SOL    MW416781   3.316   1.921   2.763
 4116SOL     OW16782   3.334   2.666   2.613
 4116SOL    HW216783   3.414   2.681   2.562
 4116SOL    HW316784   3.327   2.571   2.619
 4116SOL    MW416785   3.343   2.655   2.608
 4117SOL     OW16786   2.474   3.715   1.963
 4117SOL    HW216787   2.379   3.715   1.955
 4117SOL    HW316788   2.490   3.661   2.041
 4117SOL    MW416789   2.464   3.709   1.972
 4118SOL     OW16790   2.784   2.592   3.310
 4118SOL    HW216791   2.853   2.659   3.307
 4118SOL    HW316792   2.717   2.630   3.366
 4118SOL    MW416793   2.785   2.605   3.317
 4119SOL     OW16794   2.202   2.892   3.558
 4119SOL    HW216795   2.156   2.808   3.560
 4119SOL    HW316796   2.259   2.886   3.482
 4119SOL    MW416797   2.204   2.880   3.550
 4120SOL     OW16798   3.319   2.535   1.879
 4120SOL    HW216799   3.247   2.511   1.821
 4120SOL    HW316800   3.385   2.572   1.821
 4120SOL    MW416801   3.318   2.537   1.864
 4121SOL     OW16802   2.453   3.267   2.559
 4121SOL    HW216803   2.518   3.200   2.580
 4121SOL    HW316804   2.505   3.344   2.536
 4121SOL    MW416805   2.468   3.269   2.558
 4122SOL     OW16806   2.714   2.432   2.689
 4122SOL    HW216807   2.654   2.450   2.761
 4122SOL    HW316808   2.748   2.344   2.708
 4122SOL    MW416809   2.710   2.422   2.702
 4123SOL     OW16810   3.655   1.931   3.358
 4123SOL    HW216811   3.576   1.977   3.386
 4123SOL    HW316812   3.690   1.985   3.287
 4123SOL    MW416813   3.649   1.944   3.352
 4124SOL     OW16814   2.939   3.015   2.708
 4124SOL    HW216815   3.031   2.996   2.726
 4124SOL    HW316816   2.912   2.945   2.648
 4124SOL    MW416817   2.947   3.003   2.702
 4125SOL     OW16818   2.732   2.835   2.063
 4125SOL    HW216819   2.718   2.747   2.028
 4125SOL    HW316820   2.683   2.892   2.004
 4125SOL    MW416821   2.724   2.830   2.051
 4126SOL     OW16822   3.213   3.253   2.804
 4126SOL    HW216823   3.186   3.337   2.769
 4126SOL    HW316824   3.173   3.248   2.891
 4126SOL    MW416825   3.206   3.262   2.810
 4127SOL     OW16826   3.132   3.201   3.072
 4127SOL    HW216827   3.143   3.168   3.161
 4127SOL    HW316828   3.051   3.160   3.041
 4127SOL    MW416829   3.122   3.193   3.078
 4128SOL     OW16830   2.145   2.559   2.842
 4128SOL    HW216831   2.095   2.558   2.923
 4128SOL    HW316832   2.165   2.651   2.826
 4128SOL    MW416833   2.141   2.571   2.850
 4129SOL     OW16834   3.212   3.323   3.604
 4129SOL    HW216835   3.212   3.417   3.620
 4129SOL    HW316836   3.257   3.313   3.520
 4129SOL    MW416837   3.218   3.333   3.595
 4130SOL     OW16838   3.451   2.041   2.165
 4130SOL    HW216839   3.444   2.045   2.260
 4130SOL    HW316840   3.463   2.132   2.138
 4130SOL    MW416841   3.452   2.054   2.173
 4131SOL     OW16842   2.740   2.604   2.279
 4131SOL    HW216843   2.720   2.590   2.186
 4131SOL    HW316844   2.833   2.583   2.286
 4131SOL    MW416845   2.750   2.599   2.268
 4132SOL     OW16846   2.067   2.227   3.583
 4132SOL    HW216847   2.024   2.286   3.520
 4132SOL    HW316848   2.135   2.282   3.623
 4132SOL    MW416849   2.071   2.242   3.580
 4133SOL     OW16850   3.179   2.847   3.128
 4133SOL    HW216851   3.242   2.844   3.201
 4133SOL    HW316852   3.095   2.865   3.170
 4133SOL    MW416853   3.175   2.849   3.143
 4134SOL     OW16854   2.723   3.562   2.317
 4134SOL    HW216855   2.781   3.633   2.344
 4134SOL    HW316856   2.746   3.490   2.375
 4134SOL    MW416857   2.734   3.562   2.328
 4135SOL     OW16858   3.518   2.024   2.907
 4135SOL    HW216859   3.563   1.942   2.926
 4135SOL    HW316860   3.538   2.080   2.983
 4135SOL    MW416861   3.528   2.020   2.919
 4136SOL     OW16862   1.966   1.867   3.006
 4136SOL    HW216863   1.957   1.868   2.911
 4136SOL    HW316864   2.060   1.879   3.021
 4136SOL    MW416865   1.978   1.870   2.997
 4137SOL     OW16866   3.603   3.060   2.626
 4137SOL    HW216867   3.582   3.006   2.549
 4137SOL    HW316868   3.699   3.058   2.630
 4137SOL    MW416869   3.612   3.053   2.615
 4138SOL     OW16870   2.295   3.205   3.369
 4138SOL    HW216871   2.216   3.155   3.392
 4138SOL    HW316872   2.365   3.164   3.419
 4138SOL    MW416873   2.293   3.193   3.379
 4139SOL     OW16874   2.179   1.994   2.052
 4139SOL    HW216875   2.108   2.049   2.020
 4139SOL    HW316876   2.221   1.960   1.973
 4139SOL    MW416877   2.175   1.996   2.038
 4140SOL     OW16878   3.303   2.491   2.888
 4140SOL    HW216879   3.226   2.537   2.854
 4140SOL    HW316880   3.360   2.560   2.922
 4140SOL    MW416881   3.300   2.506   2.888
 4141SOL     OW16882   1.935   2.093   1.901
 4141SOL    HW216883   1.902   2.172   1.945
 4141SOL    HW316884   1.990   2.126   1.830
 4141SOL    MW416885   1.938   2.107   1.898
 4142SOL     OW16886   1.969   3.350   2.090
 4142SOL    HW216887   1.986   3.434   2.132
 4142SOL    HW316888   2.004   3.359   2.002
 4142SOL    MW416889   1.974   3.363   2.084
 4143SOL     OW16890   3.241   3.439   2.307
 4143SOL    HW216891   3.304   3.429   2.236
 4143SOL    HW316892   3.158   3.459   2.262
 4143SOL    MW416893   3.238   3.440   2.292
 4144SOL     OW16894   3.604   2.707   3.993
 4144SOL    HW216895   3.645   2.649   4.058
 4144SOL    HW316896   3.511   2.699   4.010
 4144SOL    MW416897   3.598   2.699   4.003
 4145SOL     OW16898   3.470   2.639   4.988
 4145SOL    HW216899   3.425   2.706   5.039
 4145SOL    HW316900   3.558   2.675   4.974
 4145SOL    MW416901   3.476   2.652   4.992
 4146SOL     OW16902   2.398   2.890   4.222
 4146SOL    HW216903   2.488   2.865   4.206
 4146SOL    HW316904   2.394   2.983   4.199
 4146SOL    MW416905   2.410   2.899   4.217
 4147SOL     OW16906   3.514   3.593   4.364
 4147SOL    HW216907   3.526   3.539   4.442
 4147SOL    HW316908   3.551   3.541   4.293
 4147SOL    MW416909   3.520   3.578   4.365
 4148SOL     OW16910   2.893   3.478   5.365
 4148SOL    HW216911   2.934   3.514   5.286
 4148SOL    HW316912   2.928   3.389   5.372
 4148SOL    MW416913   2.904   3.471   5.356
 4149SOL     OW16914   3.450   3.033   4.969
 4149SOL    HW216915   3.371   2.998   4.927
 4149SOL    HW316916   3.477   3.105   4.913
 4149SOL    MW416917   3.443   3.038   4.956
 4150SOL     OW16918   2.682   2.346   4.235
 4150SOL    HW216919   2.657   2.434   4.263
 4150SOL    HW316920   2.679   2.349   4.139
 4150SOL    MW416921   2.678   2.358   4.227
 4151SOL     OW16922   2.124   2.374   4.163
 4151SOL    HW216923   2.156   2.462   4.145
 4151SOL    HW316924   2.112   2.372   4.258
 4151SOL    MW416925   2.127   2.386   4.175
 4152SOL     OW16926   2.202   2.787   5.064
 4152SOL    HW216927   2.265   2.734   5.015
 4152SOL    HW316928   2.183   2.861   5.007
 4152SOL    MW416929   2.208   2.789   5.051
 4153SOL     OW16930   2.523   2.129   4.250
 4153SOL    HW216931   2.581   2.205   4.252
 4153SOL    HW316932   2.458   2.150   4.183
 4153SOL    MW416933   2.522   2.141   4.241
 4154SOL     OW16934   2.610   3.056   4.425
 4154SOL    HW216935   2.690   3.059   4.477
 4154SOL    HW316936   2.638   3.023   4.339
 4154SOL    MW416937   2.624   3.052   4.420
 4155SOL     OW16938   2.635   3.397   5.328
 4155SOL    HW216939   2.719   3.423   5.367
 4155SOL    HW316940   2.659   3.341   5.254
 4155SOL    MW416941   2.649   3.393   5.323
 4156SOL     OW16942   2.387   2.560   4.416
 4156SOL    HW216943   2.372   2.480   4.467
 4156SOL    HW316944   2.469   2.595   4.450
 4156SOL    MW416945   2.395   2.552   4.428
 4157SOL     OW16946   2.724   3.246   5.101
 4157SOL    HW216947   2.688   3.312   5.041
 4157SOL    HW316948   2.652   3.184   5.114
 4157SOL    MW416949   2.710   3.246   5.095
 4158SOL     OW16950   2.529   2.386   4.793
 4158SOL    HW216951   2.435   2.382   4.811
 4158SOL    HW316952   2.559   2.295   4.802
 4158SOL    MW416953   2.520   2.374   4.796
 4159SOL     OW16954   2.275   2.800   4.697
 4159SOL    HW216955   2.230   2.807   4.613
 4159SOL    HW316956   2.255   2.883   4.741
 4159SOL    MW416957   2.267   2.812   4.691
 4160SOL     OW16958   1.972   3.646   4.572
 4160SOL    HW216959   2.061   3.638   4.607
 4160SOL    HW316960   1.936   3.558   4.577
 4160SOL    MW416961   1.979   3.633   4.577
 4161SOL     OW16962   3.237   3.038   3.941
 4161SOL    HW216963   3.155   3.074   3.907
 4161SOL    HW316964   3.305   3.081   3.890
 4161SOL    MW416965   3.235   3.048   3.929
 4162SOL     OW16966   2.236   3.173   4.607
 4162SOL    HW216967   2.212   3.226   4.683
 4162SOL    HW316968   2.292   3.231   4.555
 4162SOL    MW416969   2.240   3.188   4.610
 4163SOL     OW16970   2.798   2.817   4.417
 4163SOL    HW216971   2.712   2.804   4.457
 4163SOL    HW316972   2.851   2.744   4.449
 4163SOL    MW416973   2.794   2.806   4.426
 4164SOL     OW16974   2.206   3.469   5.202
 4164SOL    HW216975   2.114   3.445   5.187
 4164SOL    HW316976   2.250   3.386   5.219
 4164SOL    MW416977   2.200   3.454   5.201
 4165SOL     OW16978   2.789   3.179   4.134
 4165SOL    HW216979   2.766   3.241   4.202
 4165SOL    HW316980   2.746   3.097   4.160
 4165SOL    MW416981   2.781   3.175   4.145
 4166SOL     OW16982   3.662   2.180   4.590
 4166SOL    HW216983   3.599   2.160   4.659
 4166SOL    HW316984   3.652   2.109   4.527
 4166SOL    MW416985   3.652   2.167   4.591
 4167SOL     OW16986   2.286   2.152   4.102
 4167SOL    HW216987   2.260   2.114   4.018
 4167SOL    HW316988   2.223   2.222   4.118
 4167SOL    MW416989   2.275   2.155   4.093
 4168SOL     OW16990   2.121   3.113   4.139
 4168SOL    HW216991   2.069   3.181   4.095
 4168SOL    HW316992   2.118   3.039   4.079
 4168SOL    MW416993   2.113   3.112   4.126
 4169SOL     OW16994   2.783   3.576   3.917
 4169SOL    HW216995   2.738   3.592   4.000
 4169SOL    HW316996   2.714   3.541   3.859
 4169SOL    MW416997   2.769   3.573   3.919
 4170SOL     OW16998   3.718   2.349   3.892
 4170SOL    HW216999   3.627   2.351   3.920
 4170SOL    HW317000   3.763   2.411   3.950
 4170SOL    MW417001   3.711   2.357   3.902
 4171SOL     OW17002   3.463   2.952   4.242
 4171SOL    HW217003   3.373   2.952   4.277
 4171SOL    HW317004   3.456   2.998   4.159
 4171SOL    MW417005   3.450   2.958   4.236
 4172SOL     OW17006   3.263   2.587   5.314
 4172SOL    HW217007   3.332   2.525   5.291
 4172SOL    HW317008   3.188   2.561   5.261
 4172SOL    MW417009   3.263   2.574   5.305
 4173SOL     OW17010   2.004   3.467   4.866
 4173SOL    HW217011   1.987   3.413   4.943
 4173SOL    HW317012   1.992   3.557   4.896
 4173SOL    MW417013   2.001   3.471   4.880
 4174SOL     OW17014   2.999   2.974   5.306
 4174SOL    HW217015   2.984   3.067   5.291
 4174SOL    HW317016   3.094   2.964   5.306
 4174SOL    MW417017   3.008   2.984   5.303
 4175SOL     OW17018   2.795   2.398   5.507
 4175SOL    HW217019   2.885   2.399   5.474
 4175SOL    HW317020   2.754   2.323   5.465
 4175SOL    MW417021   2.801   2.388   5.498
 4176SOL     OW17022   3.370   2.930   4.634
 4176SOL    HW217023   3.373   2.864   4.565
 4176SOL    HW317024   3.455   2.973   4.630
 4176SOL    MW417025   3.382   2.926   4.625
 4177SOL     OW17026   2.990   2.533   4.203
 4177SOL    HW217027   3.016   2.557   4.114
 4177SOL    HW317028   2.972   2.440   4.199
 4177SOL    MW417029   2.992   2.525   4.190
 4178SOL     OW17030   3.655   3.153   4.054
 4178SOL    HW217031   3.611   3.194   4.129
 4178SOL    HW317032   3.712   3.221   4.019
 4178SOL    MW417033   3.657   3.167   4.059
 4179SOL     OW17034   2.575   2.202   5.457
 4179SOL    HW217035   2.585   2.128   5.397
 4179SOL    HW317036   2.611   2.171   5.540
 4179SOL    MW417037   2.581   2.188   5.459
 4180SOL     OW17038   2.311   3.569   4.372
 4180SOL    HW217039   2.343   3.657   4.350
 4180SOL    HW317040   2.264   3.541   4.294
 4180SOL    MW417041   2.310   3.577   4.359
 4181SOL     OW17042   3.695   1.931   4.421
 4181SOL    HW217043   3.749   1.882   4.483
 4181SOL    HW317044   3.638   1.865   4.382
 4181SOL    MW417045   3.695   1.915   4.423
 4182SOL     OW17046   2.027   3.629   3.949
 4182SOL    HW217047   2.056   3.719   3.941
 4182SOL    HW317048   1.977   3.612   3.870
 4182SOL    MW417049   2.025   3.637   3.938
 4183SOL     OW17050   2.814   1.884   4.834
 4183SOL    HW217051   2.773   1.962   4.796
 4183SOL    HW317052   2.908   1.902   4.829
 4183SOL    MW417053   2.820   1.896   4.829
 4184SOL     OW17054   3.431   3.437   3.920
 4184SOL    HW217055   3.479   3.506   3.966
 4184SOL    HW317056   3.352   3.481   3.889
 4184SOL    MW417057   3.426   3.451   3.923
 4185SOL     OW17058   2.829   2.562   3.864
 4185SOL    HW217059   2.831   2.509   3.785
 4185SOL    HW317060   2.917   2.599   3.870
 4185SOL    MW417061   2.841   2.561   3.853
 4186SOL     OW17062   3.443   2.488   4.200
 4186SOL    HW217063   3.482   2.488   4.287
 4186SOL    HW317064   3.384   2.564   4.200
 4186SOL    MW417065   3.440   2.499   4.211
 4187SOL     OW17066   2.760   2.855   5.329
 4187SOL    HW217067   2.737   2.835   5.419
 4187SOL    HW317068   2.845   2.899   5.334
 4187SOL    MW417069   2.767   2.858   5.341
 4188SOL     OW17070   2.840   1.992   5.089
 4188SOL    HW217071   2.846   1.954   5.002
 4188SOL    HW317072   2.829   2.086   5.074
 4188SOL    MW417073   2.841   2.000   5.077
 4189SOL     OW17074   2.929   2.481   4.923
 4189SOL    HW217075   3.004   2.510   4.870
 4189SOL    HW317076   2.861   2.546   4.907
 4189SOL    MW417077   2.930   2.493   4.913
 4190SOL     OW17078   3.479   2.449   5.200
 4190SOL    HW217079   3.460   2.358   5.179
 4190SOL    HW317080   3.457   2.498   5.121
 4190SOL    MW417081   3.474   2.442   5.187
 4191SOL     OW17082   3.621   3.543   5.104
 4191SOL    HW217083   3.549   3.505   5.155
 4191SOL    HW317084   3.638   3.628   5.145
 4191SOL    MW417085   3.615   3.548   5.116
 4192SOL     OW17086   2.926   2.187   5.306
 4192SOL    HW217087   2.892   2.226   5.225
 4192SOL    HW317088   2.904   2.095   5.299
 4192SOL    MW417089   2.919   2.180   5.296
 4193SOL     OW17090   3.335   3.001   5.382
 4193SOL    HW217091   3.417   3.042   5.412
 4193SOL    HW317092   3.298   2.963   5.462
 4193SOL    MW417093   3.341   3.002   5.397
 4194SOL     OW17094   3.630   2.374   4.366
 4194SOL    HW217095   3.719   2.343   4.383
 4194SOL    HW317096   3.573   2.314   4.414
 4194SOL    MW417097   3.633   2.362   4.375
 4195SOL     OW17098   2.056   2.088   4.395
 4195SOL    HW217099   2.047   2.028   4.321
 4195SOL    HW317100   1.989   2.059   4.458
 4195SOL    MW417101   2.046   2.075   4.393
 4196SOL     OW17102   2.999   3.181   3.956
 4196SOL    HW217103   2.949   3.183   4.038
 4196SOL    HW317104   2.933   3.199   3.888
 4196SOL    MW417105   2.985   3.183   3.958
 4197SOL     OW17106   2.003   2.261   4.758
 4197SOL    HW217107   1.975   2.352   4.767
 4197SOL    HW317108   1.940   2.222   4.697
 4197SOL    MW417109   1.990   2.267   4.752
 4198SOL     OW17110   2.462   3.599   4.064
 4198SOL    HW217111   2.383   3.557   4.097
 4198SOL    HW317112   2.528   3.582   4.131
 4198SOL    MW417113   2.461   3.591   4.077
 4199SOL     OW17114   3.590   3.119   5.461
 4199SOL    HW217115   3.640   3.045   5.493
 4199SOL    HW317116   3.536   3.146   5.536
 4199SOL    MW417117   3.590   3.113   5.474
 4200SOL     OW17118   2.598   3.014   3.771
 4200SOL    HW217119   2.520   2.960   3.758
 4200SOL    HW317120   2.569   3.087   3.824
 4200SOL    MW417121   2.584   3.016   3.776
 4201SOL     OW17122   3.724   2.754   4.963
 4201SOL    HW217123   3.740   2.792   4.876
 4201SOL    HW317124   3.758   2.820   5.024
 4201SOL    MW417125   3.731   2.767   4.959
 4202SOL     OW17126   3.516   3.463   4.632
 4202SOL    HW217127   3.545   3.530   4.693
 4202SOL    HW317128   3.497   3.387   4.687
 4202SOL    MW417129   3.518   3.463   4.647
 4203SOL     OW17130   3.179   3.530   3.839
 4203SOL    HW217131   3.105   3.493   3.889
 4203SOL    HW317132   3.187   3.620   3.872
 4203SOL    MW417133   3.170   3.537   3.851
 4204SOL     OW17134   1.987   2.536   4.928
 4204SOL    HW217135   2.049   2.566   4.994
 4204SOL    HW317136   1.921   2.605   4.922
 4204SOL    MW417137   1.986   2.549   4.935
 4205SOL     OW17138   3.403   3.204   3.781
 4205SOL    HW217139   3.350   3.253   3.717
 4205SOL    HW317140   3.434   3.270   3.842
 4205SOL    MW417141   3.401   3.218   3.779
 4206SOL     OW17142   2.628   2.093   3.836
 4206SOL    HW217143   2.576   2.013   3.824
 4206SOL    HW317144   2.715   2.070   3.804
 4206SOL    MW417145   2.631   2.079   3.830
 4207SOL     OW17146   2.082   3.645   5.380
 4207SOL    HW217147   2.056   3.713   5.318
 4207SOL    HW317148   2.130   3.582   5.328
 4207SOL    MW417149   2.084   3.645   5.366
 4208SOL     OW17150   2.134   2.964   4.887
 4208SOL    HW217151   2.187   3.039   4.912
 4208SOL    HW317152   2.053   3.002   4.853
 4208SOL    MW417153   2.130   2.979   4.887
 4209SOL     OW17154   2.674   2.868   4.875
 4209SOL    HW217155   2.702   2.777   4.887
 4209SOL    HW317156   2.603   2.862   4.811
 4209SOL    MW417157   2.667   2.856   4.870
 4210SOL     OW17158   1.989   2.733   4.293
 4210SOL    HW217159   2.080   2.748   4.320
 4210SOL    HW317160   1.992   2.654   4.239
 4210SOL    MW417161   2.001   2.725   4.291
 4211SOL     OW17162   2.225   2.441   5.547
 4211SOL    HW217163   2.172   2.521   5.554
 4211SOL    HW317164   2.295   2.453   5.612
 4211SOL    MW417165   2.227   2.454   5.555
 4212SOL     OW17166   2.611   1.991   5.254
 4212SOL    HW217167   2.588   1.899   5.256
 4212SOL    HW317168   2.697   1.993   5.211
 4212SOL    MW417169   2.618   1.981   5.250
 4213SOL     OW17170   2.295   2.515   5.293
 4213SOL    HW217171   2.375   2.565   5.279
 4213SOL    HW317172   2.286   2.509   5.388
 4213SOL    MW417173   2.304   2.521   5.303
 4214SOL     OW17174   2.616   3.665   4.667
 4214SOL    HW217175   2.705   3.680   4.697
 4214SOL    HW317176   2.611   3.712   4.583
 4214SOL    MW417177   2.626   3.673   4.660
 4215SOL     OW17178   3.272   2.040   5.564
 4215SOL    HW217179   3.328   1.967   5.590
 4215SOL    HW317180   3.242   2.078   5.646
 4215SOL    MW417181   3.276   2.035   5.577
 4216SOL     OW17182   1.997   3.345   4.332
 4216SOL    HW217183   1.969   3.384   4.414
 4216SOL    HW317184   2.017   3.254   4.354
 4216SOL    MW417185   1.995   3.337   4.345
 4217SOL     OW17186   2.830   3.388   4.367
 4217SOL    HW217187   2.913   3.342   4.351
 4217SOL    HW317188   2.820   3.387   4.463
 4217SOL    MW417189   2.840   3.381   4.377
 4218SOL     OW17190   3.662   2.533   4.681
 4218SOL    HW217191   3.751   2.563   4.663
 4218SOL    HW317192   3.642   2.473   4.610
 4218SOL    MW417193   3.671   2.530   4.670
 4219SOL     OW17194   3.513   2.712   5.561
 4219SOL    HW217195   3.568   2.636   5.542
 4219SOL    HW317196   3.515   2.720   5.656
 4219SOL    MW417197   3.521   2.703   5.569
 4220SOL     OW17198   2.563   3.445   3.772
 4220SOL    HW217199   2.503   3.514   3.742
 4220SOL    HW317200   2.508   3.387   3.825
 4220SOL    MW417201   2.547   3.447   3.774
 4221SOL     OW17202   3.001   2.090   3.995
 4221SOL    HW217203   2.934   2.066   3.932
 4221SOL    HW317204   3.066   2.139   3.944
 4221SOL    MW417205   3.001   2.092   3.980
 4222SOL     OW17206   2.808   2.274   5.080
 4222SOL    HW217207   2.727   2.315   5.108
 4222SOL    HW317208   2.855   2.342   5.032
 4222SOL    MW417209   2.803   2.289   5.078
 4223SOL     OW17210   3.068   2.612   4.703
 4223SOL    HW217211   3.081   2.706   4.713
 4223SOL    HW317212   3.029   2.602   4.617
 4223SOL    MW417213   3.064   2.623   4.693
 4224SOL     OW17214   2.520   2.807   4.507
 4224SOL    HW217215   2.431   2.798   4.540
 4224SOL    HW317216   2.524   2.897   4.475
 4224SOL    MW417217   2.509   2.818   4.507
 4225SOL     OW17218   3.319   2.390   4.502
 4225SOL    HW217219   3.264   2.311   4.501
 4225SOL    HW317220   3.301   2.431   4.586
 4225SOL    MW417221   3.309   2.385   4.511
 4226SOL     OW17222   2.290   2.077   5.319
 4226SOL    HW217223   2.211   2.095   5.371
 4226SOL    HW317224   2.285   2.139   5.246
 4226SOL    MW417225   2.280   2.087   5.316
 4227SOL     OW17226   2.938   2.594   4.459
 4227SOL    HW217227   2.875   2.526   4.483
 4227SOL    HW317228   2.958   2.575   4.367
 4227SOL    MW417229   2.932   2.581   4.451
 4228SOL     OW17230   2.194   3.489   4.161
 4228SOL    HW217231   2.155   3.536   4.087
 4228SOL    HW317232   2.128   3.424   4.186
 4228SOL    MW417233   2.181   3.487   4.155
 4229SOL     OW17234   2.686   2.898   4.185
 4229SOL    HW217235   2.688   2.872   4.092
 4229SOL    HW317236   2.744   2.835   4.228
 4229SOL    MW417237   2.694   2.887   4.179
 4230SOL     OW17238   3.239   3.458   4.957
 4230SOL    HW217239   3.164   3.504   4.995
 4230SOL    HW317240   3.221   3.365   4.974
 4230SOL    MW417241   3.228   3.452   4.965
 4231SOL     OW17242   3.243   3.666   4.387
 4231SOL    HW217243   3.186   3.619   4.326
 4231SOL    HW317244   3.329   3.627   4.374
 4231SOL    MW417245   3.246   3.657   4.377
 4232SOL     OW17246   3.196   2.142   4.518
 4232SOL    HW217247   3.224   2.074   4.579
 4232SOL    HW317248   3.110   2.113   4.488
 4232SOL    MW417249   3.189   2.129   4.522
 4233SOL     OW17250   2.001   3.076   4.452
 4233SOL    HW217251   2.065   3.108   4.515
 4233SOL    HW317252   2.050   3.012   4.400
 4233SOL    MW417253   2.016   3.072   4.453
 4234SOL     OW17254   2.501   3.152   5.434
 4234SOL    HW217255   2.549   3.235   5.421
 4234SOL    HW317256   2.558   3.100   5.490
 4234SOL    MW417257   2.515   3.156   5.440
 4235SOL     OW17258   2.077   3.394   5.574
 4235SOL    HW217259   2.133   3.318   5.589
 4235SOL    HW317260   2.026   3.372   5.496
 4235SOL    MW417261   2.077   3.381   5.565
 4236SOL     OW17262   3.176   2.246   3.853
 4236SOL    HW217263   3.149   2.312   3.789
 4236SOL    HW317264   3.246   2.289   3.903
 4236SOL    MW417265   3.181   2.259   3.850
 4237SOL     OW17266   2.844   1.951   3.790
 4237SOL    HW217267   2.900   1.943   3.712
 4237SOL    HW317268   2.821   1.861   3.812
 4237SOL    MW417269   2.849   1.938   3.783
 4238SOL     OW17270   3.349   2.802   3.995
 4238SOL    HW217271   3.316   2.891   3.985
 4238SOL    HW317272   3.314   2.773   4.080
 4238SOL    MW417273   3.339   2.811   4.006
 4239SOL     OW17274   2.962   3.231   5.183
 4239SOL    HW217275   2.873   3.237   5.151
 4239SOL    HW317276   3.006   3.310   5.151
 4239SOL    MW417277   2.957   3.241   5.175
 4240SOL     OW17278   2.255   1.899   5.525
 4240SOL    HW217279   2.183   1.864   5.473
 4240SOL    HW317280   2.313   1.940   5.460
 4240SOL    MW417281   2.253   1.900   5.510
 4241SOL     OW17282   2.279   3.389   4.824
 4241SOL    HW217283   2.324   3.451   4.881
 4241SOL    HW317284   2.186   3.408   4.837
 4241SOL    MW417285   2.272   3.399   4.831
 4242SOL     OW17286   3.719   2.918   5.178
 4242SOL    HW217287   3.634   2.931   5.137
 4242SOL    HW317288   3.699   2.882   5.265
 4242SOL    MW417289   3.706   2.914   5.183
 4243SOL     OW17290   2.701   3.457   4.932
 4243SOL    HW217291   2.725   3.446   4.841
 4243SOL    HW317292   2.624   3.514   4.930
 4243SOL    MW417293   2.693   3.462   4.921
 4244SOL     OW17294   2.343   2.840   3.787
 4244SOL    HW217295   2.266   2.853   3.843
 4244SOL    HW317296   2.307   2.804   3.706
 4244SOL    MW417297   2.329   2.836   3.784
 4245SOL     OW17298   2.996   2.813   4.030
 4245SOL    HW217299   2.906   2.834   4.005
 4245SOL    HW317300   3.023   2.886   4.086
 4245SOL    MW417301   2.988   2.825   4.033
 4246SOL     OW17302   2.496   3.162   4.722
 4246SOL    HW217303   2.489   3.141   4.816
 4246SOL    HW317304   2.414   3.130   4.685
 4246SOL    MW417305   2.484   3.156   4.729
 4247SOL     OW17306   3.360   2.172   5.124
 4247SOL    HW217307   3.307   2.174   5.204
 4247SOL    HW317308   3.345   2.085   5.087
 4247SOL    MW417309   3.352   2.162   5.129
 4248SOL     OW17310   3.696   2.096   4.997
 4248SOL    HW217311   3.677   2.163   4.932
 4248SOL    HW317312   3.753   2.034   4.952
 4248SOL    MW417313   3.700   2.097   4.983
 4249SOL     OW17314   1.942   3.254   5.385
 4249SOL    HW217315   1.986   3.187   5.331
 4249SOL    HW317316   1.857   3.216   5.405
 4249SOL    MW417317   1.937   3.240   5.381
 4250SOL     OW17318   2.625   1.929   4.437
 4250SOL    HW217319   2.554   1.990   4.419
 4250SOL    HW317320   2.676   1.926   4.356
 4250SOL    MW417321   2.621   1.935   4.424
 4251SOL     OW17322   2.383   3.169   4.186
 4251SOL    HW217323   2.376   3.201   4.276
 4251SOL    HW317324   2.293   3.153   4.158
 4251SOL    MW417325   2.371   3.171   4.193
 4252SOL     OW17326   2.978   3.562   5.095
 4252SOL    HW217327   2.898   3.547   5.045
 4252SOL    HW317328   2.985   3.657   5.102
 4252SOL    MW417329   2.969   3.573   5.089
 4253SOL     OW17330   3.092   3.527   4.585
 4253SOL    HW217331   3.139   3.600   4.544
 4253SOL    HW317332   3.013   3.566   4.621
 4253SOL    MW417333   3.087   3.542   4.584
 4254SOL     OW17334   3.500   3.622   4.860
 4254SOL    HW217335   3.543   3.592   4.940
 4254SOL    HW317336   3.419   3.570   4.857
 4254SOL    MW417337   3.495   3.611   4.870
 4255SOL     OW17338   2.585   2.586   5.567
 4255SOL    HW217339   2.655   2.528   5.539
 4255SOL    HW317340   2.528   2.531   5.622
 4255SOL    MW417341   2.587   2.573   5.571
 4256SOL     OW17342   3.372   2.798   5.200
 4256SOL    HW217343   3.377   2.851   5.280
 4256SOL    HW317344   3.334   2.715   5.228
 4256SOL    MW417345   3.368   2.793   5.215
 4257SOL     OW17346   3.012   1.933   5.446
 4257SOL    HW217347   3.007   1.840   5.427
 4257SOL    HW317348   3.095   1.944   5.492
 4257SOL    MW417349   3.020   1.922   5.450
 4258SOL     OW17350   2.386   2.453   3.900
 4258SOL    HW217351   2.352   2.509   3.970
 4258SOL    HW317352   2.457   2.403   3.940
 4258SOL    MW417353   2.392   2.454   3.914
 4259SOL     OW17354   3.482   3.204   4.722
 4259SOL    HW217355   3.517   3.186   4.635
 4259SOL    HW317356   3.387   3.205   4.709
 4259SOL    MW417357   3.474   3.201   4.709
 4260SOL     OW17358   2.911   2.852   5.091
 4260SOL    HW217359   2.954   2.887   5.169
 4260SOL    HW317360   2.894   2.929   5.037
 4260SOL    MW417361   2.914   2.867   5.094
 4261SOL     OW17362   3.442   2.339   3.964
 4261SOL    HW217363   3.434   2.410   3.901
 4261SOL    HW317364   3.460   2.383   4.047
 4261SOL    MW417365   3.443   2.353   3.966
 4262SOL     OW17366   2.302   1.994   4.393
 4262SOL    HW217367   2.352   2.037   4.324
 4262SOL    HW317368   2.217   2.038   4.393
 4262SOL    MW417369   2.299   2.007   4.384
 4263SOL     OW17370   2.061   3.056   5.253
 4263SOL    HW217371   2.089   3.009   5.331
 4263SOL    HW317372   1.982   3.011   5.224
 4263SOL    MW417373   2.054   3.045   5.259
 4264SOL     OW17374   2.569   2.383   5.220
 4264SOL    HW217375   2.541   2.471   5.244
 4264SOL    HW317376   2.538   2.327   5.291
 4264SOL    MW417377   2.561   2.386   5.232
 4265SOL     OW17378   3.111   2.601   3.939
 4265SOL    HW217379   3.158   2.619   3.858
 4265SOL    HW317380   3.077   2.685   3.967
 4265SOL    MW417381   3.113   2.615   3.932
 4266SOL     OW17382   2.224   2.779   4.433
 4266SOL    HW217383   2.282   2.835   4.381
 4266SOL    HW317384   2.268   2.694   4.435
 4266SOL    MW417385   2.237   2.776   4.426
 4267SOL     OW17386   3.364   2.131   4.270
 4267SOL    HW217387   3.286   2.081   4.295
 4267SOL    HW317388   3.335   2.222   4.270
 4267SOL    MW417389   3.350   2.135   4.273
 4268SOL     OW17390   2.950   2.093   4.429
 4268SOL    HW217391   2.970   2.168   4.373
 4268SOL    HW317392   2.930   2.132   4.514
 4268SOL    MW417393   2.951   2.109   4.433
 4269SOL     OW17394   2.846   3.343   3.761
 4269SOL    HW217395   2.873   3.421   3.713
 4269SOL    HW317396   2.753   3.358   3.780
 4269SOL    MW417397   2.837   3.356   3.757
 4270SOL     OW17398   3.710   2.866   5.448
 4270SOL    HW217399   3.623   2.846   5.484
 4270SOL    HW317400   3.764   2.792   5.473
 4270SOL    MW417401   3.705   2.855   5.456
 4271SOL     OW17402   1.931   3.379   4.605
 4271SOL    HW217403   1.963   3.383   4.696
 4271SOL    HW317404   1.836   3.387   4.613
 4271SOL    MW417405   1.923   3.382   4.618
 4272SOL     OW17406   1.886   2.505   4.152
 4272SOL    HW217407   1.826   2.477   4.222
 4272SOL    HW317408   1.960   2.445   4.158
 4272SOL    MW417409   1.888   2.494   4.161
 4273SOL     OW17410   3.454   3.717   5.586
 4273SOL    HW217411   3.499   3.641   5.551
 4273SOL    HW317412   3.492   3.730   5.673
 4273SOL    MW417413   3.464   3.710   5.592
 4274SOL     OW17414   3.054   3.236   4.312
 4274SOL    HW217415   3.077   3.187   4.390
 4274SOL    HW317416   3.135   3.278   4.284
 4274SOL    MW417417   3.067   3.236   4.319
 4275SOL     OW17418   2.312   2.244   5.041
 4275SOL    HW217419   2.345   2.325   5.081
 4275SOL    HW317420   2.285   2.270   4.953
 4275SOL    MW417421   2.311   2.258   5.035
 4276SOL     OW17422   2.266   2.211   4.777
 4276SOL    HW217423   2.296   2.125   4.748
 4276SOL    HW317424   2.171   2.204   4.780
 4276SOL    MW417425   2.258   2.200   4.775
 4277SOL     OW17426   3.095   2.420   5.468
 4277SOL    HW217427   3.147   2.355   5.421
 4277SOL    HW317428   3.053   2.471   5.398
 4277SOL    MW417429   3.096   2.417   5.451
 4278SOL     OW17430   3.194   2.215   5.329
 4278SOL    HW217431   3.101   2.199   5.316
 4278SOL    HW317432   3.220   2.153   5.397
 4278SOL    MW417433   3.184   2.205   5.336
 4279SOL     OW17434   2.409   1.989   4.668
 4279SOL    HW217435   2.419   1.898   4.694
 4279SOL    HW317436   2.365   1.985   4.583
 4279SOL    MW417437   2.405   1.977   4.660
 4280SOL     OW17438   2.503   3.604   5.214
 4280SOL    HW217439   2.420   3.589   5.259
 4280SOL    HW317440   2.562   3.537   5.249
 4280SOL    MW417441   2.501   3.594   5.224
 4281SOL     OW17442   3.560   2.311   4.839
 4281SOL    HW217443   3.493   2.344   4.899
 4281SOL    HW317444   3.603   2.389   4.805
 4281SOL    MW417445   3.558   2.326   4.843
 4282SOL     OW17446   3.738   3.031   4.809
 4282SOL    HW217447   3.731   2.971   4.734
 4282SOL    HW317448   3.664   3.091   4.798
 4282SOL    MW417449   3.728   3.031   4.798
 4283SOL     OW17450   3.120   2.893   4.727
 4283SOL    HW217451   3.134   2.865   4.818
 4283SOL    HW317452   3.206   2.924   4.699
 4283SOL    MW417453   3.133   2.894   4.736
 4284SOL     OW17454   3.203   2.388   5.006
 4284SOL    HW217455   3.224   2.389   4.913
 4284SOL    HW317456   3.248   2.310   5.039
 4284SOL    MW417457   3.210   2.378   4.998
 4285SOL     OW17458   3.696   2.519   5.548
 4285SOL    HW217459   3.733   2.464   5.617
 4285SOL    HW317460   3.721   2.476   5.466
 4285SOL    MW417461   3.703   2.507   5.547
 4286SOL     OW17462   3.243   2.817   5.600
 4286SOL    HW217463   3.309   2.765   5.554
 4286SOL    HW317464   3.263   2.804   5.693
 4286SOL    MW417465   3.254   2.808   5.607
 4287SOL     OW17466   3.194   1.903   3.948
 4287SOL    HW217467   3.268   1.947   3.991
 4287SOL    HW317468   3.118   1.957   3.970
 4287SOL    MW417469   3.194   1.915   3.956
 4288SOL     OW17470   3.254   2.678   4.226
 4288SOL    HW217471   3.169   2.648   4.196
 4288SOL    HW317472   3.246   2.685   4.321
 4288SOL    MW417473   3.242   2.676   4.235
 4289SOL     OW17474   2.330   3.141   4.957
 4289SOL    HW217475   2.342   3.168   5.048
 4289SOL    HW317476   2.311   3.222   4.910
 4289SOL    MW417477   2.329   3.156   4.962
 4290SOL     OW17478   2.614   2.121   4.780
 4290SOL    HW217479   2.587   2.123   4.871
 4290SOL    HW317480   2.544   2.073   4.735
 4290SOL    MW417481   2.602   2.117   4.787
 4291SOL     OW17482   2.468   3.613   4.942
 4291SOL    HW217483   2.520   3.690   4.919
 4291SOL    HW317484   2.477   3.605   5.037
 4291SOL    MW417485   2.477   3.620   4.953
 4292SOL     OW17486   3.370   3.198   5.174
 4292SOL    HW217487   3.355   3.127   5.237
 4292SOL    HW317488   3.416   3.156   5.102
 4292SOL    MW417489   3.376   3.182   5.174
 4293SOL     OW17490   2.444   2.929   5.291
 4293SOL    HW217491   2.481   2.934   5.203
 4293SOL    HW317492   2.483   3.002   5.338
 4293SOL    MW417493   2.454   2.939   5.286
 4294SOL     OW17494   2.624   2.972   5.103
 4294SOL    HW217495   2.683   2.918   5.156
 4294SOL    HW317496   2.639   2.944   5.013
 4294SOL    MW417497   2.634   2.961   5.099
 4295SOL     OW17498   2.627   2.344   3.952
 4295SOL    HW217499   2.700   2.393   3.915
 4295SOL    HW317500   2.643   2.253   3.926
 4295SOL    MW417501   2.639   2.339   3.945
 4296SOL     OW17502   3.435   3.461   5.275
 4296SOL    HW217503   3.477   3.446   5.360
 4296SOL    HW317504   3.426   3.374   5.237
 4296SOL    MW417505   3.439   3.449   5.282
 4297SOL     OW17506   3.095   1.940   4.866
 4297SOL    HW217507   3.150   1.949   4.788
 4297SOL    HW317508   3.150   1.974   4.937
 4297SOL    MW417509   3.109   1.945   4.865
 4298SOL     OW17510   2.102   2.853   4.050
 4298SOL    HW217511   2.039   2.869   3.979
 4298SOL    HW317512   2.049   2.816   4.121
 4298SOL    MW417513   2.087   2.850   4.050
 4299SOL     OW17514   2.458   3.207   3.909
 4299SOL    HW217515   2.473   3.183   4.001
 4299SOL    HW317516   2.366   3.185   3.893
 4299SOL    MW417517   2.448   3.200   3.919
 4300SOL     OW17518   2.997   3.438   4.061
 4300SOL    HW217519   3.005   3.356   4.012
 4300SOL    HW317520   2.916   3.477   4.028
 4300SOL    MW417521   2.987   3.433   4.051
 4301SOL     OW17522   2.256   3.596   4.630
 4301SOL    HW217523   2.260   3.507   4.665
 4301SOL    HW317524   2.282   3.587   4.539
 4301SOL    MW417525   2.259   3.584   4.622
 4302SOL     OW17526   2.873   3.074   4.873
 4302SOL    HW217527   2.805   3.008   4.889
 4302SOL    HW317528   2.891   3.068   4.780
 4302SOL    MW417529   2.866   3.065   4.864
 4303SOL     OW17530   1.962   3.349   5.124
 4303SOL    HW217531   1.952   3.307   5.210
 4303SOL    HW317532   1.883   3.402   5.114
 4303SOL    MW417533   1.951   3.350   5.135
 4304SOL     OW17534   2.866   2.213   4.694
 4304SOL    HW217535   2.796   2.165   4.739
 4304SOL    HW317536   2.898   2.276   4.758
 4304SOL    MW417537   2.861   2.215   4.708
 4305SOL     OW17538   2.517   2.649   5.314
 4305SOL    HW217539   2.510   2.744   5.302
 4305SOL    HW317540   2.526   2.638   5.409
 4305SOL    MW417541   2.518   2.661   5.324
 4306SOL     OW17542   2.238   3.164   5.572
 4306SOL    HW217543   2.310   3.166   5.509
 4306SOL    HW317544   2.208   3.073   5.571
 4306SOL    MW417545   2.243   3.153   5.564
 4307SOL     OW17546   3.322   1.927   5.039
 4307SOL    HW217547   3.393   1.873   5.003
 4307SOL    HW317548   3.321   1.906   5.132
 4307SOL    MW417549   3.331   1.918   5.047
 4308SOL     OW17550   3.522   3.457   5.523
 4308SOL    HW217551   3.495   3.454   5.614
 4308SOL    HW317552   3.618   3.461   5.526
 4308SOL    MW417553   3.532   3.457   5.535
 4309SOL     OW17554   2.333   2.319   4.507
 4309SOL    HW217555   2.404   2.267   4.470
 4309SOL    HW317556   2.319   2.284   4.594
 4309SOL    MW417557   2.341   2.308   4.514
 4310SOL     OW17558   1.888   3.654   5.579
 4310SOL    HW217559   1.938   3.632   5.501
 4310SOL    HW317560   1.896   3.749   5.587
 4310SOL    MW417561   1.896   3.663   5.570
 4311SOL     OW17562   2.649   3.412   4.583
 4311SOL    HW217563   2.577   3.349   4.596
 4311SOL    HW317564   2.610   3.497   4.601
 4311SOL    MW417565   2.633   3.415   4.586
 4312SOL     OW17566   2.969   2.260   4.231
 4312SOL    HW217567   2.991   2.197   4.163
 4312SOL    HW317568   2.874   2.252   4.242
 4312SOL    MW417569   2.959   2.251   4.223
 4313SOL     OW17570   2.054   1.950   4.163
 4313SOL    HW217571   2.125   1.971   4.102
 4313SOL    HW317572   2.008   1.878   4.121
 4313SOL    MW417573   2.058   1.944   4.149
 4314SOL     OW17574   1.885   2.417   5.306
 4314SOL    HW217575   1.949   2.483   5.281
 4314SOL    HW317576   1.804   2.444   5.263
 4314SOL    MW417577   1.883   2.429   5.298
 4315SOL     OW17578   3.623   3.324   4.263
 4315SOL    HW217579   3.593   3.257   4.324
 4315SOL    HW317580   3.717   3.330   4.277
 4315SOL    MW417581   3.631   3.316   4.273
 4316SOL     OW17582   3.179   3.001   4.193
 4316SOL    HW217583   3.151   3.087   4.226
 4316SOL    HW317584   3.207   3.017   4.103
 4316SOL    MW417585   3.179   3.015   4.185
 4317SOL     OW17586   2.841   1.921   4.246
 4317SOL    HW217587   2.878   1.980   4.311
 4317SOL    HW317588   2.818   1.977   4.172
 4317SOL    MW417589   2.842   1.936   4.245
 4318SOL     OW17590   3.694   2.803   4.668
 4318SOL    HW217591   3.685   2.835   4.579
 4318SOL    HW317592   3.647   2.719   4.668
 4318SOL    MW417593   3.687   2.796   4.658
 4319SOL     OW17594   2.070   2.643   5.247
 4319SOL    HW217595   2.091   2.712   5.185
 4319SOL    HW317596   2.150   2.590   5.252
 4319SOL    MW417597   2.083   2.644   5.241
 4320SOL     OW17598   3.606   2.734   4.369
 4320SOL    HW217599   3.700   2.723   4.357
 4320SOL    HW317600   3.582   2.806   4.310
 4320SOL    MW417601   3.616   2.742   4.360
 4321SOL     OW17602   2.055   2.658   5.514
 4321SOL    HW217603   1.981   2.602   5.540
 4321SOL    HW317604   2.050   2.661   5.419
 4321SOL    MW417605   2.044   2.651   5.504
 4322SOL     OW17606   2.221   1.945   4.964
 4322SOL    HW217607   2.264   2.029   4.984
 4322SOL    HW317608   2.294   1.883   4.957
 4322SOL    MW417609   2.236   1.948   4.965
 4323SOL     OW17610   2.262   2.612   4.142
 4323SOL    HW217611   2.262   2.707   4.127
 4323SOL    HW317612   2.339   2.596   4.196
 4323SOL    MW417613   2.272   2.623   4.147
 4324SOL     OW17614   3.038   2.471   5.206
 4324SOL    HW217615   3.074   2.444   5.122
 4324SOL    HW317616   2.951   2.505   5.185
 4324SOL    MW417617   3.032   2.472   5.193
 4325SOL     OW17618   2.021   2.343   4.431
 4325SOL    HW217619   2.083   2.350   4.504
 4325SOL    HW317620   2.021   2.250   4.408
 4325SOL    MW417621   2.029   2.332   4.438
 4326SOL     OW17622   3.568   3.683   3.963
 4326SOL    HW217623   3.635   3.716   3.903
 4326SOL    HW317624   3.525   3.762   3.997
 4326SOL    MW417625   3.570   3.698   3.959
 4327SOL     OW17626   2.703   2.604   4.915
 4327SOL    HW217627   2.661   2.522   4.891
 4327SOL    HW317628   2.704   2.603   5.011
 4327SOL    MW417629   2.696   2.593   4.924
 4328SOL     OW17630   3.374   3.737   5.314
 4328SOL    HW217631   3.377   3.643   5.297
 4328SOL    HW317632   3.397   3.745   5.406
 4328SOL    MW417633   3.377   3.725   5.324
 4329SOL     OW17634   2.507   2.074   5.020
 4329SOL    HW217635   2.438   2.137   5.041
 4329SOL    HW317636   2.534   2.038   5.105
 4329SOL    MW417637   2.501   2.077   5.033
 4330SOL     OW17638   1.890   2.915   3.889
 4330SOL    HW217639   1.859   2.980   3.952
 4330SOL    HW317640   1.839   2.837   3.908
 4330SOL    MW417641   1.880   2.912   3.899
 4331SOL     OW17642   3.302   1.927   4.637
 4331SOL    HW217643   3.390   1.936   4.674
 4331SOL    HW317644   3.312   1.868   4.563
 4331SOL    MW417645   3.316   1.921   4.631
 4332SOL     OW17646   3.334   2.666   4.481
 4332SOL    HW217647   3.414   2.681   4.430
 4332SOL    HW317648   3.327   2.571   4.487
 4332SOL    MW417649   3.343   2.655   4.476
 4333SOL     OW17650   2.474   3.715   3.831
 4333SOL    HW217651   2.379   3.715   3.823
 4333SOL    HW317652   2.490   3.661   3.909
 4333SOL    MW417653   2.464   3.709   3.840
 4334SOL     OW17654   2.784   2.592   5.178
 4334SOL    HW217655   2.853   2.659   5.175
 4334SOL    HW317656   2.717   2.630   5.234
 4334SOL    MW417657   2.785   2.605   5.185
 4335SOL     OW17658   2.202   2.892   5.426
 4335SOL    HW217659   2.156   2.808   5.428
 4335SOL    HW317660   2.259   2.886   5.350
 4335SOL    MW417661   2.204   2.880   5.418
 4336SOL     OW17662   3.319   2.535   3.747
 4336SOL    HW217663   3.247   2.511   3.689
 4336SOL    HW317664   3.385   2.572   3.689
 4336SOL    MW417665   3.318   2.537   3.732
 4337SOL     OW17666   2.453   3.267   4.427
 4337SOL    HW217667   2.518   3.200   4.448
 4337SOL    HW317668   2.505   3.344   4.404
 4337SOL    MW417669   2.468   3.269   4.426
 4338SOL     OW17670   2.714   2.432   4.557
 4338SOL    HW217671   2.654   2.450   4.629
 4338SOL    HW317672   2.748   2.344   4.576
 4338SOL    MW417673   2.710   2.422   4.570
 4339SOL     OW17674   3.655   1.931   5.226
 4339SOL    HW217675   3.576   1.977   5.254
 4339SOL    HW317676   3.690   1.985   5.155
 4339SOL    MW417677   3.649   1.944   5.220
 4340SOL     OW17678   2.939   3.015   4.576
 4340SOL    HW217679   3.031   2.996   4.594
 4340SOL    HW317680   2.912   2.945   4.516
 4340SOL    MW417681   2.947   3.003   4.570
 4341SOL     OW17682   2.732   2.835   3.931
 4341SOL    HW217683   2.718   2.747   3.896
 4341SOL    HW317684   2.683   2.892   3.872
 4341SOL    MW417685   2.724   2.830   3.919
 4342SOL     OW17686   3.213   3.253   4.672
 4342SOL    HW217687   3.186   3.337   4.637
 4342SOL    HW317688   3.173   3.248   4.759
 4342SOL    MW417689   3.206   3.262   4.678
 4343SOL     OW17690   3.132   3.201   4.940
 4343SOL    HW217691   3.143   3.168   5.029
 4343SOL    HW317692   3.051   3.160   4.909
 4343SOL    MW417693   3.122   3.193   4.946
 4344SOL     OW17694   2.145   2.559   4.710
 4344SOL    HW217695   2.095   2.558   4.791
 4344SOL    HW317696   2.165   2.651   4.694
 4344SOL    MW417697   2.141   2.571   4.718
 4345SOL     OW17698   3.212   3.323   5.472
 4345SOL    HW217699   3.212   3.417   5.488
 4345SOL    HW317700   3.257   3.313   5.388
 4345SOL    MW417701   3.218   3.333   5.463
 4346SOL     OW17702   3.451   2.041   4.033
 4346SOL    HW217703   3.444   2.045   4.128
 4346SOL    HW317704   3.463   2.132   4.006
 4346SOL    MW417705   3.452   2.054   4.041
 4347SOL     OW17706   2.740   2.604   4.147
 4347SOL    HW217707   2.720   2.590   4.054
 4347SOL    HW317708   2.833   2.583   4.154
 4347SOL    MW417709   2.750   2.599   4.136
 4348SOL     OW17710   2.067   2.227   5.451
 4348SOL    HW217711   2.024   2.286   5.388
 4348SOL    HW317712   2.135   2.282   5.491
 4348SOL    MW417713   2.071   2.242   5.448
 4349SOL     OW17714   3.179   2.847   4.996
 4349SOL    HW217715   3.242   2.844   5.069
 4349SOL    HW317716   3.095   2.865   5.038
 4349SOL    MW417717   3.175   2.849   5.011
 4350SOL     OW17718   2.723   3.562   4.185
 4350SOL    HW217719   2.781   3.633   4.212
 4350SOL    HW317720   2.746   3.490   4.243
 4350SOL    MW417721   2.734   3.562   4.196
 4351SOL     OW17722   3.518   2.024   4.775
 4351SOL    HW217723   3.563   1.942   4.794
 4351SOL    HW317724   3.538   2.080   4.851
 4351SOL    MW417725   3.528   2.020   4.787
 4352SOL     OW17726   1.966   1.867   4.874
 4352SOL    HW217727   1.957   1.868   4.779
 4352SOL    HW317728   2.060   1.879   4.889
 4352SOL    MW417729   1.978   1.870   4.865
 4353SOL     OW17730   3.603   3.060   4.494
 4353SOL    HW217731   3.582   3.006   4.417
 4353SOL    HW317732   3.699   3.058   4.498
 4353SOL    MW417733   3.612   3.053   4.483
 4354SOL     OW17734   2.295   3.205   5.237
 4354SOL    HW217735   2.216   3.155   5.260
 4354SOL    HW317736   2.365   3.164   5.287
 4354SOL    MW417737   2.293   3.193   5.247
 4355SOL     OW17738   2.179   1.994   3.920
 4355SOL    HW217739   2.108   2.049   3.888
 4355SOL    HW317740   2.221   1.960   3.841
 4355SOL    MW417741   2.175   1.996   3.906
 4356SOL     OW17742   3.303   2.491   4.756
 4356SOL    HW217743   3.226   2.537   4.722
 4356SOL    HW317744   3.360   2.560   4.790
 4356SOL    MW417745   3.300   2.506   4.756
 4357SOL     OW17746   1.935   2.093   3.769
 4357SOL    HW217747   1.902   2.172   3.813
 4357SOL    HW317748   1.990   2.126   3.698
 4357SOL    MW417749   1.938   2.107   3.766
 4358SOL     OW17750   1.969   3.350   3.958
 4358SOL    HW217751   1.986   3.434   4.000
 4358SOL    HW317752   2.004   3.359   3.870
 4358SOL    MW417753   1.974   3.363   3.952
 4359SOL     OW17754   3.241   3.439   4.175
 4359SOL    HW217755   3.304   3.429   4.104
 4359SOL    HW317756   3.158   3.459   4.130
 4359SOL    MW417757   3.238   3.440   4.160
 4360SOL     OW17758   3.604   2.707   5.862
 4360SOL    HW217759   3.645   2.649   5.927
 4360SOL    HW317760   3.511   2.699   5.879
 4360SOL    MW417761   3.598   2.699   5.872
 4361SOL     OW17762   2.398   2.890   6.091
 4361SOL    HW217763   2.488   2.865   6.075
 4361SOL    HW317764   2.394   2.983   6.068
 4361SOL    MW417765   2.410   2.899   6.086
 4362SOL     OW17766   2.124   2.374   6.032
 4362SOL    HW217767   2.156   2.462   6.014
 4362SOL    HW317768   2.112   2.372   6.127
 4362SOL    MW417769   2.127   2.386   6.044
 4363SOL     OW17770   2.387   2.560   6.285
 4363SOL    HW217771   2.372   2.480   6.336
 4363SOL    HW317772   2.469   2.595   6.319
 4363SOL    MW417773   2.395   2.552   6.297
 4364SOL     OW17774   1.972   3.646   6.441
 4364SOL    HW217775   2.061   3.638   6.476
 4364SOL    HW317776   1.936   3.558   6.446
 4364SOL    MW417777   1.979   3.633   6.446
 4365SOL     OW17778   3.237   3.038   5.810
 4365SOL    HW217779   3.155   3.074   5.776
 4365SOL    HW317780   3.305   3.081   5.759
 4365SOL    MW417781   3.235   3.048   5.798
 4366SOL     OW17782   2.236   3.173   6.476
 4366SOL    HW217783   2.212   3.226   6.552
 4366SOL    HW317784   2.292   3.231   6.424
 4366SOL    MW417785   2.240   3.188   6.479
 4367SOL     OW17786   2.798   2.817   6.286
 4367SOL    HW217787   2.712   2.804   6.326
 4367SOL    HW317788   2.851   2.744   6.318
 4367SOL    MW417789   2.794   2.806   6.295
 4368SOL     OW17790   2.789   3.179   6.003
 4368SOL    HW217791   2.766   3.241   6.071
 4368SOL    HW317792   2.746   3.097   6.029
 4368SOL    MW417793   2.781   3.175   6.014
 4369SOL     OW17794   2.286   2.152   5.971
 4369SOL    HW217795   2.260   2.114   5.887
 4369SOL    HW317796   2.223   2.222   5.987
 4369SOL    MW417797   2.275   2.155   5.962
 4370SOL     OW17798   2.121   3.113   6.008
 4370SOL    HW217799   2.069   3.181   5.964
 4370SOL    HW317800   2.118   3.039   5.948
 4370SOL    MW417801   2.113   3.112   5.995
 4371SOL     OW17802   2.783   3.576   5.786
 4371SOL    HW217803   2.738   3.592   5.869
 4371SOL    HW317804   2.714   3.541   5.728
 4371SOL    MW417805   2.769   3.573   5.788
 4372SOL     OW17806   3.718   2.349   5.761
 4372SOL    HW217807   3.627   2.351   5.789
 4372SOL    HW317808   3.763   2.411   5.819
 4372SOL    MW417809   3.711   2.357   5.771
 4373SOL     OW17810   3.463   2.952   6.111
 4373SOL    HW217811   3.373   2.952   6.146
 4373SOL    HW317812   3.456   2.998   6.028
 4373SOL    MW417813   3.450   2.958   6.105
 4374SOL     OW17814   2.990   2.533   6.072
 4374SOL    HW217815   3.016   2.557   5.983
 4374SOL    HW317816   2.972   2.440   6.068
 4374SOL    MW417817   2.992   2.525   6.059
 4375SOL     OW17818   3.655   3.153   5.923
 4375SOL    HW217819   3.611   3.194   5.998
 4375SOL    HW317820   3.712   3.221   5.888
 4375SOL    MW417821   3.657   3.167   5.928
 4376SOL     OW17822   2.311   3.569   6.241
 4376SOL    HW217823   2.343   3.657   6.219
 4376SOL    HW317824   2.264   3.541   6.163
 4376SOL    MW417825   2.310   3.577   6.228
 4377SOL     OW17826   2.027   3.629   5.818
 4377SOL    HW217827   2.056   3.719   5.810
 4377SOL    HW317828   1.977   3.612   5.739
 4377SOL    MW417829   2.025   3.637   5.807
 4378SOL     OW17830   3.431   3.437   5.789
 4378SOL    HW217831   3.479   3.506   5.835
 4378SOL    HW317832   3.352   3.481   5.758
 4378SOL    MW417833   3.426   3.451   5.792
 4379SOL     OW17834   2.829   2.562   5.733
 4379SOL    HW217835   2.831   2.509   5.654
 4379SOL    HW317836   2.917   2.599   5.739
 4379SOL    MW417837   2.841   2.561   5.722
 4380SOL     OW17838   3.443   2.488   6.069
 4380SOL    HW217839   3.482   2.488   6.156
 4380SOL    HW317840   3.384   2.564   6.069
 4380SOL    MW417841   3.440   2.499   6.080
 4381SOL     OW17842   3.630   2.374   6.235
 4381SOL    HW217843   3.719   2.343   6.252
 4381SOL    HW317844   3.573   2.314   6.283
 4381SOL    MW417845   3.633   2.362   6.244
 4382SOL     OW17846   2.056   2.088   6.264
 4382SOL    HW217847   2.047   2.028   6.190
 4382SOL    HW317848   1.989   2.059   6.327
 4382SOL    MW417849   2.046   2.075   6.262
 4383SOL     OW17850   2.999   3.181   5.825
 4383SOL    HW217851   2.949   3.183   5.907
 4383SOL    HW317852   2.933   3.199   5.757
 4383SOL    MW417853   2.985   3.183   5.827
 4384SOL     OW17854   2.462   3.599   5.933
 4384SOL    HW217855   2.383   3.557   5.966
 4384SOL    HW317856   2.528   3.582   6.000
 4384SOL    MW417857   2.461   3.591   5.946
 4385SOL     OW17858   2.598   3.014   5.640
 4385SOL    HW217859   2.520   2.960   5.627
 4385SOL    HW317860   2.569   3.087   5.693
 4385SOL    MW417861   2.584   3.016   5.645
 4386SOL     OW17862   3.179   3.530   5.708
 4386SOL    HW217863   3.105   3.493   5.758
 4386SOL    HW317864   3.187   3.620   5.741
 4386SOL    MW417865   3.170   3.537   5.720
 4387SOL     OW17866   3.403   3.204   5.650
 4387SOL    HW217867   3.350   3.253   5.586
 4387SOL    HW317868   3.434   3.270   5.711
 4387SOL    MW417869   3.401   3.218   5.648
 4388SOL     OW17870   2.628   2.093   5.705
 4388SOL    HW217871   2.576   2.013   5.693
 4388SOL    HW317872   2.715   2.070   5.673
 4388SOL    MW417873   2.631   2.079   5.699
 4389SOL     OW17874   1.989   2.733   6.162
 4389SOL    HW217875   2.080   2.748   6.189
 4389SOL    HW317876   1.992   2.654   6.108
 4389SOL    MW417877   2.001   2.725   6.160
 4390SOL     OW17878   1.997   3.345   6.201
 4390SOL    HW217879   1.969   3.384   6.283
 4390SOL    HW317880   2.017   3.254   6.223
 4390SOL    MW417881   1.995   3.337   6.214
 4391SOL     OW17882   2.830   3.388   6.236
 4391SOL    HW217883   2.913   3.342   6.220
 4391SOL    HW317884   2.820   3.387   6.332
 4391SOL    MW417885   2.840   3.381   6.246
 4392SOL     OW17886   2.563   3.445   5.641
 4392SOL    HW217887   2.503   3.514   5.611
 4392SOL    HW317888   2.508   3.387   5.694
 4392SOL    MW417889   2.547   3.447   5.643
 4393SOL     OW17890   3.001   2.090   5.864
 4393SOL    HW217891   2.934   2.066   5.801
 4393SOL    HW317892   3.066   2.139   5.813
 4393SOL    MW417893   3.001   2.092   5.849
 4394SOL     OW17894   2.194   3.489   6.030
 4394SOL    HW217895   2.155   3.536   5.956
 4394SOL    HW317896   2.128   3.424   6.055
 4394SOL    MW417897   2.181   3.487   6.024
 4395SOL     OW17898   2.686   2.898   6.054
 4395SOL    HW217899   2.688   2.872   5.961
 4395SOL    HW317900   2.744   2.835   6.097
 4395SOL    MW417901   2.694   2.887   6.048
 4396SOL     OW17902   2.001   3.076   6.321
 4396SOL    HW217903   2.065   3.108   6.384
 4396SOL    HW317904   2.050   3.012   6.269
 4396SOL    MW417905   2.016   3.072   6.322
 4397SOL     OW17906   3.176   2.246   5.722
 4397SOL    HW217907   3.149   2.312   5.658
 4397SOL    HW317908   3.246   2.289   5.772
 4397SOL    MW417909   3.181   2.259   5.719
 4398SOL     OW17910   2.844   1.951   5.659
 4398SOL    HW217911   2.900   1.943   5.581
 4398SOL    HW317912   2.821   1.861   5.681
 4398SOL    MW417913   2.849   1.938   5.652
 4399SOL     OW17914   3.349   2.802   5.864
 4399SOL    HW217915   3.316   2.891   5.854
 4399SOL    HW317916   3.314   2.773   5.949
 4399SOL    MW417917   3.339   2.811   5.875
 4400SOL     OW17918   2.343   2.840   5.656
 4400SOL    HW217919   2.266   2.853   5.712
 4400SOL    HW317920   2.307   2.804   5.575
 4400SOL    MW417921   2.329   2.836   5.653
 4401SOL     OW17922   2.996   2.813   5.899
 4401SOL    HW217923   2.906   2.834   5.874
 4401SOL    HW317924   3.023   2.886   5.955
 4401SOL    MW417925   2.988   2.825   5.902
 4402SOL     OW17926   2.383   3.169   6.055
 4402SOL    HW217927   2.376   3.201   6.145
 4402SOL    HW317928   2.293   3.153   6.027
 4402SOL    MW417929   2.371   3.171   6.062
 4403SOL     OW17930   2.386   2.453   5.769
 4403SOL    HW217931   2.352   2.509   5.839
 4403SOL    HW317932   2.457   2.403   5.809
 4403SOL    MW417933   2.392   2.454   5.783
 4404SOL     OW17934   3.442   2.339   5.833
 4404SOL    HW217935   3.434   2.410   5.770
 4404SOL    HW317936   3.460   2.383   5.916
 4404SOL    MW417937   3.443   2.353   5.835
 4405SOL     OW17938   2.302   1.994   6.262
 4405SOL    HW217939   2.352   2.037   6.193
 4405SOL    HW317940   2.217   2.038   6.262
 4405SOL    MW417941   2.299   2.007   6.253
 4406SOL     OW17942   3.111   2.601   5.808
 4406SOL    HW217943   3.158   2.619   5.727
 4406SOL    HW317944   3.077   2.685   5.836
 4406SOL    MW417945   3.113   2.615   5.801
 4407SOL     OW17946   2.224   2.779   6.302
 4407SOL    HW217947   2.282   2.835   6.250
 4407SOL    HW317948   2.268   2.694   6.304
 4407SOL    MW417949   2.237   2.776   6.295
 4408SOL     OW17950   3.364   2.131   6.139
 4408SOL    HW217951   3.286   2.081   6.164
 4408SOL    HW317952   3.335   2.222   6.139
 4408SOL    MW417953   3.350   2.135   6.142
 4409SOL     OW17954   2.846   3.343   5.630
 4409SOL    HW217955   2.873   3.421   5.582
 4409SOL    HW317956   2.753   3.358   5.649
 4409SOL    MW417957   2.837   3.356   5.626
 4410SOL     OW17958   1.886   2.505   6.021
 4410SOL    HW217959   1.826   2.477   6.091
 4410SOL    HW317960   1.960   2.445   6.027
 4410SOL    MW417961   1.888   2.494   6.030
 4411SOL     OW17962   2.409   1.989   6.537
 4411SOL    HW217963   2.419   1.898   6.563
 4411SOL    HW317964   2.365   1.985   6.452
 4411SOL    MW417965   2.405   1.977   6.529
 4412SOL     OW17966   3.194   1.903   5.817
 4412SOL    HW217967   3.268   1.947   5.860
 4412SOL    HW317968   3.118   1.957   5.839
 4412SOL    MW417969   3.194   1.915   5.825
 4413SOL     OW17970   3.254   2.678   6.095
 4413SOL    HW217971   3.169   2.648   6.065
 4413SOL    HW317972   3.246   2.685   6.190
 4413SOL    MW417973   3.242   2.676   6.104
 4414SOL     OW17974   2.627   2.344   5.821
 4414SOL    HW217975   2.700   2.393   5.784
 4414SOL    HW317976   2.643   2.253   5.795
 4414SOL    MW417977   2.639   2.339   5.814
 4415SOL     OW17978   2.102   2.853   5.919
 4415SOL    HW217979   2.039   2.869   5.848
 4415SOL    HW317980   2.049   2.816   5.990
 4415SOL    MW417981   2.087   2.850   5.919
 4416SOL     OW17982   2.458   3.207   5.778
 4416SOL    HW217983   2.473   3.183   5.870
 4416SOL    HW317984   2.366   3.185   5.762
 4416SOL    MW417985   2.448   3.200   5.788
 4417SOL     OW17986   2.997   3.438   5.930
 4417SOL    HW217987   3.005   3.356   5.881
 4417SOL    HW317988   2.916   3.477   5.897
 4417SOL    MW417989   2.987   3.433   5.920
 4418SOL     OW17990   2.256   3.596   6.499
 4418SOL    HW217991   2.260   3.507   6.534
 4418SOL    HW317992   2.282   3.587   6.408
 4418SOL    MW417993   2.259   3.584   6.491
 4419SOL     OW17994   2.333   2.319   6.376
 4419SOL    HW217995   2.404   2.267   6.339
 4419SOL    HW317996   2.319   2.284   6.463
 4419SOL    MW417997   2.341   2.308   6.383
 4420SOL     OW17998   2.969   2.260   6.100
 4420SOL    HW217999   2.991   2.197   6.032
 4420SOL    HW318000   2.874   2.252   6.111
 4420SOL    MW418001   2.959   2.251   6.092
 4421SOL     OW18002   2.054   1.950   6.032
 4421SOL    HW218003   2.125   1.971   5.971
 4421SOL    HW318004   2.008   1.878   5.990
 4421SOL    MW418005   2.058   1.944   6.018
 4422SOL     OW18006   3.623   3.324   6.132
 4422SOL    HW218007   3.593   3.257   6.193
 4422SOL    HW318008   3.717   3.330   6.146
 4422SOL    MW418009   3.631   3.316   6.142
 4423SOL     OW18010   3.179   3.001   6.062
 4423SOL    HW218011   3.151   3.087   6.095
 4423SOL    HW318012   3.207   3.017   5.972
 4423SOL    MW418013   3.179   3.015   6.054
 4424SOL     OW18014   2.841   1.921   6.115
 4424SOL    HW218015   2.878   1.980   6.180
 4424SOL    HW318016   2.818   1.977   6.041
 4424SOL    MW418017   2.842   1.936   6.114
 4425SOL     OW18018   2.262   2.612   6.011
 4425SOL    HW218019   2.262   2.707   5.996
 4425SOL    HW318020   2.339   2.596   6.065
 4425SOL    MW418021   2.272   2.623   6.016
 4426SOL     OW18022   2.021   2.343   6.300
 4426SOL    HW218023   2.083   2.350   6.373
 4426SOL    HW318024   2.021   2.250   6.277
 4426SOL    MW418025   2.029   2.332   6.307
 4427SOL     OW18026   3.568   3.683   5.832
 4427SOL    HW218027   3.635   3.716   5.772
 4427SOL    HW318028   3.525   3.762   5.866
 4427SOL    MW418029   3.570   3.698   5.828
 4428SOL     OW18030   1.890   2.915   5.758
 4428SOL    HW218031   1.859   2.980   5.821
 4428SOL    HW318032   1.839   2.837   5.777
 4428SOL    MW418033   1.880   2.912   5.768
 4429SOL     OW18034   2.474   3.715   5.700
 4429SOL    HW218035   2.379   3.715   5.692
 4429SOL    HW318036   2.490   3.661   5.778
 4429SOL    MW418037   2.464   3.709   5.709
 4430SOL     OW18038   3.319   2.535   5.615
 4430SOL    HW218039   3.247   2.511   5.557
 4430SOL    HW318040   3.385   2.572   5.557
 4430SOL    MW418041   3.318   2.537   5.600
 4431SOL     OW18042   2.714   2.432   6.426
 4431SOL    HW218043   2.654   2.450   6.498
 4431SOL    HW318044   2.748   2.344   6.445
 4431SOL    MW418045   2.710   2.422   6.439
 4432SOL     OW18046   2.732   2.835   5.800
 4432SOL    HW218047   2.718   2.747   5.765
 4432SOL    HW318048   2.683   2.892   5.741
 4432SOL    MW418049   2.724   2.830   5.788
 4433SOL     OW18050   3.451   2.041   5.902
 4433SOL    HW218051   3.444   2.045   5.997
 4433SOL    HW318052   3.463   2.132   5.875
 4433SOL    MW418053   3.452   2.054   5.910
 4434SOL     OW18054   2.740   2.604   6.016
 4434SOL    HW218055   2.720   2.590   5.923
 4434SOL    HW318056   2.833   2.583   6.023
 4434SOL    MW418057   2.750   2.599   6.005
 4435SOL     OW18058   2.723   3.562   6.054
 4435SOL    HW218059   2.781   3.633   6.081
 4435SOL    HW318060   2.746   3.490   6.112
 4435SOL    MW418061   2.734   3.562   6.065
 4436SOL     OW18062   2.179   1.994   5.789
 4436SOL    HW218063   2.108   2.049   5.757
 4436SOL    HW318064   2.221   1.960   5.710
 4436SOL    MW418065   2.175   1.996   5.775
 4437SOL     OW18066   1.935   2.093   5.638
 4437SOL    HW218067   1.902   2.172   5.682
 4437SOL    HW318068   1.990   2.126   5.567
 4437SOL    MW418069   1.938   2.107   5.635
 4438SOL     OW18070   1.969   3.350   5.827
 4438SOL    HW218071   1.986   3.434   5.869
 4438SOL    HW318072   2.004   3.359   5.739
 4438SOL    MW418073   1.974   3.363   5.821
 4439SOL     OW18074   3.241   3.439   6.044
 4439SOL    HW218075   3.304   3.429   5.973
 4439SOL    HW318076   3.158   3.459   5.999
 4439SOL    MW418077   3.238   3.440   6.029
 4440SOL     OW18078   3.604   4.575   0.257
 4440SOL    HW218079   3.645   4.517   0.322
 4440SOL    HW318080   3.511   4.567   0.274
 4440SOL    MW418081   3.598   4.567   0.267
 4441SOL     OW18082   3.470   4.507   1.252
 4441SOL    HW218083   3.425   4.574   1.303
 4441SOL    HW318084   3.558   4.543   1.238
 4441SOL    MW418085   3.476   4.520   1.256
 4442SOL     OW18086   2.398   4.758   0.486
 4442SOL    HW218087   2.488   4.733   0.470
 4442SOL    HW318088   2.394   4.851   0.463
 4442SOL    MW418089   2.410   4.767   0.481
 4443SOL     OW18090   3.514   5.461   0.628
 4443SOL    HW218091   3.526   5.407   0.706
 4443SOL    HW318092   3.551   5.409   0.557
 4443SOL    MW418093   3.520   5.446   0.629
 4444SOL     OW18094   2.893   5.346   1.629
 4444SOL    HW218095   2.934   5.382   1.550
 4444SOL    HW318096   2.928   5.257   1.636
 4444SOL    MW418097   2.904   5.339   1.620
 4445SOL     OW18098   3.450   4.901   1.233
 4445SOL    HW218099   3.371   4.866   1.191
 4445SOL    HW318100   3.477   4.973   1.177
 4445SOL    MW418101   3.443   4.906   1.220
 4446SOL     OW18102   2.682   4.214   0.499
 4446SOL    HW218103   2.657   4.302   0.527
 4446SOL    HW318104   2.679   4.217   0.403
 4446SOL    MW418105   2.678   4.226   0.491
 4447SOL     OW18106   2.124   4.242   0.427
 4447SOL    HW218107   2.156   4.330   0.409
 4447SOL    HW318108   2.112   4.240   0.522
 4447SOL    MW418109   2.127   4.254   0.439
 4448SOL     OW18110   2.202   4.655   1.328
 4448SOL    HW218111   2.265   4.602   1.279
 4448SOL    HW318112   2.183   4.729   1.271
 4448SOL    MW418113   2.208   4.657   1.315
 4449SOL     OW18114   2.523   3.997   0.514
 4449SOL    HW218115   2.581   4.073   0.516
 4449SOL    HW318116   2.458   4.018   0.447
 4449SOL    MW418117   2.522   4.009   0.505
 4450SOL     OW18118   2.610   4.924   0.689
 4450SOL    HW218119   2.690   4.927   0.741
 4450SOL    HW318120   2.638   4.891   0.603
 4450SOL    MW418121   2.624   4.920   0.684
 4451SOL     OW18122   2.635   5.265   1.592
 4451SOL    HW218123   2.719   5.291   1.631
 4451SOL    HW318124   2.659   5.209   1.518
 4451SOL    MW418125   2.649   5.261   1.587
 4452SOL     OW18126   2.387   4.428   0.680
 4452SOL    HW218127   2.372   4.348   0.731
 4452SOL    HW318128   2.469   4.463   0.714
 4452SOL    MW418129   2.395   4.420   0.692
 4453SOL     OW18130   2.724   5.114   1.365
 4453SOL    HW218131   2.688   5.180   1.305
 4453SOL    HW318132   2.652   5.052   1.378
 4453SOL    MW418133   2.710   5.114   1.359
 4454SOL     OW18134   2.529   4.254   1.057
 4454SOL    HW218135   2.435   4.250   1.075
 4454SOL    HW318136   2.559   4.163   1.066
 4454SOL    MW418137   2.520   4.242   1.060
 4455SOL     OW18138   2.275   4.668   0.961
 4455SOL    HW218139   2.230   4.675   0.877
 4455SOL    HW318140   2.255   4.751   1.005
 4455SOL    MW418141   2.267   4.680   0.955
 4456SOL     OW18142   1.972   5.514   0.836
 4456SOL    HW218143   2.061   5.506   0.871
 4456SOL    HW318144   1.936   5.426   0.841
 4456SOL    MW418145   1.979   5.501   0.841
 4457SOL     OW18146   3.237   4.906   0.205
 4457SOL    HW218147   3.155   4.942   0.171
 4457SOL    HW318148   3.305   4.949   0.154
 4457SOL    MW418149   3.235   4.916   0.193
 4458SOL     OW18150   2.236   5.041   0.871
 4458SOL    HW218151   2.212   5.094   0.947
 4458SOL    HW318152   2.292   5.099   0.819
 4458SOL    MW418153   2.240   5.056   0.874
 4459SOL     OW18154   2.798   4.685   0.681
 4459SOL    HW218155   2.712   4.672   0.721
 4459SOL    HW318156   2.851   4.612   0.713
 4459SOL    MW418157   2.794   4.674   0.690
 4460SOL     OW18158   2.206   5.337   1.466
 4460SOL    HW218159   2.114   5.313   1.451
 4460SOL    HW318160   2.250   5.254   1.483
 4460SOL    MW418161   2.200   5.322   1.465
 4461SOL     OW18162   2.789   5.047   0.398
 4461SOL    HW218163   2.766   5.109   0.466
 4461SOL    HW318164   2.746   4.965   0.424
 4461SOL    MW418165   2.781   5.043   0.409
 4462SOL     OW18166   3.662   4.048   0.854
 4462SOL    HW218167   3.599   4.028   0.923
 4462SOL    HW318168   3.652   3.977   0.791
 4462SOL    MW418169   3.652   4.035   0.855
 4463SOL     OW18170   2.286   4.020   0.366
 4463SOL    HW218171   2.260   3.982   0.282
 4463SOL    HW318172   2.223   4.090   0.382
 4463SOL    MW418173   2.275   4.023   0.357
 4464SOL     OW18174   2.121   4.981   0.403
 4464SOL    HW218175   2.069   5.049   0.359
 4464SOL    HW318176   2.118   4.907   0.343
 4464SOL    MW418177   2.113   4.980   0.390
 4465SOL     OW18178   2.783   5.444   0.181
 4465SOL    HW218179   2.738   5.460   0.264
 4465SOL    HW318180   2.714   5.409   0.123
 4465SOL    MW418181   2.769   5.441   0.183
 4466SOL     OW18182   3.718   4.217   0.156
 4466SOL    HW218183   3.627   4.219   0.184
 4466SOL    HW318184   3.763   4.279   0.214
 4466SOL    MW418185   3.711   4.225   0.166
 4467SOL     OW18186   3.463   4.820   0.506
 4467SOL    HW218187   3.373   4.820   0.541
 4467SOL    HW318188   3.456   4.866   0.423
 4467SOL    MW418189   3.450   4.826   0.500
 4468SOL     OW18190   3.263   4.455   1.578
 4468SOL    HW218191   3.332   4.393   1.555
 4468SOL    HW318192   3.188   4.429   1.525
 4468SOL    MW418193   3.263   4.442   1.569
 4469SOL     OW18194   2.004   5.335   1.130
 4469SOL    HW218195   1.987   5.281   1.207
 4469SOL    HW318196   1.992   5.425   1.160
 4469SOL    MW418197   2.001   5.339   1.144
 4470SOL     OW18198   2.999   4.842   1.570
 4470SOL    HW218199   2.984   4.935   1.555
 4470SOL    HW318200   3.094   4.832   1.570
 4470SOL    MW418201   3.008   4.852   1.567
 4471SOL     OW18202   2.795   4.266   1.771
 4471SOL    HW218203   2.885   4.267   1.738
 4471SOL    HW318204   2.754   4.191   1.729
 4471SOL    MW418205   2.801   4.256   1.762
 4472SOL     OW18206   3.370   4.798   0.898
 4472SOL    HW218207   3.373   4.732   0.829
 4472SOL    HW318208   3.455   4.841   0.894
 4472SOL    MW418209   3.382   4.794   0.889
 4473SOL     OW18210   2.990   4.401   0.467
 4473SOL    HW218211   3.016   4.425   0.378
 4473SOL    HW318212   2.972   4.308   0.463
 4473SOL    MW418213   2.992   4.393   0.454
 4474SOL     OW18214   3.655   5.021   0.318
 4474SOL    HW218215   3.611   5.062   0.393
 4474SOL    HW318216   3.712   5.089   0.283
 4474SOL    MW418217   3.657   5.035   0.323
 4475SOL     OW18218   2.575   4.070   1.721
 4475SOL    HW218219   2.585   3.996   1.661
 4475SOL    HW318220   2.611   4.039   1.804
 4475SOL    MW418221   2.581   4.056   1.723
 4476SOL     OW18222   2.311   5.437   0.636
 4476SOL    HW218223   2.343   5.525   0.614
 4476SOL    HW318224   2.264   5.409   0.558
 4476SOL    MW418225   2.310   5.445   0.623
 4477SOL     OW18226   3.695   3.799   0.685
 4477SOL    HW218227   3.749   3.750   0.747
 4477SOL    HW318228   3.638   3.733   0.646
 4477SOL    MW418229   3.695   3.783   0.687
 4478SOL     OW18230   2.027   5.497   0.213
 4478SOL    HW218231   2.056   5.587   0.205
 4478SOL    HW318232   1.977   5.480   0.134
 4478SOL    MW418233   2.025   5.505   0.202
 4479SOL     OW18234   2.814   3.752   1.098
 4479SOL    HW218235   2.773   3.830   1.060
 4479SOL    HW318236   2.908   3.770   1.093
 4479SOL    MW418237   2.820   3.764   1.093
 4480SOL     OW18238   3.431   5.305   0.184
 4480SOL    HW218239   3.479   5.374   0.230
 4480SOL    HW318240   3.352   5.349   0.153
 4480SOL    MW418241   3.426   5.319   0.187
 4481SOL     OW18242   2.829   4.430   0.128
 4481SOL    HW218243   2.831   4.377   0.049
 4481SOL    HW318244   2.917   4.467   0.134
 4481SOL    MW418245   2.841   4.429   0.117
 4482SOL     OW18246   3.443   4.356   0.464
 4482SOL    HW218247   3.482   4.356   0.551
 4482SOL    HW318248   3.384   4.432   0.464
 4482SOL    MW418249   3.440   4.367   0.475
 4483SOL     OW18250   2.760   4.723   1.593
 4483SOL    HW218251   2.737   4.703   1.683
 4483SOL    HW318252   2.845   4.767   1.598
 4483SOL    MW418253   2.767   4.726   1.605
 4484SOL     OW18254   2.840   3.860   1.353
 4484SOL    HW218255   2.846   3.822   1.266
 4484SOL    HW318256   2.829   3.954   1.338
 4484SOL    MW418257   2.841   3.868   1.341
 4485SOL     OW18258   2.929   4.349   1.187
 4485SOL    HW218259   3.004   4.378   1.134
 4485SOL    HW318260   2.861   4.414   1.171
 4485SOL    MW418261   2.930   4.361   1.177
 4486SOL     OW18262   3.479   4.317   1.464
 4486SOL    HW218263   3.460   4.226   1.443
 4486SOL    HW318264   3.457   4.366   1.385
 4486SOL    MW418265   3.474   4.310   1.451
 4487SOL     OW18266   3.621   5.411   1.368
 4487SOL    HW218267   3.549   5.373   1.419
 4487SOL    HW318268   3.638   5.496   1.409
 4487SOL    MW418269   3.615   5.416   1.380
 4488SOL     OW18270   2.926   4.055   1.570
 4488SOL    HW218271   2.892   4.094   1.489
 4488SOL    HW318272   2.904   3.963   1.563
 4488SOL    MW418273   2.919   4.048   1.560
 4489SOL     OW18274   3.335   4.869   1.646
 4489SOL    HW218275   3.417   4.910   1.676
 4489SOL    HW318276   3.298   4.831   1.726
 4489SOL    MW418277   3.341   4.870   1.661
 4490SOL     OW18278   3.630   4.242   0.630
 4490SOL    HW218279   3.719   4.211   0.647
 4490SOL    HW318280   3.573   4.182   0.678
 4490SOL    MW418281   3.633   4.230   0.639
 4491SOL     OW18282   2.056   3.956   0.659
 4491SOL    HW218283   2.047   3.896   0.585
 4491SOL    HW318284   1.989   3.927   0.722
 4491SOL    MW418285   2.046   3.943   0.657
 4492SOL     OW18286   2.999   5.049   0.220
 4492SOL    HW218287   2.949   5.051   0.302
 4492SOL    HW318288   2.933   5.067   0.152
 4492SOL    MW418289   2.985   5.051   0.222
 4493SOL     OW18290   2.003   4.129   1.022
 4493SOL    HW218291   1.975   4.220   1.031
 4493SOL    HW318292   1.940   4.090   0.961
 4493SOL    MW418293   1.990   4.135   1.016
 4494SOL     OW18294   2.462   5.467   0.328
 4494SOL    HW218295   2.383   5.425   0.361
 4494SOL    HW318296   2.528   5.450   0.395
 4494SOL    MW418297   2.461   5.459   0.341
 4495SOL     OW18298   3.590   4.987   1.725
 4495SOL    HW218299   3.640   4.913   1.757
 4495SOL    HW318300   3.536   5.014   1.800
 4495SOL    MW418301   3.590   4.981   1.738
 4496SOL     OW18302   2.598   4.882   0.035
 4496SOL    HW218303   2.520   4.828   0.022
 4496SOL    HW318304   2.569   4.955   0.088
 4496SOL    MW418305   2.584   4.884   0.040
 4497SOL     OW18306   3.724   4.622   1.227
 4497SOL    HW218307   3.740   4.660   1.140
 4497SOL    HW318308   3.758   4.688   1.288
 4497SOL    MW418309   3.731   4.635   1.223
 4498SOL     OW18310   3.516   5.331   0.896
 4498SOL    HW218311   3.545   5.398   0.957
 4498SOL    HW318312   3.497   5.255   0.951
 4498SOL    MW418313   3.518   5.331   0.911
 4499SOL     OW18314   3.179   5.398   0.103
 4499SOL    HW218315   3.105   5.361   0.153
 4499SOL    HW318316   3.187   5.488   0.136
 4499SOL    MW418317   3.170   5.405   0.115
 4500SOL     OW18318   1.987   4.404   1.192
 4500SOL    HW218319   2.049   4.434   1.258
 4500SOL    HW318320   1.921   4.473   1.186
 4500SOL    MW418321   1.986   4.417   1.199
 4501SOL     OW18322   3.403   5.072   0.045
 4501SOL    HW218323   3.350   5.121  -0.019
 4501SOL    HW318324   3.434   5.138   0.106
 4501SOL    MW418325   3.401   5.086   0.043
 4502SOL     OW18326   2.628   3.961   0.100
 4502SOL    HW218327   2.576   3.881   0.088
 4502SOL    HW318328   2.715   3.938   0.068
 4502SOL    MW418329   2.631   3.947   0.094
 4503SOL     OW18330   2.082   5.513   1.644
 4503SOL    HW218331   2.056   5.581   1.582
 4503SOL    HW318332   2.130   5.450   1.592
 4503SOL    MW418333   2.084   5.513   1.630
 4504SOL     OW18334   2.134   4.832   1.151
 4504SOL    HW218335   2.187   4.907   1.176
 4504SOL    HW318336   2.053   4.870   1.117
 4504SOL    MW418337   2.130   4.847   1.151
 4505SOL     OW18338   2.674   4.736   1.139
 4505SOL    HW218339   2.702   4.645   1.151
 4505SOL    HW318340   2.603   4.730   1.075
 4505SOL    MW418341   2.667   4.724   1.134
 4506SOL     OW18342   1.989   4.601   0.557
 4506SOL    HW218343   2.080   4.616   0.584
 4506SOL    HW318344   1.992   4.522   0.503
 4506SOL    MW418345   2.001   4.593   0.555
 4507SOL     OW18346   2.225   4.309   1.811
 4507SOL    HW218347   2.172   4.389   1.818
 4507SOL    HW318348   2.295   4.321   1.876
 4507SOL    MW418349   2.227   4.322   1.819
 4508SOL     OW18350   2.611   3.859   1.518
 4508SOL    HW218351   2.588   3.767   1.520
 4508SOL    HW318352   2.697   3.861   1.475
 4508SOL    MW418353   2.618   3.849   1.514
 4509SOL     OW18354   2.295   4.383   1.557
 4509SOL    HW218355   2.375   4.433   1.543
 4509SOL    HW318356   2.286   4.377   1.652
 4509SOL    MW418357   2.304   4.389   1.567
 4510SOL     OW18358   2.616   5.533   0.931
 4510SOL    HW218359   2.705   5.548   0.961
 4510SOL    HW318360   2.611   5.580   0.847
 4510SOL    MW418361   2.626   5.541   0.924
 4511SOL     OW18362   3.272   3.908   1.828
 4511SOL    HW218363   3.328   3.835   1.854
 4511SOL    HW318364   3.242   3.946   1.910
 4511SOL    MW418365   3.276   3.903   1.841
 4512SOL     OW18366   1.997   5.213   0.596
 4512SOL    HW218367   1.969   5.252   0.678
 4512SOL    HW318368   2.017   5.122   0.618
 4512SOL    MW418369   1.995   5.205   0.609
 4513SOL     OW18370   2.830   5.256   0.631
 4513SOL    HW218371   2.913   5.210   0.615
 4513SOL    HW318372   2.820   5.255   0.727
 4513SOL    MW418373   2.840   5.249   0.641
 4514SOL     OW18374   3.662   4.401   0.945
 4514SOL    HW218375   3.751   4.431   0.927
 4514SOL    HW318376   3.642   4.341   0.874
 4514SOL    MW418377   3.671   4.398   0.934
 4515SOL     OW18378   3.513   4.580   1.825
 4515SOL    HW218379   3.568   4.504   1.806
 4515SOL    HW318380   3.515   4.588   1.920
 4515SOL    MW418381   3.521   4.571   1.833
 4516SOL     OW18382   2.563   5.313   0.036
 4516SOL    HW218383   2.503   5.382   0.006
 4516SOL    HW318384   2.508   5.255   0.089
 4516SOL    MW418385   2.547   5.315   0.038
 4517SOL     OW18386   3.001   3.958   0.259
 4517SOL    HW218387   2.934   3.934   0.196
 4517SOL    HW318388   3.066   4.007   0.208
 4517SOL    MW418389   3.001   3.960   0.244
 4518SOL     OW18390   2.808   4.142   1.344
 4518SOL    HW218391   2.727   4.183   1.372
 4518SOL    HW318392   2.855   4.210   1.296
 4518SOL    MW418393   2.803   4.157   1.342
 4519SOL     OW18394   3.068   4.480   0.967
 4519SOL    HW218395   3.081   4.574   0.977
 4519SOL    HW318396   3.029   4.470   0.881
 4519SOL    MW418397   3.064   4.491   0.957
 4520SOL     OW18398   2.520   4.675   0.771
 4520SOL    HW218399   2.431   4.666   0.804
 4520SOL    HW318400   2.524   4.765   0.739
 4520SOL    MW418401   2.509   4.686   0.771
 4521SOL     OW18402   3.319   4.258   0.766
 4521SOL    HW218403   3.264   4.179   0.765
 4521SOL    HW318404   3.301   4.299   0.850
 4521SOL    MW418405   3.309   4.253   0.775
 4522SOL     OW18406   2.290   3.945   1.583
 4522SOL    HW218407   2.211   3.963   1.635
 4522SOL    HW318408   2.285   4.007   1.510
 4522SOL    MW418409   2.280   3.955   1.580
 4523SOL     OW18410   2.938   4.462   0.723
 4523SOL    HW218411   2.875   4.394   0.747
 4523SOL    HW318412   2.958   4.443   0.631
 4523SOL    MW418413   2.932   4.449   0.715
 4524SOL     OW18414   2.194   5.357   0.425
 4524SOL    HW218415   2.155   5.404   0.351
 4524SOL    HW318416   2.128   5.292   0.450
 4524SOL    MW418417   2.181   5.355   0.419
 4525SOL     OW18418   2.686   4.766   0.449
 4525SOL    HW218419   2.688   4.740   0.356
 4525SOL    HW318420   2.744   4.703   0.492
 4525SOL    MW418421   2.694   4.755   0.443
 4526SOL     OW18422   3.239   5.326   1.221
 4526SOL    HW218423   3.164   5.372   1.259
 4526SOL    HW318424   3.221   5.233   1.238
 4526SOL    MW418425   3.228   5.320   1.229
 4527SOL     OW18426   3.243   5.534   0.651
 4527SOL    HW218427   3.186   5.487   0.590
 4527SOL    HW318428   3.329   5.495   0.638
 4527SOL    MW418429   3.246   5.525   0.641
 4528SOL     OW18430   3.196   4.010   0.782
 4528SOL    HW218431   3.224   3.942   0.843
 4528SOL    HW318432   3.110   3.981   0.752
 4528SOL    MW418433   3.189   3.997   0.786
 4529SOL     OW18434   2.001   4.944   0.716
 4529SOL    HW218435   2.065   4.976   0.779
 4529SOL    HW318436   2.050   4.880   0.664
 4529SOL    MW418437   2.016   4.940   0.717
 4530SOL     OW18438   2.501   5.020   1.698
 4530SOL    HW218439   2.549   5.103   1.685
 4530SOL    HW318440   2.558   4.968   1.754
 4530SOL    MW418441   2.515   5.024   1.704
 4531SOL     OW18442   2.077   5.262   1.838
 4531SOL    HW218443   2.133   5.186   1.853
 4531SOL    HW318444   2.026   5.240   1.760
 4531SOL    MW418445   2.077   5.249   1.829
 4532SOL     OW18446   3.176   4.114   0.117
 4532SOL    HW218447   3.149   4.180   0.053
 4532SOL    HW318448   3.246   4.157   0.167
 4532SOL    MW418449   3.181   4.127   0.114
 4533SOL     OW18450   3.349   4.670   0.259
 4533SOL    HW218451   3.316   4.759   0.249
 4533SOL    HW318452   3.314   4.641   0.344
 4533SOL    MW418453   3.339   4.679   0.270
 4534SOL     OW18454   2.962   5.099   1.447
 4534SOL    HW218455   2.873   5.105   1.415
 4534SOL    HW318456   3.006   5.178   1.415
 4534SOL    MW418457   2.957   5.109   1.439
 4535SOL     OW18458   2.255   3.767   1.789
 4535SOL    HW218459   2.183   3.732   1.737
 4535SOL    HW318460   2.313   3.808   1.724
 4535SOL    MW418461   2.253   3.768   1.774
 4536SOL     OW18462   2.279   5.257   1.088
 4536SOL    HW218463   2.324   5.319   1.145
 4536SOL    HW318464   2.186   5.276   1.101
 4536SOL    MW418465   2.272   5.267   1.095
 4537SOL     OW18466   3.719   4.786   1.442
 4537SOL    HW218467   3.634   4.799   1.401
 4537SOL    HW318468   3.699   4.750   1.529
 4537SOL    MW418469   3.706   4.782   1.447
 4538SOL     OW18470   2.701   5.325   1.196
 4538SOL    HW218471   2.725   5.314   1.105
 4538SOL    HW318472   2.624   5.382   1.194
 4538SOL    MW418473   2.693   5.330   1.185
 4539SOL     OW18474   2.343   4.708   0.051
 4539SOL    HW218475   2.266   4.721   0.107
 4539SOL    HW318476   2.307   4.672  -0.030
 4539SOL    MW418477   2.329   4.704   0.048
 4540SOL     OW18478   2.996   4.681   0.294
 4540SOL    HW218479   2.906   4.702   0.269
 4540SOL    HW318480   3.023   4.754   0.350
 4540SOL    MW418481   2.988   4.693   0.297
 4541SOL     OW18482   2.496   5.030   0.986
 4541SOL    HW218483   2.489   5.009   1.080
 4541SOL    HW318484   2.414   4.998   0.949
 4541SOL    MW418485   2.484   5.024   0.993
 4542SOL     OW18486   3.360   4.040   1.388
 4542SOL    HW218487   3.307   4.042   1.468
 4542SOL    HW318488   3.345   3.953   1.351
 4542SOL    MW418489   3.352   4.030   1.393
 4543SOL     OW18490   3.696   3.964   1.261
 4543SOL    HW218491   3.677   4.031   1.196
 4543SOL    HW318492   3.753   3.902   1.216
 4543SOL    MW418493   3.700   3.965   1.247
 4544SOL     OW18494   1.942   5.122   1.649
 4544SOL    HW218495   1.986   5.055   1.595
 4544SOL    HW318496   1.857   5.084   1.669
 4544SOL    MW418497   1.937   5.108   1.645
 4545SOL     OW18498   2.625   3.797   0.701
 4545SOL    HW218499   2.554   3.858   0.683
 4545SOL    HW318500   2.676   3.794   0.620
 4545SOL    MW418501   2.621   3.803   0.688
 4546SOL     OW18502   2.383   5.037   0.450
 4546SOL    HW218503   2.376   5.069   0.540
 4546SOL    HW318504   2.293   5.021   0.422
 4546SOL    MW418505   2.371   5.039   0.457
 4547SOL     OW18506   2.978   5.430   1.359
 4547SOL    HW218507   2.898   5.415   1.309
 4547SOL    HW318508   2.985   5.525   1.366
 4547SOL    MW418509   2.969   5.441   1.353
 4548SOL     OW18510   3.092   5.395   0.849
 4548SOL    HW218511   3.139   5.468   0.808
 4548SOL    HW318512   3.013   5.434   0.885
 4548SOL    MW418513   3.087   5.410   0.848
 4549SOL     OW18514   3.500   5.490   1.124
 4549SOL    HW218515   3.543   5.460   1.204
 4549SOL    HW318516   3.419   5.438   1.121
 4549SOL    MW418517   3.495   5.479   1.134
 4550SOL     OW18518   2.585   4.454   1.831
 4550SOL    HW218519   2.655   4.396   1.803
 4550SOL    HW318520   2.528   4.399   1.886
 4550SOL    MW418521   2.587   4.441   1.835
 4551SOL     OW18522   3.372   4.666   1.464
 4551SOL    HW218523   3.377   4.719   1.544
 4551SOL    HW318524   3.334   4.583   1.492
 4551SOL    MW418525   3.368   4.661   1.479
 4552SOL     OW18526   3.012   3.801   1.710
 4552SOL    HW218527   3.007   3.708   1.691
 4552SOL    HW318528   3.095   3.812   1.756
 4552SOL    MW418529   3.020   3.790   1.714
 4553SOL     OW18530   2.386   4.321   0.164
 4553SOL    HW218531   2.352   4.377   0.234
 4553SOL    HW318532   2.457   4.271   0.204
 4553SOL    MW418533   2.392   4.322   0.178
 4554SOL     OW18534   3.482   5.072   0.986
 4554SOL    HW218535   3.517   5.054   0.899
 4554SOL    HW318536   3.387   5.073   0.973
 4554SOL    MW418537   3.474   5.069   0.973
 4555SOL     OW18538   2.911   4.720   1.355
 4555SOL    HW218539   2.954   4.755   1.433
 4555SOL    HW318540   2.894   4.797   1.301
 4555SOL    MW418541   2.914   4.735   1.358
 4556SOL     OW18542   3.442   4.207   0.228
 4556SOL    HW218543   3.434   4.278   0.165
 4556SOL    HW318544   3.460   4.251   0.311
 4556SOL    MW418545   3.443   4.221   0.230
 4557SOL     OW18546   2.302   3.862   0.657
 4557SOL    HW218547   2.352   3.905   0.588
 4557SOL    HW318548   2.217   3.906   0.657
 4557SOL    MW418549   2.299   3.875   0.648
 4558SOL     OW18550   2.061   4.924   1.517
 4558SOL    HW218551   2.089   4.877   1.595
 4558SOL    HW318552   1.982   4.879   1.488
 4558SOL    MW418553   2.054   4.913   1.523
 4559SOL     OW18554   2.569   4.251   1.484
 4559SOL    HW218555   2.541   4.339   1.508
 4559SOL    HW318556   2.538   4.195   1.555
 4559SOL    MW418557   2.561   4.254   1.496
 4560SOL     OW18558   3.111   4.469   0.203
 4560SOL    HW218559   3.158   4.487   0.122
 4560SOL    HW318560   3.077   4.553   0.231
 4560SOL    MW418561   3.113   4.483   0.196
 4561SOL     OW18562   2.224   4.647   0.697
 4561SOL    HW218563   2.282   4.703   0.645
 4561SOL    HW318564   2.268   4.562   0.699
 4561SOL    MW418565   2.237   4.644   0.690
 4562SOL     OW18566   3.364   3.999   0.534
 4562SOL    HW218567   3.286   3.949   0.559
 4562SOL    HW318568   3.335   4.090   0.534
 4562SOL    MW418569   3.350   4.003   0.537
 4563SOL     OW18570   2.950   3.961   0.693
 4563SOL    HW218571   2.970   4.036   0.637
 4563SOL    HW318572   2.930   4.000   0.778
 4563SOL    MW418573   2.951   3.977   0.697
 4564SOL     OW18574   2.846   5.211   0.025
 4564SOL    HW218575   2.873   5.289  -0.023
 4564SOL    HW318576   2.753   5.226   0.044
 4564SOL    MW418577   2.837   5.224   0.021
 4565SOL     OW18578   3.710   4.734   1.712
 4565SOL    HW218579   3.623   4.714   1.748
 4565SOL    HW318580   3.764   4.660   1.737
 4565SOL    MW418581   3.705   4.723   1.720
 4566SOL     OW18582   1.931   5.247   0.869
 4566SOL    HW218583   1.963   5.251   0.960
 4566SOL    HW318584   1.836   5.255   0.877
 4566SOL    MW418585   1.923   5.250   0.882
 4567SOL     OW18586   1.886   4.373   0.416
 4567SOL    HW218587   1.826   4.345   0.486
 4567SOL    HW318588   1.960   4.313   0.422
 4567SOL    MW418589   1.888   4.362   0.425
 4568SOL     OW18590   3.454   5.585   1.850
 4568SOL    HW218591   3.499   5.509   1.815
 4568SOL    HW318592   3.492   5.598   1.937
 4568SOL    MW418593   3.464   5.578   1.856
 4569SOL     OW18594   3.054   5.104   0.576
 4569SOL    HW218595   3.077   5.055   0.654
 4569SOL    HW318596   3.135   5.146   0.548
 4569SOL    MW418597   3.067   5.104   0.583
 4570SOL     OW18598   2.312   4.112   1.305
 4570SOL    HW218599   2.345   4.193   1.345
 4570SOL    HW318600   2.285   4.138   1.217
 4570SOL    MW418601   2.311   4.126   1.299
 4571SOL     OW18602   2.266   4.079   1.041
 4571SOL    HW218603   2.296   3.993   1.012
 4571SOL    HW318604   2.171   4.072   1.044
 4571SOL    MW418605   2.258   4.068   1.039
 4572SOL     OW18606   3.095   4.288   1.732
 4572SOL    HW218607   3.147   4.223   1.685
 4572SOL    HW318608   3.053   4.339   1.662
 4572SOL    MW418609   3.096   4.285   1.715
 4573SOL     OW18610   3.194   4.083   1.593
 4573SOL    HW218611   3.101   4.067   1.580
 4573SOL    HW318612   3.220   4.021   1.661
 4573SOL    MW418613   3.184   4.073   1.600
 4574SOL     OW18614   2.409   3.857   0.932
 4574SOL    HW218615   2.419   3.766   0.958
 4574SOL    HW318616   2.365   3.853   0.847
 4574SOL    MW418617   2.405   3.845   0.924
 4575SOL     OW18618   2.503   5.472   1.478
 4575SOL    HW218619   2.420   5.457   1.523
 4575SOL    HW318620   2.562   5.405   1.513
 4575SOL    MW418621   2.501   5.462   1.488
 4576SOL     OW18622   3.560   4.179   1.103
 4576SOL    HW218623   3.493   4.212   1.163
 4576SOL    HW318624   3.603   4.257   1.069
 4576SOL    MW418625   3.558   4.194   1.107
 4577SOL     OW18626   3.738   4.899   1.073
 4577SOL    HW218627   3.731   4.839   0.998
 4577SOL    HW318628   3.664   4.959   1.062
 4577SOL    MW418629   3.728   4.899   1.062
 4578SOL     OW18630   3.120   4.761   0.991
 4578SOL    HW218631   3.134   4.733   1.082
 4578SOL    HW318632   3.206   4.792   0.963
 4578SOL    MW418633   3.133   4.762   1.000
 4579SOL     OW18634   3.203   4.256   1.270
 4579SOL    HW218635   3.224   4.257   1.177
 4579SOL    HW318636   3.248   4.178   1.303
 4579SOL    MW418637   3.210   4.246   1.262
 4580SOL     OW18638   3.696   4.387   1.812
 4580SOL    HW218639   3.733   4.332   1.881
 4580SOL    HW318640   3.721   4.344   1.730
 4580SOL    MW418641   3.703   4.375   1.811
 4581SOL     OW18642   3.243   4.685   1.863
 4581SOL    HW218643   3.309   4.633   1.817
 4581SOL    HW318644   3.263   4.672   1.956
 4581SOL    MW418645   3.254   4.676   1.870
 4582SOL     OW18646   3.194   3.771   0.212
 4582SOL    HW218647   3.268   3.815   0.255
 4582SOL    HW318648   3.118   3.825   0.234
 4582SOL    MW418649   3.194   3.783   0.220
 4583SOL     OW18650   3.254   4.546   0.490
 4583SOL    HW218651   3.169   4.516   0.460
 4583SOL    HW318652   3.246   4.553   0.585
 4583SOL    MW418653   3.242   4.544   0.499
 4584SOL     OW18654   2.330   5.009   1.221
 4584SOL    HW218655   2.342   5.036   1.312
 4584SOL    HW318656   2.311   5.090   1.174
 4584SOL    MW418657   2.329   5.024   1.226
 4585SOL     OW18658   2.614   3.989   1.044
 4585SOL    HW218659   2.587   3.991   1.135
 4585SOL    HW318660   2.544   3.941   0.999
 4585SOL    MW418661   2.602   3.985   1.051
 4586SOL     OW18662   2.468   5.481   1.206
 4586SOL    HW218663   2.520   5.558   1.183
 4586SOL    HW318664   2.477   5.473   1.301
 4586SOL    MW418665   2.477   5.488   1.217
 4587SOL     OW18666   3.370   5.066   1.438
 4587SOL    HW218667   3.355   4.995   1.501
 4587SOL    HW318668   3.416   5.024   1.366
 4587SOL    MW418669   3.376   5.050   1.438
 4588SOL     OW18670   2.444   4.797   1.555
 4588SOL    HW218671   2.481   4.802   1.467
 4588SOL    HW318672   2.483   4.870   1.602
 4588SOL    MW418673   2.454   4.807   1.550
 4589SOL     OW18674   2.624   4.840   1.367
 4589SOL    HW218675   2.683   4.786   1.420
 4589SOL    HW318676   2.639   4.812   1.277
 4589SOL    MW418677   2.634   4.829   1.363
 4590SOL     OW18678   2.627   4.212   0.216
 4590SOL    HW218679   2.700   4.261   0.179
 4590SOL    HW318680   2.643   4.121   0.190
 4590SOL    MW418681   2.639   4.207   0.209
 4591SOL     OW18682   3.435   5.329   1.539
 4591SOL    HW218683   3.477   5.314   1.624
 4591SOL    HW318684   3.426   5.242   1.501
 4591SOL    MW418685   3.439   5.317   1.546
 4592SOL     OW18686   3.095   3.808   1.130
 4592SOL    HW218687   3.150   3.817   1.052
 4592SOL    HW318688   3.150   3.842   1.201
 4592SOL    MW418689   3.109   3.813   1.129
 4593SOL     OW18690   2.102   4.721   0.314
 4593SOL    HW218691   2.039   4.737   0.243
 4593SOL    HW318692   2.049   4.684   0.385
 4593SOL    MW418693   2.087   4.718   0.314
 4594SOL     OW18694   2.458   5.075   0.173
 4594SOL    HW218695   2.473   5.051   0.265
 4594SOL    HW318696   2.366   5.053   0.157
 4594SOL    MW418697   2.448   5.068   0.183
 4595SOL     OW18698   2.997   5.306   0.325
 4595SOL    HW218699   3.005   5.224   0.276
 4595SOL    HW318700   2.916   5.345   0.292
 4595SOL    MW418701   2.987   5.301   0.315
 4596SOL     OW18702   2.256   5.464   0.894
 4596SOL    HW218703   2.260   5.375   0.929
 4596SOL    HW318704   2.282   5.455   0.803
 4596SOL    MW418705   2.259   5.452   0.886
 4597SOL     OW18706   2.873   4.942   1.137
 4597SOL    HW218707   2.805   4.876   1.153
 4597SOL    HW318708   2.891   4.936   1.044
 4597SOL    MW418709   2.866   4.933   1.128
 4598SOL     OW18710   1.962   5.217   1.388
 4598SOL    HW218711   1.952   5.175   1.474
 4598SOL    HW318712   1.883   5.270   1.378
 4598SOL    MW418713   1.951   5.218   1.399
 4599SOL     OW18714   2.866   4.081   0.958
 4599SOL    HW218715   2.796   4.033   1.003
 4599SOL    HW318716   2.898   4.144   1.022
 4599SOL    MW418717   2.861   4.083   0.972
 4600SOL     OW18718   2.517   4.517   1.578
 4600SOL    HW218719   2.510   4.612   1.566
 4600SOL    HW318720   2.526   4.506   1.673
 4600SOL    MW418721   2.518   4.529   1.588
 4601SOL     OW18722   2.238   5.032   1.836
 4601SOL    HW218723   2.310   5.034   1.773
 4601SOL    HW318724   2.208   4.941   1.835
 4601SOL    MW418725   2.243   5.021   1.828
 4602SOL     OW18726   3.322   3.795   1.303
 4602SOL    HW218727   3.393   3.741   1.267
 4602SOL    HW318728   3.321   3.774   1.396
 4602SOL    MW418729   3.331   3.786   1.311
 4603SOL     OW18730   3.522   5.325   1.787
 4603SOL    HW218731   3.495   5.322   1.878
 4603SOL    HW318732   3.618   5.329   1.790
 4603SOL    MW418733   3.532   5.325   1.799
 4604SOL     OW18734   2.333   4.187   0.771
 4604SOL    HW218735   2.404   4.135   0.734
 4604SOL    HW318736   2.319   4.152   0.858
 4604SOL    MW418737   2.341   4.176   0.778
 4605SOL     OW18738   1.888   5.522   1.843
 4605SOL    HW218739   1.938   5.500   1.765
 4605SOL    HW318740   1.896   5.617   1.851
 4605SOL    MW418741   1.896   5.531   1.834
 4606SOL     OW18742   2.649   5.280   0.847
 4606SOL    HW218743   2.577   5.217   0.860
 4606SOL    HW318744   2.610   5.365   0.865
 4606SOL    MW418745   2.633   5.283   0.850
 4607SOL     OW18746   2.969   4.128   0.495
 4607SOL    HW218747   2.991   4.065   0.427
 4607SOL    HW318748   2.874   4.120   0.506
 4607SOL    MW418749   2.959   4.119   0.487
 4608SOL     OW18750   2.054   3.818   0.427
 4608SOL    HW218751   2.125   3.839   0.366
 4608SOL    HW318752   2.008   3.746   0.385
 4608SOL    MW418753   2.058   3.812   0.413
 4609SOL     OW18754   1.885   4.285   1.570
 4609SOL    HW218755   1.949   4.351   1.545
 4609SOL    HW318756   1.804   4.312   1.527
 4609SOL    MW418757   1.883   4.297   1.562
 4610SOL     OW18758   3.623   5.192   0.527
 4610SOL    HW218759   3.593   5.125   0.588
 4610SOL    HW318760   3.717   5.198   0.541
 4610SOL    MW418761   3.631   5.184   0.537
 4611SOL     OW18762   3.179   4.869   0.457
 4611SOL    HW218763   3.151   4.955   0.490
 4611SOL    HW318764   3.207   4.885   0.367
 4611SOL    MW418765   3.179   4.883   0.449
 4612SOL     OW18766   2.841   3.789   0.510
 4612SOL    HW218767   2.878   3.848   0.575
 4612SOL    HW318768   2.818   3.845   0.436
 4612SOL    MW418769   2.842   3.804   0.509
 4613SOL     OW18770   3.694   4.671   0.932
 4613SOL    HW218771   3.685   4.703   0.843
 4613SOL    HW318772   3.647   4.587   0.932
 4613SOL    MW418773   3.687   4.664   0.922
 4614SOL     OW18774   2.070   4.511   1.511
 4614SOL    HW218775   2.091   4.580   1.449
 4614SOL    HW318776   2.150   4.458   1.516
 4614SOL    MW418777   2.083   4.512   1.505
 4615SOL     OW18778   3.606   4.602   0.633
 4615SOL    HW218779   3.700   4.591   0.621
 4615SOL    HW318780   3.582   4.674   0.574
 4615SOL    MW418781   3.616   4.610   0.624
 4616SOL     OW18782   2.055   4.526   1.778
 4616SOL    HW218783   1.981   4.470   1.804
 4616SOL    HW318784   2.050   4.529   1.683
 4616SOL    MW418785   2.044   4.519   1.768
 4617SOL     OW18786   2.221   3.813   1.228
 4617SOL    HW218787   2.264   3.897   1.248
 4617SOL    HW318788   2.294   3.751   1.221
 4617SOL    MW418789   2.236   3.816   1.229
 4618SOL     OW18790   2.262   4.480   0.406
 4618SOL    HW218791   2.262   4.575   0.391
 4618SOL    HW318792   2.339   4.464   0.460
 4618SOL    MW418793   2.272   4.491   0.411
 4619SOL     OW18794   3.038   4.339   1.470
 4619SOL    HW218795   3.074   4.312   1.386
 4619SOL    HW318796   2.951   4.373   1.449
 4619SOL    MW418797   3.032   4.340   1.457
 4620SOL     OW18798   2.021   4.211   0.695
 4620SOL    HW218799   2.083   4.218   0.768
 4620SOL    HW318800   2.021   4.118   0.672
 4620SOL    MW418801   2.029   4.200   0.702
 4621SOL     OW18802   3.568   5.551   0.227
 4621SOL    HW218803   3.635   5.584   0.167
 4621SOL    HW318804   3.525   5.630   0.261
 4621SOL    MW418805   3.570   5.566   0.223
 4622SOL     OW18806   2.703   4.472   1.179
 4622SOL    HW218807   2.661   4.390   1.155
 4622SOL    HW318808   2.704   4.471   1.275
 4622SOL    MW418809   2.696   4.461   1.188
 4623SOL     OW18810   3.374   5.605   1.578
 4623SOL    HW218811   3.377   5.511   1.561
 4623SOL    HW318812   3.397   5.613   1.670
 4623SOL    MW418813   3.377   5.593   1.588
 4624SOL     OW18814   2.507   3.942   1.284
 4624SOL    HW218815   2.438   4.005   1.305
 4624SOL    HW318816   2.534   3.906   1.369
 4624SOL    MW418817   2.501   3.945   1.297
 4625SOL     OW18818   1.890   4.783   0.153
 4625SOL    HW218819   1.859   4.848   0.216
 4625SOL    HW318820   1.839   4.705   0.172
 4625SOL    MW418821   1.880   4.780   0.163
 4626SOL     OW18822   3.302   3.795   0.901
 4626SOL    HW218823   3.390   3.804   0.938
 4626SOL    HW318824   3.312   3.736   0.827
 4626SOL    MW418825   3.316   3.789   0.895
 4627SOL     OW18826   3.334   4.534   0.745
 4627SOL    HW218827   3.414   4.549   0.694
 4627SOL    HW318828   3.327   4.439   0.751
 4627SOL    MW418829   3.343   4.523   0.740
 4628SOL     OW18830   2.474   5.583   0.095
 4628SOL    HW218831   2.379   5.583   0.087
 4628SOL    HW318832   2.490   5.529   0.173
 4628SOL    MW418833   2.464   5.577   0.104
 4629SOL     OW18834   2.784   4.460   1.442
 4629SOL    HW218835   2.853   4.527   1.439
 4629SOL    HW318836   2.717   4.498   1.498
 4629SOL    MW418837   2.785   4.473   1.449
 4630SOL     OW18838   2.202   4.760   1.690
 4630SOL    HW218839   2.156   4.676   1.692
 4630SOL    HW318840   2.259   4.754   1.614
 4630SOL    MW418841   2.204   4.748   1.682
 4631SOL     OW18842   3.319   4.403   0.011
 4631SOL    HW218843   3.247   4.379  -0.047
 4631SOL    HW318844   3.385   4.440  -0.047
 4631SOL    MW418845   3.318   4.405  -0.004
 4632SOL     OW18846   2.453   5.135   0.691
 4632SOL    HW218847   2.518   5.068   0.712
 4632SOL    HW318848   2.505   5.212   0.668
 4632SOL    MW418849   2.468   5.137   0.690
 4633SOL     OW18850   2.714   4.300   0.821
 4633SOL    HW218851   2.654   4.318   0.893
 4633SOL    HW318852   2.748   4.212   0.840
 4633SOL    MW418853   2.710   4.290   0.834
 4634SOL     OW18854   3.655   3.799   1.490
 4634SOL    HW218855   3.576   3.845   1.518
 4634SOL    HW318856   3.690   3.853   1.419
 4634SOL    MW418857   3.649   3.812   1.484
 4635SOL     OW18858   2.939   4.883   0.840
 4635SOL    HW218859   3.031   4.864   0.858
 4635SOL    HW318860   2.912   4.813   0.780
 4635SOL    MW418861   2.947   4.871   0.834
 4636SOL     OW18862   2.732   4.703   0.195
 4636SOL    HW218863   2.718   4.615   0.160
 4636SOL    HW318864   2.683   4.760   0.136
 4636SOL    MW418865   2.724   4.698   0.183
 4637SOL     OW18866   3.213   5.121   0.936
 4637SOL    HW218867   3.186   5.205   0.901
 4637SOL    HW318868   3.173   5.116   1.023
 4637SOL    MW418869   3.206   5.130   0.942
 4638SOL     OW18870   3.132   5.069   1.204
 4638SOL    HW218871   3.143   5.036   1.293
 4638SOL    HW318872   3.051   5.028   1.173
 4638SOL    MW418873   3.122   5.061   1.210
 4639SOL     OW18874   2.145   4.427   0.974
 4639SOL    HW218875   2.095   4.426   1.055
 4639SOL    HW318876   2.165   4.519   0.958
 4639SOL    MW418877   2.141   4.439   0.982
 4640SOL     OW18878   3.212   5.191   1.736
 4640SOL    HW218879   3.212   5.285   1.752
 4640SOL    HW318880   3.257   5.181   1.652
 4640SOL    MW418881   3.218   5.201   1.727
 4641SOL     OW18882   3.451   3.909   0.297
 4641SOL    HW218883   3.444   3.913   0.392
 4641SOL    HW318884   3.463   4.000   0.270
 4641SOL    MW418885   3.452   3.922   0.305
 4642SOL     OW18886   2.740   4.472   0.411
 4642SOL    HW218887   2.720   4.458   0.318
 4642SOL    HW318888   2.833   4.451   0.418
 4642SOL    MW418889   2.750   4.467   0.400
 4643SOL     OW18890   2.067   4.095   1.715
 4643SOL    HW218891   2.024   4.154   1.652
 4643SOL    HW318892   2.135   4.150   1.755
 4643SOL    MW418893   2.071   4.110   1.712
 4644SOL     OW18894   3.179   4.715   1.260
 4644SOL    HW218895   3.242   4.712   1.333
 4644SOL    HW318896   3.095   4.733   1.302
 4644SOL    MW418897   3.175   4.717   1.275
 4645SOL     OW18898   2.723   5.430   0.449
 4645SOL    HW218899   2.781   5.501   0.476
 4645SOL    HW318900   2.746   5.358   0.507
 4645SOL    MW418901   2.734   5.430   0.460
 4646SOL     OW18902   3.518   3.892   1.039
 4646SOL    HW218903   3.563   3.810   1.058
 4646SOL    HW318904   3.538   3.948   1.115
 4646SOL    MW418905   3.528   3.888   1.051
 4647SOL     OW18906   1.966   3.735   1.138
 4647SOL    HW218907   1.957   3.736   1.043
 4647SOL    HW318908   2.060   3.747   1.153
 4647SOL    MW418909   1.978   3.738   1.129
 4648SOL     OW18910   3.603   4.928   0.758
 4648SOL    HW218911   3.582   4.874   0.681
 4648SOL    HW318912   3.699   4.926   0.762
 4648SOL    MW418913   3.612   4.921   0.747
 4649SOL     OW18914   2.295   5.073   1.501
 4649SOL    HW218915   2.216   5.023   1.524
 4649SOL    HW318916   2.365   5.032   1.551
 4649SOL    MW418917   2.293   5.061   1.511
 4650SOL     OW18918   2.179   3.862   0.184
 4650SOL    HW218919   2.108   3.917   0.152
 4650SOL    HW318920   2.221   3.828   0.105
 4650SOL    MW418921   2.175   3.864   0.170
 4651SOL     OW18922   3.303   4.359   1.020
 4651SOL    HW218923   3.226   4.405   0.986
 4651SOL    HW318924   3.360   4.428   1.054
 4651SOL    MW418925   3.300   4.374   1.020
 4652SOL     OW18926   1.935   3.961   0.033
 4652SOL    HW218927   1.902   4.040   0.077
 4652SOL    HW318928   1.990   3.994  -0.038
 4652SOL    MW418929   1.938   3.975   0.030
 4653SOL     OW18930   1.969   5.218   0.222
 4653SOL    HW218931   1.986   5.302   0.264
 4653SOL    HW318932   2.004   5.227   0.134
 4653SOL    MW418933   1.974   5.231   0.216
 4654SOL     OW18934   3.241   5.307   0.439
 4654SOL    HW218935   3.304   5.297   0.368
 4654SOL    HW318936   3.158   5.327   0.394
 4654SOL    MW418937   3.238   5.308   0.424
 4655SOL     OW18938   3.604   4.575   2.125
 4655SOL    HW218939   3.645   4.517   2.190
 4655SOL    HW318940   3.511   4.567   2.142
 4655SOL    MW418941   3.598   4.567   2.135
 4656SOL     OW18942   3.470   4.507   3.120
 4656SOL    HW218943   3.425   4.574   3.171
 4656SOL    HW318944   3.558   4.543   3.106
 4656SOL    MW418945   3.476   4.520   3.124
 4657SOL     OW18946   2.398   4.758   2.354
 4657SOL    HW218947   2.488   4.733   2.338
 4657SOL    HW318948   2.394   4.851   2.331
 4657SOL    MW418949   2.410   4.767   2.349
 4658SOL     OW18950   2.893   5.346   3.497
 4658SOL    HW218951   2.934   5.382   3.418
 4658SOL    HW318952   2.928   5.257   3.504
 4658SOL    MW418953   2.904   5.339   3.488
 4659SOL     OW18954   3.450   4.901   3.101
 4659SOL    HW218955   3.371   4.866   3.059
 4659SOL    HW318956   3.477   4.973   3.045
 4659SOL    MW418957   3.443   4.906   3.088
 4660SOL     OW18958   2.682   4.214   2.367
 4660SOL    HW218959   2.657   4.302   2.395
 4660SOL    HW318960   2.679   4.217   2.271
 4660SOL    MW418961   2.678   4.226   2.359
 4661SOL     OW18962   2.124   4.242   2.295
 4661SOL    HW218963   2.156   4.330   2.277
 4661SOL    HW318964   2.112   4.240   2.390
 4661SOL    MW418965   2.127   4.254   2.307
 4662SOL     OW18966   2.202   4.655   3.196
 4662SOL    HW218967   2.265   4.602   3.147
 4662SOL    HW318968   2.183   4.729   3.139
 4662SOL    MW418969   2.208   4.657   3.183
 4663SOL     OW18970   2.523   3.997   2.382
 4663SOL    HW218971   2.581   4.073   2.384
 4663SOL    HW318972   2.458   4.018   2.315
 4663SOL    MW418973   2.522   4.009   2.373
 4664SOL     OW18974   2.610   4.924   2.557
 4664SOL    HW218975   2.690   4.927   2.609
 4664SOL    HW318976   2.638   4.891   2.471
 4664SOL    MW418977   2.624   4.920   2.552
 4665SOL     OW18978   2.635   5.265   3.460
 4665SOL    HW218979   2.719   5.291   3.499
 4665SOL    HW318980   2.659   5.209   3.386
 4665SOL    MW418981   2.649   5.261   3.455
 4666SOL     OW18982   2.387   4.428   2.548
 4666SOL    HW218983   2.372   4.348   2.599
 4666SOL    HW318984   2.469   4.463   2.582
 4666SOL    MW418985   2.395   4.420   2.560
 4667SOL     OW18986   2.724   5.114   3.233
 4667SOL    HW218987   2.688   5.180   3.173
 4667SOL    HW318988   2.652   5.052   3.246
 4667SOL    MW418989   2.710   5.114   3.227
 4668SOL     OW18990   2.529   4.254   2.925
 4668SOL    HW218991   2.435   4.250   2.943
 4668SOL    HW318992   2.559   4.163   2.934
 4668SOL    MW418993   2.520   4.242   2.928
 4669SOL     OW18994   2.275   4.668   2.829
 4669SOL    HW218995   2.230   4.675   2.745
 4669SOL    HW318996   2.255   4.751   2.873
 4669SOL    MW418997   2.267   4.680   2.823
 4670SOL     OW18998   1.972   5.514   2.704
 4670SOL    HW218999   2.061   5.506   2.739
 4670SOL    HW319000   1.936   5.426   2.709
 4670SOL    MW419001   1.979   5.501   2.709
 4671SOL     OW19002   3.237   4.906   2.073
 4671SOL    HW219003   3.155   4.942   2.039
 4671SOL    HW319004   3.305   4.949   2.022
 4671SOL    MW419005   3.235   4.916   2.061
 4672SOL     OW19006   2.236   5.041   2.739
 4672SOL    HW219007   2.212   5.094   2.815
 4672SOL    HW319008   2.292   5.099   2.687
 4672SOL    MW419009   2.240   5.056   2.742
 4673SOL     OW19010   2.798   4.685   2.549
 4673SOL    HW219011   2.712   4.672   2.589
 4673SOL    HW319012   2.851   4.612   2.581
 4673SOL    MW419013   2.794   4.674   2.558
 4674SOL     OW19014   2.206   5.337   3.334
 4674SOL    HW219015   2.114   5.313   3.319
 4674SOL    HW319016   2.250   5.254   3.351
 4674SOL    MW419017   2.200   5.322   3.333
 4675SOL     OW19018   2.789   5.047   2.266
 4675SOL    HW219019   2.766   5.109   2.334
 4675SOL    HW319020   2.746   4.965   2.292
 4675SOL    MW419021   2.781   5.043   2.277
 4676SOL     OW19022   3.662   4.048   2.722
 4676SOL    HW219023   3.599   4.028   2.791
 4676SOL    HW319024   3.652   3.977   2.659
 4676SOL    MW419025   3.652   4.035   2.723
 4677SOL     OW19026   2.286   4.020   2.234
 4677SOL    HW219027   2.260   3.982   2.150
 4677SOL    HW319028   2.223   4.090   2.250
 4677SOL    MW419029   2.275   4.023   2.225
 4678SOL     OW19030   2.121   4.981   2.271
 4678SOL    HW219031   2.069   5.049   2.227
 4678SOL    HW319032   2.118   4.907   2.211
 4678SOL    MW419033   2.113   4.980   2.258
 4679SOL     OW19034   2.783   5.444   2.049
 4679SOL    HW219035   2.738   5.460   2.132
 4679SOL    HW319036   2.714   5.409   1.991
 4679SOL    MW419037   2.769   5.441   2.051
 4680SOL     OW19038   3.718   4.217   2.024
 4680SOL    HW219039   3.627   4.219   2.052
 4680SOL    HW319040   3.763   4.279   2.082
 4680SOL    MW419041   3.711   4.225   2.034
 4681SOL     OW19042   3.463   4.820   2.374
 4681SOL    HW219043   3.373   4.820   2.409
 4681SOL    HW319044   3.456   4.866   2.291
 4681SOL    MW419045   3.450   4.826   2.368
 4682SOL     OW19046   3.263   4.455   3.446
 4682SOL    HW219047   3.332   4.393   3.423
 4682SOL    HW319048   3.188   4.429   3.393
 4682SOL    MW419049   3.263   4.442   3.437
 4683SOL     OW19050   2.004   5.335   2.998
 4683SOL    HW219051   1.987   5.281   3.075
 4683SOL    HW319052   1.992   5.425   3.028
 4683SOL    MW419053   2.001   5.339   3.012
 4684SOL     OW19054   2.999   4.842   3.438
 4684SOL    HW219055   2.984   4.935   3.423
 4684SOL    HW319056   3.094   4.832   3.438
 4684SOL    MW419057   3.008   4.852   3.435
 4685SOL     OW19058   2.795   4.266   3.639
 4685SOL    HW219059   2.885   4.267   3.606
 4685SOL    HW319060   2.754   4.191   3.597
 4685SOL    MW419061   2.801   4.256   3.630
 4686SOL     OW19062   3.370   4.798   2.766
 4686SOL    HW219063   3.373   4.732   2.697
 4686SOL    HW319064   3.455   4.841   2.762
 4686SOL    MW419065   3.382   4.794   2.757
 4687SOL     OW19066   2.990   4.401   2.335
 4687SOL    HW219067   3.016   4.425   2.246
 4687SOL    HW319068   2.972   4.308   2.331
 4687SOL    MW419069   2.992   4.393   2.322
 4688SOL     OW19070   3.655   5.021   2.186
 4688SOL    HW219071   3.611   5.062   2.261
 4688SOL    HW319072   3.712   5.089   2.151
 4688SOL    MW419073   3.657   5.035   2.191
 4689SOL     OW19074   2.575   4.070   3.589
 4689SOL    HW219075   2.585   3.996   3.529
 4689SOL    HW319076   2.611   4.039   3.672
 4689SOL    MW419077   2.581   4.056   3.591
 4690SOL     OW19078   2.311   5.437   2.504
 4690SOL    HW219079   2.343   5.525   2.482
 4690SOL    HW319080   2.264   5.409   2.426
 4690SOL    MW419081   2.310   5.445   2.491
 4691SOL     OW19082   3.695   3.799   2.553
 4691SOL    HW219083   3.749   3.750   2.615
 4691SOL    HW319084   3.638   3.733   2.514
 4691SOL    MW419085   3.695   3.783   2.555
 4692SOL     OW19086   2.027   5.497   2.081
 4692SOL    HW219087   2.056   5.587   2.073
 4692SOL    HW319088   1.977   5.480   2.002
 4692SOL    MW419089   2.025   5.505   2.070
 4693SOL     OW19090   2.814   3.752   2.966
 4693SOL    HW219091   2.773   3.830   2.928
 4693SOL    HW319092   2.908   3.770   2.961
 4693SOL    MW419093   2.820   3.764   2.961
 4694SOL     OW19094   3.431   5.305   2.052
 4694SOL    HW219095   3.479   5.374   2.098
 4694SOL    HW319096   3.352   5.349   2.021
 4694SOL    MW419097   3.426   5.319   2.055
 4695SOL     OW19098   2.829   4.430   1.996
 4695SOL    HW219099   2.831   4.377   1.917
 4695SOL    HW319100   2.917   4.467   2.002
 4695SOL    MW419101   2.841   4.429   1.985
 4696SOL     OW19102   3.443   4.356   2.332
 4696SOL    HW219103   3.482   4.356   2.419
 4696SOL    HW319104   3.384   4.432   2.332
 4696SOL    MW419105   3.440   4.367   2.343
 4697SOL     OW19106   2.760   4.723   3.461
 4697SOL    HW219107   2.737   4.703   3.551
 4697SOL    HW319108   2.845   4.767   3.466
 4697SOL    MW419109   2.767   4.726   3.473
 4698SOL     OW19110   2.840   3.860   3.221
 4698SOL    HW219111   2.846   3.822   3.134
 4698SOL    HW319112   2.829   3.954   3.206
 4698SOL    MW419113   2.841   3.868   3.209
 4699SOL     OW19114   2.929   4.349   3.055
 4699SOL    HW219115   3.004   4.378   3.002
 4699SOL    HW319116   2.861   4.414   3.039
 4699SOL    MW419117   2.930   4.361   3.045
 4700SOL     OW19118   3.479   4.317   3.332
 4700SOL    HW219119   3.460   4.226   3.311
 4700SOL    HW319120   3.457   4.366   3.253
 4700SOL    MW419121   3.474   4.310   3.319
 4701SOL     OW19122   2.926   4.055   3.438
 4701SOL    HW219123   2.892   4.094   3.357
 4701SOL    HW319124   2.904   3.963   3.431
 4701SOL    MW419125   2.919   4.048   3.428
 4702SOL     OW19126   3.335   4.869   3.514
 4702SOL    HW219127   3.417   4.910   3.544
 4702SOL    HW319128   3.298   4.831   3.594
 4702SOL    MW419129   3.341   4.870   3.529
 4703SOL     OW19130   3.630   4.242   2.498
 4703SOL    HW219131   3.719   4.211   2.515
 4703SOL    HW319132   3.573   4.182   2.546
 4703SOL    MW419133   3.633   4.230   2.507
 4704SOL     OW19134   2.056   3.956   2.527
 4704SOL    HW219135   2.047   3.896   2.453
 4704SOL    HW319136   1.989   3.927   2.590
 4704SOL    MW419137   2.046   3.943   2.525
 4705SOL     OW19138   2.999   5.049   2.088
 4705SOL    HW219139   2.949   5.051   2.170
 4705SOL    HW319140   2.933   5.067   2.020
 4705SOL    MW419141   2.985   5.051   2.090
 4706SOL     OW19142   2.003   4.129   2.890
 4706SOL    HW219143   1.975   4.220   2.899
 4706SOL    HW319144   1.940   4.090   2.829
 4706SOL    MW419145   1.990   4.135   2.884
 4707SOL     OW19146   2.462   5.467   2.196
 4707SOL    HW219147   2.383   5.425   2.229
 4707SOL    HW319148   2.528   5.450   2.263
 4707SOL    MW419149   2.461   5.459   2.209
 4708SOL     OW19150   2.598   4.882   1.903
 4708SOL    HW219151   2.520   4.828   1.890
 4708SOL    HW319152   2.569   4.955   1.956
 4708SOL    MW419153   2.584   4.884   1.908
 4709SOL     OW19154   3.179   5.398   1.971
 4709SOL    HW219155   3.105   5.361   2.021
 4709SOL    HW319156   3.187   5.488   2.004
 4709SOL    MW419157   3.170   5.405   1.983
 4710SOL     OW19158   1.987   4.404   3.060
 4710SOL    HW219159   2.049   4.434   3.126
 4710SOL    HW319160   1.921   4.473   3.054
 4710SOL    MW419161   1.986   4.417   3.067
 4711SOL     OW19162   3.403   5.072   1.913
 4711SOL    HW219163   3.350   5.121   1.849
 4711SOL    HW319164   3.434   5.138   1.974
 4711SOL    MW419165   3.401   5.086   1.911
 4712SOL     OW19166   2.628   3.961   1.968
 4712SOL    HW219167   2.576   3.881   1.956
 4712SOL    HW319168   2.715   3.938   1.936
 4712SOL    MW419169   2.631   3.947   1.962
 4713SOL     OW19170   2.082   5.513   3.512
 4713SOL    HW219171   2.056   5.581   3.450
 4713SOL    HW319172   2.130   5.450   3.460
 4713SOL    MW419173   2.084   5.513   3.498
 4714SOL     OW19174   2.134   4.832   3.019
 4714SOL    HW219175   2.187   4.907   3.044
 4714SOL    HW319176   2.053   4.870   2.985
 4714SOL    MW419177   2.130   4.847   3.019
 4715SOL     OW19178   2.674   4.736   3.007
 4715SOL    HW219179   2.702   4.645   3.019
 4715SOL    HW319180   2.603   4.730   2.943
 4715SOL    MW419181   2.667   4.724   3.002
 4716SOL     OW19182   1.989   4.601   2.425
 4716SOL    HW219183   2.080   4.616   2.452
 4716SOL    HW319184   1.992   4.522   2.371
 4716SOL    MW419185   2.001   4.593   2.423
 4717SOL     OW19186   2.225   4.309   3.679
 4717SOL    HW219187   2.172   4.389   3.686
 4717SOL    HW319188   2.295   4.321   3.744
 4717SOL    MW419189   2.227   4.322   3.687
 4718SOL     OW19190   2.611   3.859   3.386
 4718SOL    HW219191   2.588   3.767   3.388
 4718SOL    HW319192   2.697   3.861   3.343
 4718SOL    MW419193   2.618   3.849   3.382
 4719SOL     OW19194   2.295   4.383   3.425
 4719SOL    HW219195   2.375   4.433   3.411
 4719SOL    HW319196   2.286   4.377   3.520
 4719SOL    MW419197   2.304   4.389   3.435
 4720SOL     OW19198   2.616   5.533   2.799
 4720SOL    HW219199   2.705   5.548   2.829
 4720SOL    HW319200   2.611   5.580   2.715
 4720SOL    MW419201   2.626   5.541   2.792
 4721SOL     OW19202   3.272   3.908   3.696
 4721SOL    HW219203   3.328   3.835   3.722
 4721SOL    HW319204   3.242   3.946   3.778
 4721SOL    MW419205   3.276   3.903   3.709
 4722SOL     OW19206   1.997   5.213   2.464
 4722SOL    HW219207   1.969   5.252   2.546
 4722SOL    HW319208   2.017   5.122   2.486
 4722SOL    MW419209   1.995   5.205   2.477
 4723SOL     OW19210   2.830   5.256   2.499
 4723SOL    HW219211   2.913   5.210   2.483
 4723SOL    HW319212   2.820   5.255   2.595
 4723SOL    MW419213   2.840   5.249   2.509
 4724SOL     OW19214   3.662   4.401   2.813
 4724SOL    HW219215   3.751   4.431   2.795
 4724SOL    HW319216   3.642   4.341   2.742
 4724SOL    MW419217   3.671   4.398   2.802
 4725SOL     OW19218   3.513   4.580   3.693
 4725SOL    HW219219   3.568   4.504   3.674
 4725SOL    HW319220   3.515   4.588   3.788
 4725SOL    MW419221   3.521   4.571   3.701
 4726SOL     OW19222   2.563   5.313   1.904
 4726SOL    HW219223   2.503   5.382   1.874
 4726SOL    HW319224   2.508   5.255   1.957
 4726SOL    MW419225   2.547   5.315   1.906
 4727SOL     OW19226   3.001   3.958   2.127
 4727SOL    HW219227   2.934   3.934   2.064
 4727SOL    HW319228   3.066   4.007   2.076
 4727SOL    MW419229   3.001   3.960   2.112
 4728SOL     OW19230   2.808   4.142   3.212
 4728SOL    HW219231   2.727   4.183   3.240
 4728SOL    HW319232   2.855   4.210   3.164
 4728SOL    MW419233   2.803   4.157   3.210
 4729SOL     OW19234   3.068   4.480   2.835
 4729SOL    HW219235   3.081   4.574   2.845
 4729SOL    HW319236   3.029   4.470   2.749
 4729SOL    MW419237   3.064   4.491   2.825
 4730SOL     OW19238   2.520   4.675   2.639
 4730SOL    HW219239   2.431   4.666   2.672
 4730SOL    HW319240   2.524   4.765   2.607
 4730SOL    MW419241   2.509   4.686   2.639
 4731SOL     OW19242   3.319   4.258   2.634
 4731SOL    HW219243   3.264   4.179   2.633
 4731SOL    HW319244   3.301   4.299   2.718
 4731SOL    MW419245   3.309   4.253   2.643
 4732SOL     OW19246   2.290   3.945   3.451
 4732SOL    HW219247   2.211   3.963   3.503
 4732SOL    HW319248   2.285   4.007   3.378
 4732SOL    MW419249   2.280   3.955   3.448
 4733SOL     OW19250   2.938   4.462   2.591
 4733SOL    HW219251   2.875   4.394   2.615
 4733SOL    HW319252   2.958   4.443   2.499
 4733SOL    MW419253   2.932   4.449   2.583
 4734SOL     OW19254   2.194   5.357   2.293
 4734SOL    HW219255   2.155   5.404   2.219
 4734SOL    HW319256   2.128   5.292   2.318
 4734SOL    MW419257   2.181   5.355   2.287
 4735SOL     OW19258   2.686   4.766   2.317
 4735SOL    HW219259   2.688   4.740   2.224
 4735SOL    HW319260   2.744   4.703   2.360
 4735SOL    MW419261   2.694   4.755   2.311
 4736SOL     OW19262   3.243   5.534   2.519
 4736SOL    HW219263   3.186   5.487   2.458
 4736SOL    HW319264   3.329   5.495   2.506
 4736SOL    MW419265   3.246   5.525   2.509
 4737SOL     OW19266   3.196   4.010   2.650
 4737SOL    HW219267   3.224   3.942   2.711
 4737SOL    HW319268   3.110   3.981   2.620
 4737SOL    MW419269   3.189   3.997   2.654
 4738SOL     OW19270   2.001   4.944   2.584
 4738SOL    HW219271   2.065   4.976   2.647
 4738SOL    HW319272   2.050   4.880   2.532
 4738SOL    MW419273   2.016   4.940   2.585
 4739SOL     OW19274   2.501   5.020   3.566
 4739SOL    HW219275   2.549   5.103   3.553
 4739SOL    HW319276   2.558   4.968   3.622
 4739SOL    MW419277   2.515   5.024   3.572
 4740SOL     OW19278   2.077   5.262   3.706
 4740SOL    HW219279   2.133   5.186   3.721
 4740SOL    HW319280   2.026   5.240   3.628
 4740SOL    MW419281   2.077   5.249   3.697
 4741SOL     OW19282   3.176   4.114   1.985
 4741SOL    HW219283   3.149   4.180   1.921
 4741SOL    HW319284   3.246   4.157   2.035
 4741SOL    MW419285   3.181   4.127   1.982
 4742SOL     OW19286   2.844   3.819   1.922
 4742SOL    HW219287   2.900   3.811   1.844
 4742SOL    HW319288   2.821   3.729   1.944
 4742SOL    MW419289   2.849   3.806   1.915
 4743SOL     OW19290   3.349   4.670   2.127
 4743SOL    HW219291   3.316   4.759   2.117
 4743SOL    HW319292   3.314   4.641   2.212
 4743SOL    MW419293   3.339   4.679   2.138
 4744SOL     OW19294   2.255   3.767   3.657
 4744SOL    HW219295   2.183   3.732   3.605
 4744SOL    HW319296   2.313   3.808   3.592
 4744SOL    MW419297   2.253   3.768   3.642
 4745SOL     OW19298   2.279   5.257   2.956
 4745SOL    HW219299   2.324   5.319   3.013
 4745SOL    HW319300   2.186   5.276   2.969
 4745SOL    MW419301   2.272   5.267   2.963
 4746SOL     OW19302   2.701   5.325   3.064
 4746SOL    HW219303   2.725   5.314   2.973
 4746SOL    HW319304   2.624   5.382   3.062
 4746SOL    MW419305   2.693   5.330   3.053
 4747SOL     OW19306   2.343   4.708   1.919
 4747SOL    HW219307   2.266   4.721   1.975
 4747SOL    HW319308   2.307   4.672   1.838
 4747SOL    MW419309   2.329   4.704   1.916
 4748SOL     OW19310   2.996   4.681   2.162
 4748SOL    HW219311   2.906   4.702   2.137
 4748SOL    HW319312   3.023   4.754   2.218
 4748SOL    MW419313   2.988   4.693   2.165
 4749SOL     OW19314   2.496   5.030   2.854
 4749SOL    HW219315   2.489   5.009   2.948
 4749SOL    HW319316   2.414   4.998   2.817
 4749SOL    MW419317   2.484   5.024   2.861
 4750SOL     OW19318   3.360   4.040   3.256
 4750SOL    HW219319   3.307   4.042   3.336
 4750SOL    HW319320   3.345   3.953   3.219
 4750SOL    MW419321   3.352   4.030   3.261
 4751SOL     OW19322   3.696   3.964   3.129
 4751SOL    HW219323   3.677   4.031   3.064
 4751SOL    HW319324   3.753   3.902   3.084
 4751SOL    MW419325   3.700   3.965   3.115
 4752SOL     OW19326   1.942   5.122   3.517
 4752SOL    HW219327   1.986   5.055   3.463
 4752SOL    HW319328   1.857   5.084   3.537
 4752SOL    MW419329   1.937   5.108   3.513
 4753SOL     OW19330   2.625   3.797   2.569
 4753SOL    HW219331   2.554   3.858   2.551
 4753SOL    HW319332   2.676   3.794   2.488
 4753SOL    MW419333   2.621   3.803   2.556
 4754SOL     OW19334   2.383   5.037   2.318
 4754SOL    HW219335   2.376   5.069   2.408
 4754SOL    HW319336   2.293   5.021   2.290
 4754SOL    MW419337   2.371   5.039   2.325
 4755SOL     OW19338   2.978   5.430   3.227
 4755SOL    HW219339   2.898   5.415   3.177
 4755SOL    HW319340   2.985   5.525   3.234
 4755SOL    MW419341   2.969   5.441   3.221
 4756SOL     OW19342   3.092   5.395   2.717
 4756SOL    HW219343   3.139   5.468   2.676
 4756SOL    HW319344   3.013   5.434   2.753
 4756SOL    MW419345   3.087   5.410   2.716
 4757SOL     OW19346   2.585   4.454   3.699
 4757SOL    HW219347   2.655   4.396   3.671
 4757SOL    HW319348   2.528   4.399   3.754
 4757SOL    MW419349   2.587   4.441   3.703
 4758SOL     OW19350   3.372   4.666   3.332
 4758SOL    HW219351   3.377   4.719   3.412
 4758SOL    HW319352   3.334   4.583   3.360
 4758SOL    MW419353   3.368   4.661   3.347
 4759SOL     OW19354   3.012   3.801   3.578
 4759SOL    HW219355   3.007   3.708   3.559
 4759SOL    HW319356   3.095   3.812   3.624
 4759SOL    MW419357   3.020   3.790   3.582
 4760SOL     OW19358   2.386   4.321   2.032
 4760SOL    HW219359   2.352   4.377   2.102
 4760SOL    HW319360   2.457   4.271   2.072
 4760SOL    MW419361   2.392   4.322   2.046
 4761SOL     OW19362   2.911   4.720   3.223
 4761SOL    HW219363   2.954   4.755   3.301
 4761SOL    HW319364   2.894   4.797   3.169
 4761SOL    MW419365   2.914   4.735   3.226
 4762SOL     OW19366   3.442   4.207   2.096
 4762SOL    HW219367   3.434   4.278   2.033
 4762SOL    HW319368   3.460   4.251   2.179
 4762SOL    MW419369   3.443   4.221   2.098
 4763SOL     OW19370   2.302   3.862   2.525
 4763SOL    HW219371   2.352   3.905   2.456
 4763SOL    HW319372   2.217   3.906   2.525
 4763SOL    MW419373   2.299   3.875   2.516
 4764SOL     OW19374   2.061   4.924   3.385
 4764SOL    HW219375   2.089   4.877   3.463
 4764SOL    HW319376   1.982   4.879   3.356
 4764SOL    MW419377   2.054   4.913   3.391
 4765SOL     OW19378   2.569   4.251   3.352
 4765SOL    HW219379   2.541   4.339   3.376
 4765SOL    HW319380   2.538   4.195   3.423
 4765SOL    MW419381   2.561   4.254   3.364
 4766SOL     OW19382   3.111   4.469   2.071
 4766SOL    HW219383   3.158   4.487   1.990
 4766SOL    HW319384   3.077   4.553   2.099
 4766SOL    MW419385   3.113   4.483   2.064
 4767SOL     OW19386   2.224   4.647   2.565
 4767SOL    HW219387   2.282   4.703   2.513
 4767SOL    HW319388   2.268   4.562   2.567
 4767SOL    MW419389   2.237   4.644   2.558
 4768SOL     OW19390   3.364   3.999   2.402
 4768SOL    HW219391   3.286   3.949   2.427
 4768SOL    HW319392   3.335   4.090   2.402
 4768SOL    MW419393   3.350   4.003   2.405
 4769SOL     OW19394   2.950   3.961   2.561
 4769SOL    HW219395   2.970   4.036   2.505
 4769SOL    HW319396   2.930   4.000   2.646
 4769SOL    MW419397   2.951   3.977   2.565
 4770SOL     OW19398   2.846   5.211   1.893
 4770SOL    HW219399   2.873   5.289   1.845
 4770SOL    HW319400   2.753   5.226   1.912
 4770SOL    MW419401   2.837   5.224   1.889
 4771SOL     OW19402   3.710   4.734   3.580
 4771SOL    HW219403   3.623   4.714   3.616
 4771SOL    HW319404   3.764   4.660   3.605
 4771SOL    MW419405   3.705   4.723   3.588
 4772SOL     OW19406   1.931   5.247   2.737
 4772SOL    HW219407   1.963   5.251   2.828
 4772SOL    HW319408   1.836   5.255   2.745
 4772SOL    MW419409   1.923   5.250   2.750
 4773SOL     OW19410   1.886   4.373   2.284
 4773SOL    HW219411   1.826   4.345   2.354
 4773SOL    HW319412   1.960   4.313   2.290
 4773SOL    MW419413   1.888   4.362   2.293
 4774SOL     OW19414   2.312   4.112   3.173
 4774SOL    HW219415   2.345   4.193   3.213
 4774SOL    HW319416   2.285   4.138   3.085
 4774SOL    MW419417   2.311   4.126   3.167
 4775SOL     OW19418   2.266   4.079   2.909
 4775SOL    HW219419   2.296   3.993   2.880
 4775SOL    HW319420   2.171   4.072   2.912
 4775SOL    MW419421   2.258   4.068   2.907
 4776SOL     OW19422   3.095   4.288   3.600
 4776SOL    HW219423   3.147   4.223   3.553
 4776SOL    HW319424   3.053   4.339   3.530
 4776SOL    MW419425   3.096   4.285   3.583
 4777SOL     OW19426   3.194   4.083   3.461
 4777SOL    HW219427   3.101   4.067   3.448
 4777SOL    HW319428   3.220   4.021   3.529
 4777SOL    MW419429   3.184   4.073   3.468
 4778SOL     OW19430   2.409   3.857   2.800
 4778SOL    HW219431   2.419   3.766   2.826
 4778SOL    HW319432   2.365   3.853   2.715
 4778SOL    MW419433   2.405   3.845   2.792
 4779SOL     OW19434   2.503   5.472   3.346
 4779SOL    HW219435   2.420   5.457   3.391
 4779SOL    HW319436   2.562   5.405   3.381
 4779SOL    MW419437   2.501   5.462   3.356
 4780SOL     OW19438   3.560   4.179   2.971
 4780SOL    HW219439   3.493   4.212   3.031
 4780SOL    HW319440   3.603   4.257   2.937
 4780SOL    MW419441   3.558   4.194   2.975
 4781SOL     OW19442   3.120   4.761   2.859
 4781SOL    HW219443   3.134   4.733   2.950
 4781SOL    HW319444   3.206   4.792   2.831
 4781SOL    MW419445   3.133   4.762   2.868
 4782SOL     OW19446   3.203   4.256   3.138
 4782SOL    HW219447   3.224   4.257   3.045
 4782SOL    HW319448   3.248   4.178   3.171
 4782SOL    MW419449   3.210   4.246   3.130
 4783SOL     OW19450   3.696   4.387   3.680
 4783SOL    HW219451   3.733   4.332   3.749
 4783SOL    HW319452   3.721   4.344   3.598
 4783SOL    MW419453   3.703   4.375   3.679
 4784SOL     OW19454   3.243   4.685   3.731
 4784SOL    HW219455   3.309   4.633   3.685
 4784SOL    HW319456   3.263   4.672   3.824
 4784SOL    MW419457   3.254   4.676   3.738
 4785SOL     OW19458   3.194   3.771   2.080
 4785SOL    HW219459   3.268   3.815   2.123
 4785SOL    HW319460   3.118   3.825   2.102
 4785SOL    MW419461   3.194   3.783   2.088
 4786SOL     OW19462   3.254   4.546   2.358
 4786SOL    HW219463   3.169   4.516   2.328
 4786SOL    HW319464   3.246   4.553   2.453
 4786SOL    MW419465   3.242   4.544   2.367
 4787SOL     OW19466   2.330   5.009   3.089
 4787SOL    HW219467   2.342   5.036   3.180
 4787SOL    HW319468   2.311   5.090   3.042
 4787SOL    MW419469   2.329   5.024   3.094
 4788SOL     OW19470   2.614   3.989   2.912
 4788SOL    HW219471   2.587   3.991   3.003
 4788SOL    HW319472   2.544   3.941   2.867
 4788SOL    MW419473   2.602   3.985   2.919
 4789SOL     OW19474   2.468   5.481   3.074
 4789SOL    HW219475   2.520   5.558   3.051
 4789SOL    HW319476   2.477   5.473   3.169
 4789SOL    MW419477   2.477   5.488   3.085
 4790SOL     OW19478   2.444   4.797   3.423
 4790SOL    HW219479   2.481   4.802   3.335
 4790SOL    HW319480   2.483   4.870   3.470
 4790SOL    MW419481   2.454   4.807   3.418
 4791SOL     OW19482   2.624   4.840   3.235
 4791SOL    HW219483   2.683   4.786   3.288
 4791SOL    HW319484   2.639   4.812   3.145
 4791SOL    MW419485   2.634   4.829   3.231
 4792SOL     OW19486   2.627   4.212   2.084
 4792SOL    HW219487   2.700   4.261   2.047
 4792SOL    HW319488   2.643   4.121   2.058
 4792SOL    MW419489   2.639   4.207   2.077
 4793SOL     OW19490   3.095   3.808   2.998
 4793SOL    HW219491   3.150   3.817   2.920
 4793SOL    HW319492   3.150   3.842   3.069
 4793SOL    MW419493   3.109   3.813   2.997
 4794SOL     OW19494   2.102   4.721   2.182
 4794SOL    HW219495   2.039   4.737   2.111
 4794SOL    HW319496   2.049   4.684   2.253
 4794SOL    MW419497   2.087   4.718   2.182
 4795SOL     OW19498   2.458   5.075   2.041
 4795SOL    HW219499   2.473   5.051   2.133
 4795SOL    HW319500   2.366   5.053   2.025
 4795SOL    MW419501   2.448   5.068   2.051
 4796SOL     OW19502   2.997   5.306   2.193
 4796SOL    HW219503   3.005   5.224   2.144
 4796SOL    HW319504   2.916   5.345   2.160
 4796SOL    MW419505   2.987   5.301   2.183
 4797SOL     OW19506   2.256   5.464   2.762
 4797SOL    HW219507   2.260   5.375   2.797
 4797SOL    HW319508   2.282   5.455   2.671
 4797SOL    MW419509   2.259   5.452   2.754
 4798SOL     OW19510   2.873   4.942   3.005
 4798SOL    HW219511   2.805   4.876   3.021
 4798SOL    HW319512   2.891   4.936   2.912
 4798SOL    MW419513   2.866   4.933   2.996
 4799SOL     OW19514   1.962   5.217   3.256
 4799SOL    HW219515   1.952   5.175   3.342
 4799SOL    HW319516   1.883   5.270   3.246
 4799SOL    MW419517   1.951   5.218   3.267
 4800SOL     OW19518   2.866   4.081   2.826
 4800SOL    HW219519   2.796   4.033   2.871
 4800SOL    HW319520   2.898   4.144   2.890
 4800SOL    MW419521   2.861   4.083   2.840
 4801SOL     OW19522   2.517   4.517   3.446
 4801SOL    HW219523   2.510   4.612   3.434
 4801SOL    HW319524   2.526   4.506   3.541
 4801SOL    MW419525   2.518   4.529   3.456
 4802SOL     OW19526   2.238   5.032   3.704
 4802SOL    HW219527   2.310   5.034   3.641
 4802SOL    HW319528   2.208   4.941   3.703
 4802SOL    MW419529   2.243   5.021   3.696
 4803SOL     OW19530   3.322   3.795   3.171
 4803SOL    HW219531   3.393   3.741   3.135
 4803SOL    HW319532   3.321   3.774   3.264
 4803SOL    MW419533   3.331   3.786   3.179
 4804SOL     OW19534   2.333   4.187   2.639
 4804SOL    HW219535   2.404   4.135   2.602
 4804SOL    HW319536   2.319   4.152   2.726
 4804SOL    MW419537   2.341   4.176   2.646
 4805SOL     OW19538   1.888   5.522   3.711
 4805SOL    HW219539   1.938   5.500   3.633
 4805SOL    HW319540   1.896   5.617   3.719
 4805SOL    MW419541   1.896   5.531   3.702
 4806SOL     OW19542   2.649   5.280   2.715
 4806SOL    HW219543   2.577   5.217   2.728
 4806SOL    HW319544   2.610   5.365   2.733
 4806SOL    MW419545   2.633   5.283   2.718
 4807SOL     OW19546   2.969   4.128   2.363
 4807SOL    HW219547   2.991   4.065   2.295
 4807SOL    HW319548   2.874   4.120   2.374
 4807SOL    MW419549   2.959   4.119   2.355
 4808SOL     OW19550   2.054   3.818   2.295
 4808SOL    HW219551   2.125   3.839   2.234
 4808SOL    HW319552   2.008   3.746   2.253
 4808SOL    MW419553   2.058   3.812   2.281
 4809SOL     OW19554   1.885   4.285   3.438
 4809SOL    HW219555   1.949   4.351   3.413
 4809SOL    HW319556   1.804   4.312   3.395
 4809SOL    MW419557   1.883   4.297   3.430
 4810SOL     OW19558   3.623   5.192   2.395
 4810SOL    HW219559   3.593   5.125   2.456
 4810SOL    HW319560   3.717   5.198   2.409
 4810SOL    MW419561   3.631   5.184   2.405
 4811SOL     OW19562   3.179   4.869   2.325
 4811SOL    HW219563   3.151   4.955   2.358
 4811SOL    HW319564   3.207   4.885   2.235
 4811SOL    MW419565   3.179   4.883   2.317
 4812SOL     OW19566   2.841   3.789   2.378
 4812SOL    HW219567   2.878   3.848   2.443
 4812SOL    HW319568   2.818   3.845   2.304
 4812SOL    MW419569   2.842   3.804   2.377
 4813SOL     OW19570   3.694   4.671   2.800
 4813SOL    HW219571   3.685   4.703   2.711
 4813SOL    HW319572   3.647   4.587   2.800
 4813SOL    MW419573   3.687   4.664   2.790
 4814SOL     OW19574   2.070   4.511   3.379
 4814SOL    HW219575   2.091   4.580   3.317
 4814SOL    HW319576   2.150   4.458   3.384
 4814SOL    MW419577   2.083   4.512   3.373
 4815SOL     OW19578   3.606   4.602   2.501
 4815SOL    HW219579   3.700   4.591   2.489
 4815SOL    HW319580   3.582   4.674   2.442
 4815SOL    MW419581   3.616   4.610   2.492
 4816SOL     OW19582   2.055   4.526   3.646
 4816SOL    HW219583   1.981   4.470   3.672
 4816SOL    HW319584   2.050   4.529   3.551
 4816SOL    MW419585   2.044   4.519   3.636
 4817SOL     OW19586   2.221   3.813   3.096
 4817SOL    HW219587   2.264   3.897   3.116
 4817SOL    HW319588   2.294   3.751   3.089
 4817SOL    MW419589   2.236   3.816   3.097
 4818SOL     OW19590   2.262   4.480   2.274
 4818SOL    HW219591   2.262   4.575   2.259
 4818SOL    HW319592   2.339   4.464   2.328
 4818SOL    MW419593   2.272   4.491   2.279
 4819SOL     OW19594   3.038   4.339   3.338
 4819SOL    HW219595   3.074   4.312   3.254
 4819SOL    HW319596   2.951   4.373   3.317
 4819SOL    MW419597   3.032   4.340   3.325
 4820SOL     OW19598   2.021   4.211   2.563
 4820SOL    HW219599   2.083   4.218   2.636
 4820SOL    HW319600   2.021   4.118   2.540
 4820SOL    MW419601   2.029   4.200   2.570
 4821SOL     OW19602   3.568   5.551   2.095
 4821SOL    HW219603   3.635   5.584   2.035
 4821SOL    HW319604   3.525   5.630   2.129
 4821SOL    MW419605   3.570   5.566   2.091
 4822SOL     OW19606   2.703   4.472   3.047
 4822SOL    HW219607   2.661   4.390   3.023
 4822SOL    HW319608   2.704   4.471   3.143
 4822SOL    MW419609   2.696   4.461   3.056
 4823SOL     OW19610   2.507   3.942   3.152
 4823SOL    HW219611   2.438   4.005   3.173
 4823SOL    HW319612   2.534   3.906   3.237
 4823SOL    MW419613   2.501   3.945   3.165
 4824SOL     OW19614   1.890   4.783   2.021
 4824SOL    HW219615   1.859   4.848   2.084
 4824SOL    HW319616   1.839   4.705   2.040
 4824SOL    MW419617   1.880   4.780   2.031
 4825SOL     OW19618   3.302   3.795   2.769
 4825SOL    HW219619   3.390   3.804   2.806
 4825SOL    HW319620   3.312   3.736   2.695
 4825SOL    MW419621   3.316   3.789   2.763
 4826SOL     OW19622   3.334   4.534   2.613
 4826SOL    HW219623   3.414   4.549   2.562
 4826SOL    HW319624   3.327   4.439   2.619
 4826SOL    MW419625   3.343   4.523   2.608
 4827SOL     OW19626   2.474   5.583   1.963
 4827SOL    HW219627   2.379   5.583   1.955
 4827SOL    HW319628   2.490   5.529   2.041
 4827SOL    MW419629   2.464   5.577   1.972
 4828SOL     OW19630   2.784   4.460   3.310
 4828SOL    HW219631   2.853   4.527   3.307
 4828SOL    HW319632   2.717   4.498   3.366
 4828SOL    MW419633   2.785   4.473   3.317
 4829SOL     OW19634   2.202   4.760   3.558
 4829SOL    HW219635   2.156   4.676   3.560
 4829SOL    HW319636   2.259   4.754   3.482
 4829SOL    MW419637   2.204   4.748   3.550
 4830SOL     OW19638   3.319   4.403   1.879
 4830SOL    HW219639   3.247   4.379   1.821
 4830SOL    HW319640   3.385   4.440   1.821
 4830SOL    MW419641   3.318   4.405   1.864
 4831SOL     OW19642   2.453   5.135   2.559
 4831SOL    HW219643   2.518   5.068   2.580
 4831SOL    HW319644   2.505   5.212   2.536
 4831SOL    MW419645   2.468   5.137   2.558
 4832SOL     OW19646   2.714   4.300   2.689
 4832SOL    HW219647   2.654   4.318   2.761
 4832SOL    HW319648   2.748   4.212   2.708
 4832SOL    MW419649   2.710   4.290   2.702
 4833SOL     OW19650   3.655   3.799   3.358
 4833SOL    HW219651   3.576   3.845   3.386
 4833SOL    HW319652   3.690   3.853   3.287
 4833SOL    MW419653   3.649   3.812   3.352
 4834SOL     OW19654   2.939   4.883   2.708
 4834SOL    HW219655   3.031   4.864   2.726
 4834SOL    HW319656   2.912   4.813   2.648
 4834SOL    MW419657   2.947   4.871   2.702
 4835SOL     OW19658   2.732   4.703   2.063
 4835SOL    HW219659   2.718   4.615   2.028
 4835SOL    HW319660   2.683   4.760   2.004
 4835SOL    MW419661   2.724   4.698   2.051
 4836SOL     OW19662   3.213   5.121   2.804
 4836SOL    HW219663   3.186   5.205   2.769
 4836SOL    HW319664   3.173   5.116   2.891
 4836SOL    MW419665   3.206   5.130   2.810
 4837SOL     OW19666   2.145   4.427   2.842
 4837SOL    HW219667   2.095   4.426   2.923
 4837SOL    HW319668   2.165   4.519   2.826
 4837SOL    MW419669   2.141   4.439   2.850
 4838SOL     OW19670   3.451   3.909   2.165
 4838SOL    HW219671   3.444   3.913   2.260
 4838SOL    HW319672   3.463   4.000   2.138
 4838SOL    MW419673   3.452   3.922   2.173
 4839SOL     OW19674   2.740   4.472   2.279
 4839SOL    HW219675   2.720   4.458   2.186
 4839SOL    HW319676   2.833   4.451   2.286
 4839SOL    MW419677   2.750   4.467   2.268
 4840SOL     OW19678   2.067   4.095   3.583
 4840SOL    HW219679   2.024   4.154   3.520
 4840SOL    HW319680   2.135   4.150   3.623
 4840SOL    MW419681   2.071   4.110   3.580
 4841SOL     OW19682   3.179   4.715   3.128
 4841SOL    HW219683   3.242   4.712   3.201
 4841SOL    HW319684   3.095   4.733   3.170
 4841SOL    MW419685   3.175   4.717   3.143
 4842SOL     OW19686   2.723   5.430   2.317
 4842SOL    HW219687   2.781   5.501   2.344
 4842SOL    HW319688   2.746   5.358   2.375
 4842SOL    MW419689   2.734   5.430   2.328
 4843SOL     OW19690   3.518   3.892   2.907
 4843SOL    HW219691   3.563   3.810   2.926
 4843SOL    HW319692   3.538   3.948   2.983
 4843SOL    MW419693   3.528   3.888   2.919
 4844SOL     OW19694   1.966   3.735   3.006
 4844SOL    HW219695   1.957   3.736   2.911
 4844SOL    HW319696   2.060   3.747   3.021
 4844SOL    MW419697   1.978   3.738   2.997
 4845SOL     OW19698   3.603   4.928   2.626
 4845SOL    HW219699   3.582   4.874   2.549
 4845SOL    HW319700   3.699   4.926   2.630
 4845SOL    MW419701   3.612   4.921   2.615
 4846SOL     OW19702   2.295   5.073   3.369
 4846SOL    HW219703   2.216   5.023   3.392
 4846SOL    HW319704   2.365   5.032   3.419
 4846SOL    MW419705   2.293   5.061   3.379
 4847SOL     OW19706   2.179   3.862   2.052
 4847SOL    HW219707   2.108   3.917   2.020
 4847SOL    HW319708   2.221   3.828   1.973
 4847SOL    MW419709   2.175   3.864   2.038
 4848SOL     OW19710   3.303   4.359   2.888
 4848SOL    HW219711   3.226   4.405   2.854
 4848SOL    HW319712   3.360   4.428   2.922
 4848SOL    MW419713   3.300   4.374   2.888
 4849SOL     OW19714   1.935   3.961   1.901
 4849SOL    HW219715   1.902   4.040   1.945
 4849SOL    HW319716   1.990   3.994   1.830
 4849SOL    MW419717   1.938   3.975   1.898
 4850SOL     OW19718   1.969   5.218   2.090
 4850SOL    HW219719   1.986   5.302   2.132
 4850SOL    HW319720   2.004   5.227   2.002
 4850SOL    MW419721   1.974   5.231   2.084
 4851SOL     OW19722   3.241   5.307   2.307
 4851SOL    HW219723   3.304   5.297   2.236
 4851SOL    HW319724   3.158   5.327   2.262
 4851SOL    MW419725   3.238   5.308   2.292
 4852SOL     OW19726   3.604   4.575   3.993
 4852SOL    HW219727   3.645   4.517   4.058
 4852SOL    HW319728   3.511   4.567   4.010
 4852SOL    MW419729   3.598   4.567   4.003
 4853SOL     OW19730   3.470   4.507   4.988
 4853SOL    HW219731   3.425   4.574   5.039
 4853SOL    HW319732   3.558   4.543   4.974
 4853SOL    MW419733   3.476   4.520   4.992
 4854SOL     OW19734   2.398   4.758   4.222
 4854SOL    HW219735   2.488   4.733   4.206
 4854SOL    HW319736   2.394   4.851   4.199
 4854SOL    MW419737   2.410   4.767   4.217
 4855SOL     OW19738   3.514   5.461   4.364
 4855SOL    HW219739   3.526   5.407   4.442
 4855SOL    HW319740   3.551   5.409   4.293
 4855SOL    MW419741   3.520   5.446   4.365
 4856SOL     OW19742   2.893   5.346   5.365
 4856SOL    HW219743   2.934   5.382   5.286
 4856SOL    HW319744   2.928   5.257   5.372
 4856SOL    MW419745   2.904   5.339   5.356
 4857SOL     OW19746   3.450   4.901   4.969
 4857SOL    HW219747   3.371   4.866   4.927
 4857SOL    HW319748   3.477   4.973   4.913
 4857SOL    MW419749   3.443   4.906   4.956
 4858SOL     OW19750   2.682   4.214   4.235
 4858SOL    HW219751   2.657   4.302   4.263
 4858SOL    HW319752   2.679   4.217   4.139
 4858SOL    MW419753   2.678   4.226   4.227
 4859SOL     OW19754   2.124   4.242   4.163
 4859SOL    HW219755   2.156   4.330   4.145
 4859SOL    HW319756   2.112   4.240   4.258
 4859SOL    MW419757   2.127   4.254   4.175
 4860SOL     OW19758   2.202   4.655   5.064
 4860SOL    HW219759   2.265   4.602   5.015
 4860SOL    HW319760   2.183   4.729   5.007
 4860SOL    MW419761   2.208   4.657   5.051
 4861SOL     OW19762   2.523   3.997   4.250
 4861SOL    HW219763   2.581   4.073   4.252
 4861SOL    HW319764   2.458   4.018   4.183
 4861SOL    MW419765   2.522   4.009   4.241
 4862SOL     OW19766   2.610   4.924   4.425
 4862SOL    HW219767   2.690   4.927   4.477
 4862SOL    HW319768   2.638   4.891   4.339
 4862SOL    MW419769   2.624   4.920   4.420
 4863SOL     OW19770   2.635   5.265   5.328
 4863SOL    HW219771   2.719   5.291   5.367
 4863SOL    HW319772   2.659   5.209   5.254
 4863SOL    MW419773   2.649   5.261   5.323
 4864SOL     OW19774   2.387   4.428   4.416
 4864SOL    HW219775   2.372   4.348   4.467
 4864SOL    HW319776   2.469   4.463   4.450
 4864SOL    MW419777   2.395   4.420   4.428
 4865SOL     OW19778   2.724   5.114   5.101
 4865SOL    HW219779   2.688   5.180   5.041
 4865SOL    HW319780   2.652   5.052   5.114
 4865SOL    MW419781   2.710   5.114   5.095
 4866SOL     OW19782   2.529   4.254   4.793
 4866SOL    HW219783   2.435   4.250   4.811
 4866SOL    HW319784   2.559   4.163   4.802
 4866SOL    MW419785   2.520   4.242   4.796
 4867SOL     OW19786   2.275   4.668   4.697
 4867SOL    HW219787   2.230   4.675   4.613
 4867SOL    HW319788   2.255   4.751   4.741
 4867SOL    MW419789   2.267   4.680   4.691
 4868SOL     OW19790   1.972   5.514   4.572
 4868SOL    HW219791   2.061   5.506   4.607
 4868SOL    HW319792   1.936   5.426   4.577
 4868SOL    MW419793   1.979   5.501   4.577
 4869SOL     OW19794   3.237   4.906   3.941
 4869SOL    HW219795   3.155   4.942   3.907
 4869SOL    HW319796   3.305   4.949   3.890
 4869SOL    MW419797   3.235   4.916   3.929
 4870SOL     OW19798   2.798   4.685   4.417
 4870SOL    HW219799   2.712   4.672   4.457
 4870SOL    HW319800   2.851   4.612   4.449
 4870SOL    MW419801   2.794   4.674   4.426
 4871SOL     OW19802   2.206   5.337   5.202
 4871SOL    HW219803   2.114   5.313   5.187
 4871SOL    HW319804   2.250   5.254   5.219
 4871SOL    MW419805   2.200   5.322   5.201
 4872SOL     OW19806   2.789   5.047   4.134
 4872SOL    HW219807   2.766   5.109   4.202
 4872SOL    HW319808   2.746   4.965   4.160
 4872SOL    MW419809   2.781   5.043   4.145
 4873SOL     OW19810   3.662   4.048   4.590
 4873SOL    HW219811   3.599   4.028   4.659
 4873SOL    HW319812   3.652   3.977   4.527
 4873SOL    MW419813   3.652   4.035   4.591
 4874SOL     OW19814   2.286   4.020   4.102
 4874SOL    HW219815   2.260   3.982   4.018
 4874SOL    HW319816   2.223   4.090   4.118
 4874SOL    MW419817   2.275   4.023   4.093
 4875SOL     OW19818   2.121   4.981   4.139
 4875SOL    HW219819   2.069   5.049   4.095
 4875SOL    HW319820   2.118   4.907   4.079
 4875SOL    MW419821   2.113   4.980   4.126
 4876SOL     OW19822   3.718   4.217   3.892
 4876SOL    HW219823   3.627   4.219   3.920
 4876SOL    HW319824   3.763   4.279   3.950
 4876SOL    MW419825   3.711   4.225   3.902
 4877SOL     OW19826   3.463   4.820   4.242
 4877SOL    HW219827   3.373   4.820   4.277
 4877SOL    HW319828   3.456   4.866   4.159
 4877SOL    MW419829   3.450   4.826   4.236
 4878SOL     OW19830   3.263   4.455   5.314
 4878SOL    HW219831   3.332   4.393   5.291
 4878SOL    HW319832   3.188   4.429   5.261
 4878SOL    MW419833   3.263   4.442   5.305
 4879SOL     OW19834   2.999   4.842   5.306
 4879SOL    HW219835   2.984   4.935   5.291
 4879SOL    HW319836   3.094   4.832   5.306
 4879SOL    MW419837   3.008   4.852   5.303
 4880SOL     OW19838   2.795   4.266   5.507
 4880SOL    HW219839   2.885   4.267   5.474
 4880SOL    HW319840   2.754   4.191   5.465
 4880SOL    MW419841   2.801   4.256   5.498
 4881SOL     OW19842   3.370   4.798   4.634
 4881SOL    HW219843   3.373   4.732   4.565
 4881SOL    HW319844   3.455   4.841   4.630
 4881SOL    MW419845   3.382   4.794   4.625
 4882SOL     OW19846   2.990   4.401   4.203
 4882SOL    HW219847   3.016   4.425   4.114
 4882SOL    HW319848   2.972   4.308   4.199
 4882SOL    MW419849   2.992   4.393   4.190
 4883SOL     OW19850   2.575   4.070   5.457
 4883SOL    HW219851   2.585   3.996   5.397
 4883SOL    HW319852   2.611   4.039   5.540
 4883SOL    MW419853   2.581   4.056   5.459
 4884SOL     OW19854   3.695   3.799   4.421
 4884SOL    HW219855   3.749   3.750   4.483
 4884SOL    HW319856   3.638   3.733   4.382
 4884SOL    MW419857   3.695   3.783   4.423
 4885SOL     OW19858   2.027   5.497   3.949
 4885SOL    HW219859   2.056   5.587   3.941
 4885SOL    HW319860   1.977   5.480   3.870
 4885SOL    MW419861   2.025   5.505   3.938
 4886SOL     OW19862   2.814   3.752   4.834
 4886SOL    HW219863   2.773   3.830   4.796
 4886SOL    HW319864   2.908   3.770   4.829
 4886SOL    MW419865   2.820   3.764   4.829
 4887SOL     OW19866   2.829   4.430   3.864
 4887SOL    HW219867   2.831   4.377   3.785
 4887SOL    HW319868   2.917   4.467   3.870
 4887SOL    MW419869   2.841   4.429   3.853
 4888SOL     OW19870   3.443   4.356   4.200
 4888SOL    HW219871   3.482   4.356   4.287
 4888SOL    HW319872   3.384   4.432   4.200
 4888SOL    MW419873   3.440   4.367   4.211
 4889SOL     OW19874   2.760   4.723   5.329
 4889SOL    HW219875   2.737   4.703   5.419
 4889SOL    HW319876   2.845   4.767   5.334
 4889SOL    MW419877   2.767   4.726   5.341
 4890SOL     OW19878   2.840   3.860   5.089
 4890SOL    HW219879   2.846   3.822   5.002
 4890SOL    HW319880   2.829   3.954   5.074
 4890SOL    MW419881   2.841   3.868   5.077
 4891SOL     OW19882   2.929   4.349   4.923
 4891SOL    HW219883   3.004   4.378   4.870
 4891SOL    HW319884   2.861   4.414   4.907
 4891SOL    MW419885   2.930   4.361   4.913
 4892SOL     OW19886   3.479   4.317   5.200
 4892SOL    HW219887   3.460   4.226   5.179
 4892SOL    HW319888   3.457   4.366   5.121
 4892SOL    MW419889   3.474   4.310   5.187
 4893SOL     OW19890   3.621   5.411   5.104
 4893SOL    HW219891   3.549   5.373   5.155
 4893SOL    HW319892   3.638   5.496   5.145
 4893SOL    MW419893   3.615   5.416   5.116
 4894SOL     OW19894   2.926   4.055   5.306
 4894SOL    HW219895   2.892   4.094   5.225
 4894SOL    HW319896   2.904   3.963   5.299
 4894SOL    MW419897   2.919   4.048   5.296
 4895SOL     OW19898   3.335   4.869   5.382
 4895SOL    HW219899   3.417   4.910   5.412
 4895SOL    HW319900   3.298   4.831   5.462
 4895SOL    MW419901   3.341   4.870   5.397
 4896SOL     OW19902   3.630   4.242   4.366
 4896SOL    HW219903   3.719   4.211   4.383
 4896SOL    HW319904   3.573   4.182   4.414
 4896SOL    MW419905   3.633   4.230   4.375
 4897SOL     OW19906   2.056   3.956   4.395
 4897SOL    HW219907   2.047   3.896   4.321
 4897SOL    HW319908   1.989   3.927   4.458
 4897SOL    MW419909   2.046   3.943   4.393
 4898SOL     OW19910   2.003   4.129   4.758
 4898SOL    HW219911   1.975   4.220   4.767
 4898SOL    HW319912   1.940   4.090   4.697
 4898SOL    MW419913   1.990   4.135   4.752
 4899SOL     OW19914   2.462   5.467   4.064
 4899SOL    HW219915   2.383   5.425   4.097
 4899SOL    HW319916   2.528   5.450   4.131
 4899SOL    MW419917   2.461   5.459   4.077
 4900SOL     OW19918   3.590   4.987   5.461
 4900SOL    HW219919   3.640   4.913   5.493
 4900SOL    HW319920   3.536   5.014   5.536
 4900SOL    MW419921   3.590   4.981   5.474
 4901SOL     OW19922   2.598   4.882   3.771
 4901SOL    HW219923   2.520   4.828   3.758
 4901SOL    HW319924   2.569   4.955   3.824
 4901SOL    MW419925   2.584   4.884   3.776
 4902SOL     OW19926   3.724   4.622   4.963
 4902SOL    HW219927   3.740   4.660   4.876
 4902SOL    HW319928   3.758   4.688   5.024
 4902SOL    MW419929   3.731   4.635   4.959
 4903SOL     OW19930   3.516   5.331   4.632
 4903SOL    HW219931   3.545   5.398   4.693
 4903SOL    HW319932   3.497   5.255   4.687
 4903SOL    MW419933   3.518   5.331   4.647
 4904SOL     OW19934   1.987   4.404   4.928
 4904SOL    HW219935   2.049   4.434   4.994
 4904SOL    HW319936   1.921   4.473   4.922
 4904SOL    MW419937   1.986   4.417   4.935
 4905SOL     OW19938   2.628   3.961   3.836
 4905SOL    HW219939   2.576   3.881   3.824
 4905SOL    HW319940   2.715   3.938   3.804
 4905SOL    MW419941   2.631   3.947   3.830
 4906SOL     OW19942   2.082   5.513   5.380
 4906SOL    HW219943   2.056   5.581   5.318
 4906SOL    HW319944   2.130   5.450   5.328
 4906SOL    MW419945   2.084   5.513   5.366
 4907SOL     OW19946   2.134   4.832   4.887
 4907SOL    HW219947   2.187   4.907   4.912
 4907SOL    HW319948   2.053   4.870   4.853
 4907SOL    MW419949   2.130   4.847   4.887
 4908SOL     OW19950   2.674   4.736   4.875
 4908SOL    HW219951   2.702   4.645   4.887
 4908SOL    HW319952   2.603   4.730   4.811
 4908SOL    MW419953   2.667   4.724   4.870
 4909SOL     OW19954   1.989   4.601   4.293
 4909SOL    HW219955   2.080   4.616   4.320
 4909SOL    HW319956   1.992   4.522   4.239
 4909SOL    MW419957   2.001   4.593   4.291
 4910SOL     OW19958   2.225   4.309   5.547
 4910SOL    HW219959   2.172   4.389   5.554
 4910SOL    HW319960   2.295   4.321   5.612
 4910SOL    MW419961   2.227   4.322   5.555
 4911SOL     OW19962   2.611   3.859   5.254
 4911SOL    HW219963   2.588   3.767   5.256
 4911SOL    HW319964   2.697   3.861   5.211
 4911SOL    MW419965   2.618   3.849   5.250
 4912SOL     OW19966   2.295   4.383   5.293
 4912SOL    HW219967   2.375   4.433   5.279
 4912SOL    HW319968   2.286   4.377   5.388
 4912SOL    MW419969   2.304   4.389   5.303
 4913SOL     OW19970   2.616   5.533   4.667
 4913SOL    HW219971   2.705   5.548   4.697
 4913SOL    HW319972   2.611   5.580   4.583
 4913SOL    MW419973   2.626   5.541   4.660
 4914SOL     OW19974   3.272   3.908   5.564
 4914SOL    HW219975   3.328   3.835   5.590
 4914SOL    HW319976   3.242   3.946   5.646
 4914SOL    MW419977   3.276   3.903   5.577
 4915SOL     OW19978   1.997   5.213   4.332
 4915SOL    HW219979   1.969   5.252   4.414
 4915SOL    HW319980   2.017   5.122   4.354
 4915SOL    MW419981   1.995   5.205   4.345
 4916SOL     OW19982   2.830   5.256   4.367
 4916SOL    HW219983   2.913   5.210   4.351
 4916SOL    HW319984   2.820   5.255   4.463
 4916SOL    MW419985   2.840   5.249   4.377
 4917SOL     OW19986   3.662   4.401   4.681
 4917SOL    HW219987   3.751   4.431   4.663
 4917SOL    HW319988   3.642   4.341   4.610
 4917SOL    MW419989   3.671   4.398   4.670
 4918SOL     OW19990   3.513   4.580   5.561
 4918SOL    HW219991   3.568   4.504   5.542
 4918SOL    HW319992   3.515   4.588   5.656
 4918SOL    MW419993   3.521   4.571   5.569
 4919SOL     OW19994   2.563   5.313   3.772
 4919SOL    HW219995   2.503   5.382   3.742
 4919SOL    HW319996   2.508   5.255   3.825
 4919SOL    MW419997   2.547   5.315   3.774
 4920SOL     OW19998   3.001   3.958   3.995
 4920SOL    HW219999   2.934   3.934   3.932
 4920SOL    HW320000   3.066   4.007   3.944
 4920SOL    MW420001   3.001   3.960   3.980
 4921SOL     OW20002   2.808   4.142   5.080
 4921SOL    HW220003   2.727   4.183   5.108
 4921SOL    HW320004   2.855   4.210   5.032
 4921SOL    MW420005   2.803   4.157   5.078
 4922SOL     OW20006   3.068   4.480   4.703
 4922SOL    HW220007   3.081   4.574   4.713
 4922SOL    HW320008   3.029   4.470   4.617
 4922SOL    MW420009   3.064   4.491   4.693
 4923SOL     OW20010   2.520   4.675   4.507
 4923SOL    HW220011   2.431   4.666   4.540
 4923SOL    HW320012   2.524   4.765   4.475
 4923SOL    MW420013   2.509   4.686   4.507
 4924SOL     OW20014   3.319   4.258   4.502
 4924SOL    HW220015   3.264   4.179   4.501
 4924SOL    HW320016   3.301   4.299   4.586
 4924SOL    MW420017   3.309   4.253   4.511
 4925SOL     OW20018   2.290   3.945   5.319
 4925SOL    HW220019   2.211   3.963   5.371
 4925SOL    HW320020   2.285   4.007   5.246
 4925SOL    MW420021   2.280   3.955   5.316
 4926SOL     OW20022   2.938   4.462   4.459
 4926SOL    HW220023   2.875   4.394   4.483
 4926SOL    HW320024   2.958   4.443   4.367
 4926SOL    MW420025   2.932   4.449   4.451
 4927SOL     OW20026   2.194   5.357   4.161
 4927SOL    HW220027   2.155   5.404   4.087
 4927SOL    HW320028   2.128   5.292   4.186
 4927SOL    MW420029   2.181   5.355   4.155
 4928SOL     OW20030   2.686   4.766   4.185
 4928SOL    HW220031   2.688   4.740   4.092
 4928SOL    HW320032   2.744   4.703   4.228
 4928SOL    MW420033   2.694   4.755   4.179
 4929SOL     OW20034   3.239   5.326   4.957
 4929SOL    HW220035   3.164   5.372   4.995
 4929SOL    HW320036   3.221   5.233   4.974
 4929SOL    MW420037   3.228   5.320   4.965
 4930SOL     OW20038   3.196   4.010   4.518
 4930SOL    HW220039   3.224   3.942   4.579
 4930SOL    HW320040   3.110   3.981   4.488
 4930SOL    MW420041   3.189   3.997   4.522
 4931SOL     OW20042   2.001   4.944   4.452
 4931SOL    HW220043   2.065   4.976   4.515
 4931SOL    HW320044   2.050   4.880   4.400
 4931SOL    MW420045   2.016   4.940   4.453
 4932SOL     OW20046   2.501   5.020   5.434
 4932SOL    HW220047   2.549   5.103   5.421
 4932SOL    HW320048   2.558   4.968   5.490
 4932SOL    MW420049   2.515   5.024   5.440
 4933SOL     OW20050   2.077   5.262   5.574
 4933SOL    HW220051   2.133   5.186   5.589
 4933SOL    HW320052   2.026   5.240   5.496
 4933SOL    MW420053   2.077   5.249   5.565
 4934SOL     OW20054   3.176   4.114   3.853
 4934SOL    HW220055   3.149   4.180   3.789
 4934SOL    HW320056   3.246   4.157   3.903
 4934SOL    MW420057   3.181   4.127   3.850
 4935SOL     OW20058   2.844   3.819   3.790
 4935SOL    HW220059   2.900   3.811   3.712
 4935SOL    HW320060   2.821   3.729   3.812
 4935SOL    MW420061   2.849   3.806   3.783
 4936SOL     OW20062   3.349   4.670   3.995
 4936SOL    HW220063   3.316   4.759   3.985
 4936SOL    HW320064   3.314   4.641   4.080
 4936SOL    MW420065   3.339   4.679   4.006
 4937SOL     OW20066   2.962   5.099   5.183
 4937SOL    HW220067   2.873   5.105   5.151
 4937SOL    HW320068   3.006   5.178   5.151
 4937SOL    MW420069   2.957   5.109   5.175
 4938SOL     OW20070   2.255   3.767   5.525
 4938SOL    HW220071   2.183   3.732   5.473
 4938SOL    HW320072   2.313   3.808   5.460
 4938SOL    MW420073   2.253   3.768   5.510
 4939SOL     OW20074   3.719   4.786   5.178
 4939SOL    HW220075   3.634   4.799   5.137
 4939SOL    HW320076   3.699   4.750   5.265
 4939SOL    MW420077   3.706   4.782   5.183
 4940SOL     OW20078   2.701   5.325   4.932
 4940SOL    HW220079   2.725   5.314   4.841
 4940SOL    HW320080   2.624   5.382   4.930
 4940SOL    MW420081   2.693   5.330   4.921
 4941SOL     OW20082   2.343   4.708   3.787
 4941SOL    HW220083   2.266   4.721   3.843
 4941SOL    HW320084   2.307   4.672   3.706
 4941SOL    MW420085   2.329   4.704   3.784
 4942SOL     OW20086   2.996   4.681   4.030
 4942SOL    HW220087   2.906   4.702   4.005
 4942SOL    HW320088   3.023   4.754   4.086
 4942SOL    MW420089   2.988   4.693   4.033
 4943SOL     OW20090   2.496   5.030   4.722
 4943SOL    HW220091   2.489   5.009   4.816
 4943SOL    HW320092   2.414   4.998   4.685
 4943SOL    MW420093   2.484   5.024   4.729
 4944SOL     OW20094   3.360   4.040   5.124
 4944SOL    HW220095   3.307   4.042   5.204
 4944SOL    HW320096   3.345   3.953   5.087
 4944SOL    MW420097   3.352   4.030   5.129
 4945SOL     OW20098   3.696   3.964   4.997
 4945SOL    HW220099   3.677   4.031   4.932
 4945SOL    HW320100   3.753   3.902   4.952
 4945SOL    MW420101   3.700   3.965   4.983
 4946SOL     OW20102   1.942   5.122   5.385
 4946SOL    HW220103   1.986   5.055   5.331
 4946SOL    HW320104   1.857   5.084   5.405
 4946SOL    MW420105   1.937   5.108   5.381
 4947SOL     OW20106   2.625   3.797   4.437
 4947SOL    HW220107   2.554   3.858   4.419
 4947SOL    HW320108   2.676   3.794   4.356
 4947SOL    MW420109   2.621   3.803   4.424
 4948SOL     OW20110   2.383   5.037   4.186
 4948SOL    HW220111   2.376   5.069   4.276
 4948SOL    HW320112   2.293   5.021   4.158
 4948SOL    MW420113   2.371   5.039   4.193
 4949SOL     OW20114   2.978   5.430   5.095
 4949SOL    HW220115   2.898   5.415   5.045
 4949SOL    HW320116   2.985   5.525   5.102
 4949SOL    MW420117   2.969   5.441   5.089
 4950SOL     OW20118   3.500   5.490   4.860
 4950SOL    HW220119   3.543   5.460   4.940
 4950SOL    HW320120   3.419   5.438   4.857
 4950SOL    MW420121   3.495   5.479   4.870
 4951SOL     OW20122   2.585   4.454   5.567
 4951SOL    HW220123   2.655   4.396   5.539
 4951SOL    HW320124   2.528   4.399   5.622
 4951SOL    MW420125   2.587   4.441   5.571
 4952SOL     OW20126   3.372   4.666   5.200
 4952SOL    HW220127   3.377   4.719   5.280
 4952SOL    HW320128   3.334   4.583   5.228
 4952SOL    MW420129   3.368   4.661   5.215
 4953SOL     OW20130   3.012   3.801   5.446
 4953SOL    HW220131   3.007   3.708   5.427
 4953SOL    HW320132   3.095   3.812   5.492
 4953SOL    MW420133   3.020   3.790   5.450
 4954SOL     OW20134   2.386   4.321   3.900
 4954SOL    HW220135   2.352   4.377   3.970
 4954SOL    HW320136   2.457   4.271   3.940
 4954SOL    MW420137   2.392   4.322   3.914
 4955SOL     OW20138   3.482   5.072   4.722
 4955SOL    HW220139   3.517   5.054   4.635
 4955SOL    HW320140   3.387   5.073   4.709
 4955SOL    MW420141   3.474   5.069   4.709
 4956SOL     OW20142   2.911   4.720   5.091
 4956SOL    HW220143   2.954   4.755   5.169
 4956SOL    HW320144   2.894   4.797   5.037
 4956SOL    MW420145   2.914   4.735   5.094
 4957SOL     OW20146   3.442   4.207   3.964
 4957SOL    HW220147   3.434   4.278   3.901
 4957SOL    HW320148   3.460   4.251   4.047
 4957SOL    MW420149   3.443   4.221   3.966
 4958SOL     OW20150   2.302   3.862   4.393
 4958SOL    HW220151   2.352   3.905   4.324
 4958SOL    HW320152   2.217   3.906   4.393
 4958SOL    MW420153   2.299   3.875   4.384
 4959SOL     OW20154   2.061   4.924   5.253
 4959SOL    HW220155   2.089   4.877   5.331
 4959SOL    HW320156   1.982   4.879   5.224
 4959SOL    MW420157   2.054   4.913   5.259
 4960SOL     OW20158   2.569   4.251   5.220
 4960SOL    HW220159   2.541   4.339   5.244
 4960SOL    HW320160   2.538   4.195   5.291
 4960SOL    MW420161   2.561   4.254   5.232
 4961SOL     OW20162   3.111   4.469   3.939
 4961SOL    HW220163   3.158   4.487   3.858
 4961SOL    HW320164   3.077   4.553   3.967
 4961SOL    MW420165   3.113   4.483   3.932
 4962SOL     OW20166   2.224   4.647   4.433
 4962SOL    HW220167   2.282   4.703   4.381
 4962SOL    HW320168   2.268   4.562   4.435
 4962SOL    MW420169   2.237   4.644   4.426
 4963SOL     OW20170   3.364   3.999   4.270
 4963SOL    HW220171   3.286   3.949   4.295
 4963SOL    HW320172   3.335   4.090   4.270
 4963SOL    MW420173   3.350   4.003   4.273
 4964SOL     OW20174   2.950   3.961   4.429
 4964SOL    HW220175   2.970   4.036   4.373
 4964SOL    HW320176   2.930   4.000   4.514
 4964SOL    MW420177   2.951   3.977   4.433
 4965SOL     OW20178   3.710   4.734   5.448
 4965SOL    HW220179   3.623   4.714   5.484
 4965SOL    HW320180   3.764   4.660   5.473
 4965SOL    MW420181   3.705   4.723   5.456
 4966SOL     OW20182   1.886   4.373   4.152
 4966SOL    HW220183   1.826   4.345   4.222
 4966SOL    HW320184   1.960   4.313   4.158
 4966SOL    MW420185   1.888   4.362   4.161
 4967SOL     OW20186   3.454   5.585   5.586
 4967SOL    HW220187   3.499   5.509   5.551
 4967SOL    HW320188   3.492   5.598   5.673
 4967SOL    MW420189   3.464   5.578   5.592
 4968SOL     OW20190   3.054   5.104   4.312
 4968SOL    HW220191   3.077   5.055   4.390
 4968SOL    HW320192   3.135   5.146   4.284
 4968SOL    MW420193   3.067   5.104   4.319
 4969SOL     OW20194   2.312   4.112   5.041
 4969SOL    HW220195   2.345   4.193   5.081
 4969SOL    HW320196   2.285   4.138   4.953
 4969SOL    MW420197   2.311   4.126   5.035
 4970SOL     OW20198   2.266   4.079   4.777
 4970SOL    HW220199   2.296   3.993   4.748
 4970SOL    HW320200   2.171   4.072   4.780
 4970SOL    MW420201   2.258   4.068   4.775
 4971SOL     OW20202   3.095   4.288   5.468
 4971SOL    HW220203   3.147   4.223   5.421
 4971SOL    HW320204   3.053   4.339   5.398
 4971SOL    MW420205   3.096   4.285   5.451
 4972SOL     OW20206   3.194   4.083   5.329
 4972SOL    HW220207   3.101   4.067   5.316
 4972SOL    HW320208   3.220   4.021   5.397
 4972SOL    MW420209   3.184   4.073   5.336
 4973SOL     OW20210   2.409   3.857   4.668
 4973SOL    HW220211   2.419   3.766   4.694
 4973SOL    HW320212   2.365   3.853   4.583
 4973SOL    MW420213   2.405   3.845   4.660
 4974SOL     OW20214   2.503   5.472   5.214
 4974SOL    HW220215   2.420   5.457   5.259
 4974SOL    HW320216   2.562   5.405   5.249
 4974SOL    MW420217   2.501   5.462   5.224
 4975SOL     OW20218   3.560   4.179   4.839
 4975SOL    HW220219   3.493   4.212   4.899
 4975SOL    HW320220   3.603   4.257   4.805
 4975SOL    MW420221   3.558   4.194   4.843
 4976SOL     OW20222   3.738   4.899   4.809
 4976SOL    HW220223   3.731   4.839   4.734
 4976SOL    HW320224   3.664   4.959   4.798
 4976SOL    MW420225   3.728   4.899   4.798
 4977SOL     OW20226   3.120   4.761   4.727
 4977SOL    HW220227   3.134   4.733   4.818
 4977SOL    HW320228   3.206   4.792   4.699
 4977SOL    MW420229   3.133   4.762   4.736
 4978SOL     OW20230   3.203   4.256   5.006
 4978SOL    HW220231   3.224   4.257   4.913
 4978SOL    HW320232   3.248   4.178   5.039
 4978SOL    MW420233   3.210   4.246   4.998
 4979SOL     OW20234   3.696   4.387   5.548
 4979SOL    HW220235   3.733   4.332   5.617
 4979SOL    HW320236   3.721   4.344   5.466
 4979SOL    MW420237   3.703   4.375   5.547
 4980SOL     OW20238   3.243   4.685   5.600
 4980SOL    HW220239   3.309   4.633   5.554
 4980SOL    HW320240   3.263   4.672   5.693
 4980SOL    MW420241   3.254   4.676   5.607
 4981SOL     OW20242   3.194   3.771   3.948
 4981SOL    HW220243   3.268   3.815   3.991
 4981SOL    HW320244   3.118   3.825   3.970
 4981SOL    MW420245   3.194   3.783   3.956
 4982SOL     OW20246   3.254   4.546   4.226
 4982SOL    HW220247   3.169   4.516   4.196
 4982SOL    HW320248   3.246   4.553   4.321
 4982SOL    MW420249   3.242   4.544   4.235
 4983SOL     OW20250   2.330   5.009   4.957
 4983SOL    HW220251   2.342   5.036   5.048
 4983SOL    HW320252   2.311   5.090   4.910
 4983SOL    MW420253   2.329   5.024   4.962
 4984SOL     OW20254   2.614   3.989   4.780
 4984SOL    HW220255   2.587   3.991   4.871
 4984SOL    HW320256   2.544   3.941   4.735
 4984SOL    MW420257   2.602   3.985   4.787
 4985SOL     OW20258   3.370   5.066   5.174
 4985SOL    HW220259   3.355   4.995   5.237
 4985SOL    HW320260   3.416   5.024   5.102
 4985SOL    MW420261   3.376   5.050   5.174
 4986SOL     OW20262   2.444   4.797   5.291
 4986SOL    HW220263   2.481   4.802   5.203
 4986SOL    HW320264   2.483   4.870   5.338
 4986SOL    MW420265   2.454   4.807   5.286
 4987SOL     OW20266   2.624   4.840   5.103
 4987SOL    HW220267   2.683   4.786   5.156
 4987SOL    HW320268   2.639   4.812   5.013
 4987SOL    MW420269   2.634   4.829   5.099
 4988SOL     OW20270   2.627   4.212   3.952
 4988SOL    HW220271   2.700   4.261   3.915
 4988SOL    HW320272   2.643   4.121   3.926
 4988SOL    MW420273   2.639   4.207   3.945
 4989SOL     OW20274   3.435   5.329   5.275
 4989SOL    HW220275   3.477   5.314   5.360
 4989SOL    HW320276   3.426   5.242   5.237
 4989SOL    MW420277   3.439   5.317   5.282
 4990SOL     OW20278   3.095   3.808   4.866
 4990SOL    HW220279   3.150   3.817   4.788
 4990SOL    HW320280   3.150   3.842   4.937
 4990SOL    MW420281   3.109   3.813   4.865
 4991SOL     OW20282   2.102   4.721   4.050
 4991SOL    HW220283   2.039   4.737   3.979
 4991SOL    HW320284   2.049   4.684   4.121
 4991SOL    MW420285   2.087   4.718   4.050
 4992SOL     OW20286   2.458   5.075   3.909
 4992SOL    HW220287   2.473   5.051   4.001
 4992SOL    HW320288   2.366   5.053   3.893
 4992SOL    MW420289   2.448   5.068   3.919
 4993SOL     OW20290   2.873   4.942   4.873
 4993SOL    HW220291   2.805   4.876   4.889
 4993SOL    HW320292   2.891   4.936   4.780
 4993SOL    MW420293   2.866   4.933   4.864
 4994SOL     OW20294   1.962   5.217   5.124
 4994SOL    HW220295   1.952   5.175   5.210
 4994SOL    HW320296   1.883   5.270   5.114
 4994SOL    MW420297   1.951   5.218   5.135
 4995SOL     OW20298   2.866   4.081   4.694
 4995SOL    HW220299   2.796   4.033   4.739
 4995SOL    HW320300   2.898   4.144   4.758
 4995SOL    MW420301   2.861   4.083   4.708
 4996SOL     OW20302   2.517   4.517   5.314
 4996SOL    HW220303   2.510   4.612   5.302
 4996SOL    HW320304   2.526   4.506   5.409
 4996SOL    MW420305   2.518   4.529   5.324
 4997SOL     OW20306   2.238   5.032   5.572
 4997SOL    HW220307   2.310   5.034   5.509
 4997SOL    HW320308   2.208   4.941   5.571
 4997SOL    MW420309   2.243   5.021   5.564
 4998SOL     OW20310   3.322   3.795   5.039
 4998SOL    HW220311   3.393   3.741   5.003
 4998SOL    HW320312   3.321   3.774   5.132
 4998SOL    MW420313   3.331   3.786   5.047
 4999SOL     OW20314   3.522   5.325   5.523
 4999SOL    HW220315   3.495   5.322   5.614
 4999SOL    HW320316   3.618   5.329   5.526
 4999SOL    MW420317   3.532   5.325   5.535
 5000SOL     OW20318   2.333   4.187   4.507
 5000SOL    HW220319   2.404   4.135   4.470
 5000SOL    HW320320   2.319   4.152   4.594
 5000SOL    MW420321   2.341   4.176   4.514
 5001SOL     OW20322   1.888   5.522   5.579
 5001SOL    HW220323   1.938   5.500   5.501
 5001SOL    HW320324   1.896   5.617   5.587
 5001SOL    MW420325   1.896   5.531   5.570
 5002SOL     OW20326   2.649   5.280   4.583
 5002SOL    HW220327   2.577   5.217   4.596
 5002SOL    HW320328   2.610   5.365   4.601
 5002SOL    MW420329   2.633   5.283   4.586
 5003SOL     OW20330   2.969   4.128   4.231
 5003SOL    HW220331   2.991   4.065   4.163
 5003SOL    HW320332   2.874   4.120   4.242
 5003SOL    MW420333   2.959   4.119   4.223
 5004SOL     OW20334   2.054   3.818   4.163
 5004SOL    HW220335   2.125   3.839   4.102
 5004SOL    HW320336   2.008   3.746   4.121
 5004SOL    MW420337   2.058   3.812   4.149
 5005SOL     OW20338   1.885   4.285   5.306
 5005SOL    HW220339   1.949   4.351   5.281
 5005SOL    HW320340   1.804   4.312   5.263
 5005SOL    MW420341   1.883   4.297   5.298
 5006SOL     OW20342   3.623   5.192   4.263
 5006SOL    HW220343   3.593   5.125   4.324
 5006SOL    HW320344   3.717   5.198   4.277
 5006SOL    MW420345   3.631   5.184   4.273
 5007SOL     OW20346   3.179   4.869   4.193
 5007SOL    HW220347   3.151   4.955   4.226
 5007SOL    HW320348   3.207   4.885   4.103
 5007SOL    MW420349   3.179   4.883   4.185
 5008SOL     OW20350   2.841   3.789   4.246
 5008SOL    HW220351   2.878   3.848   4.311
 5008SOL    HW320352   2.818   3.845   4.172
 5008SOL    MW420353   2.842   3.804   4.245
 5009SOL     OW20354   3.694   4.671   4.668
 5009SOL    HW220355   3.685   4.703   4.579
 5009SOL    HW320356   3.647   4.587   4.668
 5009SOL    MW420357   3.687   4.664   4.658
 5010SOL     OW20358   2.070   4.511   5.247
 5010SOL    HW220359   2.091   4.580   5.185
 5010SOL    HW320360   2.150   4.458   5.252
 5010SOL    MW420361   2.083   4.512   5.241
 5011SOL     OW20362   3.606   4.602   4.369
 5011SOL    HW220363   3.700   4.591   4.357
 5011SOL    HW320364   3.582   4.674   4.310
 5011SOL    MW420365   3.616   4.610   4.360
 5012SOL     OW20366   2.055   4.526   5.514
 5012SOL    HW220367   1.981   4.470   5.540
 5012SOL    HW320368   2.050   4.529   5.419
 5012SOL    MW420369   2.044   4.519   5.504
 5013SOL     OW20370   2.221   3.813   4.964
 5013SOL    HW220371   2.264   3.897   4.984
 5013SOL    HW320372   2.294   3.751   4.957
 5013SOL    MW420373   2.236   3.816   4.965
 5014SOL     OW20374   2.262   4.480   4.142
 5014SOL    HW220375   2.262   4.575   4.127
 5014SOL    HW320376   2.339   4.464   4.196
 5014SOL    MW420377   2.272   4.491   4.147
 5015SOL     OW20378   3.038   4.339   5.206
 5015SOL    HW220379   3.074   4.312   5.122
 5015SOL    HW320380   2.951   4.373   5.185
 5015SOL    MW420381   3.032   4.340   5.193
 5016SOL     OW20382   2.021   4.211   4.431
 5016SOL    HW220383   2.083   4.218   4.504
 5016SOL    HW320384   2.021   4.118   4.408
 5016SOL    MW420385   2.029   4.200   4.438
 5017SOL     OW20386   2.703   4.472   4.915
 5017SOL    HW220387   2.661   4.390   4.891
 5017SOL    HW320388   2.704   4.471   5.011
 5017SOL    MW420389   2.696   4.461   4.924
 5018SOL     OW20390   3.374   5.605   5.314
 5018SOL    HW220391   3.377   5.511   5.297
 5018SOL    HW320392   3.397   5.613   5.406
 5018SOL    MW420393   3.377   5.593   5.324
 5019SOL     OW20394   2.507   3.942   5.020
 5019SOL    HW220395   2.438   4.005   5.041
 5019SOL    HW320396   2.534   3.906   5.105
 5019SOL    MW420397   2.501   3.945   5.033
 5020SOL     OW20398   1.890   4.783   3.889
 5020SOL    HW220399   1.859   4.848   3.952
 5020SOL    HW320400   1.839   4.705   3.908
 5020SOL    MW420401   1.880   4.780   3.899
 5021SOL     OW20402   3.302   3.795   4.637
 5021SOL    HW220403   3.390   3.804   4.674
 5021SOL    HW320404   3.312   3.736   4.563
 5021SOL    MW420405   3.316   3.789   4.631
 5022SOL     OW20406   3.334   4.534   4.481
 5022SOL    HW220407   3.414   4.549   4.430
 5022SOL    HW320408   3.327   4.439   4.487
 5022SOL    MW420409   3.343   4.523   4.476
 5023SOL     OW20410   2.474   5.583   3.831
 5023SOL    HW220411   2.379   5.583   3.823
 5023SOL    HW320412   2.490   5.529   3.909
 5023SOL    MW420413   2.464   5.577   3.840
 5024SOL     OW20414   2.784   4.460   5.178
 5024SOL    HW220415   2.853   4.527   5.175
 5024SOL    HW320416   2.717   4.498   5.234
 5024SOL    MW420417   2.785   4.473   5.185
 5025SOL     OW20418   2.202   4.760   5.426
 5025SOL    HW220419   2.156   4.676   5.428
 5025SOL    HW320420   2.259   4.754   5.350
 5025SOL    MW420421   2.204   4.748   5.418
 5026SOL     OW20422   3.319   4.403   3.747
 5026SOL    HW220423   3.247   4.379   3.689
 5026SOL    HW320424   3.385   4.440   3.689
 5026SOL    MW420425   3.318   4.405   3.732
 5027SOL     OW20426   2.453   5.135   4.427
 5027SOL    HW220427   2.518   5.068   4.448
 5027SOL    HW320428   2.505   5.212   4.404
 5027SOL    MW420429   2.468   5.137   4.426
 5028SOL     OW20430   2.714   4.300   4.557
 5028SOL    HW220431   2.654   4.318   4.629
 5028SOL    HW320432   2.748   4.212   4.576
 5028SOL    MW420433   2.710   4.290   4.570
 5029SOL     OW20434   3.655   3.799   5.226
 5029SOL    HW220435   3.576   3.845   5.254
 5029SOL    HW320436   3.690   3.853   5.155
 5029SOL    MW420437   3.649   3.812   5.220
 5030SOL     OW20438   2.939   4.883   4.576
 5030SOL    HW220439   3.031   4.864   4.594
 5030SOL    HW320440   2.912   4.813   4.516
 5030SOL    MW420441   2.947   4.871   4.570
 5031SOL     OW20442   2.732   4.703   3.931
 5031SOL    HW220443   2.718   4.615   3.896
 5031SOL    HW320444   2.683   4.760   3.872
 5031SOL    MW420445   2.724   4.698   3.919
 5032SOL     OW20446   3.132   5.069   4.940
 5032SOL    HW220447   3.143   5.036   5.029
 5032SOL    HW320448   3.051   5.028   4.909
 5032SOL    MW420449   3.122   5.061   4.946
 5033SOL     OW20450   2.145   4.427   4.710
 5033SOL    HW220451   2.095   4.426   4.791
 5033SOL    HW320452   2.165   4.519   4.694
 5033SOL    MW420453   2.141   4.439   4.718
 5034SOL     OW20454   3.212   5.191   5.472
 5034SOL    HW220455   3.212   5.285   5.488
 5034SOL    HW320456   3.257   5.181   5.388
 5034SOL    MW420457   3.218   5.201   5.463
 5035SOL     OW20458   3.451   3.909   4.033
 5035SOL    HW220459   3.444   3.913   4.128
 5035SOL    HW320460   3.463   4.000   4.006
 5035SOL    MW420461   3.452   3.922   4.041
 5036SOL     OW20462   2.740   4.472   4.147
 5036SOL    HW220463   2.720   4.458   4.054
 5036SOL    HW320464   2.833   4.451   4.154
 5036SOL    MW420465   2.750   4.467   4.136
 5037SOL     OW20466   2.067   4.095   5.451
 5037SOL    HW220467   2.024   4.154   5.388
 5037SOL    HW320468   2.135   4.150   5.491
 5037SOL    MW420469   2.071   4.110   5.448
 5038SOL     OW20470   3.179   4.715   4.996
 5038SOL    HW220471   3.242   4.712   5.069
 5038SOL    HW320472   3.095   4.733   5.038
 5038SOL    MW420473   3.175   4.717   5.011
 5039SOL     OW20474   3.518   3.892   4.775
 5039SOL    HW220475   3.563   3.810   4.794
 5039SOL    HW320476   3.538   3.948   4.851
 5039SOL    MW420477   3.528   3.888   4.787
 5040SOL     OW20478   1.966   3.735   4.874
 5040SOL    HW220479   1.957   3.736   4.779
 5040SOL    HW320480   2.060   3.747   4.889
 5040SOL    MW420481   1.978   3.738   4.865
 5041SOL     OW20482   3.603   4.928   4.494
 5041SOL    HW220483   3.582   4.874   4.417
 5041SOL    HW320484   3.699   4.926   4.498
 5041SOL    MW420485   3.612   4.921   4.483
 5042SOL     OW20486   2.295   5.073   5.237
 5042SOL    HW220487   2.216   5.023   5.260
 5042SOL    HW320488   2.365   5.032   5.287
 5042SOL    MW420489   2.293   5.061   5.247
 5043SOL     OW20490   2.179   3.862   3.920
 5043SOL    HW220491   2.108   3.917   3.888
 5043SOL    HW320492   2.221   3.828   3.841
 5043SOL    MW420493   2.175   3.864   3.906
 5044SOL     OW20494   3.303   4.359   4.756
 5044SOL    HW220495   3.226   4.405   4.722
 5044SOL    HW320496   3.360   4.428   4.790
 5044SOL    MW420497   3.300   4.374   4.756
 5045SOL     OW20498   1.935   3.961   3.769
 5045SOL    HW220499   1.902   4.040   3.813
 5045SOL    HW320500   1.990   3.994   3.698
 5045SOL    MW420501   1.938   3.975   3.766
 5046SOL     OW20502   1.969   5.218   3.958
 5046SOL    HW220503   1.986   5.302   4.000
 5046SOL    HW320504   2.004   5.227   3.870
 5046SOL    MW420505   1.974   5.231   3.952
 5047SOL     OW20506   3.241   5.307   4.175
 5047SOL    HW220507   3.304   5.297   4.104
 5047SOL    HW320508   3.158   5.327   4.130
 5047SOL    MW420509   3.238   5.308   4.160
 5048SOL     OW20510   3.604   4.575   5.862
 5048SOL    HW220511   3.645   4.517   5.927
 5048SOL    HW320512   3.511   4.567   5.879
 5048SOL    MW420513   3.598   4.567   5.872
 5049SOL     OW20514   2.398   4.758   6.091
 5049SOL    HW220515   2.488   4.733   6.075
 5049SOL    HW320516   2.394   4.851   6.068
 5049SOL    MW420517   2.410   4.767   6.086
 5050SOL     OW20518   3.514   5.461   6.233
 5050SOL    HW220519   3.526   5.407   6.311
 5050SOL    HW320520   3.551   5.409   6.162
 5050SOL    MW420521   3.520   5.446   6.234
 5051SOL     OW20522   2.682   4.214   6.104
 5051SOL    HW220523   2.657   4.302   6.132
 5051SOL    HW320524   2.679   4.217   6.008
 5051SOL    MW420525   2.678   4.226   6.096
 5052SOL     OW20526   2.124   4.242   6.032
 5052SOL    HW220527   2.156   4.330   6.014
 5052SOL    HW320528   2.112   4.240   6.127
 5052SOL    MW420529   2.127   4.254   6.044
 5053SOL     OW20530   2.523   3.997   6.119
 5053SOL    HW220531   2.581   4.073   6.121
 5053SOL    HW320532   2.458   4.018   6.052
 5053SOL    MW420533   2.522   4.009   6.110
 5054SOL     OW20534   2.610   4.924   6.294
 5054SOL    HW220535   2.690   4.927   6.346
 5054SOL    HW320536   2.638   4.891   6.208
 5054SOL    MW420537   2.624   4.920   6.289
 5055SOL     OW20538   2.387   4.428   6.285
 5055SOL    HW220539   2.372   4.348   6.336
 5055SOL    HW320540   2.469   4.463   6.319
 5055SOL    MW420541   2.395   4.420   6.297
 5056SOL     OW20542   1.972   5.514   6.441
 5056SOL    HW220543   2.061   5.506   6.476
 5056SOL    HW320544   1.936   5.426   6.446
 5056SOL    MW420545   1.979   5.501   6.446
 5057SOL     OW20546   3.237   4.906   5.810
 5057SOL    HW220547   3.155   4.942   5.776
 5057SOL    HW320548   3.305   4.949   5.759
 5057SOL    MW420549   3.235   4.916   5.798
 5058SOL     OW20550   2.236   5.041   6.476
 5058SOL    HW220551   2.212   5.094   6.552
 5058SOL    HW320552   2.292   5.099   6.424
 5058SOL    MW420553   2.240   5.056   6.479
 5059SOL     OW20554   2.798   4.685   6.286
 5059SOL    HW220555   2.712   4.672   6.326
 5059SOL    HW320556   2.851   4.612   6.318
 5059SOL    MW420557   2.794   4.674   6.295
 5060SOL     OW20558   2.789   5.047   6.003
 5060SOL    HW220559   2.766   5.109   6.071
 5060SOL    HW320560   2.746   4.965   6.029
 5060SOL    MW420561   2.781   5.043   6.014
 5061SOL     OW20562   3.662   4.048   6.459
 5061SOL    HW220563   3.599   4.028   6.528
 5061SOL    HW320564   3.652   3.977   6.396
 5061SOL    MW420565   3.652   4.035   6.460
 5062SOL     OW20566   2.286   4.020   5.971
 5062SOL    HW220567   2.260   3.982   5.887
 5062SOL    HW320568   2.223   4.090   5.987
 5062SOL    MW420569   2.275   4.023   5.962
 5063SOL     OW20570   2.121   4.981   6.008
 5063SOL    HW220571   2.069   5.049   5.964
 5063SOL    HW320572   2.118   4.907   5.948
 5063SOL    MW420573   2.113   4.980   5.995
 5064SOL     OW20574   2.783   5.444   5.786
 5064SOL    HW220575   2.738   5.460   5.869
 5064SOL    HW320576   2.714   5.409   5.728
 5064SOL    MW420577   2.769   5.441   5.788
 5065SOL     OW20578   3.718   4.217   5.761
 5065SOL    HW220579   3.627   4.219   5.789
 5065SOL    HW320580   3.763   4.279   5.819
 5065SOL    MW420581   3.711   4.225   5.771
 5066SOL     OW20582   3.463   4.820   6.111
 5066SOL    HW220583   3.373   4.820   6.146
 5066SOL    HW320584   3.456   4.866   6.028
 5066SOL    MW420585   3.450   4.826   6.105
 5067SOL     OW20586   3.370   4.798   6.503
 5067SOL    HW220587   3.373   4.732   6.434
 5067SOL    HW320588   3.455   4.841   6.499
 5067SOL    MW420589   3.382   4.794   6.494
 5068SOL     OW20590   2.990   4.401   6.072
 5068SOL    HW220591   3.016   4.425   5.983
 5068SOL    HW320592   2.972   4.308   6.068
 5068SOL    MW420593   2.992   4.393   6.059
 5069SOL     OW20594   3.655   5.021   5.923
 5069SOL    HW220595   3.611   5.062   5.998
 5069SOL    HW320596   3.712   5.089   5.888
 5069SOL    MW420597   3.657   5.035   5.928
 5070SOL     OW20598   2.311   5.437   6.241
 5070SOL    HW220599   2.343   5.525   6.219
 5070SOL    HW320600   2.264   5.409   6.163
 5070SOL    MW420601   2.310   5.445   6.228
 5071SOL     OW20602   2.027   5.497   5.818
 5071SOL    HW220603   2.056   5.587   5.810
 5071SOL    HW320604   1.977   5.480   5.739
 5071SOL    MW420605   2.025   5.505   5.807
 5072SOL     OW20606   3.431   5.305   5.789
 5072SOL    HW220607   3.479   5.374   5.835
 5072SOL    HW320608   3.352   5.349   5.758
 5072SOL    MW420609   3.426   5.319   5.792
 5073SOL     OW20610   2.829   4.430   5.733
 5073SOL    HW220611   2.831   4.377   5.654
 5073SOL    HW320612   2.917   4.467   5.739
 5073SOL    MW420613   2.841   4.429   5.722
 5074SOL     OW20614   3.443   4.356   6.069
 5074SOL    HW220615   3.482   4.356   6.156
 5074SOL    HW320616   3.384   4.432   6.069
 5074SOL    MW420617   3.440   4.367   6.080
 5075SOL     OW20618   3.630   4.242   6.235
 5075SOL    HW220619   3.719   4.211   6.252
 5075SOL    HW320620   3.573   4.182   6.283
 5075SOL    MW420621   3.633   4.230   6.244
 5076SOL     OW20622   2.056   3.956   6.264
 5076SOL    HW220623   2.047   3.896   6.190
 5076SOL    HW320624   1.989   3.927   6.327
 5076SOL    MW420625   2.046   3.943   6.262
 5077SOL     OW20626   2.999   5.049   5.825
 5077SOL    HW220627   2.949   5.051   5.907
 5077SOL    HW320628   2.933   5.067   5.757
 5077SOL    MW420629   2.985   5.051   5.827
 5078SOL     OW20630   2.462   5.467   5.933
 5078SOL    HW220631   2.383   5.425   5.966
 5078SOL    HW320632   2.528   5.450   6.000
 5078SOL    MW420633   2.461   5.459   5.946
 5079SOL     OW20634   2.598   4.882   5.640
 5079SOL    HW220635   2.520   4.828   5.627
 5079SOL    HW320636   2.569   4.955   5.693
 5079SOL    MW420637   2.584   4.884   5.645
 5080SOL     OW20638   3.179   5.398   5.708
 5080SOL    HW220639   3.105   5.361   5.758
 5080SOL    HW320640   3.187   5.488   5.741
 5080SOL    MW420641   3.170   5.405   5.720
 5081SOL     OW20642   3.403   5.072   5.650
 5081SOL    HW220643   3.350   5.121   5.586
 5081SOL    HW320644   3.434   5.138   5.711
 5081SOL    MW420645   3.401   5.086   5.648
 5082SOL     OW20646   2.628   3.961   5.705
 5082SOL    HW220647   2.576   3.881   5.693
 5082SOL    HW320648   2.715   3.938   5.673
 5082SOL    MW420649   2.631   3.947   5.699
 5083SOL     OW20650   1.989   4.601   6.162
 5083SOL    HW220651   2.080   4.616   6.189
 5083SOL    HW320652   1.992   4.522   6.108
 5083SOL    MW420653   2.001   4.593   6.160
 5084SOL     OW20654   2.616   5.533   6.536
 5084SOL    HW220655   2.705   5.548   6.566
 5084SOL    HW320656   2.611   5.580   6.452
 5084SOL    MW420657   2.626   5.541   6.529
 5085SOL     OW20658   1.997   5.213   6.201
 5085SOL    HW220659   1.969   5.252   6.283
 5085SOL    HW320660   2.017   5.122   6.223
 5085SOL    MW420661   1.995   5.205   6.214
 5086SOL     OW20662   2.830   5.256   6.236
 5086SOL    HW220663   2.913   5.210   6.220
 5086SOL    HW320664   2.820   5.255   6.332
 5086SOL    MW420665   2.840   5.249   6.246
 5087SOL     OW20666   2.563   5.313   5.641
 5087SOL    HW220667   2.503   5.382   5.611
 5087SOL    HW320668   2.508   5.255   5.694
 5087SOL    MW420669   2.547   5.315   5.643
 5088SOL     OW20670   3.001   3.958   5.864
 5088SOL    HW220671   2.934   3.934   5.801
 5088SOL    HW320672   3.066   4.007   5.813
 5088SOL    MW420673   3.001   3.960   5.849
 5089SOL     OW20674   2.520   4.675   6.376
 5089SOL    HW220675   2.431   4.666   6.409
 5089SOL    HW320676   2.524   4.765   6.344
 5089SOL    MW420677   2.509   4.686   6.376
 5090SOL     OW20678   3.319   4.258   6.371
 5090SOL    HW220679   3.264   4.179   6.370
 5090SOL    HW320680   3.301   4.299   6.455
 5090SOL    MW420681   3.309   4.253   6.380
 5091SOL     OW20682   2.938   4.462   6.328
 5091SOL    HW220683   2.875   4.394   6.352
 5091SOL    HW320684   2.958   4.443   6.236
 5091SOL    MW420685   2.932   4.449   6.320
 5092SOL     OW20686   2.194   5.357   6.030
 5092SOL    HW220687   2.155   5.404   5.956
 5092SOL    HW320688   2.128   5.292   6.055
 5092SOL    MW420689   2.181   5.355   6.024
 5093SOL     OW20690   2.686   4.766   6.054
 5093SOL    HW220691   2.688   4.740   5.961
 5093SOL    HW320692   2.744   4.703   6.097
 5093SOL    MW420693   2.694   4.755   6.048
 5094SOL     OW20694   3.243   5.534   6.256
 5094SOL    HW220695   3.186   5.487   6.195
 5094SOL    HW320696   3.329   5.495   6.243
 5094SOL    MW420697   3.246   5.525   6.246
 5095SOL     OW20698   2.001   4.944   6.321
 5095SOL    HW220699   2.065   4.976   6.384
 5095SOL    HW320700   2.050   4.880   6.269
 5095SOL    MW420701   2.016   4.940   6.322
 5096SOL     OW20702   3.176   4.114   5.722
 5096SOL    HW220703   3.149   4.180   5.658
 5096SOL    HW320704   3.246   4.157   5.772
 5096SOL    MW420705   3.181   4.127   5.719
 5097SOL     OW20706   2.844   3.819   5.659
 5097SOL    HW220707   2.900   3.811   5.581
 5097SOL    HW320708   2.821   3.729   5.681
 5097SOL    MW420709   2.849   3.806   5.652
 5098SOL     OW20710   3.349   4.670   5.864
 5098SOL    HW220711   3.316   4.759   5.854
 5098SOL    HW320712   3.314   4.641   5.949
 5098SOL    MW420713   3.339   4.679   5.875
 5099SOL     OW20714   2.343   4.708   5.656
 5099SOL    HW220715   2.266   4.721   5.712
 5099SOL    HW320716   2.307   4.672   5.575
 5099SOL    MW420717   2.329   4.704   5.653
 5100SOL     OW20718   2.996   4.681   5.899
 5100SOL    HW220719   2.906   4.702   5.874
 5100SOL    HW320720   3.023   4.754   5.955
 5100SOL    MW420721   2.988   4.693   5.902
 5101SOL     OW20722   2.383   5.037   6.055
 5101SOL    HW220723   2.376   5.069   6.145
 5101SOL    HW320724   2.293   5.021   6.027
 5101SOL    MW420725   2.371   5.039   6.062
 5102SOL     OW20726   3.092   5.395   6.454
 5102SOL    HW220727   3.139   5.468   6.413
 5102SOL    HW320728   3.013   5.434   6.490
 5102SOL    MW420729   3.087   5.410   6.453
 5103SOL     OW20730   2.386   4.321   5.769
 5103SOL    HW220731   2.352   4.377   5.839
 5103SOL    HW320732   2.457   4.271   5.809
 5103SOL    MW420733   2.392   4.322   5.783
 5104SOL     OW20734   3.442   4.207   5.833
 5104SOL    HW220735   3.434   4.278   5.770
 5104SOL    HW320736   3.460   4.251   5.916
 5104SOL    MW420737   3.443   4.221   5.835
 5105SOL     OW20738   2.302   3.862   6.262
 5105SOL    HW220739   2.352   3.905   6.193
 5105SOL    HW320740   2.217   3.906   6.262
 5105SOL    MW420741   2.299   3.875   6.253
 5106SOL     OW20742   3.111   4.469   5.808
 5106SOL    HW220743   3.158   4.487   5.727
 5106SOL    HW320744   3.077   4.553   5.836
 5106SOL    MW420745   3.113   4.483   5.801
 5107SOL     OW20746   2.224   4.647   6.302
 5107SOL    HW220747   2.282   4.703   6.250
 5107SOL    HW320748   2.268   4.562   6.304
 5107SOL    MW420749   2.237   4.644   6.295
 5108SOL     OW20750   3.364   3.999   6.139
 5108SOL    HW220751   3.286   3.949   6.164
 5108SOL    HW320752   3.335   4.090   6.139
 5108SOL    MW420753   3.350   4.003   6.142
 5109SOL     OW20754   2.846   5.211   5.630
 5109SOL    HW220755   2.873   5.289   5.582
 5109SOL    HW320756   2.753   5.226   5.649
 5109SOL    MW420757   2.837   5.224   5.626
 5110SOL     OW20758   1.886   4.373   6.021
 5110SOL    HW220759   1.826   4.345   6.091
 5110SOL    HW320760   1.960   4.313   6.027
 5110SOL    MW420761   1.888   4.362   6.030
 5111SOL     OW20762   3.054   5.104   6.181
 5111SOL    HW220763   3.077   5.055   6.259
 5111SOL    HW320764   3.135   5.146   6.153
 5111SOL    MW420765   3.067   5.104   6.188
 5112SOL     OW20766   2.409   3.857   6.537
 5112SOL    HW220767   2.419   3.766   6.563
 5112SOL    HW320768   2.365   3.853   6.452
 5112SOL    MW420769   2.405   3.845   6.529
 5113SOL     OW20770   3.194   3.771   5.817
 5113SOL    HW220771   3.268   3.815   5.860
 5113SOL    HW320772   3.118   3.825   5.839
 5113SOL    MW420773   3.194   3.783   5.825
 5114SOL     OW20774   3.254   4.546   6.095
 5114SOL    HW220775   3.169   4.516   6.065
 5114SOL    HW320776   3.246   4.553   6.190
 5114SOL    MW420777   3.242   4.544   6.104
 5115SOL     OW20778   2.627   4.212   5.821
 5115SOL    HW220779   2.700   4.261   5.784
 5115SOL    HW320780   2.643   4.121   5.795
 5115SOL    MW420781   2.639   4.207   5.814
 5116SOL     OW20782   2.102   4.721   5.919
 5116SOL    HW220783   2.039   4.737   5.848
 5116SOL    HW320784   2.049   4.684   5.990
 5116SOL    MW420785   2.087   4.718   5.919
 5117SOL     OW20786   2.458   5.075   5.778
 5117SOL    HW220787   2.473   5.051   5.870
 5117SOL    HW320788   2.366   5.053   5.762
 5117SOL    MW420789   2.448   5.068   5.788
 5118SOL     OW20790   2.997   5.306   5.930
 5118SOL    HW220791   3.005   5.224   5.881
 5118SOL    HW320792   2.916   5.345   5.897
 5118SOL    MW420793   2.987   5.301   5.920
 5119SOL     OW20794   2.256   5.464   6.499
 5119SOL    HW220795   2.260   5.375   6.534
 5119SOL    HW320796   2.282   5.455   6.408
 5119SOL    MW420797   2.259   5.452   6.491
 5120SOL     OW20798   2.333   4.187   6.376
 5120SOL    HW220799   2.404   4.135   6.339
 5120SOL    HW320800   2.319   4.152   6.463
 5120SOL    MW420801   2.341   4.176   6.383
 5121SOL     OW20802   2.649   5.280   6.452
 5121SOL    HW220803   2.577   5.217   6.465
 5121SOL    HW320804   2.610   5.365   6.470
 5121SOL    MW420805   2.633   5.283   6.455
 5122SOL     OW20806   2.969   4.128   6.100
 5122SOL    HW220807   2.991   4.065   6.032
 5122SOL    HW320808   2.874   4.120   6.111
 5122SOL    MW420809   2.959   4.119   6.092
 5123SOL     OW20810   2.054   3.818   6.032
 5123SOL    HW220811   2.125   3.839   5.971
 5123SOL    HW320812   2.008   3.746   5.990
 5123SOL    MW420813   2.058   3.812   6.018
 5124SOL     OW20814   3.623   5.192   6.132
 5124SOL    HW220815   3.593   5.125   6.193
 5124SOL    HW320816   3.717   5.198   6.146
 5124SOL    MW420817   3.631   5.184   6.142
 5125SOL     OW20818   3.179   4.869   6.062
 5125SOL    HW220819   3.151   4.955   6.095
 5125SOL    HW320820   3.207   4.885   5.972
 5125SOL    MW420821   3.179   4.883   6.054
 5126SOL     OW20822   2.841   3.789   6.115
 5126SOL    HW220823   2.878   3.848   6.180
 5126SOL    HW320824   2.818   3.845   6.041
 5126SOL    MW420825   2.842   3.804   6.114
 5127SOL     OW20826   3.694   4.671   6.537
 5127SOL    HW220827   3.685   4.703   6.448
 5127SOL    HW320828   3.647   4.587   6.537
 5127SOL    MW420829   3.687   4.664   6.527
 5128SOL     OW20830   3.606   4.602   6.238
 5128SOL    HW220831   3.700   4.591   6.226
 5128SOL    HW320832   3.582   4.674   6.179
 5128SOL    MW420833   3.616   4.610   6.229
 5129SOL     OW20834   2.262   4.480   6.011
 5129SOL    HW220835   2.262   4.575   5.996
 5129SOL    HW320836   2.339   4.464   6.065
 5129SOL    MW420837   2.272   4.491   6.016
 5130SOL     OW20838   2.021   4.211   6.300
 5130SOL    HW220839   2.083   4.218   6.373
 5130SOL    HW320840   2.021   4.118   6.277
 5130SOL    MW420841   2.029   4.200   6.307
 5131SOL     OW20842   3.568   5.551   5.832
 5131SOL    HW220843   3.635   5.584   5.772
 5131SOL    HW320844   3.525   5.630   5.866
 5131SOL    MW420845   3.570   5.566   5.828
 5132SOL     OW20846   1.890   4.783   5.758
 5132SOL    HW220847   1.859   4.848   5.821
 5132SOL    HW320848   1.839   4.705   5.777
 5132SOL    MW420849   1.880   4.780   5.768
 5133SOL     OW20850   3.334   4.534   6.350
 5133SOL    HW220851   3.414   4.549   6.299
 5133SOL    HW320852   3.327   4.439   6.356
 5133SOL    MW420853   3.343   4.523   6.345
 5134SOL     OW20854   2.474   5.583   5.700
 5134SOL    HW220855   2.379   5.583   5.692
 5134SOL    HW320856   2.490   5.529   5.778
 5134SOL    MW420857   2.464   5.577   5.709
 5135SOL     OW20858   3.319   4.403   5.615
 5135SOL    HW220859   3.247   4.379   5.557
 5135SOL    HW320860   3.385   4.440   5.557
 5135SOL    MW420861   3.318   4.405   5.600
 5136SOL     OW20862   2.453   5.135   6.296
 5136SOL    HW220863   2.518   5.068   6.317
 5136SOL    HW320864   2.505   5.212   6.273
 5136SOL    MW420865   2.468   5.137   6.295
 5137SOL     OW20866   2.714   4.300   6.426
 5137SOL    HW220867   2.654   4.318   6.498
 5137SOL    HW320868   2.748   4.212   6.445
 5137SOL    MW420869   2.710   4.290   6.439
 5138SOL     OW20870   2.939   4.883   6.445
 5138SOL    HW220871   3.031   4.864   6.463
 5138SOL    HW320872   2.912   4.813   6.385
 5138SOL    MW420873   2.947   4.871   6.439
 5139SOL     OW20874   2.732   4.703   5.800
 5139SOL    HW220875   2.718   4.615   5.765
 5139SOL    HW320876   2.683   4.760   5.741
 5139SOL    MW420877   2.724   4.698   5.788
 5140SOL     OW20878   3.451   3.909   5.902
 5140SOL    HW220879   3.444   3.913   5.997
 5140SOL    HW320880   3.463   4.000   5.875
 5140SOL    MW420881   3.452   3.922   5.910
 5141SOL     OW20882   2.740   4.472   6.016
 5141SOL    HW220883   2.720   4.458   5.923
 5141SOL    HW320884   2.833   4.451   6.023
 5141SOL    MW420885   2.750   4.467   6.005
 5142SOL     OW20886   2.723   5.430   6.054
 5142SOL    HW220887   2.781   5.501   6.081
 5142SOL    HW320888   2.746   5.358   6.112
 5142SOL    MW420889   2.734   5.430   6.065
 5143SOL     OW20890   3.603   4.928   6.363
 5143SOL    HW220891   3.582   4.874   6.286
 5143SOL    HW320892   3.699   4.926   6.367
 5143SOL    MW420893   3.612   4.921   6.352
 5144SOL     OW20894   2.179   3.862   5.789
 5144SOL    HW220895   2.108   3.917   5.757
 5144SOL    HW320896   2.221   3.828   5.710
 5144SOL    MW420897   2.175   3.864   5.775
 5145SOL     OW20898   1.935   3.961   5.638
 5145SOL    HW220899   1.902   4.040   5.682
 5145SOL    HW320900   1.990   3.994   5.567
 5145SOL    MW420901   1.938   3.975   5.635
 5146SOL     OW20902   1.969   5.218   5.827
 5146SOL    HW220903   1.986   5.302   5.869
 5146SOL    HW320904   2.004   5.227   5.739
 5146SOL    MW420905   1.974   5.231   5.821
 5147SOL     OW20906   3.241   5.307   6.044
 5147SOL    HW220907   3.304   5.297   5.973
 5147SOL    HW320908   3.158   5.327   5.999
 5147SOL    MW420909   3.238   5.308   6.029
 5148SOL     OW20910   3.604   6.444   0.257
 5148SOL    HW220911   3.645   6.386   0.322
 5148SOL    HW320912   3.511   6.436   0.274
 5148SOL    MW420913   3.598   6.436   0.267
 5149SOL     OW20914   3.470   6.376   1.252
 5149SOL    HW220915   3.425   6.443   1.303
 5149SOL    HW320916   3.558   6.412   1.238
 5149SOL    MW420917   3.476   6.389   1.256
 5150SOL     OW20918   2.398   6.627   0.486
 5150SOL    HW220919   2.488   6.602   0.470
 5150SOL    HW320920   2.394   6.720   0.463
 5150SOL    MW420921   2.410   6.636   0.481
 5151SOL     OW20922   3.450   6.770   1.233
 5151SOL    HW220923   3.371   6.735   1.191
 5151SOL    HW320924   3.477   6.842   1.177
 5151SOL    MW420925   3.443   6.775   1.220
 5152SOL     OW20926   2.682   6.083   0.499
 5152SOL    HW220927   2.657   6.171   0.527
 5152SOL    HW320928   2.679   6.086   0.403
 5152SOL    MW420929   2.678   6.095   0.491
 5153SOL     OW20930   2.124   6.111   0.427
 5153SOL    HW220931   2.156   6.199   0.409
 5153SOL    HW320932   2.112   6.109   0.522
 5153SOL    MW420933   2.127   6.123   0.439
 5154SOL     OW20934   2.202   6.524   1.328
 5154SOL    HW220935   2.265   6.471   1.279
 5154SOL    HW320936   2.183   6.598   1.271
 5154SOL    MW420937   2.208   6.526   1.315
 5155SOL     OW20938   2.523   5.866   0.514
 5155SOL    HW220939   2.581   5.942   0.516
 5155SOL    HW320940   2.458   5.887   0.447
 5155SOL    MW420941   2.522   5.878   0.505
 5156SOL     OW20942   2.610   6.793   0.689
 5156SOL    HW220943   2.690   6.796   0.741
 5156SOL    HW320944   2.638   6.760   0.603
 5156SOL    MW420945   2.624   6.789   0.684
 5157SOL     OW20946   2.635   7.134   1.592
 5157SOL    HW220947   2.719   7.160   1.631
 5157SOL    HW320948   2.659   7.078   1.518
 5157SOL    MW420949   2.649   7.130   1.587
 5158SOL     OW20950   2.387   6.297   0.680
 5158SOL    HW220951   2.372   6.217   0.731
 5158SOL    HW320952   2.469   6.332   0.714
 5158SOL    MW420953   2.395   6.289   0.692
 5159SOL     OW20954   2.724   6.983   1.365
 5159SOL    HW220955   2.688   7.049   1.305
 5159SOL    HW320956   2.652   6.921   1.378
 5159SOL    MW420957   2.710   6.983   1.359
 5160SOL     OW20958   2.529   6.123   1.057
 5160SOL    HW220959   2.435   6.119   1.075
 5160SOL    HW320960   2.559   6.032   1.066
 5160SOL    MW420961   2.520   6.111   1.060
 5161SOL     OW20962   2.275   6.537   0.961
 5161SOL    HW220963   2.230   6.544   0.877
 5161SOL    HW320964   2.255   6.620   1.005
 5161SOL    MW420965   2.267   6.549   0.955
 5162SOL     OW20966   1.972   7.383   0.836
 5162SOL    HW220967   2.061   7.375   0.871
 5162SOL    HW320968   1.936   7.295   0.841
 5162SOL    MW420969   1.979   7.370   0.841
 5163SOL     OW20970   3.237   6.775   0.205
 5163SOL    HW220971   3.155   6.811   0.171
 5163SOL    HW320972   3.305   6.818   0.154
 5163SOL    MW420973   3.235   6.785   0.193
 5164SOL     OW20974   2.236   6.910   0.871
 5164SOL    HW220975   2.212   6.963   0.947
 5164SOL    HW320976   2.292   6.968   0.819
 5164SOL    MW420977   2.240   6.925   0.874
 5165SOL     OW20978   2.798   6.554   0.681
 5165SOL    HW220979   2.712   6.541   0.721
 5165SOL    HW320980   2.851   6.481   0.713
 5165SOL    MW420981   2.794   6.543   0.690
 5166SOL     OW20982   2.206   7.206   1.466
 5166SOL    HW220983   2.114   7.182   1.451
 5166SOL    HW320984   2.250   7.123   1.483
 5166SOL    MW420985   2.200   7.191   1.465
 5167SOL     OW20986   2.789   6.916   0.398
 5167SOL    HW220987   2.766   6.978   0.466
 5167SOL    HW320988   2.746   6.834   0.424
 5167SOL    MW420989   2.781   6.912   0.409
 5168SOL     OW20990   3.662   5.917   0.854
 5168SOL    HW220991   3.599   5.897   0.923
 5168SOL    HW320992   3.652   5.846   0.791
 5168SOL    MW420993   3.652   5.904   0.855
 5169SOL     OW20994   2.286   5.889   0.366
 5169SOL    HW220995   2.260   5.851   0.282
 5169SOL    HW320996   2.223   5.959   0.382
 5169SOL    MW420997   2.275   5.892   0.357
 5170SOL     OW20998   2.121   6.850   0.403
 5170SOL    HW220999   2.069   6.918   0.359
 5170SOL    HW321000   2.118   6.776   0.343
 5170SOL    MW421001   2.113   6.849   0.390
 5171SOL     OW21002   3.718   6.086   0.156
 5171SOL    HW221003   3.627   6.088   0.184
 5171SOL    HW321004   3.763   6.148   0.214
 5171SOL    MW421005   3.711   6.094   0.166
 5172SOL     OW21006   3.463   6.689   0.506
 5172SOL    HW221007   3.373   6.689   0.541
 5172SOL    HW321008   3.456   6.735   0.423
 5172SOL    MW421009   3.450   6.695   0.500
 5173SOL     OW21010   3.263   6.324   1.578
 5173SOL    HW221011   3.332   6.262   1.555
 5173SOL    HW321012   3.188   6.298   1.525
 5173SOL    MW421013   3.263   6.311   1.569
 5174SOL     OW21014   2.004   7.204   1.130
 5174SOL    HW221015   1.987   7.150   1.207
 5174SOL    HW321016   1.992   7.294   1.160
 5174SOL    MW421017   2.001   7.208   1.144
 5175SOL     OW21018   2.999   6.711   1.570
 5175SOL    HW221019   2.984   6.804   1.555
 5175SOL    HW321020   3.094   6.701   1.570
 5175SOL    MW421021   3.008   6.721   1.567
 5176SOL     OW21022   2.795   6.135   1.771
 5176SOL    HW221023   2.885   6.136   1.738
 5176SOL    HW321024   2.754   6.060   1.729
 5176SOL    MW421025   2.801   6.125   1.762
 5177SOL     OW21026   3.370   6.667   0.898
 5177SOL    HW221027   3.373   6.601   0.829
 5177SOL    HW321028   3.455   6.710   0.894
 5177SOL    MW421029   3.382   6.663   0.889
 5178SOL     OW21030   2.990   6.270   0.467
 5178SOL    HW221031   3.016   6.294   0.378
 5178SOL    HW321032   2.972   6.177   0.463
 5178SOL    MW421033   2.992   6.262   0.454
 5179SOL     OW21034   3.655   6.890   0.318
 5179SOL    HW221035   3.611   6.931   0.393
 5179SOL    HW321036   3.712   6.958   0.283
 5179SOL    MW421037   3.657   6.904   0.323
 5180SOL     OW21038   2.575   5.939   1.721
 5180SOL    HW221039   2.585   5.865   1.661
 5180SOL    HW321040   2.611   5.908   1.804
 5180SOL    MW421041   2.581   5.925   1.723
 5181SOL     OW21042   2.311   7.306   0.636
 5181SOL    HW221043   2.343   7.394   0.614
 5181SOL    HW321044   2.264   7.278   0.558
 5181SOL    MW421045   2.310   7.314   0.623
 5182SOL     OW21046   3.695   5.668   0.685
 5182SOL    HW221047   3.749   5.619   0.747
 5182SOL    HW321048   3.638   5.602   0.646
 5182SOL    MW421049   3.695   5.652   0.687
 5183SOL     OW21050   2.027   7.366   0.213
 5183SOL    HW221051   2.056   7.456   0.205
 5183SOL    HW321052   1.977   7.349   0.134
 5183SOL    MW421053   2.025   7.374   0.202
 5184SOL     OW21054   2.814   5.621   1.098
 5184SOL    HW221055   2.773   5.699   1.060
 5184SOL    HW321056   2.908   5.639   1.093
 5184SOL    MW421057   2.820   5.633   1.093
 5185SOL     OW21058   2.829   6.299   0.128
 5185SOL    HW221059   2.831   6.246   0.049
 5185SOL    HW321060   2.917   6.336   0.134
 5185SOL    MW421061   2.841   6.298   0.117
 5186SOL     OW21062   3.443   6.225   0.464
 5186SOL    HW221063   3.482   6.225   0.551
 5186SOL    HW321064   3.384   6.301   0.464
 5186SOL    MW421065   3.440   6.236   0.475
 5187SOL     OW21066   2.760   6.592   1.593
 5187SOL    HW221067   2.737   6.572   1.683
 5187SOL    HW321068   2.845   6.636   1.598
 5187SOL    MW421069   2.767   6.595   1.605
 5188SOL     OW21070   2.840   5.729   1.353
 5188SOL    HW221071   2.846   5.691   1.266
 5188SOL    HW321072   2.829   5.823   1.338
 5188SOL    MW421073   2.841   5.737   1.341
 5189SOL     OW21074   2.929   6.218   1.187
 5189SOL    HW221075   3.004   6.247   1.134
 5189SOL    HW321076   2.861   6.283   1.171
 5189SOL    MW421077   2.930   6.230   1.177
 5190SOL     OW21078   3.479   6.186   1.464
 5190SOL    HW221079   3.460   6.095   1.443
 5190SOL    HW321080   3.457   6.235   1.385
 5190SOL    MW421081   3.474   6.179   1.451
 5191SOL     OW21082   2.926   5.924   1.570
 5191SOL    HW221083   2.892   5.963   1.489
 5191SOL    HW321084   2.904   5.832   1.563
 5191SOL    MW421085   2.919   5.917   1.560
 5192SOL     OW21086   3.335   6.738   1.646
 5192SOL    HW221087   3.417   6.779   1.676
 5192SOL    HW321088   3.298   6.700   1.726
 5192SOL    MW421089   3.341   6.739   1.661
 5193SOL     OW21090   3.630   6.111   0.630
 5193SOL    HW221091   3.719   6.080   0.647
 5193SOL    HW321092   3.573   6.051   0.678
 5193SOL    MW421093   3.633   6.099   0.639
 5194SOL     OW21094   2.056   5.825   0.659
 5194SOL    HW221095   2.047   5.765   0.585
 5194SOL    HW321096   1.989   5.796   0.722
 5194SOL    MW421097   2.046   5.812   0.657
 5195SOL     OW21098   2.999   6.918   0.220
 5195SOL    HW221099   2.949   6.920   0.302
 5195SOL    HW321100   2.933   6.936   0.152
 5195SOL    MW421101   2.985   6.920   0.222
 5196SOL     OW21102   2.003   5.998   1.022
 5196SOL    HW221103   1.975   6.089   1.031
 5196SOL    HW321104   1.940   5.959   0.961
 5196SOL    MW421105   1.990   6.004   1.016
 5197SOL     OW21106   2.462   7.336   0.328
 5197SOL    HW221107   2.383   7.294   0.361
 5197SOL    HW321108   2.528   7.319   0.395
 5197SOL    MW421109   2.461   7.328   0.341
 5198SOL     OW21110   3.590   6.856   1.725
 5198SOL    HW221111   3.640   6.782   1.757
 5198SOL    HW321112   3.536   6.883   1.800
 5198SOL    MW421113   3.590   6.850   1.738
 5199SOL     OW21114   2.598   6.751   0.035
 5199SOL    HW221115   2.520   6.697   0.022
 5199SOL    HW321116   2.569   6.824   0.088
 5199SOL    MW421117   2.584   6.753   0.040
 5200SOL     OW21118   3.724   6.491   1.227
 5200SOL    HW221119   3.740   6.529   1.140
 5200SOL    HW321120   3.758   6.557   1.288
 5200SOL    MW421121   3.731   6.504   1.223
 5201SOL     OW21122   3.516   7.200   0.896
 5201SOL    HW221123   3.545   7.267   0.957
 5201SOL    HW321124   3.497   7.124   0.951
 5201SOL    MW421125   3.518   7.200   0.911
 5202SOL     OW21126   1.987   6.273   1.192
 5202SOL    HW221127   2.049   6.303   1.258
 5202SOL    HW321128   1.921   6.342   1.186
 5202SOL    MW421129   1.986   6.286   1.199
 5203SOL     OW21130   3.403   6.941   0.045
 5203SOL    HW221131   3.350   6.990  -0.019
 5203SOL    HW321132   3.434   7.007   0.106
 5203SOL    MW421133   3.401   6.955   0.043
 5204SOL     OW21134   2.628   5.830   0.100
 5204SOL    HW221135   2.576   5.750   0.088
 5204SOL    HW321136   2.715   5.807   0.068
 5204SOL    MW421137   2.631   5.816   0.094
 5205SOL     OW21138   2.082   7.382   1.644
 5205SOL    HW221139   2.056   7.450   1.582
 5205SOL    HW321140   2.130   7.319   1.592
 5205SOL    MW421141   2.084   7.382   1.630
 5206SOL     OW21142   2.134   6.701   1.151
 5206SOL    HW221143   2.187   6.776   1.176
 5206SOL    HW321144   2.053   6.739   1.117
 5206SOL    MW421145   2.130   6.716   1.151
 5207SOL     OW21146   2.674   6.605   1.139
 5207SOL    HW221147   2.702   6.514   1.151
 5207SOL    HW321148   2.603   6.599   1.075
 5207SOL    MW421149   2.667   6.593   1.134
 5208SOL     OW21150   1.989   6.470   0.557
 5208SOL    HW221151   2.080   6.485   0.584
 5208SOL    HW321152   1.992   6.391   0.503
 5208SOL    MW421153   2.001   6.462   0.555
 5209SOL     OW21154   2.225   6.178   1.811
 5209SOL    HW221155   2.172   6.258   1.818
 5209SOL    HW321156   2.295   6.190   1.876
 5209SOL    MW421157   2.227   6.191   1.819
 5210SOL     OW21158   2.611   5.728   1.518
 5210SOL    HW221159   2.588   5.636   1.520
 5210SOL    HW321160   2.697   5.730   1.475
 5210SOL    MW421161   2.618   5.718   1.514
 5211SOL     OW21162   2.295   6.252   1.557
 5211SOL    HW221163   2.375   6.302   1.543
 5211SOL    HW321164   2.286   6.246   1.652
 5211SOL    MW421165   2.304   6.258   1.567
 5212SOL     OW21166   3.272   5.777   1.828
 5212SOL    HW221167   3.328   5.704   1.854
 5212SOL    HW321168   3.242   5.815   1.910
 5212SOL    MW421169   3.276   5.772   1.841
 5213SOL     OW21170   1.997   7.082   0.596
 5213SOL    HW221171   1.969   7.121   0.678
 5213SOL    HW321172   2.017   6.991   0.618
 5213SOL    MW421173   1.995   7.074   0.609
 5214SOL     OW21174   2.830   7.125   0.631
 5214SOL    HW221175   2.913   7.079   0.615
 5214SOL    HW321176   2.820   7.124   0.727
 5214SOL    MW421177   2.840   7.118   0.641
 5215SOL     OW21178   3.662   6.270   0.945
 5215SOL    HW221179   3.751   6.300   0.927
 5215SOL    HW321180   3.642   6.210   0.874
 5215SOL    MW421181   3.671   6.267   0.934
 5216SOL     OW21182   3.513   6.449   1.825
 5216SOL    HW221183   3.568   6.373   1.806
 5216SOL    HW321184   3.515   6.457   1.920
 5216SOL    MW421185   3.521   6.440   1.833
 5217SOL     OW21186   2.563   7.182   0.036
 5217SOL    HW221187   2.503   7.251   0.006
 5217SOL    HW321188   2.508   7.124   0.089
 5217SOL    MW421189   2.547   7.184   0.038
 5218SOL     OW21190   3.001   5.827   0.259
 5218SOL    HW221191   2.934   5.803   0.196
 5218SOL    HW321192   3.066   5.876   0.208
 5218SOL    MW421193   3.001   5.829   0.244
 5219SOL     OW21194   2.808   6.011   1.344
 5219SOL    HW221195   2.727   6.052   1.372
 5219SOL    HW321196   2.855   6.079   1.296
 5219SOL    MW421197   2.803   6.026   1.342
 5220SOL     OW21198   3.068   6.349   0.967
 5220SOL    HW221199   3.081   6.443   0.977
 5220SOL    HW321200   3.029   6.339   0.881
 5220SOL    MW421201   3.064   6.360   0.957
 5221SOL     OW21202   2.520   6.544   0.771
 5221SOL    HW221203   2.431   6.535   0.804
 5221SOL    HW321204   2.524   6.634   0.739
 5221SOL    MW421205   2.509   6.555   0.771
 5222SOL     OW21206   3.319   6.127   0.766
 5222SOL    HW221207   3.264   6.048   0.765
 5222SOL    HW321208   3.301   6.168   0.850
 5222SOL    MW421209   3.309   6.122   0.775
 5223SOL     OW21210   2.290   5.814   1.583
 5223SOL    HW221211   2.211   5.832   1.635
 5223SOL    HW321212   2.285   5.876   1.510
 5223SOL    MW421213   2.280   5.824   1.580
 5224SOL     OW21214   2.938   6.331   0.723
 5224SOL    HW221215   2.875   6.263   0.747
 5224SOL    HW321216   2.958   6.312   0.631
 5224SOL    MW421217   2.932   6.318   0.715
 5225SOL     OW21218   2.194   7.226   0.425
 5225SOL    HW221219   2.155   7.273   0.351
 5225SOL    HW321220   2.128   7.161   0.450
 5225SOL    MW421221   2.181   7.224   0.419
 5226SOL     OW21222   2.686   6.635   0.449
 5226SOL    HW221223   2.688   6.609   0.356
 5226SOL    HW321224   2.744   6.572   0.492
 5226SOL    MW421225   2.694   6.624   0.443
 5227SOL     OW21226   3.196   5.879   0.782
 5227SOL    HW221227   3.224   5.811   0.843
 5227SOL    HW321228   3.110   5.850   0.752
 5227SOL    MW421229   3.189   5.866   0.786
 5228SOL     OW21230   2.001   6.813   0.716
 5228SOL    HW221231   2.065   6.845   0.779
 5228SOL    HW321232   2.050   6.749   0.664
 5228SOL    MW421233   2.016   6.809   0.717
 5229SOL     OW21234   2.501   6.889   1.698
 5229SOL    HW221235   2.549   6.972   1.685
 5229SOL    HW321236   2.558   6.837   1.754
 5229SOL    MW421237   2.515   6.893   1.704
 5230SOL     OW21238   2.077   7.131   1.838
 5230SOL    HW221239   2.133   7.055   1.853
 5230SOL    HW321240   2.026   7.109   1.760
 5230SOL    MW421241   2.077   7.118   1.829
 5231SOL     OW21242   3.176   5.983   0.117
 5231SOL    HW221243   3.149   6.049   0.053
 5231SOL    HW321244   3.246   6.026   0.167
 5231SOL    MW421245   3.181   5.996   0.114
 5232SOL     OW21246   2.844   5.688   0.054
 5232SOL    HW221247   2.900   5.680  -0.024
 5232SOL    HW321248   2.821   5.598   0.076
 5232SOL    MW421249   2.849   5.675   0.047
 5233SOL     OW21250   3.349   6.539   0.259
 5233SOL    HW221251   3.316   6.628   0.249
 5233SOL    HW321252   3.314   6.510   0.344
 5233SOL    MW421253   3.339   6.548   0.270
 5234SOL     OW21254   2.962   6.968   1.447
 5234SOL    HW221255   2.873   6.974   1.415
 5234SOL    HW321256   3.006   7.047   1.415
 5234SOL    MW421257   2.957   6.978   1.439
 5235SOL     OW21258   2.255   5.636   1.789
 5235SOL    HW221259   2.183   5.601   1.737
 5235SOL    HW321260   2.313   5.677   1.724
 5235SOL    MW421261   2.253   5.637   1.774
 5236SOL     OW21262   2.279   7.126   1.088
 5236SOL    HW221263   2.324   7.188   1.145
 5236SOL    HW321264   2.186   7.145   1.101
 5236SOL    MW421265   2.272   7.136   1.095
 5237SOL     OW21266   3.719   6.655   1.442
 5237SOL    HW221267   3.634   6.668   1.401
 5237SOL    HW321268   3.699   6.619   1.529
 5237SOL    MW421269   3.706   6.651   1.447
 5238SOL     OW21270   2.343   6.577   0.051
 5238SOL    HW221271   2.266   6.590   0.107
 5238SOL    HW321272   2.307   6.541  -0.030
 5238SOL    MW421273   2.329   6.573   0.048
 5239SOL     OW21274   2.996   6.550   0.294
 5239SOL    HW221275   2.906   6.571   0.269
 5239SOL    HW321276   3.023   6.623   0.350
 5239SOL    MW421277   2.988   6.562   0.297
 5240SOL     OW21278   2.496   6.899   0.986
 5240SOL    HW221279   2.489   6.878   1.080
 5240SOL    HW321280   2.414   6.867   0.949
 5240SOL    MW421281   2.484   6.893   0.993
 5241SOL     OW21282   3.360   5.909   1.388
 5241SOL    HW221283   3.307   5.911   1.468
 5241SOL    HW321284   3.345   5.822   1.351
 5241SOL    MW421285   3.352   5.899   1.393
 5242SOL     OW21286   3.696   5.833   1.261
 5242SOL    HW221287   3.677   5.900   1.196
 5242SOL    HW321288   3.753   5.771   1.216
 5242SOL    MW421289   3.700   5.834   1.247
 5243SOL     OW21290   1.942   6.991   1.649
 5243SOL    HW221291   1.986   6.924   1.595
 5243SOL    HW321292   1.857   6.953   1.669
 5243SOL    MW421293   1.937   6.977   1.645
 5244SOL     OW21294   2.625   5.666   0.701
 5244SOL    HW221295   2.554   5.727   0.683
 5244SOL    HW321296   2.676   5.663   0.620
 5244SOL    MW421297   2.621   5.672   0.688
 5245SOL     OW21298   2.383   6.906   0.450
 5245SOL    HW221299   2.376   6.938   0.540
 5245SOL    HW321300   2.293   6.890   0.422
 5245SOL    MW421301   2.371   6.908   0.457
 5246SOL     OW21302   2.585   6.323   1.831
 5246SOL    HW221303   2.655   6.265   1.803
 5246SOL    HW321304   2.528   6.268   1.886
 5246SOL    MW421305   2.587   6.310   1.835
 5247SOL     OW21306   3.372   6.535   1.464
 5247SOL    HW221307   3.377   6.588   1.544
 5247SOL    HW321308   3.334   6.452   1.492
 5247SOL    MW421309   3.368   6.530   1.479
 5248SOL     OW21310   3.012   5.670   1.710
 5248SOL    HW221311   3.007   5.577   1.691
 5248SOL    HW321312   3.095   5.681   1.756
 5248SOL    MW421313   3.020   5.659   1.714
 5249SOL     OW21314   2.386   6.190   0.164
 5249SOL    HW221315   2.352   6.246   0.234
 5249SOL    HW321316   2.457   6.140   0.204
 5249SOL    MW421317   2.392   6.191   0.178
 5250SOL     OW21318   3.482   6.941   0.986
 5250SOL    HW221319   3.517   6.923   0.899
 5250SOL    HW321320   3.387   6.942   0.973
 5250SOL    MW421321   3.474   6.938   0.973
 5251SOL     OW21322   2.911   6.589   1.355
 5251SOL    HW221323   2.954   6.624   1.433
 5251SOL    HW321324   2.894   6.666   1.301
 5251SOL    MW421325   2.914   6.604   1.358
 5252SOL     OW21326   3.442   6.076   0.228
 5252SOL    HW221327   3.434   6.147   0.165
 5252SOL    HW321328   3.460   6.120   0.311
 5252SOL    MW421329   3.443   6.090   0.230
 5253SOL     OW21330   2.302   5.731   0.657
 5253SOL    HW221331   2.352   5.774   0.588
 5253SOL    HW321332   2.217   5.775   0.657
 5253SOL    MW421333   2.299   5.744   0.648
 5254SOL     OW21334   2.061   6.793   1.517
 5254SOL    HW221335   2.089   6.746   1.595
 5254SOL    HW321336   1.982   6.748   1.488
 5254SOL    MW421337   2.054   6.782   1.523
 5255SOL     OW21338   2.569   6.120   1.484
 5255SOL    HW221339   2.541   6.208   1.508
 5255SOL    HW321340   2.538   6.064   1.555
 5255SOL    MW421341   2.561   6.123   1.496
 5256SOL     OW21342   3.111   6.338   0.203
 5256SOL    HW221343   3.158   6.356   0.122
 5256SOL    HW321344   3.077   6.422   0.231
 5256SOL    MW421345   3.113   6.352   0.196
 5257SOL     OW21346   2.224   6.516   0.697
 5257SOL    HW221347   2.282   6.572   0.645
 5257SOL    HW321348   2.268   6.431   0.699
 5257SOL    MW421349   2.237   6.513   0.690
 5258SOL     OW21350   3.364   5.868   0.534
 5258SOL    HW221351   3.286   5.818   0.559
 5258SOL    HW321352   3.335   5.959   0.534
 5258SOL    MW421353   3.350   5.872   0.537
 5259SOL     OW21354   2.950   5.830   0.693
 5259SOL    HW221355   2.970   5.905   0.637
 5259SOL    HW321356   2.930   5.869   0.778
 5259SOL    MW421357   2.951   5.846   0.697
 5260SOL     OW21358   2.846   7.080   0.025
 5260SOL    HW221359   2.873   7.158  -0.023
 5260SOL    HW321360   2.753   7.095   0.044
 5260SOL    MW421361   2.837   7.093   0.021
 5261SOL     OW21362   3.710   6.603   1.712
 5261SOL    HW221363   3.623   6.583   1.748
 5261SOL    HW321364   3.764   6.529   1.737
 5261SOL    MW421365   3.705   6.592   1.720
 5262SOL     OW21366   1.931   7.116   0.869
 5262SOL    HW221367   1.963   7.120   0.960
 5262SOL    HW321368   1.836   7.124   0.877
 5262SOL    MW421369   1.923   7.119   0.882
 5263SOL     OW21370   1.886   6.242   0.416
 5263SOL    HW221371   1.826   6.214   0.486
 5263SOL    HW321372   1.960   6.182   0.422
 5263SOL    MW421373   1.888   6.231   0.425
 5264SOL     OW21374   3.054   6.973   0.576
 5264SOL    HW221375   3.077   6.924   0.654
 5264SOL    HW321376   3.135   7.015   0.548
 5264SOL    MW421377   3.067   6.973   0.583
 5265SOL     OW21378   2.312   5.981   1.305
 5265SOL    HW221379   2.345   6.062   1.345
 5265SOL    HW321380   2.285   6.007   1.217
 5265SOL    MW421381   2.311   5.995   1.299
 5266SOL     OW21382   2.266   5.948   1.041
 5266SOL    HW221383   2.296   5.862   1.012
 5266SOL    HW321384   2.171   5.941   1.044
 5266SOL    MW421385   2.258   5.937   1.039
 5267SOL     OW21386   3.095   6.157   1.732
 5267SOL    HW221387   3.147   6.092   1.685
 5267SOL    HW321388   3.053   6.208   1.662
 5267SOL    MW421389   3.096   6.154   1.715
 5268SOL     OW21390   3.194   5.952   1.593
 5268SOL    HW221391   3.101   5.936   1.580
 5268SOL    HW321392   3.220   5.890   1.661
 5268SOL    MW421393   3.184   5.942   1.600
 5269SOL     OW21394   2.409   5.726   0.932
 5269SOL    HW221395   2.419   5.635   0.958
 5269SOL    HW321396   2.365   5.722   0.847
 5269SOL    MW421397   2.405   5.714   0.924
 5270SOL     OW21398   2.503   7.341   1.478
 5270SOL    HW221399   2.420   7.326   1.523
 5270SOL    HW321400   2.562   7.274   1.513
 5270SOL    MW421401   2.501   7.331   1.488
 5271SOL     OW21402   3.560   6.048   1.103
 5271SOL    HW221403   3.493   6.081   1.163
 5271SOL    HW321404   3.603   6.126   1.069
 5271SOL    MW421405   3.558   6.063   1.107
 5272SOL     OW21406   3.738   6.768   1.073
 5272SOL    HW221407   3.731   6.708   0.998
 5272SOL    HW321408   3.664   6.828   1.062
 5272SOL    MW421409   3.728   6.768   1.062
 5273SOL     OW21410   3.120   6.630   0.991
 5273SOL    HW221411   3.134   6.602   1.082
 5273SOL    HW321412   3.206   6.661   0.963
 5273SOL    MW421413   3.133   6.631   1.000
 5274SOL     OW21414   3.203   6.125   1.270
 5274SOL    HW221415   3.224   6.126   1.177
 5274SOL    HW321416   3.248   6.047   1.303
 5274SOL    MW421417   3.210   6.115   1.262
 5275SOL     OW21418   3.696   6.256   1.812
 5275SOL    HW221419   3.733   6.201   1.881
 5275SOL    HW321420   3.721   6.213   1.730
 5275SOL    MW421421   3.703   6.244   1.811
 5276SOL     OW21422   3.243   6.554   1.863
 5276SOL    HW221423   3.309   6.502   1.817
 5276SOL    HW321424   3.263   6.541   1.956
 5276SOL    MW421425   3.254   6.545   1.870
 5277SOL     OW21426   3.194   5.640   0.212
 5277SOL    HW221427   3.268   5.684   0.255
 5277SOL    HW321428   3.118   5.694   0.234
 5277SOL    MW421429   3.194   5.652   0.220
 5278SOL     OW21430   3.254   6.415   0.490
 5278SOL    HW221431   3.169   6.385   0.460
 5278SOL    HW321432   3.246   6.422   0.585
 5278SOL    MW421433   3.242   6.413   0.499
 5279SOL     OW21434   2.330   6.878   1.221
 5279SOL    HW221435   2.342   6.905   1.312
 5279SOL    HW321436   2.311   6.959   1.174
 5279SOL    MW421437   2.329   6.893   1.226
 5280SOL     OW21438   2.614   5.858   1.044
 5280SOL    HW221439   2.587   5.860   1.135
 5280SOL    HW321440   2.544   5.810   0.999
 5280SOL    MW421441   2.602   5.854   1.051
 5281SOL     OW21442   2.468   7.350   1.206
 5281SOL    HW221443   2.520   7.427   1.183
 5281SOL    HW321444   2.477   7.342   1.301
 5281SOL    MW421445   2.477   7.357   1.217
 5282SOL     OW21446   3.370   6.935   1.438
 5282SOL    HW221447   3.355   6.864   1.501
 5282SOL    HW321448   3.416   6.893   1.366
 5282SOL    MW421449   3.376   6.919   1.438
 5283SOL     OW21450   2.444   6.666   1.555
 5283SOL    HW221451   2.481   6.671   1.467
 5283SOL    HW321452   2.483   6.739   1.602
 5283SOL    MW421453   2.454   6.676   1.550
 5284SOL     OW21454   2.624   6.709   1.367
 5284SOL    HW221455   2.683   6.655   1.420
 5284SOL    HW321456   2.639   6.681   1.277
 5284SOL    MW421457   2.634   6.698   1.363
 5285SOL     OW21458   2.627   6.081   0.216
 5285SOL    HW221459   2.700   6.130   0.179
 5285SOL    HW321460   2.643   5.990   0.190
 5285SOL    MW421461   2.639   6.076   0.209
 5286SOL     OW21462   3.095   5.677   1.130
 5286SOL    HW221463   3.150   5.686   1.052
 5286SOL    HW321464   3.150   5.711   1.201
 5286SOL    MW421465   3.109   5.682   1.129
 5287SOL     OW21466   2.102   6.590   0.314
 5287SOL    HW221467   2.039   6.606   0.243
 5287SOL    HW321468   2.049   6.553   0.385
 5287SOL    MW421469   2.087   6.587   0.314
 5288SOL     OW21470   2.458   6.944   0.173
 5288SOL    HW221471   2.473   6.920   0.265
 5288SOL    HW321472   2.366   6.922   0.157
 5288SOL    MW421473   2.448   6.937   0.183
 5289SOL     OW21474   2.256   7.333   0.894
 5289SOL    HW221475   2.260   7.244   0.929
 5289SOL    HW321476   2.282   7.324   0.803
 5289SOL    MW421477   2.259   7.321   0.886
 5290SOL     OW21478   2.873   6.811   1.137
 5290SOL    HW221479   2.805   6.745   1.153
 5290SOL    HW321480   2.891   6.805   1.044
 5290SOL    MW421481   2.866   6.802   1.128
 5291SOL     OW21482   1.962   7.086   1.388
 5291SOL    HW221483   1.952   7.044   1.474
 5291SOL    HW321484   1.883   7.139   1.378
 5291SOL    MW421485   1.951   7.087   1.399
 5292SOL     OW21486   2.866   5.950   0.958
 5292SOL    HW221487   2.796   5.902   1.003
 5292SOL    HW321488   2.898   6.013   1.022
 5292SOL    MW421489   2.861   5.952   0.972
 5293SOL     OW21490   2.517   6.386   1.578
 5293SOL    HW221491   2.510   6.481   1.566
 5293SOL    HW321492   2.526   6.375   1.673
 5293SOL    MW421493   2.518   6.398   1.588
 5294SOL     OW21494   2.238   6.901   1.836
 5294SOL    HW221495   2.310   6.903   1.773
 5294SOL    HW321496   2.208   6.810   1.835
 5294SOL    MW421497   2.243   6.890   1.828
 5295SOL     OW21498   3.322   5.664   1.303
 5295SOL    HW221499   3.393   5.610   1.267
 5295SOL    HW321500   3.321   5.643   1.396
 5295SOL    MW421501   3.331   5.655   1.311
 5296SOL     OW21502   2.333   6.056   0.771
 5296SOL    HW221503   2.404   6.004   0.734
 5296SOL    HW321504   2.319   6.021   0.858
 5296SOL    MW421505   2.341   6.045   0.778
 5297SOL     OW21506   1.888   7.391   1.843
 5297SOL    HW221507   1.938   7.369   1.765
 5297SOL    HW321508   1.896   7.486   1.851
 5297SOL    MW421509   1.896   7.400   1.834
 5298SOL     OW21510   2.649   7.149   0.847
 5298SOL    HW221511   2.577   7.086   0.860
 5298SOL    HW321512   2.610   7.234   0.865
 5298SOL    MW421513   2.633   7.152   0.850
 5299SOL     OW21514   2.969   5.997   0.495
 5299SOL    HW221515   2.991   5.934   0.427
 5299SOL    HW321516   2.874   5.989   0.506
 5299SOL    MW421517   2.959   5.988   0.487
 5300SOL     OW21518   2.054   5.687   0.427
 5300SOL    HW221519   2.125   5.708   0.366
 5300SOL    HW321520   2.008   5.615   0.385
 5300SOL    MW421521   2.058   5.681   0.413
 5301SOL     OW21522   1.885   6.154   1.570
 5301SOL    HW221523   1.949   6.220   1.545
 5301SOL    HW321524   1.804   6.181   1.527
 5301SOL    MW421525   1.883   6.166   1.562
 5302SOL     OW21526   3.623   7.061   0.527
 5302SOL    HW221527   3.593   6.994   0.588
 5302SOL    HW321528   3.717   7.067   0.541
 5302SOL    MW421529   3.631   7.053   0.537
 5303SOL     OW21530   3.179   6.738   0.457
 5303SOL    HW221531   3.151   6.824   0.490
 5303SOL    HW321532   3.207   6.754   0.367
 5303SOL    MW421533   3.179   6.752   0.449
 5304SOL     OW21534   2.841   5.658   0.510
 5304SOL    HW221535   2.878   5.717   0.575
 5304SOL    HW321536   2.818   5.714   0.436
 5304SOL    MW421537   2.842   5.673   0.509
 5305SOL     OW21538   3.694   6.540   0.932
 5305SOL    HW221539   3.685   6.572   0.843
 5305SOL    HW321540   3.647   6.456   0.932
 5305SOL    MW421541   3.687   6.533   0.922
 5306SOL     OW21542   2.070   6.380   1.511
 5306SOL    HW221543   2.091   6.449   1.449
 5306SOL    HW321544   2.150   6.327   1.516
 5306SOL    MW421545   2.083   6.381   1.505
 5307SOL     OW21546   3.606   6.471   0.633
 5307SOL    HW221547   3.700   6.460   0.621
 5307SOL    HW321548   3.582   6.543   0.574
 5307SOL    MW421549   3.616   6.479   0.624
 5308SOL     OW21550   2.055   6.395   1.778
 5308SOL    HW221551   1.981   6.339   1.804
 5308SOL    HW321552   2.050   6.398   1.683
 5308SOL    MW421553   2.044   6.388   1.768
 5309SOL     OW21554   2.221   5.682   1.228
 5309SOL    HW221555   2.264   5.766   1.248
 5309SOL    HW321556   2.294   5.620   1.221
 5309SOL    MW421557   2.236   5.685   1.229
 5310SOL     OW21558   2.262   6.349   0.406
 5310SOL    HW221559   2.262   6.444   0.391
 5310SOL    HW321560   2.339   6.333   0.460
 5310SOL    MW421561   2.272   6.360   0.411
 5311SOL     OW21562   3.038   6.208   1.470
 5311SOL    HW221563   3.074   6.181   1.386
 5311SOL    HW321564   2.951   6.242   1.449
 5311SOL    MW421565   3.032   6.209   1.457
 5312SOL     OW21566   2.021   6.080   0.695
 5312SOL    HW221567   2.083   6.087   0.768
 5312SOL    HW321568   2.021   5.987   0.672
 5312SOL    MW421569   2.029   6.069   0.702
 5313SOL     OW21570   2.703   6.341   1.179
 5313SOL    HW221571   2.661   6.259   1.155
 5313SOL    HW321572   2.704   6.340   1.275
 5313SOL    MW421573   2.696   6.330   1.188
 5314SOL     OW21574   2.507   5.811   1.284
 5314SOL    HW221575   2.438   5.874   1.305
 5314SOL    HW321576   2.534   5.775   1.369
 5314SOL    MW421577   2.501   5.814   1.297
 5315SOL     OW21578   1.890   6.652   0.153
 5315SOL    HW221579   1.859   6.717   0.216
 5315SOL    HW321580   1.839   6.574   0.172
 5315SOL    MW421581   1.880   6.649   0.163
 5316SOL     OW21582   3.302   5.664   0.901
 5316SOL    HW221583   3.390   5.673   0.938
 5316SOL    HW321584   3.312   5.605   0.827
 5316SOL    MW421585   3.316   5.658   0.895
 5317SOL     OW21586   3.334   6.403   0.745
 5317SOL    HW221587   3.414   6.418   0.694
 5317SOL    HW321588   3.327   6.308   0.751
 5317SOL    MW421589   3.343   6.392   0.740
 5318SOL     OW21590   2.784   6.329   1.442
 5318SOL    HW221591   2.853   6.396   1.439
 5318SOL    HW321592   2.717   6.367   1.498
 5318SOL    MW421593   2.785   6.342   1.449
 5319SOL     OW21594   2.202   6.629   1.690
 5319SOL    HW221595   2.156   6.545   1.692
 5319SOL    HW321596   2.259   6.623   1.614
 5319SOL    MW421597   2.204   6.617   1.682
 5320SOL     OW21598   3.319   6.272   0.011
 5320SOL    HW221599   3.247   6.248  -0.047
 5320SOL    HW321600   3.385   6.309  -0.047
 5320SOL    MW421601   3.318   6.274  -0.004
 5321SOL     OW21602   2.453   7.004   0.691
 5321SOL    HW221603   2.518   6.937   0.712
 5321SOL    HW321604   2.505   7.081   0.668
 5321SOL    MW421605   2.468   7.006   0.690
 5322SOL     OW21606   2.714   6.169   0.821
 5322SOL    HW221607   2.654   6.187   0.893
 5322SOL    HW321608   2.748   6.081   0.840
 5322SOL    MW421609   2.710   6.159   0.834
 5323SOL     OW21610   3.655   5.668   1.490
 5323SOL    HW221611   3.576   5.714   1.518
 5323SOL    HW321612   3.690   5.722   1.419
 5323SOL    MW421613   3.649   5.681   1.484
 5324SOL     OW21614   2.939   6.752   0.840
 5324SOL    HW221615   3.031   6.733   0.858
 5324SOL    HW321616   2.912   6.682   0.780
 5324SOL    MW421617   2.947   6.740   0.834
 5325SOL     OW21618   2.732   6.572   0.195
 5325SOL    HW221619   2.718   6.484   0.160
 5325SOL    HW321620   2.683   6.629   0.136
 5325SOL    MW421621   2.724   6.567   0.183
 5326SOL     OW21622   3.213   6.990   0.936
 5326SOL    HW221623   3.186   7.074   0.901
 5326SOL    HW321624   3.173   6.985   1.023
 5326SOL    MW421625   3.206   6.999   0.942
 5327SOL     OW21626   3.132   6.938   1.204
 5327SOL    HW221627   3.143   6.905   1.293
 5327SOL    HW321628   3.051   6.897   1.173
 5327SOL    MW421629   3.122   6.930   1.210
 5328SOL     OW21630   2.145   6.296   0.974
 5328SOL    HW221631   2.095   6.295   1.055
 5328SOL    HW321632   2.165   6.388   0.958
 5328SOL    MW421633   2.141   6.308   0.982
 5329SOL     OW21634   3.212   7.060   1.736
 5329SOL    HW221635   3.212   7.154   1.752
 5329SOL    HW321636   3.257   7.050   1.652
 5329SOL    MW421637   3.218   7.070   1.727
 5330SOL     OW21638   3.451   5.778   0.297
 5330SOL    HW221639   3.444   5.782   0.392
 5330SOL    HW321640   3.463   5.869   0.270
 5330SOL    MW421641   3.452   5.791   0.305
 5331SOL     OW21642   2.740   6.341   0.411
 5331SOL    HW221643   2.720   6.327   0.318
 5331SOL    HW321644   2.833   6.320   0.418
 5331SOL    MW421645   2.750   6.336   0.400
 5332SOL     OW21646   2.067   5.964   1.715
 5332SOL    HW221647   2.024   6.023   1.652
 5332SOL    HW321648   2.135   6.019   1.755
 5332SOL    MW421649   2.071   5.979   1.712
 5333SOL     OW21650   3.179   6.584   1.260
 5333SOL    HW221651   3.242   6.581   1.333
 5333SOL    HW321652   3.095   6.602   1.302
 5333SOL    MW421653   3.175   6.586   1.275
 5334SOL     OW21654   3.518   5.761   1.039
 5334SOL    HW221655   3.563   5.679   1.058
 5334SOL    HW321656   3.538   5.817   1.115
 5334SOL    MW421657   3.528   5.757   1.051
 5335SOL     OW21658   1.966   5.604   1.138
 5335SOL    HW221659   1.957   5.605   1.043
 5335SOL    HW321660   2.060   5.616   1.153
 5335SOL    MW421661   1.978   5.607   1.129
 5336SOL     OW21662   3.603   6.797   0.758
 5336SOL    HW221663   3.582   6.743   0.681
 5336SOL    HW321664   3.699   6.795   0.762
 5336SOL    MW421665   3.612   6.790   0.747
 5337SOL     OW21666   2.295   6.942   1.501
 5337SOL    HW221667   2.216   6.892   1.524
 5337SOL    HW321668   2.365   6.901   1.551
 5337SOL    MW421669   2.293   6.930   1.511
 5338SOL     OW21670   2.179   5.731   0.184
 5338SOL    HW221671   2.108   5.786   0.152
 5338SOL    HW321672   2.221   5.697   0.105
 5338SOL    MW421673   2.175   5.733   0.170
 5339SOL     OW21674   3.303   6.228   1.020
 5339SOL    HW221675   3.226   6.274   0.986
 5339SOL    HW321676   3.360   6.297   1.054
 5339SOL    MW421677   3.300   6.243   1.020
 5340SOL     OW21678   1.935   5.830   0.033
 5340SOL    HW221679   1.902   5.909   0.077
 5340SOL    HW321680   1.990   5.863  -0.038
 5340SOL    MW421681   1.938   5.844   0.030
 5341SOL     OW21682   1.969   7.087   0.222
 5341SOL    HW221683   1.986   7.171   0.264
 5341SOL    HW321684   2.004   7.096   0.134
 5341SOL    MW421685   1.974   7.100   0.216
 5342SOL     OW21686   3.241   7.176   0.439
 5342SOL    HW221687   3.304   7.166   0.368
 5342SOL    HW321688   3.158   7.196   0.394
 5342SOL    MW421689   3.238   7.177   0.424
 5343SOL     OW21690   3.604   6.444   2.125
 5343SOL    HW221691   3.645   6.386   2.190
 5343SOL    HW321692   3.511   6.436   2.142
 5343SOL    MW421693   3.598   6.436   2.135
 5344SOL     OW21694   3.470   6.376   3.120
 5344SOL    HW221695   3.425   6.443   3.171
 5344SOL    HW321696   3.558   6.412   3.106
 5344SOL    MW421697   3.476   6.389   3.124
 5345SOL     OW21698   2.398   6.627   2.354
 5345SOL    HW221699   2.488   6.602   2.338
 5345SOL    HW321700   2.394   6.720   2.331
 5345SOL    MW421701   2.410   6.636   2.349
 5346SOL     OW21702   3.450   6.770   3.101
 5346SOL    HW221703   3.371   6.735   3.059
 5346SOL    HW321704   3.477   6.842   3.045
 5346SOL    MW421705   3.443   6.775   3.088
 5347SOL     OW21706   2.682   6.083   2.367
 5347SOL    HW221707   2.657   6.171   2.395
 5347SOL    HW321708   2.679   6.086   2.271
 5347SOL    MW421709   2.678   6.095   2.359
 5348SOL     OW21710   2.124   6.111   2.295
 5348SOL    HW221711   2.156   6.199   2.277
 5348SOL    HW321712   2.112   6.109   2.390
 5348SOL    MW421713   2.127   6.123   2.307
 5349SOL     OW21714   2.202   6.524   3.196
 5349SOL    HW221715   2.265   6.471   3.147
 5349SOL    HW321716   2.183   6.598   3.139
 5349SOL    MW421717   2.208   6.526   3.183
 5350SOL     OW21718   2.523   5.866   2.382
 5350SOL    HW221719   2.581   5.942   2.384
 5350SOL    HW321720   2.458   5.887   2.315
 5350SOL    MW421721   2.522   5.878   2.373
 5351SOL     OW21722   2.610   6.793   2.557
 5351SOL    HW221723   2.690   6.796   2.609
 5351SOL    HW321724   2.638   6.760   2.471
 5351SOL    MW421725   2.624   6.789   2.552
 5352SOL     OW21726   2.635   7.134   3.460
 5352SOL    HW221727   2.719   7.160   3.499
 5352SOL    HW321728   2.659   7.078   3.386
 5352SOL    MW421729   2.649   7.130   3.455
 5353SOL     OW21730   2.387   6.297   2.548
 5353SOL    HW221731   2.372   6.217   2.599
 5353SOL    HW321732   2.469   6.332   2.582
 5353SOL    MW421733   2.395   6.289   2.560
 5354SOL     OW21734   2.724   6.983   3.233
 5354SOL    HW221735   2.688   7.049   3.173
 5354SOL    HW321736   2.652   6.921   3.246
 5354SOL    MW421737   2.710   6.983   3.227
 5355SOL     OW21738   2.529   6.123   2.925
 5355SOL    HW221739   2.435   6.119   2.943
 5355SOL    HW321740   2.559   6.032   2.934
 5355SOL    MW421741   2.520   6.111   2.928
 5356SOL     OW21742   2.275   6.537   2.829
 5356SOL    HW221743   2.230   6.544   2.745
 5356SOL    HW321744   2.255   6.620   2.873
 5356SOL    MW421745   2.267   6.549   2.823
 5357SOL     OW21746   1.972   7.383   2.704
 5357SOL    HW221747   2.061   7.375   2.739
 5357SOL    HW321748   1.936   7.295   2.709
 5357SOL    MW421749   1.979   7.370   2.709
 5358SOL     OW21750   3.237   6.775   2.073
 5358SOL    HW221751   3.155   6.811   2.039
 5358SOL    HW321752   3.305   6.818   2.022
 5358SOL    MW421753   3.235   6.785   2.061
 5359SOL     OW21754   2.236   6.910   2.739
 5359SOL    HW221755   2.212   6.963   2.815
 5359SOL    HW321756   2.292   6.968   2.687
 5359SOL    MW421757   2.240   6.925   2.742
 5360SOL     OW21758   2.798   6.554   2.549
 5360SOL    HW221759   2.712   6.541   2.589
 5360SOL    HW321760   2.851   6.481   2.581
 5360SOL    MW421761   2.794   6.543   2.558
 5361SOL     OW21762   2.206   7.206   3.334
 5361SOL    HW221763   2.114   7.182   3.319
 5361SOL    HW321764   2.250   7.123   3.351
 5361SOL    MW421765   2.200   7.191   3.333
 5362SOL     OW21766   2.789   6.916   2.266
 5362SOL    HW221767   2.766   6.978   2.334
 5362SOL    HW321768   2.746   6.834   2.292
 5362SOL    MW421769   2.781   6.912   2.277
 5363SOL     OW21770   3.662   5.917   2.722
 5363SOL    HW221771   3.599   5.897   2.791
 5363SOL    HW321772   3.652   5.846   2.659
 5363SOL    MW421773   3.652   5.904   2.723
 5364SOL     OW21774   2.286   5.889   2.234
 5364SOL    HW221775   2.260   5.851   2.150
 5364SOL    HW321776   2.223   5.959   2.250
 5364SOL    MW421777   2.275   5.892   2.225
 5365SOL     OW21778   2.121   6.850   2.271
 5365SOL    HW221779   2.069   6.918   2.227
 5365SOL    HW321780   2.118   6.776   2.211
 5365SOL    MW421781   2.113   6.849   2.258
 5366SOL     OW21782   3.718   6.086   2.024
 5366SOL    HW221783   3.627   6.088   2.052
 5366SOL    HW321784   3.763   6.148   2.082
 5366SOL    MW421785   3.711   6.094   2.034
 5367SOL     OW21786   3.463   6.689   2.374
 5367SOL    HW221787   3.373   6.689   2.409
 5367SOL    HW321788   3.456   6.735   2.291
 5367SOL    MW421789   3.450   6.695   2.368
 5368SOL     OW21790   3.263   6.324   3.446
 5368SOL    HW221791   3.332   6.262   3.423
 5368SOL    HW321792   3.188   6.298   3.393
 5368SOL    MW421793   3.263   6.311   3.437
 5369SOL     OW21794   2.004   7.204   2.998
 5369SOL    HW221795   1.987   7.150   3.075
 5369SOL    HW321796   1.992   7.294   3.028
 5369SOL    MW421797   2.001   7.208   3.012
 5370SOL     OW21798   2.999   6.711   3.438
 5370SOL    HW221799   2.984   6.804   3.423
 5370SOL    HW321800   3.094   6.701   3.438
 5370SOL    MW421801   3.008   6.721   3.435
 5371SOL     OW21802   2.795   6.135   3.639
 5371SOL    HW221803   2.885   6.136   3.606
 5371SOL    HW321804   2.754   6.060   3.597
 5371SOL    MW421805   2.801   6.125   3.630
 5372SOL     OW21806   3.370   6.667   2.766
 5372SOL    HW221807   3.373   6.601   2.697
 5372SOL    HW321808   3.455   6.710   2.762
 5372SOL    MW421809   3.382   6.663   2.757
 5373SOL     OW21810   2.990   6.270   2.335
 5373SOL    HW221811   3.016   6.294   2.246
 5373SOL    HW321812   2.972   6.177   2.331
 5373SOL    MW421813   2.992   6.262   2.322
 5374SOL     OW21814   3.655   6.890   2.186
 5374SOL    HW221815   3.611   6.931   2.261
 5374SOL    HW321816   3.712   6.958   2.151
 5374SOL    MW421817   3.657   6.904   2.191
 5375SOL     OW21818   2.575   5.939   3.589
 5375SOL    HW221819   2.585   5.865   3.529
 5375SOL    HW321820   2.611   5.908   3.672
 5375SOL    MW421821   2.581   5.925   3.591
 5376SOL     OW21822   2.311   7.306   2.504
 5376SOL    HW221823   2.343   7.394   2.482
 5376SOL    HW321824   2.264   7.278   2.426
 5376SOL    MW421825   2.310   7.314   2.491
 5377SOL     OW21826   3.695   5.668   2.553
 5377SOL    HW221827   3.749   5.619   2.615
 5377SOL    HW321828   3.638   5.602   2.514
 5377SOL    MW421829   3.695   5.652   2.555
 5378SOL     OW21830   2.027   7.366   2.081
 5378SOL    HW221831   2.056   7.456   2.073
 5378SOL    HW321832   1.977   7.349   2.002
 5378SOL    MW421833   2.025   7.374   2.070
 5379SOL     OW21834   2.814   5.621   2.966
 5379SOL    HW221835   2.773   5.699   2.928
 5379SOL    HW321836   2.908   5.639   2.961
 5379SOL    MW421837   2.820   5.633   2.961
 5380SOL     OW21838   2.829   6.299   1.996
 5380SOL    HW221839   2.831   6.246   1.917
 5380SOL    HW321840   2.917   6.336   2.002
 5380SOL    MW421841   2.841   6.298   1.985
 5381SOL     OW21842   3.443   6.225   2.332
 5381SOL    HW221843   3.482   6.225   2.419
 5381SOL    HW321844   3.384   6.301   2.332
 5381SOL    MW421845   3.440   6.236   2.343
 5382SOL     OW21846   2.760   6.592   3.461
 5382SOL    HW221847   2.737   6.572   3.551
 5382SOL    HW321848   2.845   6.636   3.466
 5382SOL    MW421849   2.767   6.595   3.473
 5383SOL     OW21850   2.840   5.729   3.221
 5383SOL    HW221851   2.846   5.691   3.134
 5383SOL    HW321852   2.829   5.823   3.206
 5383SOL    MW421853   2.841   5.737   3.209
 5384SOL     OW21854   2.929   6.218   3.055
 5384SOL    HW221855   3.004   6.247   3.002
 5384SOL    HW321856   2.861   6.283   3.039
 5384SOL    MW421857   2.930   6.230   3.045
 5385SOL     OW21858   2.926   5.924   3.438
 5385SOL    HW221859   2.892   5.963   3.357
 5385SOL    HW321860   2.904   5.832   3.431
 5385SOL    MW421861   2.919   5.917   3.428
 5386SOL     OW21862   3.335   6.738   3.514
 5386SOL    HW221863   3.417   6.779   3.544
 5386SOL    HW321864   3.298   6.700   3.594
 5386SOL    MW421865   3.341   6.739   3.529
 5387SOL     OW21866   3.630   6.111   2.498
 5387SOL    HW221867   3.719   6.080   2.515
 5387SOL    HW321868   3.573   6.051   2.546
 5387SOL    MW421869   3.633   6.099   2.507
 5388SOL     OW21870   2.056   5.825   2.527
 5388SOL    HW221871   2.047   5.765   2.453
 5388SOL    HW321872   1.989   5.796   2.590
 5388SOL    MW421873   2.046   5.812   2.525
 5389SOL     OW21874   2.999   6.918   2.088
 5389SOL    HW221875   2.949   6.920   2.170
 5389SOL    HW321876   2.933   6.936   2.020
 5389SOL    MW421877   2.985   6.920   2.090
 5390SOL     OW21878   2.003   5.998   2.890
 5390SOL    HW221879   1.975   6.089   2.899
 5390SOL    HW321880   1.940   5.959   2.829
 5390SOL    MW421881   1.990   6.004   2.884
 5391SOL     OW21882   2.462   7.336   2.196
 5391SOL    HW221883   2.383   7.294   2.229
 5391SOL    HW321884   2.528   7.319   2.263
 5391SOL    MW421885   2.461   7.328   2.209
 5392SOL     OW21886   3.590   6.856   3.593
 5392SOL    HW221887   3.640   6.782   3.625
 5392SOL    HW321888   3.536   6.883   3.668
 5392SOL    MW421889   3.590   6.850   3.606
 5393SOL     OW21890   2.598   6.751   1.903
 5393SOL    HW221891   2.520   6.697   1.890
 5393SOL    HW321892   2.569   6.824   1.956
 5393SOL    MW421893   2.584   6.753   1.908
 5394SOL     OW21894   3.724   6.491   3.095
 5394SOL    HW221895   3.740   6.529   3.008
 5394SOL    HW321896   3.758   6.557   3.156
 5394SOL    MW421897   3.731   6.504   3.091
 5395SOL     OW21898   3.516   7.200   2.764
 5395SOL    HW221899   3.545   7.267   2.825
 5395SOL    HW321900   3.497   7.124   2.819
 5395SOL    MW421901   3.518   7.200   2.779
 5396SOL     OW21902   1.987   6.273   3.060
 5396SOL    HW221903   2.049   6.303   3.126
 5396SOL    HW321904   1.921   6.342   3.054
 5396SOL    MW421905   1.986   6.286   3.067
 5397SOL     OW21906   3.403   6.941   1.913
 5397SOL    HW221907   3.350   6.990   1.849
 5397SOL    HW321908   3.434   7.007   1.974
 5397SOL    MW421909   3.401   6.955   1.911
 5398SOL     OW21910   2.628   5.830   1.968
 5398SOL    HW221911   2.576   5.750   1.956
 5398SOL    HW321912   2.715   5.807   1.936
 5398SOL    MW421913   2.631   5.816   1.962
 5399SOL     OW21914   2.082   7.382   3.512
 5399SOL    HW221915   2.056   7.450   3.450
 5399SOL    HW321916   2.130   7.319   3.460
 5399SOL    MW421917   2.084   7.382   3.498
 5400SOL     OW21918   2.134   6.701   3.019
 5400SOL    HW221919   2.187   6.776   3.044
 5400SOL    HW321920   2.053   6.739   2.985
 5400SOL    MW421921   2.130   6.716   3.019
 5401SOL     OW21922   2.674   6.605   3.007
 5401SOL    HW221923   2.702   6.514   3.019
 5401SOL    HW321924   2.603   6.599   2.943
 5401SOL    MW421925   2.667   6.593   3.002
 5402SOL     OW21926   1.989   6.470   2.425
 5402SOL    HW221927   2.080   6.485   2.452
 5402SOL    HW321928   1.992   6.391   2.371
 5402SOL    MW421929   2.001   6.462   2.423
 5403SOL     OW21930   2.225   6.178   3.679
 5403SOL    HW221931   2.172   6.258   3.686
 5403SOL    HW321932   2.295   6.190   3.744
 5403SOL    MW421933   2.227   6.191   3.687
 5404SOL     OW21934   2.611   5.728   3.386
 5404SOL    HW221935   2.588   5.636   3.388
 5404SOL    HW321936   2.697   5.730   3.343
 5404SOL    MW421937   2.618   5.718   3.382
 5405SOL     OW21938   2.295   6.252   3.425
 5405SOL    HW221939   2.375   6.302   3.411
 5405SOL    HW321940   2.286   6.246   3.520
 5405SOL    MW421941   2.304   6.258   3.435
 5406SOL     OW21942   1.997   7.082   2.464
 5406SOL    HW221943   1.969   7.121   2.546
 5406SOL    HW321944   2.017   6.991   2.486
 5406SOL    MW421945   1.995   7.074   2.477
 5407SOL     OW21946   2.830   7.125   2.499
 5407SOL    HW221947   2.913   7.079   2.483
 5407SOL    HW321948   2.820   7.124   2.595
 5407SOL    MW421949   2.840   7.118   2.509
 5408SOL     OW21950   3.662   6.270   2.813
 5408SOL    HW221951   3.751   6.300   2.795
 5408SOL    HW321952   3.642   6.210   2.742
 5408SOL    MW421953   3.671   6.267   2.802
 5409SOL     OW21954   3.513   6.449   3.693
 5409SOL    HW221955   3.568   6.373   3.674
 5409SOL    HW321956   3.515   6.457   3.788
 5409SOL    MW421957   3.521   6.440   3.701
 5410SOL     OW21958   2.563   7.182   1.904
 5410SOL    HW221959   2.503   7.251   1.874
 5410SOL    HW321960   2.508   7.124   1.957
 5410SOL    MW421961   2.547   7.184   1.906
 5411SOL     OW21962   3.001   5.827   2.127
 5411SOL    HW221963   2.934   5.803   2.064
 5411SOL    HW321964   3.066   5.876   2.076
 5411SOL    MW421965   3.001   5.829   2.112
 5412SOL     OW21966   2.808   6.011   3.212
 5412SOL    HW221967   2.727   6.052   3.240
 5412SOL    HW321968   2.855   6.079   3.164
 5412SOL    MW421969   2.803   6.026   3.210
 5413SOL     OW21970   3.068   6.349   2.835
 5413SOL    HW221971   3.081   6.443   2.845
 5413SOL    HW321972   3.029   6.339   2.749
 5413SOL    MW421973   3.064   6.360   2.825
 5414SOL     OW21974   2.520   6.544   2.639
 5414SOL    HW221975   2.431   6.535   2.672
 5414SOL    HW321976   2.524   6.634   2.607
 5414SOL    MW421977   2.509   6.555   2.639
 5415SOL     OW21978   3.319   6.127   2.634
 5415SOL    HW221979   3.264   6.048   2.633
 5415SOL    HW321980   3.301   6.168   2.718
 5415SOL    MW421981   3.309   6.122   2.643
 5416SOL     OW21982   2.290   5.814   3.451
 5416SOL    HW221983   2.211   5.832   3.503
 5416SOL    HW321984   2.285   5.876   3.378
 5416SOL    MW421985   2.280   5.824   3.448
 5417SOL     OW21986   2.938   6.331   2.591
 5417SOL    HW221987   2.875   6.263   2.615
 5417SOL    HW321988   2.958   6.312   2.499
 5417SOL    MW421989   2.932   6.318   2.583
 5418SOL     OW21990   2.194   7.226   2.293
 5418SOL    HW221991   2.155   7.273   2.219
 5418SOL    HW321992   2.128   7.161   2.318
 5418SOL    MW421993   2.181   7.224   2.287
 5419SOL     OW21994   2.686   6.635   2.317
 5419SOL    HW221995   2.688   6.609   2.224
 5419SOL    HW321996   2.744   6.572   2.360
 5419SOL    MW421997   2.694   6.624   2.311
 5420SOL     OW21998   3.196   5.879   2.650
 5420SOL    HW221999   3.224   5.811   2.711
 5420SOL    HW322000   3.110   5.850   2.620
 5420SOL    MW422001   3.189   5.866   2.654
 5421SOL     OW22002   2.001   6.813   2.584
 5421SOL    HW222003   2.065   6.845   2.647
 5421SOL    HW322004   2.050   6.749   2.532
 5421SOL    MW422005   2.016   6.809   2.585
 5422SOL     OW22006   2.501   6.889   3.566
 5422SOL    HW222007   2.549   6.972   3.553
 5422SOL    HW322008   2.558   6.837   3.622
 5422SOL    MW422009   2.515   6.893   3.572
 5423SOL     OW22010   2.077   7.131   3.706
 5423SOL    HW222011   2.133   7.055   3.721
 5423SOL    HW322012   2.026   7.109   3.628
 5423SOL    MW422013   2.077   7.118   3.697
 5424SOL     OW22014   3.176   5.983   1.985
 5424SOL    HW222015   3.149   6.049   1.921
 5424SOL    HW322016   3.246   6.026   2.035
 5424SOL    MW422017   3.181   5.996   1.982
 5425SOL     OW22018   2.844   5.688   1.922
 5425SOL    HW222019   2.900   5.680   1.844
 5425SOL    HW322020   2.821   5.598   1.944
 5425SOL    MW422021   2.849   5.675   1.915
 5426SOL     OW22022   3.349   6.539   2.127
 5426SOL    HW222023   3.316   6.628   2.117
 5426SOL    HW322024   3.314   6.510   2.212
 5426SOL    MW422025   3.339   6.548   2.138
 5427SOL     OW22026   2.962   6.968   3.315
 5427SOL    HW222027   2.873   6.974   3.283
 5427SOL    HW322028   3.006   7.047   3.283
 5427SOL    MW422029   2.957   6.978   3.307
 5428SOL     OW22030   2.255   5.636   3.657
 5428SOL    HW222031   2.183   5.601   3.605
 5428SOL    HW322032   2.313   5.677   3.592
 5428SOL    MW422033   2.253   5.637   3.642
 5429SOL     OW22034   2.279   7.126   2.956
 5429SOL    HW222035   2.324   7.188   3.013
 5429SOL    HW322036   2.186   7.145   2.969
 5429SOL    MW422037   2.272   7.136   2.963
 5430SOL     OW22038   3.719   6.655   3.310
 5430SOL    HW222039   3.634   6.668   3.269
 5430SOL    HW322040   3.699   6.619   3.397
 5430SOL    MW422041   3.706   6.651   3.315
 5431SOL     OW22042   2.343   6.577   1.919
 5431SOL    HW222043   2.266   6.590   1.975
 5431SOL    HW322044   2.307   6.541   1.838
 5431SOL    MW422045   2.329   6.573   1.916
 5432SOL     OW22046   2.996   6.550   2.162
 5432SOL    HW222047   2.906   6.571   2.137
 5432SOL    HW322048   3.023   6.623   2.218
 5432SOL    MW422049   2.988   6.562   2.165
 5433SOL     OW22050   2.496   6.899   2.854
 5433SOL    HW222051   2.489   6.878   2.948
 5433SOL    HW322052   2.414   6.867   2.817
 5433SOL    MW422053   2.484   6.893   2.861
 5434SOL     OW22054   1.942   6.991   3.517
 5434SOL    HW222055   1.986   6.924   3.463
 5434SOL    HW322056   1.857   6.953   3.537
 5434SOL    MW422057   1.937   6.977   3.513
 5435SOL     OW22058   2.625   5.666   2.569
 5435SOL    HW222059   2.554   5.727   2.551
 5435SOL    HW322060   2.676   5.663   2.488
 5435SOL    MW422061   2.621   5.672   2.556
 5436SOL     OW22062   2.383   6.906   2.318
 5436SOL    HW222063   2.376   6.938   2.408
 5436SOL    HW322064   2.293   6.890   2.290
 5436SOL    MW422065   2.371   6.908   2.325
 5437SOL     OW22066   2.585   6.323   3.699
 5437SOL    HW222067   2.655   6.265   3.671
 5437SOL    HW322068   2.528   6.268   3.754
 5437SOL    MW422069   2.587   6.310   3.703
 5438SOL     OW22070   3.372   6.535   3.332
 5438SOL    HW222071   3.377   6.588   3.412
 5438SOL    HW322072   3.334   6.452   3.360
 5438SOL    MW422073   3.368   6.530   3.347
 5439SOL     OW22074   2.386   6.190   2.032
 5439SOL    HW222075   2.352   6.246   2.102
 5439SOL    HW322076   2.457   6.140   2.072
 5439SOL    MW422077   2.392   6.191   2.046
 5440SOL     OW22078   3.482   6.941   2.854
 5440SOL    HW222079   3.517   6.923   2.767
 5440SOL    HW322080   3.387   6.942   2.841
 5440SOL    MW422081   3.474   6.938   2.841
 5441SOL     OW22082   2.911   6.589   3.223
 5441SOL    HW222083   2.954   6.624   3.301
 5441SOL    HW322084   2.894   6.666   3.169
 5441SOL    MW422085   2.914   6.604   3.226
 5442SOL     OW22086   3.442   6.076   2.096
 5442SOL    HW222087   3.434   6.147   2.033
 5442SOL    HW322088   3.460   6.120   2.179
 5442SOL    MW422089   3.443   6.090   2.098
 5443SOL     OW22090   2.302   5.731   2.525
 5443SOL    HW222091   2.352   5.774   2.456
 5443SOL    HW322092   2.217   5.775   2.525
 5443SOL    MW422093   2.299   5.744   2.516
 5444SOL     OW22094   2.061   6.793   3.385
 5444SOL    HW222095   2.089   6.746   3.463
 5444SOL    HW322096   1.982   6.748   3.356
 5444SOL    MW422097   2.054   6.782   3.391
 5445SOL     OW22098   2.569   6.120   3.352
 5445SOL    HW222099   2.541   6.208   3.376
 5445SOL    HW322100   2.538   6.064   3.423
 5445SOL    MW422101   2.561   6.123   3.364
 5446SOL     OW22102   3.111   6.338   2.071
 5446SOL    HW222103   3.158   6.356   1.990
 5446SOL    HW322104   3.077   6.422   2.099
 5446SOL    MW422105   3.113   6.352   2.064
 5447SOL     OW22106   2.224   6.516   2.565
 5447SOL    HW222107   2.282   6.572   2.513
 5447SOL    HW322108   2.268   6.431   2.567
 5447SOL    MW422109   2.237   6.513   2.558
 5448SOL     OW22110   3.364   5.868   2.402
 5448SOL    HW222111   3.286   5.818   2.427
 5448SOL    HW322112   3.335   5.959   2.402
 5448SOL    MW422113   3.350   5.872   2.405
 5449SOL     OW22114   2.950   5.830   2.561
 5449SOL    HW222115   2.970   5.905   2.505
 5449SOL    HW322116   2.930   5.869   2.646
 5449SOL    MW422117   2.951   5.846   2.565
 5450SOL     OW22118   3.710   6.603   3.580
 5450SOL    HW222119   3.623   6.583   3.616
 5450SOL    HW322120   3.764   6.529   3.605
 5450SOL    MW422121   3.705   6.592   3.588
 5451SOL     OW22122   1.931   7.116   2.737
 5451SOL    HW222123   1.963   7.120   2.828
 5451SOL    HW322124   1.836   7.124   2.745
 5451SOL    MW422125   1.923   7.119   2.750
 5452SOL     OW22126   1.886   6.242   2.284
 5452SOL    HW222127   1.826   6.214   2.354
 5452SOL    HW322128   1.960   6.182   2.290
 5452SOL    MW422129   1.888   6.231   2.293
 5453SOL     OW22130   3.054   6.973   2.444
 5453SOL    HW222131   3.077   6.924   2.522
 5453SOL    HW322132   3.135   7.015   2.416
 5453SOL    MW422133   3.067   6.973   2.451
 5454SOL     OW22134   2.312   5.981   3.173
 5454SOL    HW222135   2.345   6.062   3.213
 5454SOL    HW322136   2.285   6.007   3.085
 5454SOL    MW422137   2.311   5.995   3.167
 5455SOL     OW22138   2.266   5.948   2.909
 5455SOL    HW222139   2.296   5.862   2.880
 5455SOL    HW322140   2.171   5.941   2.912
 5455SOL    MW422141   2.258   5.937   2.907
 5456SOL     OW22142   2.409   5.726   2.800
 5456SOL    HW222143   2.419   5.635   2.826
 5456SOL    HW322144   2.365   5.722   2.715
 5456SOL    MW422145   2.405   5.714   2.792
 5457SOL     OW22146   2.503   7.341   3.346
 5457SOL    HW222147   2.420   7.326   3.391
 5457SOL    HW322148   2.562   7.274   3.381
 5457SOL    MW422149   2.501   7.331   3.356
 5458SOL     OW22150   3.560   6.048   2.971
 5458SOL    HW222151   3.493   6.081   3.031
 5458SOL    HW322152   3.603   6.126   2.937
 5458SOL    MW422153   3.558   6.063   2.975
 5459SOL     OW22154   3.738   6.768   2.941
 5459SOL    HW222155   3.731   6.708   2.866
 5459SOL    HW322156   3.664   6.828   2.930
 5459SOL    MW422157   3.728   6.768   2.930
 5460SOL     OW22158   3.120   6.630   2.859
 5460SOL    HW222159   3.134   6.602   2.950
 5460SOL    HW322160   3.206   6.661   2.831
 5460SOL    MW422161   3.133   6.631   2.868
 5461SOL     OW22162   3.203   6.125   3.138
 5461SOL    HW222163   3.224   6.126   3.045
 5461SOL    HW322164   3.248   6.047   3.171
 5461SOL    MW422165   3.210   6.115   3.130
 5462SOL     OW22166   3.696   6.256   3.680
 5462SOL    HW222167   3.733   6.201   3.749
 5462SOL    HW322168   3.721   6.213   3.598
 5462SOL    MW422169   3.703   6.244   3.679
 5463SOL     OW22170   3.243   6.554   3.731
 5463SOL    HW222171   3.309   6.502   3.685
 5463SOL    HW322172   3.263   6.541   3.824
 5463SOL    MW422173   3.254   6.545   3.738
 5464SOL     OW22174   3.194   5.640   2.080
 5464SOL    HW222175   3.268   5.684   2.123
 5464SOL    HW322176   3.118   5.694   2.102
 5464SOL    MW422177   3.194   5.652   2.088
 5465SOL     OW22178   3.254   6.415   2.358
 5465SOL    HW222179   3.169   6.385   2.328
 5465SOL    HW322180   3.246   6.422   2.453
 5465SOL    MW422181   3.242   6.413   2.367
 5466SOL     OW22182   2.330   6.878   3.089
 5466SOL    HW222183   2.342   6.905   3.180
 5466SOL    HW322184   2.311   6.959   3.042
 5466SOL    MW422185   2.329   6.893   3.094
 5467SOL     OW22186   2.614   5.858   2.912
 5467SOL    HW222187   2.587   5.860   3.003
 5467SOL    HW322188   2.544   5.810   2.867
 5467SOL    MW422189   2.602   5.854   2.919
 5468SOL     OW22190   2.468   7.350   3.074
 5468SOL    HW222191   2.520   7.427   3.051
 5468SOL    HW322192   2.477   7.342   3.169
 5468SOL    MW422193   2.477   7.357   3.085
 5469SOL     OW22194   3.370   6.935   3.306
 5469SOL    HW222195   3.355   6.864   3.369
 5469SOL    HW322196   3.416   6.893   3.234
 5469SOL    MW422197   3.376   6.919   3.306
 5470SOL     OW22198   2.444   6.666   3.423
 5470SOL    HW222199   2.481   6.671   3.335
 5470SOL    HW322200   2.483   6.739   3.470
 5470SOL    MW422201   2.454   6.676   3.418
 5471SOL     OW22202   2.624   6.709   3.235
 5471SOL    HW222203   2.683   6.655   3.288
 5471SOL    HW322204   2.639   6.681   3.145
 5471SOL    MW422205   2.634   6.698   3.231
 5472SOL     OW22206   2.627   6.081   2.084
 5472SOL    HW222207   2.700   6.130   2.047
 5472SOL    HW322208   2.643   5.990   2.058
 5472SOL    MW422209   2.639   6.076   2.077
 5473SOL     OW22210   3.095   5.677   2.998
 5473SOL    HW222211   3.150   5.686   2.920
 5473SOL    HW322212   3.150   5.711   3.069
 5473SOL    MW422213   3.109   5.682   2.997
 5474SOL     OW22214   2.102   6.590   2.182
 5474SOL    HW222215   2.039   6.606   2.111
 5474SOL    HW322216   2.049   6.553   2.253
 5474SOL    MW422217   2.087   6.587   2.182
 5475SOL     OW22218   2.458   6.944   2.041
 5475SOL    HW222219   2.473   6.920   2.133
 5475SOL    HW322220   2.366   6.922   2.025
 5475SOL    MW422221   2.448   6.937   2.051
 5476SOL     OW22222   2.256   7.333   2.762
 5476SOL    HW222223   2.260   7.244   2.797
 5476SOL    HW322224   2.282   7.324   2.671
 5476SOL    MW422225   2.259   7.321   2.754
 5477SOL     OW22226   2.873   6.811   3.005
 5477SOL    HW222227   2.805   6.745   3.021
 5477SOL    HW322228   2.891   6.805   2.912
 5477SOL    MW422229   2.866   6.802   2.996
 5478SOL     OW22230   1.962   7.086   3.256
 5478SOL    HW222231   1.952   7.044   3.342
 5478SOL    HW322232   1.883   7.139   3.246
 5478SOL    MW422233   1.951   7.087   3.267
 5479SOL     OW22234   2.866   5.950   2.826
 5479SOL    HW222235   2.796   5.902   2.871
 5479SOL    HW322236   2.898   6.013   2.890
 5479SOL    MW422237   2.861   5.952   2.840
 5480SOL     OW22238   2.517   6.386   3.446
 5480SOL    HW222239   2.510   6.481   3.434
 5480SOL    HW322240   2.526   6.375   3.541
 5480SOL    MW422241   2.518   6.398   3.456
 5481SOL     OW22242   2.238   6.901   3.704
 5481SOL    HW222243   2.310   6.903   3.641
 5481SOL    HW322244   2.208   6.810   3.703
 5481SOL    MW422245   2.243   6.890   3.696
 5482SOL     OW22246   3.322   5.664   3.171
 5482SOL    HW222247   3.393   5.610   3.135
 5482SOL    HW322248   3.321   5.643   3.264
 5482SOL    MW422249   3.331   5.655   3.179
 5483SOL     OW22250   2.333   6.056   2.639
 5483SOL    HW222251   2.404   6.004   2.602
 5483SOL    HW322252   2.319   6.021   2.726
 5483SOL    MW422253   2.341   6.045   2.646
 5484SOL     OW22254   1.888   7.391   3.711
 5484SOL    HW222255   1.938   7.369   3.633
 5484SOL    HW322256   1.896   7.486   3.719
 5484SOL    MW422257   1.896   7.400   3.702
 5485SOL     OW22258   2.649   7.149   2.715
 5485SOL    HW222259   2.577   7.086   2.728
 5485SOL    HW322260   2.610   7.234   2.733
 5485SOL    MW422261   2.633   7.152   2.718
 5486SOL     OW22262   2.969   5.997   2.363
 5486SOL    HW222263   2.991   5.934   2.295
 5486SOL    HW322264   2.874   5.989   2.374
 5486SOL    MW422265   2.959   5.988   2.355
 5487SOL     OW22266   2.054   5.687   2.295
 5487SOL    HW222267   2.125   5.708   2.234
 5487SOL    HW322268   2.008   5.615   2.253
 5487SOL    MW422269   2.058   5.681   2.281
 5488SOL     OW22270   1.885   6.154   3.438
 5488SOL    HW222271   1.949   6.220   3.413
 5488SOL    HW322272   1.804   6.181   3.395
 5488SOL    MW422273   1.883   6.166   3.430
 5489SOL     OW22274   3.623   7.061   2.395
 5489SOL    HW222275   3.593   6.994   2.456
 5489SOL    HW322276   3.717   7.067   2.409
 5489SOL    MW422277   3.631   7.053   2.405
 5490SOL     OW22278   3.179   6.738   2.325
 5490SOL    HW222279   3.151   6.824   2.358
 5490SOL    HW322280   3.207   6.754   2.235
 5490SOL    MW422281   3.179   6.752   2.317
 5491SOL     OW22282   2.841   5.658   2.378
 5491SOL    HW222283   2.878   5.717   2.443
 5491SOL    HW322284   2.818   5.714   2.304
 5491SOL    MW422285   2.842   5.673   2.377
 5492SOL     OW22286   3.694   6.540   2.800
 5492SOL    HW222287   3.685   6.572   2.711
 5492SOL    HW322288   3.647   6.456   2.800
 5492SOL    MW422289   3.687   6.533   2.790
 5493SOL     OW22290   2.070   6.380   3.379
 5493SOL    HW222291   2.091   6.449   3.317
 5493SOL    HW322292   2.150   6.327   3.384
 5493SOL    MW422293   2.083   6.381   3.373
 5494SOL     OW22294   3.606   6.471   2.501
 5494SOL    HW222295   3.700   6.460   2.489
 5494SOL    HW322296   3.582   6.543   2.442
 5494SOL    MW422297   3.616   6.479   2.492
 5495SOL     OW22298   2.055   6.395   3.646
 5495SOL    HW222299   1.981   6.339   3.672
 5495SOL    HW322300   2.050   6.398   3.551
 5495SOL    MW422301   2.044   6.388   3.636
 5496SOL     OW22302   2.221   5.682   3.096
 5496SOL    HW222303   2.264   5.766   3.116
 5496SOL    HW322304   2.294   5.620   3.089
 5496SOL    MW422305   2.236   5.685   3.097
 5497SOL     OW22306   2.262   6.349   2.274
 5497SOL    HW222307   2.262   6.444   2.259
 5497SOL    HW322308   2.339   6.333   2.328
 5497SOL    MW422309   2.272   6.360   2.279
 5498SOL     OW22310   3.038   6.208   3.338
 5498SOL    HW222311   3.074   6.181   3.254
 5498SOL    HW322312   2.951   6.242   3.317
 5498SOL    MW422313   3.032   6.209   3.325
 5499SOL     OW22314   2.021   6.080   2.563
 5499SOL    HW222315   2.083   6.087   2.636
 5499SOL    HW322316   2.021   5.987   2.540
 5499SOL    MW422317   2.029   6.069   2.570
 5500SOL     OW22318   2.703   6.341   3.047
 5500SOL    HW222319   2.661   6.259   3.023
 5500SOL    HW322320   2.704   6.340   3.143
 5500SOL    MW422321   2.696   6.330   3.056
 5501SOL     OW22322   2.507   5.811   3.152
 5501SOL    HW222323   2.438   5.874   3.173
 5501SOL    HW322324   2.534   5.775   3.237
 5501SOL    MW422325   2.501   5.814   3.165
 5502SOL     OW22326   1.890   6.652   2.021
 5502SOL    HW222327   1.859   6.717   2.084
 5502SOL    HW322328   1.839   6.574   2.040
 5502SOL    MW422329   1.880   6.649   2.031
 5503SOL     OW22330   3.302   5.664   2.769
 5503SOL    HW222331   3.390   5.673   2.806
 5503SOL    HW322332   3.312   5.605   2.695
 5503SOL    MW422333   3.316   5.658   2.763
 5504SOL     OW22334   3.334   6.403   2.613
 5504SOL    HW222335   3.414   6.418   2.562
 5504SOL    HW322336   3.327   6.308   2.619
 5504SOL    MW422337   3.343   6.392   2.608
 5505SOL     OW22338   2.784   6.329   3.310
 5505SOL    HW222339   2.853   6.396   3.307
 5505SOL    HW322340   2.717   6.367   3.366
 5505SOL    MW422341   2.785   6.342   3.317
 5506SOL     OW22342   2.202   6.629   3.558
 5506SOL    HW222343   2.156   6.545   3.560
 5506SOL    HW322344   2.259   6.623   3.482
 5506SOL    MW422345   2.204   6.617   3.550
 5507SOL     OW22346   3.319   6.272   1.879
 5507SOL    HW222347   3.247   6.248   1.821
 5507SOL    HW322348   3.385   6.309   1.821
 5507SOL    MW422349   3.318   6.274   1.864
 5508SOL     OW22350   2.453   7.004   2.559
 5508SOL    HW222351   2.518   6.937   2.580
 5508SOL    HW322352   2.505   7.081   2.536
 5508SOL    MW422353   2.468   7.006   2.558
 5509SOL     OW22354   2.714   6.169   2.689
 5509SOL    HW222355   2.654   6.187   2.761
 5509SOL    HW322356   2.748   6.081   2.708
 5509SOL    MW422357   2.710   6.159   2.702
 5510SOL     OW22358   2.939   6.752   2.708
 5510SOL    HW222359   3.031   6.733   2.726
 5510SOL    HW322360   2.912   6.682   2.648
 5510SOL    MW422361   2.947   6.740   2.702
 5511SOL     OW22362   2.732   6.572   2.063
 5511SOL    HW222363   2.718   6.484   2.028
 5511SOL    HW322364   2.683   6.629   2.004
 5511SOL    MW422365   2.724   6.567   2.051
 5512SOL     OW22366   3.213   6.990   2.804
 5512SOL    HW222367   3.186   7.074   2.769
 5512SOL    HW322368   3.173   6.985   2.891
 5512SOL    MW422369   3.206   6.999   2.810
 5513SOL     OW22370   3.132   6.938   3.072
 5513SOL    HW222371   3.143   6.905   3.161
 5513SOL    HW322372   3.051   6.897   3.041
 5513SOL    MW422373   3.122   6.930   3.078
 5514SOL     OW22374   2.145   6.296   2.842
 5514SOL    HW222375   2.095   6.295   2.923
 5514SOL    HW322376   2.165   6.388   2.826
 5514SOL    MW422377   2.141   6.308   2.850
 5515SOL     OW22378   3.212   7.060   3.604
 5515SOL    HW222379   3.212   7.154   3.620
 5515SOL    HW322380   3.257   7.050   3.520
 5515SOL    MW422381   3.218   7.070   3.595
 5516SOL     OW22382   3.451   5.778   2.165
 5516SOL    HW222383   3.444   5.782   2.260
 5516SOL    HW322384   3.463   5.869   2.138
 5516SOL    MW422385   3.452   5.791   2.173
 5517SOL     OW22386   2.740   6.341   2.279
 5517SOL    HW222387   2.720   6.327   2.186
 5517SOL    HW322388   2.833   6.320   2.286
 5517SOL    MW422389   2.750   6.336   2.268
 5518SOL     OW22390   2.067   5.964   3.583
 5518SOL    HW222391   2.024   6.023   3.520
 5518SOL    HW322392   2.135   6.019   3.623
 5518SOL    MW422393   2.071   5.979   3.580
 5519SOL     OW22394   3.179   6.584   3.128
 5519SOL    HW222395   3.242   6.581   3.201
 5519SOL    HW322396   3.095   6.602   3.170
 5519SOL    MW422397   3.175   6.586   3.143
 5520SOL     OW22398   3.518   5.761   2.907
 5520SOL    HW222399   3.563   5.679   2.926
 5520SOL    HW322400   3.538   5.817   2.983
 5520SOL    MW422401   3.528   5.757   2.919
 5521SOL     OW22402   1.966   5.604   3.006
 5521SOL    HW222403   1.957   5.605   2.911
 5521SOL    HW322404   2.060   5.616   3.021
 5521SOL    MW422405   1.978   5.607   2.997
 5522SOL     OW22406   3.603   6.797   2.626
 5522SOL    HW222407   3.582   6.743   2.549
 5522SOL    HW322408   3.699   6.795   2.630
 5522SOL    MW422409   3.612   6.790   2.615
 5523SOL     OW22410   2.295   6.942   3.369
 5523SOL    HW222411   2.216   6.892   3.392
 5523SOL    HW322412   2.365   6.901   3.419
 5523SOL    MW422413   2.293   6.930   3.379
 5524SOL     OW22414   2.179   5.731   2.052
 5524SOL    HW222415   2.108   5.786   2.020
 5524SOL    HW322416   2.221   5.697   1.973
 5524SOL    MW422417   2.175   5.733   2.038
 5525SOL     OW22418   3.303   6.228   2.888
 5525SOL    HW222419   3.226   6.274   2.854
 5525SOL    HW322420   3.360   6.297   2.922
 5525SOL    MW422421   3.300   6.243   2.888
 5526SOL     OW22422   1.935   5.830   1.901
 5526SOL    HW222423   1.902   5.909   1.945
 5526SOL    HW322424   1.990   5.863   1.830
 5526SOL    MW422425   1.938   5.844   1.898
 5527SOL     OW22426   1.969   7.087   2.090
 5527SOL    HW222427   1.986   7.171   2.132
 5527SOL    HW322428   2.004   7.096   2.002
 5527SOL    MW422429   1.974   7.100   2.084
 5528SOL     OW22430   3.241   7.176   2.307
 5528SOL    HW222431   3.304   7.166   2.236
 5528SOL    HW322432   3.158   7.196   2.262
 5528SOL    MW422433   3.238   7.177   2.292
 5529SOL     OW22434   3.604   6.444   3.993
 5529SOL    HW222435   3.645   6.386   4.058
 5529SOL    HW322436   3.511   6.436   4.010
 5529SOL    MW422437   3.598   6.436   4.003
 5530SOL     OW22438   3.470   6.376   4.988
 5530SOL    HW222439   3.425   6.443   5.039
 5530SOL    HW322440   3.558   6.412   4.974
 5530SOL    MW422441   3.476   6.389   4.992
 5531SOL     OW22442   2.398   6.627   4.222
 5531SOL    HW222443   2.488   6.602   4.206
 5531SOL    HW322444   2.394   6.720   4.199
 5531SOL    MW422445   2.410   6.636   4.217
 5532SOL     OW22446   3.450   6.770   4.969
 5532SOL    HW222447   3.371   6.735   4.927
 5532SOL    HW322448   3.477   6.842   4.913
 5532SOL    MW422449   3.443   6.775   4.956
 5533SOL     OW22450   2.124   6.111   4.163
 5533SOL    HW222451   2.156   6.199   4.145
 5533SOL    HW322452   2.112   6.109   4.258
 5533SOL    MW422453   2.127   6.123   4.175
 5534SOL     OW22454   2.202   6.524   5.064
 5534SOL    HW222455   2.265   6.471   5.015
 5534SOL    HW322456   2.183   6.598   5.007
 5534SOL    MW422457   2.208   6.526   5.051
 5535SOL     OW22458   2.610   6.793   4.425
 5535SOL    HW222459   2.690   6.796   4.477
 5535SOL    HW322460   2.638   6.760   4.339
 5535SOL    MW422461   2.624   6.789   4.420
 5536SOL     OW22462   2.635   7.134   5.328
 5536SOL    HW222463   2.719   7.160   5.367
 5536SOL    HW322464   2.659   7.078   5.254
 5536SOL    MW422465   2.649   7.130   5.323
 5537SOL     OW22466   2.387   6.297   4.416
 5537SOL    HW222467   2.372   6.217   4.467
 5537SOL    HW322468   2.469   6.332   4.450
 5537SOL    MW422469   2.395   6.289   4.428
 5538SOL     OW22470   2.724   6.983   5.101
 5538SOL    HW222471   2.688   7.049   5.041
 5538SOL    HW322472   2.652   6.921   5.114
 5538SOL    MW422473   2.710   6.983   5.095
 5539SOL     OW22474   2.529   6.123   4.793
 5539SOL    HW222475   2.435   6.119   4.811
 5539SOL    HW322476   2.559   6.032   4.802
 5539SOL    MW422477   2.520   6.111   4.796
 5540SOL     OW22478   2.275   6.537   4.697
 5540SOL    HW222479   2.230   6.544   4.613
 5540SOL    HW322480   2.255   6.620   4.741
 5540SOL    MW422481   2.267   6.549   4.691
 5541SOL     OW22482   1.972   7.383   4.572
 5541SOL    HW222483   2.061   7.375   4.607
 5541SOL    HW322484   1.936   7.295   4.577
 5541SOL    MW422485   1.979   7.370   4.577
 5542SOL     OW22486   3.237   6.775   3.941
 5542SOL    HW222487   3.155   6.811   3.907
 5542SOL    HW322488   3.305   6.818   3.890
 5542SOL    MW422489   3.235   6.785   3.929
 5543SOL     OW22490   2.236   6.910   4.607
 5543SOL    HW222491   2.212   6.963   4.683
 5543SOL    HW322492   2.292   6.968   4.555
 5543SOL    MW422493   2.240   6.925   4.610
 5544SOL     OW22494   2.798   6.554   4.417
 5544SOL    HW222495   2.712   6.541   4.457
 5544SOL    HW322496   2.851   6.481   4.449
 5544SOL    MW422497   2.794   6.543   4.426
 5545SOL     OW22498   2.206   7.206   5.202
 5545SOL    HW222499   2.114   7.182   5.187
 5545SOL    HW322500   2.250   7.123   5.219
 5545SOL    MW422501   2.200   7.191   5.201
 5546SOL     OW22502   2.789   6.916   4.134
 5546SOL    HW222503   2.766   6.978   4.202
 5546SOL    HW322504   2.746   6.834   4.160
 5546SOL    MW422505   2.781   6.912   4.145
 5547SOL     OW22506   3.662   5.917   4.590
 5547SOL    HW222507   3.599   5.897   4.659
 5547SOL    HW322508   3.652   5.846   4.527
 5547SOL    MW422509   3.652   5.904   4.591
 5548SOL     OW22510   2.286   5.889   4.102
 5548SOL    HW222511   2.260   5.851   4.018
 5548SOL    HW322512   2.223   5.959   4.118
 5548SOL    MW422513   2.275   5.892   4.093
 5549SOL     OW22514   2.121   6.850   4.139
 5549SOL    HW222515   2.069   6.918   4.095
 5549SOL    HW322516   2.118   6.776   4.079
 5549SOL    MW422517   2.113   6.849   4.126
 5550SOL     OW22518   3.718   6.086   3.892
 5550SOL    HW222519   3.627   6.088   3.920
 5550SOL    HW322520   3.763   6.148   3.950
 5550SOL    MW422521   3.711   6.094   3.902
 5551SOL     OW22522   3.463   6.689   4.242
 5551SOL    HW222523   3.373   6.689   4.277
 5551SOL    HW322524   3.456   6.735   4.159
 5551SOL    MW422525   3.450   6.695   4.236
 5552SOL     OW22526   3.263   6.324   5.314
 5552SOL    HW222527   3.332   6.262   5.291
 5552SOL    HW322528   3.188   6.298   5.261
 5552SOL    MW422529   3.263   6.311   5.305
 5553SOL     OW22530   2.004   7.204   4.866
 5553SOL    HW222531   1.987   7.150   4.943
 5553SOL    HW322532   1.992   7.294   4.896
 5553SOL    MW422533   2.001   7.208   4.880
 5554SOL     OW22534   2.999   6.711   5.306
 5554SOL    HW222535   2.984   6.804   5.291
 5554SOL    HW322536   3.094   6.701   5.306
 5554SOL    MW422537   3.008   6.721   5.303
 5555SOL     OW22538   2.795   6.135   5.507
 5555SOL    HW222539   2.885   6.136   5.474
 5555SOL    HW322540   2.754   6.060   5.465
 5555SOL    MW422541   2.801   6.125   5.498
 5556SOL     OW22542   3.370   6.667   4.634
 5556SOL    HW222543   3.373   6.601   4.565
 5556SOL    HW322544   3.455   6.710   4.630
 5556SOL    MW422545   3.382   6.663   4.625
 5557SOL     OW22546   3.655   6.890   4.054
 5557SOL    HW222547   3.611   6.931   4.129
 5557SOL    HW322548   3.712   6.958   4.019
 5557SOL    MW422549   3.657   6.904   4.059
 5558SOL     OW22550   2.575   5.939   5.457
 5558SOL    HW222551   2.585   5.865   5.397
 5558SOL    HW322552   2.611   5.908   5.540
 5558SOL    MW422553   2.581   5.925   5.459
 5559SOL     OW22554   2.311   7.306   4.372
 5559SOL    HW222555   2.343   7.394   4.350
 5559SOL    HW322556   2.264   7.278   4.294
 5559SOL    MW422557   2.310   7.314   4.359
 5560SOL     OW22558   3.695   5.668   4.421
 5560SOL    HW222559   3.749   5.619   4.483
 5560SOL    HW322560   3.638   5.602   4.382
 5560SOL    MW422561   3.695   5.652   4.423
 5561SOL     OW22562   2.027   7.366   3.949
 5561SOL    HW222563   2.056   7.456   3.941
 5561SOL    HW322564   1.977   7.349   3.870
 5561SOL    MW422565   2.025   7.374   3.938
 5562SOL     OW22566   2.814   5.621   4.834
 5562SOL    HW222567   2.773   5.699   4.796
 5562SOL    HW322568   2.908   5.639   4.829
 5562SOL    MW422569   2.820   5.633   4.829
 5563SOL     OW22570   2.829   6.299   3.864
 5563SOL    HW222571   2.831   6.246   3.785
 5563SOL    HW322572   2.917   6.336   3.870
 5563SOL    MW422573   2.841   6.298   3.853
 5564SOL     OW22574   3.443   6.225   4.200
 5564SOL    HW222575   3.482   6.225   4.287
 5564SOL    HW322576   3.384   6.301   4.200
 5564SOL    MW422577   3.440   6.236   4.211
 5565SOL     OW22578   2.760   6.592   5.329
 5565SOL    HW222579   2.737   6.572   5.419
 5565SOL    HW322580   2.845   6.636   5.334
 5565SOL    MW422581   2.767   6.595   5.341
 5566SOL     OW22582   2.840   5.729   5.089
 5566SOL    HW222583   2.846   5.691   5.002
 5566SOL    HW322584   2.829   5.823   5.074
 5566SOL    MW422585   2.841   5.737   5.077
 5567SOL     OW22586   2.929   6.218   4.923
 5567SOL    HW222587   3.004   6.247   4.870
 5567SOL    HW322588   2.861   6.283   4.907
 5567SOL    MW422589   2.930   6.230   4.913
 5568SOL     OW22590   3.479   6.186   5.200
 5568SOL    HW222591   3.460   6.095   5.179
 5568SOL    HW322592   3.457   6.235   5.121
 5568SOL    MW422593   3.474   6.179   5.187
 5569SOL     OW22594   2.926   5.924   5.306
 5569SOL    HW222595   2.892   5.963   5.225
 5569SOL    HW322596   2.904   5.832   5.299
 5569SOL    MW422597   2.919   5.917   5.296
 5570SOL     OW22598   3.335   6.738   5.382
 5570SOL    HW222599   3.417   6.779   5.412
 5570SOL    HW322600   3.298   6.700   5.462
 5570SOL    MW422601   3.341   6.739   5.397
 5571SOL     OW22602   3.630   6.111   4.366
 5571SOL    HW222603   3.719   6.080   4.383
 5571SOL    HW322604   3.573   6.051   4.414
 5571SOL    MW422605   3.633   6.099   4.375
 5572SOL     OW22606   2.056   5.825   4.395
 5572SOL    HW222607   2.047   5.765   4.321
 5572SOL    HW322608   1.989   5.796   4.458
 5572SOL    MW422609   2.046   5.812   4.393
 5573SOL     OW22610   2.999   6.918   3.956
 5573SOL    HW222611   2.949   6.920   4.038
 5573SOL    HW322612   2.933   6.936   3.888
 5573SOL    MW422613   2.985   6.920   3.958
 5574SOL     OW22614   2.003   5.998   4.758
 5574SOL    HW222615   1.975   6.089   4.767
 5574SOL    HW322616   1.940   5.959   4.697
 5574SOL    MW422617   1.990   6.004   4.752
 5575SOL     OW22618   2.462   7.336   4.064
 5575SOL    HW222619   2.383   7.294   4.097
 5575SOL    HW322620   2.528   7.319   4.131
 5575SOL    MW422621   2.461   7.328   4.077
 5576SOL     OW22622   3.590   6.856   5.461
 5576SOL    HW222623   3.640   6.782   5.493
 5576SOL    HW322624   3.536   6.883   5.536
 5576SOL    MW422625   3.590   6.850   5.474
 5577SOL     OW22626   2.598   6.751   3.771
 5577SOL    HW222627   2.520   6.697   3.758
 5577SOL    HW322628   2.569   6.824   3.824
 5577SOL    MW422629   2.584   6.753   3.776
 5578SOL     OW22630   3.724   6.491   4.963
 5578SOL    HW222631   3.740   6.529   4.876
 5578SOL    HW322632   3.758   6.557   5.024
 5578SOL    MW422633   3.731   6.504   4.959
 5579SOL     OW22634   3.516   7.200   4.632
 5579SOL    HW222635   3.545   7.267   4.693
 5579SOL    HW322636   3.497   7.124   4.687
 5579SOL    MW422637   3.518   7.200   4.647
 5580SOL     OW22638   1.987   6.273   4.928
 5580SOL    HW222639   2.049   6.303   4.994
 5580SOL    HW322640   1.921   6.342   4.922
 5580SOL    MW422641   1.986   6.286   4.935
 5581SOL     OW22642   3.403   6.941   3.781
 5581SOL    HW222643   3.350   6.990   3.717
 5581SOL    HW322644   3.434   7.007   3.842
 5581SOL    MW422645   3.401   6.955   3.779
 5582SOL     OW22646   2.628   5.830   3.836
 5582SOL    HW222647   2.576   5.750   3.824
 5582SOL    HW322648   2.715   5.807   3.804
 5582SOL    MW422649   2.631   5.816   3.830
 5583SOL     OW22650   2.082   7.382   5.380
 5583SOL    HW222651   2.056   7.450   5.318
 5583SOL    HW322652   2.130   7.319   5.328
 5583SOL    MW422653   2.084   7.382   5.366
 5584SOL     OW22654   2.134   6.701   4.887
 5584SOL    HW222655   2.187   6.776   4.912
 5584SOL    HW322656   2.053   6.739   4.853
 5584SOL    MW422657   2.130   6.716   4.887
 5585SOL     OW22658   2.674   6.605   4.875
 5585SOL    HW222659   2.702   6.514   4.887
 5585SOL    HW322660   2.603   6.599   4.811
 5585SOL    MW422661   2.667   6.593   4.870
 5586SOL     OW22662   1.989   6.470   4.293
 5586SOL    HW222663   2.080   6.485   4.320
 5586SOL    HW322664   1.992   6.391   4.239
 5586SOL    MW422665   2.001   6.462   4.291
 5587SOL     OW22666   2.225   6.178   5.547
 5587SOL    HW222667   2.172   6.258   5.554
 5587SOL    HW322668   2.295   6.190   5.612
 5587SOL    MW422669   2.227   6.191   5.555
 5588SOL     OW22670   2.611   5.728   5.254
 5588SOL    HW222671   2.588   5.636   5.256
 5588SOL    HW322672   2.697   5.730   5.211
 5588SOL    MW422673   2.618   5.718   5.250
 5589SOL     OW22674   2.295   6.252   5.293
 5589SOL    HW222675   2.375   6.302   5.279
 5589SOL    HW322676   2.286   6.246   5.388
 5589SOL    MW422677   2.304   6.258   5.303
 5590SOL     OW22678   3.272   5.777   5.564
 5590SOL    HW222679   3.328   5.704   5.590
 5590SOL    HW322680   3.242   5.815   5.646
 5590SOL    MW422681   3.276   5.772   5.577
 5591SOL     OW22682   1.997   7.082   4.332
 5591SOL    HW222683   1.969   7.121   4.414
 5591SOL    HW322684   2.017   6.991   4.354
 5591SOL    MW422685   1.995   7.074   4.345
 5592SOL     OW22686   2.830   7.125   4.367
 5592SOL    HW222687   2.913   7.079   4.351
 5592SOL    HW322688   2.820   7.124   4.463
 5592SOL    MW422689   2.840   7.118   4.377
 5593SOL     OW22690   3.662   6.270   4.681
 5593SOL    HW222691   3.751   6.300   4.663
 5593SOL    HW322692   3.642   6.210   4.610
 5593SOL    MW422693   3.671   6.267   4.670
 5594SOL     OW22694   3.513   6.449   5.561
 5594SOL    HW222695   3.568   6.373   5.542
 5594SOL    HW322696   3.515   6.457   5.656
 5594SOL    MW422697   3.521   6.440   5.569
 5595SOL     OW22698   2.563   7.182   3.772
 5595SOL    HW222699   2.503   7.251   3.742
 5595SOL    HW322700   2.508   7.124   3.825
 5595SOL    MW422701   2.547   7.184   3.774
 5596SOL     OW22702   2.808   6.011   5.080
 5596SOL    HW222703   2.727   6.052   5.108
 5596SOL    HW322704   2.855   6.079   5.032
 5596SOL    MW422705   2.803   6.026   5.078
 5597SOL     OW22706   3.068   6.349   4.703
 5597SOL    HW222707   3.081   6.443   4.713
 5597SOL    HW322708   3.029   6.339   4.617
 5597SOL    MW422709   3.064   6.360   4.693
 5598SOL     OW22710   2.520   6.544   4.507
 5598SOL    HW222711   2.431   6.535   4.540
 5598SOL    HW322712   2.524   6.634   4.475
 5598SOL    MW422713   2.509   6.555   4.507
 5599SOL     OW22714   3.319   6.127   4.502
 5599SOL    HW222715   3.264   6.048   4.501
 5599SOL    HW322716   3.301   6.168   4.586
 5599SOL    MW422717   3.309   6.122   4.511
 5600SOL     OW22718   2.290   5.814   5.319
 5600SOL    HW222719   2.211   5.832   5.371
 5600SOL    HW322720   2.285   5.876   5.246
 5600SOL    MW422721   2.280   5.824   5.316
 5601SOL     OW22722   2.194   7.226   4.161
 5601SOL    HW222723   2.155   7.273   4.087
 5601SOL    HW322724   2.128   7.161   4.186
 5601SOL    MW422725   2.181   7.224   4.155
 5602SOL     OW22726   2.686   6.635   4.185
 5602SOL    HW222727   2.688   6.609   4.092
 5602SOL    HW322728   2.744   6.572   4.228
 5602SOL    MW422729   2.694   6.624   4.179
 5603SOL     OW22730   3.196   5.879   4.518
 5603SOL    HW222731   3.224   5.811   4.579
 5603SOL    HW322732   3.110   5.850   4.488
 5603SOL    MW422733   3.189   5.866   4.522
 5604SOL     OW22734   2.001   6.813   4.452
 5604SOL    HW222735   2.065   6.845   4.515
 5604SOL    HW322736   2.050   6.749   4.400
 5604SOL    MW422737   2.016   6.809   4.453
 5605SOL     OW22738   2.501   6.889   5.434
 5605SOL    HW222739   2.549   6.972   5.421
 5605SOL    HW322740   2.558   6.837   5.490
 5605SOL    MW422741   2.515   6.893   5.440
 5606SOL     OW22742   2.077   7.131   5.574
 5606SOL    HW222743   2.133   7.055   5.589
 5606SOL    HW322744   2.026   7.109   5.496
 5606SOL    MW422745   2.077   7.118   5.565
 5607SOL     OW22746   3.176   5.983   3.853
 5607SOL    HW222747   3.149   6.049   3.789
 5607SOL    HW322748   3.246   6.026   3.903
 5607SOL    MW422749   3.181   5.996   3.850
 5608SOL     OW22750   3.349   6.539   3.995
 5608SOL    HW222751   3.316   6.628   3.985
 5608SOL    HW322752   3.314   6.510   4.080
 5608SOL    MW422753   3.339   6.548   4.006
 5609SOL     OW22754   2.962   6.968   5.183
 5609SOL    HW222755   2.873   6.974   5.151
 5609SOL    HW322756   3.006   7.047   5.151
 5609SOL    MW422757   2.957   6.978   5.175
 5610SOL     OW22758   2.255   5.636   5.525
 5610SOL    HW222759   2.183   5.601   5.473
 5610SOL    HW322760   2.313   5.677   5.460
 5610SOL    MW422761   2.253   5.637   5.510
 5611SOL     OW22762   2.279   7.126   4.824
 5611SOL    HW222763   2.324   7.188   4.881
 5611SOL    HW322764   2.186   7.145   4.837
 5611SOL    MW422765   2.272   7.136   4.831
 5612SOL     OW22766   3.719   6.655   5.178
 5612SOL    HW222767   3.634   6.668   5.137
 5612SOL    HW322768   3.699   6.619   5.265
 5612SOL    MW422769   3.706   6.651   5.183
 5613SOL     OW22770   2.343   6.577   3.787
 5613SOL    HW222771   2.266   6.590   3.843
 5613SOL    HW322772   2.307   6.541   3.706
 5613SOL    MW422773   2.329   6.573   3.784
 5614SOL     OW22774   2.496   6.899   4.722
 5614SOL    HW222775   2.489   6.878   4.816
 5614SOL    HW322776   2.414   6.867   4.685
 5614SOL    MW422777   2.484   6.893   4.729
 5615SOL     OW22778   3.360   5.909   5.124
 5615SOL    HW222779   3.307   5.911   5.204
 5615SOL    HW322780   3.345   5.822   5.087
 5615SOL    MW422781   3.352   5.899   5.129
 5616SOL     OW22782   3.696   5.833   4.997
 5616SOL    HW222783   3.677   5.900   4.932
 5616SOL    HW322784   3.753   5.771   4.952
 5616SOL    MW422785   3.700   5.834   4.983
 5617SOL     OW22786   1.942   6.991   5.385
 5617SOL    HW222787   1.986   6.924   5.331
 5617SOL    HW322788   1.857   6.953   5.405
 5617SOL    MW422789   1.937   6.977   5.381
 5618SOL     OW22790   2.383   6.906   4.186
 5618SOL    HW222791   2.376   6.938   4.276
 5618SOL    HW322792   2.293   6.890   4.158
 5618SOL    MW422793   2.371   6.908   4.193
 5619SOL     OW22794   2.585   6.323   5.567
 5619SOL    HW222795   2.655   6.265   5.539
 5619SOL    HW322796   2.528   6.268   5.622
 5619SOL    MW422797   2.587   6.310   5.571
 5620SOL     OW22798   3.372   6.535   5.200
 5620SOL    HW222799   3.377   6.588   5.280
 5620SOL    HW322800   3.334   6.452   5.228
 5620SOL    MW422801   3.368   6.530   5.215
 5621SOL     OW22802   3.012   5.670   5.446
 5621SOL    HW222803   3.007   5.577   5.427
 5621SOL    HW322804   3.095   5.681   5.492
 5621SOL    MW422805   3.020   5.659   5.450
 5622SOL     OW22806   2.386   6.190   3.900
 5622SOL    HW222807   2.352   6.246   3.970
 5622SOL    HW322808   2.457   6.140   3.940
 5622SOL    MW422809   2.392   6.191   3.914
 5623SOL     OW22810   3.482   6.941   4.722
 5623SOL    HW222811   3.517   6.923   4.635
 5623SOL    HW322812   3.387   6.942   4.709
 5623SOL    MW422813   3.474   6.938   4.709
 5624SOL     OW22814   2.911   6.589   5.091
 5624SOL    HW222815   2.954   6.624   5.169
 5624SOL    HW322816   2.894   6.666   5.037
 5624SOL    MW422817   2.914   6.604   5.094
 5625SOL     OW22818   3.442   6.076   3.964
 5625SOL    HW222819   3.434   6.147   3.901
 5625SOL    HW322820   3.460   6.120   4.047
 5625SOL    MW422821   3.443   6.090   3.966
 5626SOL     OW22822   2.061   6.793   5.253
 5626SOL    HW222823   2.089   6.746   5.331
 5626SOL    HW322824   1.982   6.748   5.224
 5626SOL    MW422825   2.054   6.782   5.259
 5627SOL     OW22826   2.569   6.120   5.220
 5627SOL    HW222827   2.541   6.208   5.244
 5627SOL    HW322828   2.538   6.064   5.291
 5627SOL    MW422829   2.561   6.123   5.232
 5628SOL     OW22830   2.224   6.516   4.433
 5628SOL    HW222831   2.282   6.572   4.381
 5628SOL    HW322832   2.268   6.431   4.435
 5628SOL    MW422833   2.237   6.513   4.426
 5629SOL     OW22834   3.364   5.868   4.270
 5629SOL    HW222835   3.286   5.818   4.295
 5629SOL    HW322836   3.335   5.959   4.270
 5629SOL    MW422837   3.350   5.872   4.273
 5630SOL     OW22838   3.710   6.603   5.448
 5630SOL    HW222839   3.623   6.583   5.484
 5630SOL    HW322840   3.764   6.529   5.473
 5630SOL    MW422841   3.705   6.592   5.456
 5631SOL     OW22842   1.931   7.116   4.605
 5631SOL    HW222843   1.963   7.120   4.696
 5631SOL    HW322844   1.836   7.124   4.613
 5631SOL    MW422845   1.923   7.119   4.618
 5632SOL     OW22846   1.886   6.242   4.152
 5632SOL    HW222847   1.826   6.214   4.222
 5632SOL    HW322848   1.960   6.182   4.158
 5632SOL    MW422849   1.888   6.231   4.161
 5633SOL     OW22850   3.054   6.973   4.312
 5633SOL    HW222851   3.077   6.924   4.390
 5633SOL    HW322852   3.135   7.015   4.284
 5633SOL    MW422853   3.067   6.973   4.319
 5634SOL     OW22854   2.312   5.981   5.041
 5634SOL    HW222855   2.345   6.062   5.081
 5634SOL    HW322856   2.285   6.007   4.953
 5634SOL    MW422857   2.311   5.995   5.035
 5635SOL     OW22858   2.266   5.948   4.777
 5635SOL    HW222859   2.296   5.862   4.748
 5635SOL    HW322860   2.171   5.941   4.780
 5635SOL    MW422861   2.258   5.937   4.775
 5636SOL     OW22862   3.095   6.157   5.468
 5636SOL    HW222863   3.147   6.092   5.421
 5636SOL    HW322864   3.053   6.208   5.398
 5636SOL    MW422865   3.096   6.154   5.451
 5637SOL     OW22866   3.194   5.952   5.329
 5637SOL    HW222867   3.101   5.936   5.316
 5637SOL    HW322868   3.220   5.890   5.397
 5637SOL    MW422869   3.184   5.942   5.336
 5638SOL     OW22870   2.503   7.341   5.214
 5638SOL    HW222871   2.420   7.326   5.259
 5638SOL    HW322872   2.562   7.274   5.249
 5638SOL    MW422873   2.501   7.331   5.224
 5639SOL     OW22874   3.560   6.048   4.839
 5639SOL    HW222875   3.493   6.081   4.899
 5639SOL    HW322876   3.603   6.126   4.805
 5639SOL    MW422877   3.558   6.063   4.843
 5640SOL     OW22878   3.738   6.768   4.809
 5640SOL    HW222879   3.731   6.708   4.734
 5640SOL    HW322880   3.664   6.828   4.798
 5640SOL    MW422881   3.728   6.768   4.798
 5641SOL     OW22882   3.120   6.630   4.727
 5641SOL    HW222883   3.134   6.602   4.818
 5641SOL    HW322884   3.206   6.661   4.699
 5641SOL    MW422885   3.133   6.631   4.736
 5642SOL     OW22886   3.203   6.125   5.006
 5642SOL    HW222887   3.224   6.126   4.913
 5642SOL    HW322888   3.248   6.047   5.039
 5642SOL    MW422889   3.210   6.115   4.998
 5643SOL     OW22890   3.696   6.256   5.548
 5643SOL    HW222891   3.733   6.201   5.617
 5643SOL    HW322892   3.721   6.213   5.466
 5643SOL    MW422893   3.703   6.244   5.547
 5644SOL     OW22894   3.243   6.554   5.600
 5644SOL    HW222895   3.309   6.502   5.554
 5644SOL    HW322896   3.263   6.541   5.693
 5644SOL    MW422897   3.254   6.545   5.607
 5645SOL     OW22898   2.330   6.878   4.957
 5645SOL    HW222899   2.342   6.905   5.048
 5645SOL    HW322900   2.311   6.959   4.910
 5645SOL    MW422901   2.329   6.893   4.962
 5646SOL     OW22902   2.468   7.350   4.942
 5646SOL    HW222903   2.520   7.427   4.919
 5646SOL    HW322904   2.477   7.342   5.037
 5646SOL    MW422905   2.477   7.357   4.953
 5647SOL     OW22906   3.370   6.935   5.174
 5647SOL    HW222907   3.355   6.864   5.237
 5647SOL    HW322908   3.416   6.893   5.102
 5647SOL    MW422909   3.376   6.919   5.174
 5648SOL     OW22910   2.444   6.666   5.291
 5648SOL    HW222911   2.481   6.671   5.203
 5648SOL    HW322912   2.483   6.739   5.338
 5648SOL    MW422913   2.454   6.676   5.286
 5649SOL     OW22914   2.624   6.709   5.103
 5649SOL    HW222915   2.683   6.655   5.156
 5649SOL    HW322916   2.639   6.681   5.013
 5649SOL    MW422917   2.634   6.698   5.099
 5650SOL     OW22918   2.627   6.081   3.952
 5650SOL    HW222919   2.700   6.130   3.915
 5650SOL    HW322920   2.643   5.990   3.926
 5650SOL    MW422921   2.639   6.076   3.945
 5651SOL     OW22922   3.095   5.677   4.866
 5651SOL    HW222923   3.150   5.686   4.788
 5651SOL    HW322924   3.150   5.711   4.937
 5651SOL    MW422925   3.109   5.682   4.865
 5652SOL     OW22926   2.102   6.590   4.050
 5652SOL    HW222927   2.039   6.606   3.979
 5652SOL    HW322928   2.049   6.553   4.121
 5652SOL    MW422929   2.087   6.587   4.050
 5653SOL     OW22930   2.458   6.944   3.909
 5653SOL    HW222931   2.473   6.920   4.001
 5653SOL    HW322932   2.366   6.922   3.893
 5653SOL    MW422933   2.448   6.937   3.919
 5654SOL     OW22934   2.256   7.333   4.630
 5654SOL    HW222935   2.260   7.244   4.665
 5654SOL    HW322936   2.282   7.324   4.539
 5654SOL    MW422937   2.259   7.321   4.622
 5655SOL     OW22938   2.873   6.811   4.873
 5655SOL    HW222939   2.805   6.745   4.889
 5655SOL    HW322940   2.891   6.805   4.780
 5655SOL    MW422941   2.866   6.802   4.864
 5656SOL     OW22942   1.962   7.086   5.124
 5656SOL    HW222943   1.952   7.044   5.210
 5656SOL    HW322944   1.883   7.139   5.114
 5656SOL    MW422945   1.951   7.087   5.135
 5657SOL     OW22946   2.866   5.950   4.694
 5657SOL    HW222947   2.796   5.902   4.739
 5657SOL    HW322948   2.898   6.013   4.758
 5657SOL    MW422949   2.861   5.952   4.708
 5658SOL     OW22950   2.517   6.386   5.314
 5658SOL    HW222951   2.510   6.481   5.302
 5658SOL    HW322952   2.526   6.375   5.409
 5658SOL    MW422953   2.518   6.398   5.324
 5659SOL     OW22954   2.238   6.901   5.572
 5659SOL    HW222955   2.310   6.903   5.509
 5659SOL    HW322956   2.208   6.810   5.571
 5659SOL    MW422957   2.243   6.890   5.564
 5660SOL     OW22958   3.322   5.664   5.039
 5660SOL    HW222959   3.393   5.610   5.003
 5660SOL    HW322960   3.321   5.643   5.132
 5660SOL    MW422961   3.331   5.655   5.047
 5661SOL     OW22962   1.888   7.391   5.579
 5661SOL    HW222963   1.938   7.369   5.501
 5661SOL    HW322964   1.896   7.486   5.587
 5661SOL    MW422965   1.896   7.400   5.570
 5662SOL     OW22966   2.649   7.149   4.583
 5662SOL    HW222967   2.577   7.086   4.596
 5662SOL    HW322968   2.610   7.234   4.601
 5662SOL    MW422969   2.633   7.152   4.586
 5663SOL     OW22970   2.054   5.687   4.163
 5663SOL    HW222971   2.125   5.708   4.102
 5663SOL    HW322972   2.008   5.615   4.121
 5663SOL    MW422973   2.058   5.681   4.149
 5664SOL     OW22974   1.885   6.154   5.306
 5664SOL    HW222975   1.949   6.220   5.281
 5664SOL    HW322976   1.804   6.181   5.263
 5664SOL    MW422977   1.883   6.166   5.298
 5665SOL     OW22978   3.623   7.061   4.263
 5665SOL    HW222979   3.593   6.994   4.324
 5665SOL    HW322980   3.717   7.067   4.277
 5665SOL    MW422981   3.631   7.053   4.273
 5666SOL     OW22982   3.694   6.540   4.668
 5666SOL    HW222983   3.685   6.572   4.579
 5666SOL    HW322984   3.647   6.456   4.668
 5666SOL    MW422985   3.687   6.533   4.658
 5667SOL     OW22986   2.070   6.380   5.247
 5667SOL    HW222987   2.091   6.449   5.185
 5667SOL    HW322988   2.150   6.327   5.252
 5667SOL    MW422989   2.083   6.381   5.241
 5668SOL     OW22990   3.606   6.471   4.369
 5668SOL    HW222991   3.700   6.460   4.357
 5668SOL    HW322992   3.582   6.543   4.310
 5668SOL    MW422993   3.616   6.479   4.360
 5669SOL     OW22994   2.055   6.395   5.514
 5669SOL    HW222995   1.981   6.339   5.540
 5669SOL    HW322996   2.050   6.398   5.419
 5669SOL    MW422997   2.044   6.388   5.504
 5670SOL     OW22998   2.262   6.349   4.142
 5670SOL    HW222999   2.262   6.444   4.127
 5670SOL    HW323000   2.339   6.333   4.196
 5670SOL    MW423001   2.272   6.360   4.147
 5671SOL     OW23002   3.038   6.208   5.206
 5671SOL    HW223003   3.074   6.181   5.122
 5671SOL    HW323004   2.951   6.242   5.185
 5671SOL    MW423005   3.032   6.209   5.193
 5672SOL     OW23006   2.021   6.080   4.431
 5672SOL    HW223007   2.083   6.087   4.504
 5672SOL    HW323008   2.021   5.987   4.408
 5672SOL    MW423009   2.029   6.069   4.438
 5673SOL     OW23010   2.703   6.341   4.915
 5673SOL    HW223011   2.661   6.259   4.891
 5673SOL    HW323012   2.704   6.340   5.011
 5673SOL    MW423013   2.696   6.330   4.924
 5674SOL     OW23014   1.890   6.652   3.889
 5674SOL    HW223015   1.859   6.717   3.952
 5674SOL    HW323016   1.839   6.574   3.908
 5674SOL    MW423017   1.880   6.649   3.899
 5675SOL     OW23018   3.334   6.403   4.481
 5675SOL    HW223019   3.414   6.418   4.430
 5675SOL    HW323020   3.327   6.308   4.487
 5675SOL    MW423021   3.343   6.392   4.476
 5676SOL     OW23022   2.784   6.329   5.178
 5676SOL    HW223023   2.853   6.396   5.175
 5676SOL    HW323024   2.717   6.367   5.234
 5676SOL    MW423025   2.785   6.342   5.185
 5677SOL     OW23026   2.202   6.629   5.426
 5677SOL    HW223027   2.156   6.545   5.428
 5677SOL    HW323028   2.259   6.623   5.350
 5677SOL    MW423029   2.204   6.617   5.418
 5678SOL     OW23030   3.319   6.272   3.747
 5678SOL    HW223031   3.247   6.248   3.689
 5678SOL    HW323032   3.385   6.309   3.689
 5678SOL    MW423033   3.318   6.274   3.732
 5679SOL     OW23034   2.453   7.004   4.427
 5679SOL    HW223035   2.518   6.937   4.448
 5679SOL    HW323036   2.505   7.081   4.404
 5679SOL    MW423037   2.468   7.006   4.426
 5680SOL     OW23038   2.714   6.169   4.557
 5680SOL    HW223039   2.654   6.187   4.629
 5680SOL    HW323040   2.748   6.081   4.576
 5680SOL    MW423041   2.710   6.159   4.570
 5681SOL     OW23042   3.655   5.668   5.226
 5681SOL    HW223043   3.576   5.714   5.254
 5681SOL    HW323044   3.690   5.722   5.155
 5681SOL    MW423045   3.649   5.681   5.220
 5682SOL     OW23046   2.939   6.752   4.576
 5682SOL    HW223047   3.031   6.733   4.594
 5682SOL    HW323048   2.912   6.682   4.516
 5682SOL    MW423049   2.947   6.740   4.570
 5683SOL     OW23050   2.732   6.572   3.931
 5683SOL    HW223051   2.718   6.484   3.896
 5683SOL    HW323052   2.683   6.629   3.872
 5683SOL    MW423053   2.724   6.567   3.919
 5684SOL     OW23054   3.213   6.990   4.672
 5684SOL    HW223055   3.186   7.074   4.637
 5684SOL    HW323056   3.173   6.985   4.759
 5684SOL    MW423057   3.206   6.999   4.678
 5685SOL     OW23058   3.132   6.938   4.940
 5685SOL    HW223059   3.143   6.905   5.029
 5685SOL    HW323060   3.051   6.897   4.909
 5685SOL    MW423061   3.122   6.930   4.946
 5686SOL     OW23062   2.145   6.296   4.710
 5686SOL    HW223063   2.095   6.295   4.791
 5686SOL    HW323064   2.165   6.388   4.694
 5686SOL    MW423065   2.141   6.308   4.718
 5687SOL     OW23066   3.212   7.060   5.472
 5687SOL    HW223067   3.212   7.154   5.488
 5687SOL    HW323068   3.257   7.050   5.388
 5687SOL    MW423069   3.218   7.070   5.463
 5688SOL     OW23070   2.067   5.964   5.451
 5688SOL    HW223071   2.024   6.023   5.388
 5688SOL    HW323072   2.135   6.019   5.491
 5688SOL    MW423073   2.071   5.979   5.448
 5689SOL     OW23074   3.179   6.584   4.996
 5689SOL    HW223075   3.242   6.581   5.069
 5689SOL    HW323076   3.095   6.602   5.038
 5689SOL    MW423077   3.175   6.586   5.011
 5690SOL     OW23078   3.518   5.761   4.775
 5690SOL    HW223079   3.563   5.679   4.794
 5690SOL    HW323080   3.538   5.817   4.851
 5690SOL    MW423081   3.528   5.757   4.787
 5691SOL     OW23082   1.966   5.604   4.874
 5691SOL    HW223083   1.957   5.605   4.779
 5691SOL    HW323084   2.060   5.616   4.889
 5691SOL    MW423085   1.978   5.607   4.865
 5692SOL     OW23086   3.603   6.797   4.494
 5692SOL    HW223087   3.582   6.743   4.417
 5692SOL    HW323088   3.699   6.795   4.498
 5692SOL    MW423089   3.612   6.790   4.483
 5693SOL     OW23090   2.295   6.942   5.237
 5693SOL    HW223091   2.216   6.892   5.260
 5693SOL    HW323092   2.365   6.901   5.287
 5693SOL    MW423093   2.293   6.930   5.247
 5694SOL     OW23094   2.179   5.731   3.920
 5694SOL    HW223095   2.108   5.786   3.888
 5694SOL    HW323096   2.221   5.697   3.841
 5694SOL    MW423097   2.175   5.733   3.906
 5695SOL     OW23098   3.303   6.228   4.756
 5695SOL    HW223099   3.226   6.274   4.722
 5695SOL    HW323100   3.360   6.297   4.790
 5695SOL    MW423101   3.300   6.243   4.756
 5696SOL     OW23102   1.935   5.830   3.769
 5696SOL    HW223103   1.902   5.909   3.813
 5696SOL    HW323104   1.990   5.863   3.698
 5696SOL    MW423105   1.938   5.844   3.766
 5697SOL     OW23106   1.969   7.087   3.958
 5697SOL    HW223107   1.986   7.171   4.000
 5697SOL    HW323108   2.004   7.096   3.870
 5697SOL    MW423109   1.974   7.100   3.952
 5698SOL     OW23110   3.241   7.176   4.175
 5698SOL    HW223111   3.304   7.166   4.104
 5698SOL    HW323112   3.158   7.196   4.130
 5698SOL    MW423113   3.238   7.177   4.160
 5699SOL     OW23114   3.604   6.444   5.862
 5699SOL    HW223115   3.645   6.386   5.927
 5699SOL    HW323116   3.511   6.436   5.879
 5699SOL    MW423117   3.598   6.436   5.872
 5700SOL     OW23118   2.398   6.627   6.091
 5700SOL    HW223119   2.488   6.602   6.075
 5700SOL    HW323120   2.394   6.720   6.068
 5700SOL    MW423121   2.410   6.636   6.086
 5701SOL     OW23122   2.682   6.083   6.104
 5701SOL    HW223123   2.657   6.171   6.132
 5701SOL    HW323124   2.679   6.086   6.008
 5701SOL    MW423125   2.678   6.095   6.096
 5702SOL     OW23126   2.124   6.111   6.032
 5702SOL    HW223127   2.156   6.199   6.014
 5702SOL    HW323128   2.112   6.109   6.127
 5702SOL    MW423129   2.127   6.123   6.044
 5703SOL     OW23130   2.523   5.866   6.119
 5703SOL    HW223131   2.581   5.942   6.121
 5703SOL    HW323132   2.458   5.887   6.052
 5703SOL    MW423133   2.522   5.878   6.110
 5704SOL     OW23134   2.610   6.793   6.294
 5704SOL    HW223135   2.690   6.796   6.346
 5704SOL    HW323136   2.638   6.760   6.208
 5704SOL    MW423137   2.624   6.789   6.289
 5705SOL     OW23138   2.387   6.297   6.285
 5705SOL    HW223139   2.372   6.217   6.336
 5705SOL    HW323140   2.469   6.332   6.319
 5705SOL    MW423141   2.395   6.289   6.297
 5706SOL     OW23142   1.972   7.383   6.441
 5706SOL    HW223143   2.061   7.375   6.476
 5706SOL    HW323144   1.936   7.295   6.446
 5706SOL    MW423145   1.979   7.370   6.446
 5707SOL     OW23146   3.237   6.775   5.810
 5707SOL    HW223147   3.155   6.811   5.776
 5707SOL    HW323148   3.305   6.818   5.759
 5707SOL    MW423149   3.235   6.785   5.798
 5708SOL     OW23150   2.236   6.910   6.476
 5708SOL    HW223151   2.212   6.963   6.552
 5708SOL    HW323152   2.292   6.968   6.424
 5708SOL    MW423153   2.240   6.925   6.479
 5709SOL     OW23154   2.798   6.554   6.286
 5709SOL    HW223155   2.712   6.541   6.326
 5709SOL    HW323156   2.851   6.481   6.318
 5709SOL    MW423157   2.794   6.543   6.295
 5710SOL     OW23158   2.789   6.916   6.003
 5710SOL    HW223159   2.766   6.978   6.071
 5710SOL    HW323160   2.746   6.834   6.029
 5710SOL    MW423161   2.781   6.912   6.014
 5711SOL     OW23162   3.662   5.917   6.459
 5711SOL    HW223163   3.599   5.897   6.528
 5711SOL    HW323164   3.652   5.846   6.396
 5711SOL    MW423165   3.652   5.904   6.460
 5712SOL     OW23166   2.286   5.889   5.971
 5712SOL    HW223167   2.260   5.851   5.887
 5712SOL    HW323168   2.223   5.959   5.987
 5712SOL    MW423169   2.275   5.892   5.962
 5713SOL     OW23170   2.121   6.850   6.008
 5713SOL    HW223171   2.069   6.918   5.964
 5713SOL    HW323172   2.118   6.776   5.948
 5713SOL    MW423173   2.113   6.849   5.995
 5714SOL     OW23174   3.718   6.086   5.761
 5714SOL    HW223175   3.627   6.088   5.789
 5714SOL    HW323176   3.763   6.148   5.819
 5714SOL    MW423177   3.711   6.094   5.771
 5715SOL     OW23178   3.463   6.689   6.111
 5715SOL    HW223179   3.373   6.689   6.146
 5715SOL    HW323180   3.456   6.735   6.028
 5715SOL    MW423181   3.450   6.695   6.105
 5716SOL     OW23182   3.370   6.667   6.503
 5716SOL    HW223183   3.373   6.601   6.434
 5716SOL    HW323184   3.455   6.710   6.499
 5716SOL    MW423185   3.382   6.663   6.494
 5717SOL     OW23186   2.990   6.270   6.072
 5717SOL    HW223187   3.016   6.294   5.983
 5717SOL    HW323188   2.972   6.177   6.068
 5717SOL    MW423189   2.992   6.262   6.059
 5718SOL     OW23190   3.655   6.890   5.923
 5718SOL    HW223191   3.611   6.931   5.998
 5718SOL    HW323192   3.712   6.958   5.888
 5718SOL    MW423193   3.657   6.904   5.928
 5719SOL     OW23194   2.311   7.306   6.241
 5719SOL    HW223195   2.343   7.394   6.219
 5719SOL    HW323196   2.264   7.278   6.163
 5719SOL    MW423197   2.310   7.314   6.228
 5720SOL     OW23198   3.695   5.668   6.290
 5720SOL    HW223199   3.749   5.619   6.352
 5720SOL    HW323200   3.638   5.602   6.251
 5720SOL    MW423201   3.695   5.652   6.292
 5721SOL     OW23202   2.027   7.366   5.818
 5721SOL    HW223203   2.056   7.456   5.810
 5721SOL    HW323204   1.977   7.349   5.739
 5721SOL    MW423205   2.025   7.374   5.807
 5722SOL     OW23206   2.829   6.299   5.733
 5722SOL    HW223207   2.831   6.246   5.654
 5722SOL    HW323208   2.917   6.336   5.739
 5722SOL    MW423209   2.841   6.298   5.722
 5723SOL     OW23210   3.443   6.225   6.069
 5723SOL    HW223211   3.482   6.225   6.156
 5723SOL    HW323212   3.384   6.301   6.069
 5723SOL    MW423213   3.440   6.236   6.080
 5724SOL     OW23214   3.630   6.111   6.235
 5724SOL    HW223215   3.719   6.080   6.252
 5724SOL    HW323216   3.573   6.051   6.283
 5724SOL    MW423217   3.633   6.099   6.244
 5725SOL     OW23218   2.056   5.825   6.264
 5725SOL    HW223219   2.047   5.765   6.190
 5725SOL    HW323220   1.989   5.796   6.327
 5725SOL    MW423221   2.046   5.812   6.262
 5726SOL     OW23222   2.999   6.918   5.825
 5726SOL    HW223223   2.949   6.920   5.907
 5726SOL    HW323224   2.933   6.936   5.757
 5726SOL    MW423225   2.985   6.920   5.827
 5727SOL     OW23226   2.462   7.336   5.933
 5727SOL    HW223227   2.383   7.294   5.966
 5727SOL    HW323228   2.528   7.319   6.000
 5727SOL    MW423229   2.461   7.328   5.946
 5728SOL     OW23230   2.598   6.751   5.640
 5728SOL    HW223231   2.520   6.697   5.627
 5728SOL    HW323232   2.569   6.824   5.693
 5728SOL    MW423233   2.584   6.753   5.645
 5729SOL     OW23234   3.403   6.941   5.650
 5729SOL    HW223235   3.350   6.990   5.586
 5729SOL    HW323236   3.434   7.007   5.711
 5729SOL    MW423237   3.401   6.955   5.648
 5730SOL     OW23238   2.628   5.830   5.705
 5730SOL    HW223239   2.576   5.750   5.693
 5730SOL    HW323240   2.715   5.807   5.673
 5730SOL    MW423241   2.631   5.816   5.699
 5731SOL     OW23242   1.989   6.470   6.162
 5731SOL    HW223243   2.080   6.485   6.189
 5731SOL    HW323244   1.992   6.391   6.108
 5731SOL    MW423245   2.001   6.462   6.160
 5732SOL     OW23246   1.997   7.082   6.201
 5732SOL    HW223247   1.969   7.121   6.283
 5732SOL    HW323248   2.017   6.991   6.223
 5732SOL    MW423249   1.995   7.074   6.214
 5733SOL     OW23250   2.830   7.125   6.236
 5733SOL    HW223251   2.913   7.079   6.220
 5733SOL    HW323252   2.820   7.124   6.332
 5733SOL    MW423253   2.840   7.118   6.246
 5734SOL     OW23254   2.563   7.182   5.641
 5734SOL    HW223255   2.503   7.251   5.611
 5734SOL    HW323256   2.508   7.124   5.694
 5734SOL    MW423257   2.547   7.184   5.643
 5735SOL     OW23258   3.001   5.827   5.864
 5735SOL    HW223259   2.934   5.803   5.801
 5735SOL    HW323260   3.066   5.876   5.813
 5735SOL    MW423261   3.001   5.829   5.849
 5736SOL     OW23262   2.520   6.544   6.376
 5736SOL    HW223263   2.431   6.535   6.409
 5736SOL    HW323264   2.524   6.634   6.344
 5736SOL    MW423265   2.509   6.555   6.376
 5737SOL     OW23266   3.319   6.127   6.371
 5737SOL    HW223267   3.264   6.048   6.370
 5737SOL    HW323268   3.301   6.168   6.455
 5737SOL    MW423269   3.309   6.122   6.380
 5738SOL     OW23270   2.938   6.331   6.328
 5738SOL    HW223271   2.875   6.263   6.352
 5738SOL    HW323272   2.958   6.312   6.236
 5738SOL    MW423273   2.932   6.318   6.320
 5739SOL     OW23274   2.194   7.226   6.030
 5739SOL    HW223275   2.155   7.273   5.956
 5739SOL    HW323276   2.128   7.161   6.055
 5739SOL    MW423277   2.181   7.224   6.024
 5740SOL     OW23278   2.686   6.635   6.054
 5740SOL    HW223279   2.688   6.609   5.961
 5740SOL    HW323280   2.744   6.572   6.097
 5740SOL    MW423281   2.694   6.624   6.048
 5741SOL     OW23282   3.196   5.879   6.387
 5741SOL    HW223283   3.224   5.811   6.448
 5741SOL    HW323284   3.110   5.850   6.357
 5741SOL    MW423285   3.189   5.866   6.391
 5742SOL     OW23286   2.001   6.813   6.321
 5742SOL    HW223287   2.065   6.845   6.384
 5742SOL    HW323288   2.050   6.749   6.269
 5742SOL    MW423289   2.016   6.809   6.322
 5743SOL     OW23290   3.176   5.983   5.722
 5743SOL    HW223291   3.149   6.049   5.658
 5743SOL    HW323292   3.246   6.026   5.772
 5743SOL    MW423293   3.181   5.996   5.719
 5744SOL     OW23294   2.844   5.688   5.659
 5744SOL    HW223295   2.900   5.680   5.581
 5744SOL    HW323296   2.821   5.598   5.681
 5744SOL    MW423297   2.849   5.675   5.652
 5745SOL     OW23298   3.349   6.539   5.864
 5745SOL    HW223299   3.316   6.628   5.854
 5745SOL    HW323300   3.314   6.510   5.949
 5745SOL    MW423301   3.339   6.548   5.875
 5746SOL     OW23302   2.343   6.577   5.656
 5746SOL    HW223303   2.266   6.590   5.712
 5746SOL    HW323304   2.307   6.541   5.575
 5746SOL    MW423305   2.329   6.573   5.653
 5747SOL     OW23306   2.996   6.550   5.899
 5747SOL    HW223307   2.906   6.571   5.874
 5747SOL    HW323308   3.023   6.623   5.955
 5747SOL    MW423309   2.988   6.562   5.902
 5748SOL     OW23310   2.625   5.666   6.306
 5748SOL    HW223311   2.554   5.727   6.288
 5748SOL    HW323312   2.676   5.663   6.225
 5748SOL    MW423313   2.621   5.672   6.293
 5749SOL     OW23314   2.383   6.906   6.055
 5749SOL    HW223315   2.376   6.938   6.145
 5749SOL    HW323316   2.293   6.890   6.027
 5749SOL    MW423317   2.371   6.908   6.062
 5750SOL     OW23318   2.386   6.190   5.769
 5750SOL    HW223319   2.352   6.246   5.839
 5750SOL    HW323320   2.457   6.140   5.809
 5750SOL    MW423321   2.392   6.191   5.783
 5751SOL     OW23322   3.442   6.076   5.833
 5751SOL    HW223323   3.434   6.147   5.770
 5751SOL    HW323324   3.460   6.120   5.916
 5751SOL    MW423325   3.443   6.090   5.835
 5752SOL     OW23326   2.302   5.731   6.262
 5752SOL    HW223327   2.352   5.774   6.193
 5752SOL    HW323328   2.217   5.775   6.262
 5752SOL    MW423329   2.299   5.744   6.253
 5753SOL     OW23330   3.111   6.338   5.808
 5753SOL    HW223331   3.158   6.356   5.727
 5753SOL    HW323332   3.077   6.422   5.836
 5753SOL    MW423333   3.113   6.352   5.801
 5754SOL     OW23334   2.224   6.516   6.302
 5754SOL    HW223335   2.282   6.572   6.250
 5754SOL    HW323336   2.268   6.431   6.304
 5754SOL    MW423337   2.237   6.513   6.295
 5755SOL     OW23338   3.364   5.868   6.139
 5755SOL    HW223339   3.286   5.818   6.164
 5755SOL    HW323340   3.335   5.959   6.139
 5755SOL    MW423341   3.350   5.872   6.142
 5756SOL     OW23342   2.950   5.830   6.298
 5756SOL    HW223343   2.970   5.905   6.242
 5756SOL    HW323344   2.930   5.869   6.383
 5756SOL    MW423345   2.951   5.846   6.302
 5757SOL     OW23346   1.886   6.242   6.021
 5757SOL    HW223347   1.826   6.214   6.091
 5757SOL    HW323348   1.960   6.182   6.027
 5757SOL    MW423349   1.888   6.231   6.030
 5758SOL     OW23350   3.054   6.973   6.181
 5758SOL    HW223351   3.077   6.924   6.259
 5758SOL    HW323352   3.135   7.015   6.153
 5758SOL    MW423353   3.067   6.973   6.188
 5759SOL     OW23354   2.409   5.726   6.537
 5759SOL    HW223355   2.419   5.635   6.563
 5759SOL    HW323356   2.365   5.722   6.452
 5759SOL    MW423357   2.405   5.714   6.529
 5760SOL     OW23358   3.194   5.640   5.817
 5760SOL    HW223359   3.268   5.684   5.860
 5760SOL    HW323360   3.118   5.694   5.839
 5760SOL    MW423361   3.194   5.652   5.825
 5761SOL     OW23362   3.254   6.415   6.095
 5761SOL    HW223363   3.169   6.385   6.065
 5761SOL    HW323364   3.246   6.422   6.190
 5761SOL    MW423365   3.242   6.413   6.104
 5762SOL     OW23366   2.627   6.081   5.821
 5762SOL    HW223367   2.700   6.130   5.784
 5762SOL    HW323368   2.643   5.990   5.795
 5762SOL    MW423369   2.639   6.076   5.814
 5763SOL     OW23370   2.102   6.590   5.919
 5763SOL    HW223371   2.039   6.606   5.848
 5763SOL    HW323372   2.049   6.553   5.990
 5763SOL    MW423373   2.087   6.587   5.919
 5764SOL     OW23374   2.458   6.944   5.778
 5764SOL    HW223375   2.473   6.920   5.870
 5764SOL    HW323376   2.366   6.922   5.762
 5764SOL    MW423377   2.448   6.937   5.788
 5765SOL     OW23378   2.256   7.333   6.499
 5765SOL    HW223379   2.260   7.244   6.534
 5765SOL    HW323380   2.282   7.324   6.408
 5765SOL    MW423381   2.259   7.321   6.491
 5766SOL     OW23382   2.333   6.056   6.376
 5766SOL    HW223383   2.404   6.004   6.339
 5766SOL    HW323384   2.319   6.021   6.463
 5766SOL    MW423385   2.341   6.045   6.383
 5767SOL     OW23386   2.649   7.149   6.452
 5767SOL    HW223387   2.577   7.086   6.465
 5767SOL    HW323388   2.610   7.234   6.470
 5767SOL    MW423389   2.633   7.152   6.455
 5768SOL     OW23390   2.969   5.997   6.100
 5768SOL    HW223391   2.991   5.934   6.032
 5768SOL    HW323392   2.874   5.989   6.111
 5768SOL    MW423393   2.959   5.988   6.092
 5769SOL     OW23394   2.054   5.687   6.032
 5769SOL    HW223395   2.125   5.708   5.971
 5769SOL    HW323396   2.008   5.615   5.990
 5769SOL    MW423397   2.058   5.681   6.018
 5770SOL     OW23398   3.623   7.061   6.132
 5770SOL    HW223399   3.593   6.994   6.193
 5770SOL    HW323400   3.717   7.067   6.146
 5770SOL    MW423401   3.631   7.053   6.142
 5771SOL     OW23402   3.179   6.738   6.062
 5771SOL    HW223403   3.151   6.824   6.095
 5771SOL    HW323404   3.207   6.754   5.972
 5771SOL    MW423405   3.179   6.752   6.054
 5772SOL     OW23406   2.841   5.658   6.115
 5772SOL    HW223407   2.878   5.717   6.180
 5772SOL    HW323408   2.818   5.714   6.041
 5772SOL    MW423409   2.842   5.673   6.114
 5773SOL     OW23410   3.694   6.540   6.537
 5773SOL    HW223411   3.685   6.572   6.448
 5773SOL    HW323412   3.647   6.456   6.537
 5773SOL    MW423413   3.687   6.533   6.527
 5774SOL     OW23414   3.606   6.471   6.238
 5774SOL    HW223415   3.700   6.460   6.226
 5774SOL    HW323416   3.582   6.543   6.179
 5774SOL    MW423417   3.616   6.479   6.229
 5775SOL     OW23418   2.262   6.349   6.011
 5775SOL    HW223419   2.262   6.444   5.996
 5775SOL    HW323420   2.339   6.333   6.065
 5775SOL    MW423421   2.272   6.360   6.016
 5776SOL     OW23422   2.021   6.080   6.300
 5776SOL    HW223423   2.083   6.087   6.373
 5776SOL    HW323424   2.021   5.987   6.277
 5776SOL    MW423425   2.029   6.069   6.307
 5777SOL     OW23426   1.890   6.652   5.758
 5777SOL    HW223427   1.859   6.717   5.821
 5777SOL    HW323428   1.839   6.574   5.777
 5777SOL    MW423429   1.880   6.649   5.768
 5778SOL     OW23430   3.302   5.664   6.506
 5778SOL    HW223431   3.390   5.673   6.543
 5778SOL    HW323432   3.312   5.605   6.432
 5778SOL    MW423433   3.316   5.658   6.500
 5779SOL     OW23434   3.334   6.403   6.350
 5779SOL    HW223435   3.414   6.418   6.299
 5779SOL    HW323436   3.327   6.308   6.356
 5779SOL    MW423437   3.343   6.392   6.345
 5780SOL     OW23438   3.319   6.272   5.615
 5780SOL    HW223439   3.247   6.248   5.557
 5780SOL    HW323440   3.385   6.309   5.557
 5780SOL    MW423441   3.318   6.274   5.600
 5781SOL     OW23442   2.453   7.004   6.296
 5781SOL    HW223443   2.518   6.937   6.317
 5781SOL    HW323444   2.505   7.081   6.273
 5781SOL    MW423445   2.468   7.006   6.295
 5782SOL     OW23446   2.714   6.169   6.426
 5782SOL    HW223447   2.654   6.187   6.498
 5782SOL    HW323448   2.748   6.081   6.445
 5782SOL    MW423449   2.710   6.159   6.439
 5783SOL     OW23450   2.939   6.752   6.445
 5783SOL    HW223451   3.031   6.733   6.463
 5783SOL    HW323452   2.912   6.682   6.385
 5783SOL    MW423453   2.947   6.740   6.439
 5784SOL     OW23454   2.732   6.572   5.800
 5784SOL    HW223455   2.718   6.484   5.765
 5784SOL    HW323456   2.683   6.629   5.741
 5784SOL    MW423457   2.724   6.567   5.788
 5785SOL     OW23458   3.451   5.778   5.902
 5785SOL    HW223459   3.444   5.782   5.997
 5785SOL    HW323460   3.463   5.869   5.875
 5785SOL    MW423461   3.452   5.791   5.910
 5786SOL     OW23462   2.740   6.341   6.016
 5786SOL    HW223463   2.720   6.327   5.923
 5786SOL    HW323464   2.833   6.320   6.023
 5786SOL    MW423465   2.750   6.336   6.005
 5787SOL     OW23466   3.603   6.797   6.363
 5787SOL    HW223467   3.582   6.743   6.286
 5787SOL    HW323468   3.699   6.795   6.367
 5787SOL    MW423469   3.612   6.790   6.352
 5788SOL     OW23470   2.179   5.731   5.789
 5788SOL    HW223471   2.108   5.786   5.757
 5788SOL    HW323472   2.221   5.697   5.710
 5788SOL    MW423473   2.175   5.733   5.775
 5789SOL     OW23474   1.935   5.830   5.638
 5789SOL    HW223475   1.902   5.909   5.682
 5789SOL    HW323476   1.990   5.863   5.567
 5789SOL    MW423477   1.938   5.844   5.635
 5790SOL     OW23478   1.969   7.087   5.827
 5790SOL    HW223479   1.986   7.171   5.869
 5790SOL    HW323480   2.004   7.096   5.739
 5790SOL    MW423481   1.974   7.100   5.821
 5791SOL     OW23482   3.241   7.176   6.044
 5791SOL    HW223483   3.304   7.166   5.973
 5791SOL    HW323484   3.158   7.196   5.999
 5791SOL    MW423485   3.238   7.177   6.029
 5792SOL     OW23486   5.338   0.771   1.252
 5792SOL    HW223487   5.293   0.838   1.303
 5792SOL    HW323488   5.426   0.807   1.238
 5792SOL    MW423489   5.344   0.784   1.256
 5793SOL     OW23490   4.266   1.022   0.486
 5793SOL    HW223491   4.356   0.997   0.470
 5793SOL    HW323492   4.262   1.115   0.463
 5793SOL    MW423493   4.278   1.031   0.481
 5794SOL     OW23494   5.382   1.725   0.628
 5794SOL    HW223495   5.394   1.671   0.706
 5794SOL    HW323496   5.419   1.673   0.557
 5794SOL    MW423497   5.388   1.710   0.629
 5795SOL     OW23498   4.761   1.610   1.629
 5795SOL    HW223499   4.802   1.646   1.550
 5795SOL    HW323500   4.796   1.521   1.636
 5795SOL    MW423501   4.772   1.603   1.620
 5796SOL     OW23502   5.318   1.165   1.233
 5796SOL    HW223503   5.239   1.130   1.191
 5796SOL    HW323504   5.345   1.237   1.177
 5796SOL    MW423505   5.311   1.170   1.220
 5797SOL     OW23506   4.550   0.478   0.499
 5797SOL    HW223507   4.525   0.566   0.527
 5797SOL    HW323508   4.547   0.481   0.403
 5797SOL    MW423509   4.546   0.490   0.491
 5798SOL     OW23510   3.992   0.506   0.427
 5798SOL    HW223511   4.024   0.594   0.409
 5798SOL    HW323512   3.980   0.504   0.522
 5798SOL    MW423513   3.995   0.518   0.439
 5799SOL     OW23514   4.070   0.919   1.328
 5799SOL    HW223515   4.133   0.866   1.279
 5799SOL    HW323516   4.051   0.993   1.271
 5799SOL    MW423517   4.076   0.921   1.315
 5800SOL     OW23518   4.391   0.261   0.514
 5800SOL    HW223519   4.449   0.337   0.516
 5800SOL    HW323520   4.326   0.282   0.447
 5800SOL    MW423521   4.390   0.273   0.505
 5801SOL     OW23522   4.478   1.188   0.689
 5801SOL    HW223523   4.558   1.191   0.741
 5801SOL    HW323524   4.506   1.155   0.603
 5801SOL    MW423525   4.492   1.184   0.684
 5802SOL     OW23526   4.503   1.529   1.592
 5802SOL    HW223527   4.587   1.555   1.631
 5802SOL    HW323528   4.527   1.473   1.518
 5802SOL    MW423529   4.517   1.525   1.587
 5803SOL     OW23530   4.255   0.692   0.680
 5803SOL    HW223531   4.240   0.612   0.731
 5803SOL    HW323532   4.337   0.727   0.714
 5803SOL    MW423533   4.263   0.684   0.692
 5804SOL     OW23534   4.592   1.378   1.365
 5804SOL    HW223535   4.556   1.444   1.305
 5804SOL    HW323536   4.520   1.316   1.378
 5804SOL    MW423537   4.578   1.378   1.359
 5805SOL     OW23538   4.397   0.518   1.057
 5805SOL    HW223539   4.303   0.514   1.075
 5805SOL    HW323540   4.427   0.427   1.066
 5805SOL    MW423541   4.388   0.506   1.060
 5806SOL     OW23542   4.143   0.932   0.961
 5806SOL    HW223543   4.098   0.939   0.877
 5806SOL    HW323544   4.123   1.015   1.005
 5806SOL    MW423545   4.135   0.944   0.955
 5807SOL     OW23546   3.840   1.778   0.836
 5807SOL    HW223547   3.929   1.770   0.871
 5807SOL    HW323548   3.804   1.690   0.841
 5807SOL    MW423549   3.847   1.765   0.841
 5808SOL     OW23550   4.104   1.305   0.871
 5808SOL    HW223551   4.080   1.358   0.947
 5808SOL    HW323552   4.160   1.363   0.819
 5808SOL    MW423553   4.108   1.320   0.874
 5809SOL     OW23554   4.666   0.949   0.681
 5809SOL    HW223555   4.580   0.936   0.721
 5809SOL    HW323556   4.719   0.876   0.713
 5809SOL    MW423557   4.662   0.938   0.690
 5810SOL     OW23558   4.074   1.601   1.466
 5810SOL    HW223559   3.982   1.577   1.451
 5810SOL    HW323560   4.118   1.518   1.483
 5810SOL    MW423561   4.068   1.586   1.465
 5811SOL     OW23562   4.657   1.311   0.398
 5811SOL    HW223563   4.634   1.373   0.466
 5811SOL    HW323564   4.614   1.229   0.424
 5811SOL    MW423565   4.649   1.307   0.409
 5812SOL     OW23566   5.586   0.481   0.156
 5812SOL    HW223567   5.495   0.483   0.184
 5812SOL    HW323568   5.631   0.543   0.214
 5812SOL    MW423569   5.579   0.489   0.166
 5813SOL     OW23570   5.331   1.084   0.506
 5813SOL    HW223571   5.241   1.084   0.541
 5813SOL    HW323572   5.324   1.130   0.423
 5813SOL    MW423573   5.318   1.090   0.500
 5814SOL     OW23574   5.131   0.719   1.578
 5814SOL    HW223575   5.200   0.657   1.555
 5814SOL    HW323576   5.056   0.693   1.525
 5814SOL    MW423577   5.131   0.706   1.569
 5815SOL     OW23578   3.872   1.599   1.130
 5815SOL    HW223579   3.855   1.545   1.207
 5815SOL    HW323580   3.860   1.689   1.160
 5815SOL    MW423581   3.869   1.603   1.144
 5816SOL     OW23582   4.867   1.106   1.570
 5816SOL    HW223583   4.852   1.199   1.555
 5816SOL    HW323584   4.962   1.096   1.570
 5816SOL    MW423585   4.876   1.116   1.567
 5817SOL     OW23586   4.663   0.530   1.771
 5817SOL    HW223587   4.753   0.531   1.738
 5817SOL    HW323588   4.622   0.455   1.729
 5817SOL    MW423589   4.669   0.520   1.762
 5818SOL     OW23590   5.238   1.062   0.898
 5818SOL    HW223591   5.241   0.996   0.829
 5818SOL    HW323592   5.323   1.105   0.894
 5818SOL    MW423593   5.250   1.058   0.889
 5819SOL     OW23594   4.858   0.665   0.467
 5819SOL    HW223595   4.884   0.689   0.378
 5819SOL    HW323596   4.840   0.572   0.463
 5819SOL    MW423597   4.860   0.657   0.454
 5820SOL     OW23598   4.443   0.334   1.721
 5820SOL    HW223599   4.453   0.260   1.661
 5820SOL    HW323600   4.479   0.303   1.804
 5820SOL    MW423601   4.449   0.320   1.723
 5821SOL     OW23602   4.179   1.701   0.636
 5821SOL    HW223603   4.211   1.789   0.614
 5821SOL    HW323604   4.132   1.673   0.558
 5821SOL    MW423605   4.178   1.709   0.623
 5822SOL     OW23606   4.682   0.016   1.098
 5822SOL    HW223607   4.641   0.094   1.060
 5822SOL    HW323608   4.776   0.034   1.093
 5822SOL    MW423609   4.688   0.028   1.093
 5823SOL     OW23610   5.311   0.620   0.464
 5823SOL    HW223611   5.350   0.620   0.551
 5823SOL    HW323612   5.252   0.696   0.464
 5823SOL    MW423613   5.308   0.631   0.475
 5824SOL     OW23614   4.628   0.987   1.593
 5824SOL    HW223615   4.605   0.967   1.683
 5824SOL    HW323616   4.713   1.031   1.598
 5824SOL    MW423617   4.635   0.990   1.605
 5825SOL     OW23618   4.708   0.124   1.353
 5825SOL    HW223619   4.714   0.086   1.266
 5825SOL    HW323620   4.697   0.218   1.338
 5825SOL    MW423621   4.709   0.132   1.341
 5826SOL     OW23622   4.797   0.613   1.187
 5826SOL    HW223623   4.872   0.642   1.134
 5826SOL    HW323624   4.729   0.678   1.171
 5826SOL    MW423625   4.798   0.625   1.177
 5827SOL     OW23626   5.347   0.581   1.464
 5827SOL    HW223627   5.328   0.490   1.443
 5827SOL    HW323628   5.325   0.630   1.385
 5827SOL    MW423629   5.342   0.574   1.451
 5828SOL     OW23630   5.489   1.675   1.368
 5828SOL    HW223631   5.417   1.637   1.419
 5828SOL    HW323632   5.506   1.760   1.409
 5828SOL    MW423633   5.483   1.680   1.380
 5829SOL     OW23634   4.794   0.319   1.570
 5829SOL    HW223635   4.760   0.358   1.489
 5829SOL    HW323636   4.772   0.227   1.563
 5829SOL    MW423637   4.787   0.312   1.560
 5830SOL     OW23638   5.203   1.133   1.646
 5830SOL    HW223639   5.285   1.174   1.676
 5830SOL    HW323640   5.166   1.095   1.726
 5830SOL    MW423641   5.209   1.134   1.661
 5831SOL     OW23642   5.498   0.506   0.630
 5831SOL    HW223643   5.587   0.475   0.647
 5831SOL    HW323644   5.441   0.446   0.678
 5831SOL    MW423645   5.501   0.494   0.639
 5832SOL     OW23646   3.924   0.220   0.659
 5832SOL    HW223647   3.915   0.160   0.585
 5832SOL    HW323648   3.857   0.191   0.722
 5832SOL    MW423649   3.914   0.207   0.657
 5833SOL     OW23650   3.871   0.393   1.022
 5833SOL    HW223651   3.843   0.484   1.031
 5833SOL    HW323652   3.808   0.354   0.961
 5833SOL    MW423653   3.858   0.399   1.016
 5834SOL     OW23654   4.330   1.731   0.328
 5834SOL    HW223655   4.251   1.689   0.361
 5834SOL    HW323656   4.396   1.714   0.395
 5834SOL    MW423657   4.329   1.723   0.341
 5835SOL     OW23658   5.458   1.251   1.725
 5835SOL    HW223659   5.508   1.177   1.757
 5835SOL    HW323660   5.404   1.278   1.800
 5835SOL    MW423661   5.458   1.245   1.738
 5836SOL     OW23662   5.592   0.886   1.227
 5836SOL    HW223663   5.608   0.924   1.140
 5836SOL    HW323664   5.626   0.952   1.288
 5836SOL    MW423665   5.599   0.899   1.223
 5837SOL     OW23666   5.384   1.595   0.896
 5837SOL    HW223667   5.413   1.662   0.957
 5837SOL    HW323668   5.365   1.519   0.951
 5837SOL    MW423669   5.386   1.595   0.911
 5838SOL     OW23670   3.855   0.668   1.192
 5838SOL    HW223671   3.917   0.698   1.258
 5838SOL    HW323672   3.789   0.737   1.186
 5838SOL    MW423673   3.854   0.681   1.199
 5839SOL     OW23674   3.950   1.777   1.644
 5839SOL    HW223675   3.924   1.845   1.582
 5839SOL    HW323676   3.998   1.714   1.592
 5839SOL    MW423677   3.952   1.777   1.630
 5840SOL     OW23678   4.002   1.096   1.151
 5840SOL    HW223679   4.055   1.171   1.176
 5840SOL    HW323680   3.921   1.134   1.117
 5840SOL    MW423681   3.998   1.111   1.151
 5841SOL     OW23682   4.542   1.000   1.139
 5841SOL    HW223683   4.570   0.909   1.151
 5841SOL    HW323684   4.471   0.994   1.075
 5841SOL    MW423685   4.535   0.988   1.134
 5842SOL     OW23686   3.857   0.865   0.557
 5842SOL    HW223687   3.948   0.880   0.584
 5842SOL    HW323688   3.860   0.786   0.503
 5842SOL    MW423689   3.869   0.857   0.555
 5843SOL     OW23690   4.093   0.573   1.811
 5843SOL    HW223691   4.040   0.653   1.818
 5843SOL    HW323692   4.163   0.585   1.876
 5843SOL    MW423693   4.095   0.586   1.819
 5844SOL     OW23694   4.479   0.123   1.518
 5844SOL    HW223695   4.456   0.031   1.520
 5844SOL    HW323696   4.565   0.125   1.475
 5844SOL    MW423697   4.486   0.113   1.514
 5845SOL     OW23698   4.163   0.647   1.557
 5845SOL    HW223699   4.243   0.697   1.543
 5845SOL    HW323700   4.154   0.641   1.652
 5845SOL    MW423701   4.172   0.653   1.567
 5846SOL     OW23702   4.484   1.797   0.931
 5846SOL    HW223703   4.573   1.812   0.961
 5846SOL    HW323704   4.479   1.844   0.847
 5846SOL    MW423705   4.494   1.805   0.924
 5847SOL     OW23706   3.865   1.477   0.596
 5847SOL    HW223707   3.837   1.516   0.678
 5847SOL    HW323708   3.885   1.386   0.618
 5847SOL    MW423709   3.863   1.469   0.609
 5848SOL     OW23710   4.698   1.520   0.631
 5848SOL    HW223711   4.781   1.474   0.615
 5848SOL    HW323712   4.688   1.519   0.727
 5848SOL    MW423713   4.708   1.513   0.641
 5849SOL     OW23714   5.530   0.665   0.945
 5849SOL    HW223715   5.619   0.695   0.927
 5849SOL    HW323716   5.510   0.605   0.874
 5849SOL    MW423717   5.539   0.662   0.934
 5850SOL     OW23718   5.381   0.844   1.825
 5850SOL    HW223719   5.436   0.768   1.806
 5850SOL    HW323720   5.383   0.852   1.920
 5850SOL    MW423721   5.389   0.835   1.833
 5851SOL     OW23722   4.676   0.406   1.344
 5851SOL    HW223723   4.595   0.447   1.372
 5851SOL    HW323724   4.723   0.474   1.296
 5851SOL    MW423725   4.671   0.421   1.342
 5852SOL     OW23726   4.936   0.744   0.967
 5852SOL    HW223727   4.949   0.838   0.977
 5852SOL    HW323728   4.897   0.734   0.881
 5852SOL    MW423729   4.932   0.755   0.957
 5853SOL     OW23730   4.388   0.939   0.771
 5853SOL    HW223731   4.299   0.930   0.804
 5853SOL    HW323732   4.392   1.029   0.739
 5853SOL    MW423733   4.377   0.950   0.771
 5854SOL     OW23734   5.187   0.522   0.766
 5854SOL    HW223735   5.132   0.443   0.765
 5854SOL    HW323736   5.169   0.563   0.850
 5854SOL    MW423737   5.177   0.517   0.775
 5855SOL     OW23738   4.158   0.209   1.583
 5855SOL    HW223739   4.079   0.227   1.635
 5855SOL    HW323740   4.153   0.271   1.510
 5855SOL    MW423741   4.148   0.219   1.580
 5856SOL     OW23742   4.806   0.726   0.723
 5856SOL    HW223743   4.743   0.658   0.747
 5856SOL    HW323744   4.826   0.707   0.631
 5856SOL    MW423745   4.800   0.713   0.715
 5857SOL     OW23746   4.062   1.621   0.425
 5857SOL    HW223747   4.023   1.668   0.351
 5857SOL    HW323748   3.996   1.556   0.450
 5857SOL    MW423749   4.049   1.619   0.419
 5858SOL     OW23750   4.554   1.030   0.449
 5858SOL    HW223751   4.556   1.004   0.356
 5858SOL    HW323752   4.612   0.967   0.492
 5858SOL    MW423753   4.562   1.019   0.443
 5859SOL     OW23754   5.107   1.590   1.221
 5859SOL    HW223755   5.032   1.636   1.259
 5859SOL    HW323756   5.089   1.497   1.238
 5859SOL    MW423757   5.096   1.584   1.229
 5860SOL     OW23758   5.111   1.798   0.651
 5860SOL    HW223759   5.054   1.751   0.590
 5860SOL    HW323760   5.197   1.759   0.638
 5860SOL    MW423761   5.114   1.789   0.641
 5861SOL     OW23762   3.869   1.208   0.716
 5861SOL    HW223763   3.933   1.240   0.779
 5861SOL    HW323764   3.918   1.144   0.664
 5861SOL    MW423765   3.884   1.204   0.717
 5862SOL     OW23766   4.369   1.284   1.698
 5862SOL    HW223767   4.417   1.367   1.685
 5862SOL    HW323768   4.426   1.232   1.754
 5862SOL    MW423769   4.383   1.288   1.704
 5863SOL     OW23770   3.945   1.526   1.838
 5863SOL    HW223771   4.001   1.450   1.853
 5863SOL    HW323772   3.894   1.504   1.760
 5863SOL    MW423773   3.945   1.513   1.829
 5864SOL     OW23774   5.217   0.934   0.259
 5864SOL    HW223775   5.184   1.023   0.249
 5864SOL    HW323776   5.182   0.905   0.344
 5864SOL    MW423777   5.207   0.943   0.270
 5865SOL     OW23778   4.830   1.363   1.447
 5865SOL    HW223779   4.741   1.369   1.415
 5865SOL    HW323780   4.874   1.442   1.415
 5865SOL    MW423781   4.825   1.373   1.439
 5866SOL     OW23782   4.123   0.031   1.789
 5866SOL    HW223783   4.051  -0.004   1.737
 5866SOL    HW323784   4.181   0.072   1.724
 5866SOL    MW423785   4.121   0.032   1.774
 5867SOL     OW23786   4.147   1.521   1.088
 5867SOL    HW223787   4.192   1.583   1.145
 5867SOL    HW323788   4.054   1.540   1.101
 5867SOL    MW423789   4.140   1.531   1.095
 5868SOL     OW23790   5.587   1.050   1.442
 5868SOL    HW223791   5.502   1.063   1.401
 5868SOL    HW323792   5.567   1.014   1.529
 5868SOL    MW423793   5.574   1.046   1.447
 5869SOL     OW23794   4.569   1.589   1.196
 5869SOL    HW223795   4.593   1.578   1.105
 5869SOL    HW323796   4.492   1.646   1.194
 5869SOL    MW423797   4.561   1.594   1.185
 5870SOL     OW23798   4.864   0.945   0.294
 5870SOL    HW223799   4.774   0.966   0.269
 5870SOL    HW323800   4.891   1.018   0.350
 5870SOL    MW423801   4.856   0.957   0.297
 5871SOL     OW23802   4.364   1.294   0.986
 5871SOL    HW223803   4.357   1.273   1.080
 5871SOL    HW323804   4.282   1.262   0.949
 5871SOL    MW423805   4.352   1.288   0.993
 5872SOL     OW23806   5.228   0.304   1.388
 5872SOL    HW223807   5.175   0.306   1.468
 5872SOL    HW323808   5.213   0.217   1.351
 5872SOL    MW423809   5.220   0.294   1.393
 5873SOL     OW23810   3.810   1.386   1.649
 5873SOL    HW223811   3.854   1.319   1.595
 5873SOL    HW323812   3.725   1.348   1.669
 5873SOL    MW423813   3.805   1.372   1.645
 5874SOL     OW23814   4.493   0.061   0.701
 5874SOL    HW223815   4.422   0.122   0.683
 5874SOL    HW323816   4.544   0.058   0.620
 5874SOL    MW423817   4.489   0.067   0.688
 5875SOL     OW23818   4.251   1.301   0.450
 5875SOL    HW223819   4.244   1.333   0.540
 5875SOL    HW323820   4.161   1.285   0.422
 5875SOL    MW423821   4.239   1.303   0.457
 5876SOL     OW23822   4.846   1.694   1.359
 5876SOL    HW223823   4.766   1.679   1.309
 5876SOL    HW323824   4.853   1.789   1.366
 5876SOL    MW423825   4.837   1.705   1.353
 5877SOL     OW23826   4.960   1.659   0.849
 5877SOL    HW223827   5.007   1.732   0.808
 5877SOL    HW323828   4.881   1.698   0.885
 5877SOL    MW423829   4.955   1.674   0.848
 5878SOL     OW23830   5.368   1.754   1.124
 5878SOL    HW223831   5.411   1.724   1.204
 5878SOL    HW323832   5.287   1.702   1.121
 5878SOL    MW423833   5.363   1.743   1.134
 5879SOL     OW23834   4.453   0.718   1.831
 5879SOL    HW223835   4.523   0.660   1.803
 5879SOL    HW323836   4.396   0.663   1.886
 5879SOL    MW423837   4.455   0.705   1.835
 5880SOL     OW23838   5.240   0.930   1.464
 5880SOL    HW223839   5.245   0.983   1.544
 5880SOL    HW323840   5.202   0.847   1.492
 5880SOL    MW423841   5.236   0.925   1.479
 5881SOL     OW23842   4.880   0.065   1.710
 5881SOL    HW223843   4.875  -0.028   1.691
 5881SOL    HW323844   4.963   0.076   1.756
 5881SOL    MW423845   4.888   0.054   1.714
 5882SOL     OW23846   5.350   1.336   0.986
 5882SOL    HW223847   5.385   1.318   0.899
 5882SOL    HW323848   5.255   1.337   0.973
 5882SOL    MW423849   5.342   1.333   0.973
 5883SOL     OW23850   4.779   0.984   1.355
 5883SOL    HW223851   4.822   1.019   1.433
 5883SOL    HW323852   4.762   1.061   1.301
 5883SOL    MW423853   4.782   0.999   1.358
 5884SOL     OW23854   4.170   0.126   0.657
 5884SOL    HW223855   4.220   0.169   0.588
 5884SOL    HW323856   4.085   0.170   0.657
 5884SOL    MW423857   4.167   0.139   0.648
 5885SOL     OW23858   3.929   1.188   1.517
 5885SOL    HW223859   3.957   1.141   1.595
 5885SOL    HW323860   3.850   1.143   1.488
 5885SOL    MW423861   3.922   1.177   1.523
 5886SOL     OW23862   4.437   0.515   1.484
 5886SOL    HW223863   4.409   0.603   1.508
 5886SOL    HW323864   4.406   0.459   1.555
 5886SOL    MW423865   4.429   0.518   1.496
 5887SOL     OW23866   4.092   0.911   0.697
 5887SOL    HW223867   4.150   0.967   0.645
 5887SOL    HW323868   4.136   0.826   0.699
 5887SOL    MW423869   4.105   0.908   0.690
 5888SOL     OW23870   5.232   0.263   0.534
 5888SOL    HW223871   5.154   0.213   0.559
 5888SOL    HW323872   5.203   0.354   0.534
 5888SOL    MW423873   5.218   0.267   0.537
 5889SOL     OW23874   4.818   0.225   0.693
 5889SOL    HW223875   4.838   0.300   0.637
 5889SOL    HW323876   4.798   0.264   0.778
 5889SOL    MW423877   4.819   0.241   0.697
 5890SOL     OW23878   5.578   0.998   1.712
 5890SOL    HW223879   5.491   0.978   1.748
 5890SOL    HW323880   5.632   0.924   1.737
 5890SOL    MW423881   5.573   0.987   1.720
 5891SOL     OW23882   3.799   1.511   0.869
 5891SOL    HW223883   3.831   1.515   0.960
 5891SOL    HW323884   3.704   1.519   0.877
 5891SOL    MW423885   3.791   1.514   0.882
 5892SOL     OW23886   3.754   0.637   0.416
 5892SOL    HW223887   3.694   0.609   0.486
 5892SOL    HW323888   3.828   0.577   0.422
 5892SOL    MW423889   3.756   0.626   0.425
 5893SOL     OW23890   5.322   1.849   1.850
 5893SOL    HW223891   5.367   1.773   1.815
 5893SOL    HW323892   5.360   1.862   1.937
 5893SOL    MW423893   5.332   1.842   1.856
 5894SOL     OW23894   4.922   1.368   0.576
 5894SOL    HW223895   4.945   1.319   0.654
 5894SOL    HW323896   5.003   1.410   0.548
 5894SOL    MW423897   4.935   1.368   0.583
 5895SOL     OW23898   4.180   0.376   1.305
 5895SOL    HW223899   4.213   0.457   1.345
 5895SOL    HW323900   4.153   0.402   1.217
 5895SOL    MW423901   4.179   0.390   1.299
 5896SOL     OW23902   4.134   0.343   1.041
 5896SOL    HW223903   4.164   0.257   1.012
 5896SOL    HW323904   4.039   0.336   1.044
 5896SOL    MW423905   4.126   0.332   1.039
 5897SOL     OW23906   4.963   0.552   1.732
 5897SOL    HW223907   5.015   0.487   1.685
 5897SOL    HW323908   4.921   0.603   1.662
 5897SOL    MW423909   4.964   0.549   1.715
 5898SOL     OW23910   5.062   0.347   1.593
 5898SOL    HW223911   4.969   0.331   1.580
 5898SOL    HW323912   5.088   0.285   1.661
 5898SOL    MW423913   5.052   0.337   1.600
 5899SOL     OW23914   4.277   0.121   0.932
 5899SOL    HW223915   4.287   0.030   0.958
 5899SOL    HW323916   4.233   0.117   0.847
 5899SOL    MW423917   4.273   0.109   0.924
 5900SOL     OW23918   4.371   1.736   1.478
 5900SOL    HW223919   4.288   1.721   1.523
 5900SOL    HW323920   4.430   1.669   1.513
 5900SOL    MW423921   4.369   1.726   1.488
 5901SOL     OW23922   5.428   0.443   1.103
 5901SOL    HW223923   5.361   0.476   1.163
 5901SOL    HW323924   5.471   0.521   1.069
 5901SOL    MW423925   5.426   0.458   1.107
 5902SOL     OW23926   5.606   1.163   1.073
 5902SOL    HW223927   5.599   1.103   0.998
 5902SOL    HW323928   5.532   1.223   1.062
 5902SOL    MW423929   5.596   1.163   1.062
 5903SOL     OW23930   4.988   1.025   0.991
 5903SOL    HW223931   5.002   0.997   1.082
 5903SOL    HW323932   5.074   1.056   0.963
 5903SOL    MW423933   5.001   1.026   1.000
 5904SOL     OW23934   5.071   0.520   1.270
 5904SOL    HW223935   5.092   0.521   1.177
 5904SOL    HW323936   5.116   0.442   1.303
 5904SOL    MW423937   5.078   0.510   1.262
 5905SOL     OW23938   5.564   0.651   1.812
 5905SOL    HW223939   5.601   0.596   1.881
 5905SOL    HW323940   5.589   0.608   1.730
 5905SOL    MW423941   5.571   0.639   1.811
 5906SOL     OW23942   5.111   0.949   1.863
 5906SOL    HW223943   5.177   0.897   1.817
 5906SOL    HW323944   5.131   0.936   1.956
 5906SOL    MW423945   5.122   0.940   1.870
 5907SOL     OW23946   5.122   0.810   0.490
 5907SOL    HW223947   5.037   0.780   0.460
 5907SOL    HW323948   5.114   0.817   0.585
 5907SOL    MW423949   5.110   0.808   0.499
 5908SOL     OW23950   4.198   1.273   1.221
 5908SOL    HW223951   4.210   1.300   1.312
 5908SOL    HW323952   4.179   1.354   1.174
 5908SOL    MW423953   4.197   1.288   1.226
 5909SOL     OW23954   4.482   0.253   1.044
 5909SOL    HW223955   4.455   0.255   1.135
 5909SOL    HW323956   4.412   0.205   0.999
 5909SOL    MW423957   4.470   0.249   1.051
 5910SOL     OW23958   4.336   1.745   1.206
 5910SOL    HW223959   4.388   1.822   1.183
 5910SOL    HW323960   4.345   1.737   1.301
 5910SOL    MW423961   4.345   1.752   1.217
 5911SOL     OW23962   5.238   1.330   1.438
 5911SOL    HW223963   5.223   1.259   1.501
 5911SOL    HW323964   5.284   1.288   1.366
 5911SOL    MW423965   5.244   1.314   1.438
 5912SOL     OW23966   4.312   1.061   1.555
 5912SOL    HW223967   4.349   1.066   1.467
 5912SOL    HW323968   4.351   1.134   1.602
 5912SOL    MW423969   4.322   1.071   1.550
 5913SOL     OW23970   4.492   1.104   1.367
 5913SOL    HW223971   4.551   1.050   1.420
 5913SOL    HW323972   4.507   1.076   1.277
 5913SOL    MW423973   4.502   1.093   1.363
 5914SOL     OW23974   5.303   1.593   1.539
 5914SOL    HW223975   5.345   1.578   1.624
 5914SOL    HW323976   5.294   1.506   1.501
 5914SOL    MW423977   5.307   1.581   1.546
 5915SOL     OW23978   4.963   0.072   1.130
 5915SOL    HW223979   5.018   0.081   1.052
 5915SOL    HW323980   5.018   0.106   1.201
 5915SOL    MW423981   4.977   0.077   1.129
 5916SOL     OW23982   4.124   1.728   0.894
 5916SOL    HW223983   4.128   1.639   0.929
 5916SOL    HW323984   4.150   1.719   0.803
 5916SOL    MW423985   4.127   1.716   0.886
 5917SOL     OW23986   4.741   1.206   1.137
 5917SOL    HW223987   4.673   1.140   1.153
 5917SOL    HW323988   4.759   1.200   1.044
 5917SOL    MW423989   4.734   1.197   1.128
 5918SOL     OW23990   3.830   1.481   1.388
 5918SOL    HW223991   3.820   1.439   1.474
 5918SOL    HW323992   3.751   1.534   1.378
 5918SOL    MW423993   3.819   1.482   1.399
 5919SOL     OW23994   4.734   0.345   0.958
 5919SOL    HW223995   4.664   0.297   1.003
 5919SOL    HW323996   4.766   0.408   1.022
 5919SOL    MW423997   4.729   0.347   0.972
 5920SOL     OW23998   4.385   0.781   1.578
 5920SOL    HW223999   4.378   0.876   1.566
 5920SOL    HW324000   4.394   0.770   1.673
 5920SOL    MW424001   4.386   0.793   1.588
 5921SOL     OW24002   4.106   1.296   1.836
 5921SOL    HW224003   4.178   1.298   1.773
 5921SOL    HW324004   4.076   1.205   1.835
 5921SOL    MW424005   4.111   1.285   1.828
 5922SOL     OW24006   5.390   1.589   1.787
 5922SOL    HW224007   5.363   1.586   1.878
 5922SOL    HW324008   5.486   1.593   1.790
 5922SOL    MW424009   5.400   1.589   1.799
 5923SOL     OW24010   4.201   0.451   0.771
 5923SOL    HW224011   4.272   0.399   0.734
 5923SOL    HW324012   4.187   0.416   0.858
 5923SOL    MW424013   4.209   0.440   0.778
 5924SOL     OW24014   3.756   1.786   1.843
 5924SOL    HW224015   3.806   1.764   1.765
 5924SOL    HW324016   3.764   1.881   1.851
 5924SOL    MW424017   3.764   1.795   1.834
 5925SOL     OW24018   4.517   1.544   0.847
 5925SOL    HW224019   4.445   1.481   0.860
 5925SOL    HW324020   4.478   1.629   0.865
 5925SOL    MW424021   4.501   1.547   0.850
 5926SOL     OW24022   3.753   0.549   1.570
 5926SOL    HW224023   3.817   0.615   1.545
 5926SOL    HW324024   3.672   0.576   1.527
 5926SOL    MW424025   3.751   0.561   1.562
 5927SOL     OW24026   5.491   1.456   0.527
 5927SOL    HW224027   5.461   1.389   0.588
 5927SOL    HW324028   5.585   1.462   0.541
 5927SOL    MW424029   5.499   1.448   0.537
 5928SOL     OW24030   5.047   1.133   0.457
 5928SOL    HW224031   5.019   1.219   0.490
 5928SOL    HW324032   5.075   1.149   0.367
 5928SOL    MW424033   5.047   1.147   0.449
 5929SOL     OW24034   4.709   0.053   0.510
 5929SOL    HW224035   4.746   0.112   0.575
 5929SOL    HW324036   4.686   0.109   0.436
 5929SOL    MW424037   4.710   0.068   0.509
 5930SOL     OW24038   5.562   0.935   0.932
 5930SOL    HW224039   5.553   0.967   0.843
 5930SOL    HW324040   5.515   0.851   0.932
 5930SOL    MW424041   5.555   0.928   0.922
 5931SOL     OW24042   3.938   0.775   1.511
 5931SOL    HW224043   3.959   0.844   1.449
 5931SOL    HW324044   4.018   0.722   1.516
 5931SOL    MW424045   3.951   0.776   1.505
 5932SOL     OW24046   5.474   0.866   0.633
 5932SOL    HW224047   5.568   0.855   0.621
 5932SOL    HW324048   5.450   0.938   0.574
 5932SOL    MW424049   5.484   0.874   0.624
 5933SOL     OW24050   3.923   0.790   1.778
 5933SOL    HW224051   3.849   0.734   1.804
 5933SOL    HW324052   3.918   0.793   1.683
 5933SOL    MW424053   3.912   0.783   1.768
 5934SOL     OW24054   4.089   0.077   1.228
 5934SOL    HW224055   4.132   0.161   1.248
 5934SOL    HW324056   4.162   0.015   1.221
 5934SOL    MW424057   4.104   0.080   1.229
 5935SOL     OW24058   4.130   0.744   0.406
 5935SOL    HW224059   4.130   0.839   0.391
 5935SOL    HW324060   4.207   0.728   0.460
 5935SOL    MW424061   4.140   0.755   0.411
 5936SOL     OW24062   4.906   0.603   1.470
 5936SOL    HW224063   4.942   0.576   1.386
 5936SOL    HW324064   4.819   0.637   1.449
 5936SOL    MW424065   4.900   0.604   1.457
 5937SOL     OW24066   3.889   0.475   0.695
 5937SOL    HW224067   3.951   0.482   0.768
 5937SOL    HW324068   3.889   0.382   0.672
 5937SOL    MW424069   3.897   0.464   0.702
 5938SOL     OW24070   4.571   0.736   1.179
 5938SOL    HW224071   4.529   0.654   1.155
 5938SOL    HW324072   4.572   0.735   1.275
 5938SOL    MW424073   4.564   0.725   1.188
 5939SOL     OW24074   5.242   1.869   1.578
 5939SOL    HW224075   5.245   1.775   1.561
 5939SOL    HW324076   5.265   1.877   1.670
 5939SOL    MW424077   5.245   1.857   1.588
 5940SOL     OW24078   4.375   0.206   1.284
 5940SOL    HW224079   4.306   0.269   1.305
 5940SOL    HW324080   4.402   0.170   1.369
 5940SOL    MW424081   4.369   0.209   1.297
 5941SOL     OW24082   5.202   0.798   0.745
 5941SOL    HW224083   5.282   0.813   0.694
 5941SOL    HW324084   5.195   0.703   0.751
 5941SOL    MW424085   5.211   0.787   0.740
 5942SOL     OW24086   4.652   0.724   1.442
 5942SOL    HW224087   4.721   0.791   1.439
 5942SOL    HW324088   4.585   0.762   1.498
 5942SOL    MW424089   4.653   0.737   1.449
 5943SOL     OW24090   4.070   1.024   1.690
 5943SOL    HW224091   4.024   0.940   1.692
 5943SOL    HW324092   4.127   1.018   1.614
 5943SOL    MW424093   4.072   1.012   1.682
 5944SOL     OW24094   4.321   1.399   0.691
 5944SOL    HW224095   4.386   1.332   0.712
 5944SOL    HW324096   4.373   1.476   0.668
 5944SOL    MW424097   4.336   1.401   0.690
 5945SOL     OW24098   4.582   0.564   0.821
 5945SOL    HW224099   4.522   0.582   0.893
 5945SOL    HW324100   4.616   0.476   0.840
 5945SOL    MW424101   4.578   0.554   0.834
 5946SOL     OW24102   4.807   1.147   0.840
 5946SOL    HW224103   4.899   1.128   0.858
 5946SOL    HW324104   4.780   1.077   0.780
 5946SOL    MW424105   4.815   1.135   0.834
 5947SOL     OW24106   4.600   0.967   0.195
 5947SOL    HW224107   4.586   0.879   0.160
 5947SOL    HW324108   4.551   1.024   0.136
 5947SOL    MW424109   4.592   0.962   0.183
 5948SOL     OW24110   5.081   1.385   0.936
 5948SOL    HW224111   5.054   1.469   0.901
 5948SOL    HW324112   5.041   1.380   1.023
 5948SOL    MW424113   5.074   1.394   0.942
 5949SOL     OW24114   5.000   1.333   1.204
 5949SOL    HW224115   5.011   1.300   1.293
 5949SOL    HW324116   4.919   1.292   1.173
 5949SOL    MW424117   4.990   1.325   1.210
 5950SOL     OW24118   4.013   0.691   0.974
 5950SOL    HW224119   3.963   0.690   1.055
 5950SOL    HW324120   4.033   0.783   0.958
 5950SOL    MW424121   4.009   0.703   0.982
 5951SOL     OW24122   5.080   1.455   1.736
 5951SOL    HW224123   5.080   1.549   1.752
 5951SOL    HW324124   5.125   1.445   1.652
 5951SOL    MW424125   5.086   1.465   1.727
 5952SOL     OW24126   4.608   0.736   0.411
 5952SOL    HW224127   4.588   0.722   0.318
 5952SOL    HW324128   4.701   0.715   0.418
 5952SOL    MW424129   4.618   0.731   0.400
 5953SOL     OW24130   3.935   0.359   1.715
 5953SOL    HW224131   3.892   0.418   1.652
 5953SOL    HW324132   4.003   0.414   1.755
 5953SOL    MW424133   3.939   0.374   1.712
 5954SOL     OW24134   5.047   0.979   1.260
 5954SOL    HW224135   5.110   0.976   1.333
 5954SOL    HW324136   4.963   0.997   1.302
 5954SOL    MW424137   5.043   0.981   1.275
 5955SOL     OW24138   4.591   1.694   0.449
 5955SOL    HW224139   4.649   1.765   0.476
 5955SOL    HW324140   4.614   1.622   0.507
 5955SOL    MW424141   4.602   1.694   0.460
 5956SOL     OW24142   3.834  -0.001   1.138
 5956SOL    HW224143   3.825   0.000   1.043
 5956SOL    HW324144   3.928   0.011   1.153
 5956SOL    MW424145   3.846   0.002   1.129
 5957SOL     OW24146   5.471   1.192   0.758
 5957SOL    HW224147   5.450   1.138   0.681
 5957SOL    HW324148   5.567   1.190   0.762
 5957SOL    MW424149   5.480   1.185   0.747
 5958SOL     OW24150   4.163   1.337   1.501
 5958SOL    HW224151   4.084   1.287   1.524
 5958SOL    HW324152   4.233   1.296   1.551
 5958SOL    MW424153   4.161   1.325   1.511
 5959SOL     OW24154   5.171   0.623   1.020
 5959SOL    HW224155   5.094   0.669   0.986
 5959SOL    HW324156   5.228   0.692   1.054
 5959SOL    MW424157   5.168   0.638   1.020
 5960SOL     OW24158   3.837   1.482   0.222
 5960SOL    HW224159   3.854   1.566   0.264
 5960SOL    HW324160   3.872   1.491   0.134
 5960SOL    MW424161   3.842   1.495   0.216
 5961SOL     OW24162   5.109   1.571   0.439
 5961SOL    HW224163   5.172   1.561   0.368
 5961SOL    HW324164   5.026   1.591   0.394
 5961SOL    MW424165   5.106   1.572   0.424
 5962SOL     OW24166   5.472   0.839   2.125
 5962SOL    HW224167   5.513   0.781   2.190
 5962SOL    HW324168   5.379   0.831   2.142
 5962SOL    MW424169   5.466   0.831   2.135
 5963SOL     OW24170   5.338   0.771   3.120
 5963SOL    HW224171   5.293   0.838   3.171
 5963SOL    HW324172   5.426   0.807   3.106
 5963SOL    MW424173   5.344   0.784   3.124
 5964SOL     OW24174   4.266   1.022   2.354
 5964SOL    HW224175   4.356   0.997   2.338
 5964SOL    HW324176   4.262   1.115   2.331
 5964SOL    MW424177   4.278   1.031   2.349
 5965SOL     OW24178   5.382   1.725   2.496
 5965SOL    HW224179   5.394   1.671   2.574
 5965SOL    HW324180   5.419   1.673   2.425
 5965SOL    MW424181   5.388   1.710   2.497
 5966SOL     OW24182   4.761   1.610   3.497
 5966SOL    HW224183   4.802   1.646   3.418
 5966SOL    HW324184   4.796   1.521   3.504
 5966SOL    MW424185   4.772   1.603   3.488
 5967SOL     OW24186   5.318   1.165   3.101
 5967SOL    HW224187   5.239   1.130   3.059
 5967SOL    HW324188   5.345   1.237   3.045
 5967SOL    MW424189   5.311   1.170   3.088
 5968SOL     OW24190   4.550   0.478   2.367
 5968SOL    HW224191   4.525   0.566   2.395
 5968SOL    HW324192   4.547   0.481   2.271
 5968SOL    MW424193   4.546   0.490   2.359
 5969SOL     OW24194   3.992   0.506   2.295
 5969SOL    HW224195   4.024   0.594   2.277
 5969SOL    HW324196   3.980   0.504   2.390
 5969SOL    MW424197   3.995   0.518   2.307
 5970SOL     OW24198   4.070   0.919   3.196
 5970SOL    HW224199   4.133   0.866   3.147
 5970SOL    HW324200   4.051   0.993   3.139
 5970SOL    MW424201   4.076   0.921   3.183
 5971SOL     OW24202   4.391   0.261   2.382
 5971SOL    HW224203   4.449   0.337   2.384
 5971SOL    HW324204   4.326   0.282   2.315
 5971SOL    MW424205   4.390   0.273   2.373
 5972SOL     OW24206   4.478   1.188   2.557
 5972SOL    HW224207   4.558   1.191   2.609
 5972SOL    HW324208   4.506   1.155   2.471
 5972SOL    MW424209   4.492   1.184   2.552
 5973SOL     OW24210   4.503   1.529   3.460
 5973SOL    HW224211   4.587   1.555   3.499
 5973SOL    HW324212   4.527   1.473   3.386
 5973SOL    MW424213   4.517   1.525   3.455
 5974SOL     OW24214   4.255   0.692   2.548
 5974SOL    HW224215   4.240   0.612   2.599
 5974SOL    HW324216   4.337   0.727   2.582
 5974SOL    MW424217   4.263   0.684   2.560
 5975SOL     OW24218   4.592   1.378   3.233
 5975SOL    HW224219   4.556   1.444   3.173
 5975SOL    HW324220   4.520   1.316   3.246
 5975SOL    MW424221   4.578   1.378   3.227
 5976SOL     OW24222   4.397   0.518   2.925
 5976SOL    HW224223   4.303   0.514   2.943
 5976SOL    HW324224   4.427   0.427   2.934
 5976SOL    MW424225   4.388   0.506   2.928
 5977SOL     OW24226   4.143   0.932   2.829
 5977SOL    HW224227   4.098   0.939   2.745
 5977SOL    HW324228   4.123   1.015   2.873
 5977SOL    MW424229   4.135   0.944   2.823
 5978SOL     OW24230   3.840   1.778   2.704
 5978SOL    HW224231   3.929   1.770   2.739
 5978SOL    HW324232   3.804   1.690   2.709
 5978SOL    MW424233   3.847   1.765   2.709
 5979SOL     OW24234   5.105   1.170   2.073
 5979SOL    HW224235   5.023   1.206   2.039
 5979SOL    HW324236   5.173   1.213   2.022
 5979SOL    MW424237   5.103   1.180   2.061
 5980SOL     OW24238   4.104   1.305   2.739
 5980SOL    HW224239   4.080   1.358   2.815
 5980SOL    HW324240   4.160   1.363   2.687
 5980SOL    MW424241   4.108   1.320   2.742
 5981SOL     OW24242   4.666   0.949   2.549
 5981SOL    HW224243   4.580   0.936   2.589
 5981SOL    HW324244   4.719   0.876   2.581
 5981SOL    MW424245   4.662   0.938   2.558
 5982SOL     OW24246   4.074   1.601   3.334
 5982SOL    HW224247   3.982   1.577   3.319
 5982SOL    HW324248   4.118   1.518   3.351
 5982SOL    MW424249   4.068   1.586   3.333
 5983SOL     OW24250   4.657   1.311   2.266
 5983SOL    HW224251   4.634   1.373   2.334
 5983SOL    HW324252   4.614   1.229   2.292
 5983SOL    MW424253   4.649   1.307   2.277
 5984SOL     OW24254   4.154   0.284   2.234
 5984SOL    HW224255   4.128   0.246   2.150
 5984SOL    HW324256   4.091   0.354   2.250
 5984SOL    MW424257   4.143   0.287   2.225
 5985SOL     OW24258   3.989   1.245   2.271
 5985SOL    HW224259   3.937   1.313   2.227
 5985SOL    HW324260   3.986   1.171   2.211
 5985SOL    MW424261   3.981   1.244   2.258
 5986SOL     OW24262   4.651   1.708   2.049
 5986SOL    HW224263   4.606   1.724   2.132
 5986SOL    HW324264   4.582   1.673   1.991
 5986SOL    MW424265   4.637   1.705   2.051
 5987SOL     OW24266   5.586   0.481   2.024
 5987SOL    HW224267   5.495   0.483   2.052
 5987SOL    HW324268   5.631   0.543   2.082
 5987SOL    MW424269   5.579   0.489   2.034
 5988SOL     OW24270   5.331   1.084   2.374
 5988SOL    HW224271   5.241   1.084   2.409
 5988SOL    HW324272   5.324   1.130   2.291
 5988SOL    MW424273   5.318   1.090   2.368
 5989SOL     OW24274   5.131   0.719   3.446
 5989SOL    HW224275   5.200   0.657   3.423
 5989SOL    HW324276   5.056   0.693   3.393
 5989SOL    MW424277   5.131   0.706   3.437
 5990SOL     OW24278   3.872   1.599   2.998
 5990SOL    HW224279   3.855   1.545   3.075
 5990SOL    HW324280   3.860   1.689   3.028
 5990SOL    MW424281   3.869   1.603   3.012
 5991SOL     OW24282   4.867   1.106   3.438
 5991SOL    HW224283   4.852   1.199   3.423
 5991SOL    HW324284   4.962   1.096   3.438
 5991SOL    MW424285   4.876   1.116   3.435
 5992SOL     OW24286   4.663   0.530   3.639
 5992SOL    HW224287   4.753   0.531   3.606
 5992SOL    HW324288   4.622   0.455   3.597
 5992SOL    MW424289   4.669   0.520   3.630
 5993SOL     OW24290   5.238   1.062   2.766
 5993SOL    HW224291   5.241   0.996   2.697
 5993SOL    HW324292   5.323   1.105   2.762
 5993SOL    MW424293   5.250   1.058   2.757
 5994SOL     OW24294   4.858   0.665   2.335
 5994SOL    HW224295   4.884   0.689   2.246
 5994SOL    HW324296   4.840   0.572   2.331
 5994SOL    MW424297   4.860   0.657   2.322
 5995SOL     OW24298   5.523   1.285   2.186
 5995SOL    HW224299   5.479   1.326   2.261
 5995SOL    HW324300   5.580   1.353   2.151
 5995SOL    MW424301   5.525   1.299   2.191
 5996SOL     OW24302   4.443   0.334   3.589
 5996SOL    HW224303   4.453   0.260   3.529
 5996SOL    HW324304   4.479   0.303   3.672
 5996SOL    MW424305   4.449   0.320   3.591
 5997SOL     OW24306   4.179   1.701   2.504
 5997SOL    HW224307   4.211   1.789   2.482
 5997SOL    HW324308   4.132   1.673   2.426
 5997SOL    MW424309   4.178   1.709   2.491
 5998SOL     OW24310   3.895   1.761   2.081
 5998SOL    HW224311   3.924   1.851   2.073
 5998SOL    HW324312   3.845   1.744   2.002
 5998SOL    MW424313   3.893   1.769   2.070
 5999SOL     OW24314   4.682   0.016   2.966
 5999SOL    HW224315   4.641   0.094   2.928
 5999SOL    HW324316   4.776   0.034   2.961
 5999SOL    MW424317   4.688   0.028   2.961
 6000SOL     OW24318   5.299   1.569   2.052
 6000SOL    HW224319   5.347   1.638   2.098
 6000SOL    HW324320   5.220   1.613   2.021
 6000SOL    MW424321   5.294   1.583   2.055
 6001SOL     OW24322   4.697   0.694   1.996
 6001SOL    HW224323   4.699   0.641   1.917
 6001SOL    HW324324   4.785   0.731   2.002
 6001SOL    MW424325   4.709   0.693   1.985
 6002SOL     OW24326   5.311   0.620   2.332
 6002SOL    HW224327   5.350   0.620   2.419
 6002SOL    HW324328   5.252   0.696   2.332
 6002SOL    MW424329   5.308   0.631   2.343
 6003SOL     OW24330   4.628   0.987   3.461
 6003SOL    HW224331   4.605   0.967   3.551
 6003SOL    HW324332   4.713   1.031   3.466
 6003SOL    MW424333   4.635   0.990   3.473
 6004SOL     OW24334   4.708   0.124   3.221
 6004SOL    HW224335   4.714   0.086   3.134
 6004SOL    HW324336   4.697   0.218   3.206
 6004SOL    MW424337   4.709   0.132   3.209
 6005SOL     OW24338   4.797   0.613   3.055
 6005SOL    HW224339   4.872   0.642   3.002
 6005SOL    HW324340   4.729   0.678   3.039
 6005SOL    MW424341   4.798   0.625   3.045
 6006SOL     OW24342   5.347   0.581   3.332
 6006SOL    HW224343   5.328   0.490   3.311
 6006SOL    HW324344   5.325   0.630   3.253
 6006SOL    MW424345   5.342   0.574   3.319
 6007SOL     OW24346   5.489   1.675   3.236
 6007SOL    HW224347   5.417   1.637   3.287
 6007SOL    HW324348   5.506   1.760   3.277
 6007SOL    MW424349   5.483   1.680   3.248
 6008SOL     OW24350   4.794   0.319   3.438
 6008SOL    HW224351   4.760   0.358   3.357
 6008SOL    HW324352   4.772   0.227   3.431
 6008SOL    MW424353   4.787   0.312   3.428
 6009SOL     OW24354   5.203   1.133   3.514
 6009SOL    HW224355   5.285   1.174   3.544
 6009SOL    HW324356   5.166   1.095   3.594
 6009SOL    MW424357   5.209   1.134   3.529
 6010SOL     OW24358   5.498   0.506   2.498
 6010SOL    HW224359   5.587   0.475   2.515
 6010SOL    HW324360   5.441   0.446   2.546
 6010SOL    MW424361   5.501   0.494   2.507
 6011SOL     OW24362   3.924   0.220   2.527
 6011SOL    HW224363   3.915   0.160   2.453
 6011SOL    HW324364   3.857   0.191   2.590
 6011SOL    MW424365   3.914   0.207   2.525
 6012SOL     OW24366   4.867   1.313   2.088
 6012SOL    HW224367   4.817   1.315   2.170
 6012SOL    HW324368   4.801   1.331   2.020
 6012SOL    MW424369   4.853   1.315   2.090
 6013SOL     OW24370   3.871   0.393   2.890
 6013SOL    HW224371   3.843   0.484   2.899
 6013SOL    HW324372   3.808   0.354   2.829
 6013SOL    MW424373   3.858   0.399   2.884
 6014SOL     OW24374   4.330   1.731   2.196
 6014SOL    HW224375   4.251   1.689   2.229
 6014SOL    HW324376   4.396   1.714   2.263
 6014SOL    MW424377   4.329   1.723   2.209
 6015SOL     OW24378   5.458   1.251   3.593
 6015SOL    HW224379   5.508   1.177   3.625
 6015SOL    HW324380   5.404   1.278   3.668
 6015SOL    MW424381   5.458   1.245   3.606
 6016SOL     OW24382   4.466   1.146   1.903
 6016SOL    HW224383   4.388   1.092   1.890
 6016SOL    HW324384   4.437   1.219   1.956
 6016SOL    MW424385   4.452   1.148   1.908
 6017SOL     OW24386   5.592   0.886   3.095
 6017SOL    HW224387   5.608   0.924   3.008
 6017SOL    HW324388   5.626   0.952   3.156
 6017SOL    MW424389   5.599   0.899   3.091
 6018SOL     OW24390   5.384   1.595   2.764
 6018SOL    HW224391   5.413   1.662   2.825
 6018SOL    HW324392   5.365   1.519   2.819
 6018SOL    MW424393   5.386   1.595   2.779
 6019SOL     OW24394   5.047   1.662   1.971
 6019SOL    HW224395   4.973   1.625   2.021
 6019SOL    HW324396   5.055   1.752   2.004
 6019SOL    MW424397   5.038   1.669   1.983
 6020SOL     OW24398   3.855   0.668   3.060
 6020SOL    HW224399   3.917   0.698   3.126
 6020SOL    HW324400   3.789   0.737   3.054
 6020SOL    MW424401   3.854   0.681   3.067
 6021SOL     OW24402   5.271   1.336   1.913
 6021SOL    HW224403   5.218   1.385   1.849
 6021SOL    HW324404   5.302   1.402   1.974
 6021SOL    MW424405   5.269   1.350   1.911
 6022SOL     OW24406   4.496   0.225   1.968
 6022SOL    HW224407   4.444   0.145   1.956
 6022SOL    HW324408   4.583   0.202   1.936
 6022SOL    MW424409   4.499   0.211   1.962
 6023SOL     OW24410   3.950   1.777   3.512
 6023SOL    HW224411   3.924   1.845   3.450
 6023SOL    HW324412   3.998   1.714   3.460
 6023SOL    MW424413   3.952   1.777   3.498
 6024SOL     OW24414   4.002   1.096   3.019
 6024SOL    HW224415   4.055   1.171   3.044
 6024SOL    HW324416   3.921   1.134   2.985
 6024SOL    MW424417   3.998   1.111   3.019
 6025SOL     OW24418   4.542   1.000   3.007
 6025SOL    HW224419   4.570   0.909   3.019
 6025SOL    HW324420   4.471   0.994   2.943
 6025SOL    MW424421   4.535   0.988   3.002
 6026SOL     OW24422   3.857   0.865   2.425
 6026SOL    HW224423   3.948   0.880   2.452
 6026SOL    HW324424   3.860   0.786   2.371
 6026SOL    MW424425   3.869   0.857   2.423
 6027SOL     OW24426   4.093   0.573   3.679
 6027SOL    HW224427   4.040   0.653   3.686
 6027SOL    HW324428   4.163   0.585   3.744
 6027SOL    MW424429   4.095   0.586   3.687
 6028SOL     OW24430   4.479   0.123   3.386
 6028SOL    HW224431   4.456   0.031   3.388
 6028SOL    HW324432   4.565   0.125   3.343
 6028SOL    MW424433   4.486   0.113   3.382
 6029SOL     OW24434   4.163   0.647   3.425
 6029SOL    HW224435   4.243   0.697   3.411
 6029SOL    HW324436   4.154   0.641   3.520
 6029SOL    MW424437   4.172   0.653   3.435
 6030SOL     OW24438   4.484   1.797   2.799
 6030SOL    HW224439   4.573   1.812   2.829
 6030SOL    HW324440   4.479   1.844   2.715
 6030SOL    MW424441   4.494   1.805   2.792
 6031SOL     OW24442   3.865   1.477   2.464
 6031SOL    HW224443   3.837   1.516   2.546
 6031SOL    HW324444   3.885   1.386   2.486
 6031SOL    MW424445   3.863   1.469   2.477
 6032SOL     OW24446   4.698   1.520   2.499
 6032SOL    HW224447   4.781   1.474   2.483
 6032SOL    HW324448   4.688   1.519   2.595
 6032SOL    MW424449   4.708   1.513   2.509
 6033SOL     OW24450   5.530   0.665   2.813
 6033SOL    HW224451   5.619   0.695   2.795
 6033SOL    HW324452   5.510   0.605   2.742
 6033SOL    MW424453   5.539   0.662   2.802
 6034SOL     OW24454   5.381   0.844   3.693
 6034SOL    HW224455   5.436   0.768   3.674
 6034SOL    HW324456   5.383   0.852   3.788
 6034SOL    MW424457   5.389   0.835   3.701
 6035SOL     OW24458   4.431   1.577   1.904
 6035SOL    HW224459   4.371   1.646   1.874
 6035SOL    HW324460   4.376   1.519   1.957
 6035SOL    MW424461   4.415   1.579   1.906
 6036SOL     OW24462   4.869   0.222   2.127
 6036SOL    HW224463   4.802   0.198   2.064
 6036SOL    HW324464   4.934   0.271   2.076
 6036SOL    MW424465   4.869   0.224   2.112
 6037SOL     OW24466   4.676   0.406   3.212
 6037SOL    HW224467   4.595   0.447   3.240
 6037SOL    HW324468   4.723   0.474   3.164
 6037SOL    MW424469   4.671   0.421   3.210
 6038SOL     OW24470   4.936   0.744   2.835
 6038SOL    HW224471   4.949   0.838   2.845
 6038SOL    HW324472   4.897   0.734   2.749
 6038SOL    MW424473   4.932   0.755   2.825
 6039SOL     OW24474   4.388   0.939   2.639
 6039SOL    HW224475   4.299   0.930   2.672
 6039SOL    HW324476   4.392   1.029   2.607
 6039SOL    MW424477   4.377   0.950   2.639
 6040SOL     OW24478   5.187   0.522   2.634
 6040SOL    HW224479   5.132   0.443   2.633
 6040SOL    HW324480   5.169   0.563   2.718
 6040SOL    MW424481   5.177   0.517   2.643
 6041SOL     OW24482   4.158   0.209   3.451
 6041SOL    HW224483   4.079   0.227   3.503
 6041SOL    HW324484   4.153   0.271   3.378
 6041SOL    MW424485   4.148   0.219   3.448
 6042SOL     OW24486   4.806   0.726   2.591
 6042SOL    HW224487   4.743   0.658   2.615
 6042SOL    HW324488   4.826   0.707   2.499
 6042SOL    MW424489   4.800   0.713   2.583
 6043SOL     OW24490   4.062   1.621   2.293
 6043SOL    HW224491   4.023   1.668   2.219
 6043SOL    HW324492   3.996   1.556   2.318
 6043SOL    MW424493   4.049   1.619   2.287
 6044SOL     OW24494   4.554   1.030   2.317
 6044SOL    HW224495   4.556   1.004   2.224
 6044SOL    HW324496   4.612   0.967   2.360
 6044SOL    MW424497   4.562   1.019   2.311
 6045SOL     OW24498   5.107   1.590   3.089
 6045SOL    HW224499   5.032   1.636   3.127
 6045SOL    HW324500   5.089   1.497   3.106
 6045SOL    MW424501   5.096   1.584   3.097
 6046SOL     OW24502   5.111   1.798   2.519
 6046SOL    HW224503   5.054   1.751   2.458
 6046SOL    HW324504   5.197   1.759   2.506
 6046SOL    MW424505   5.114   1.789   2.509
 6047SOL     OW24506   3.869   1.208   2.584
 6047SOL    HW224507   3.933   1.240   2.647
 6047SOL    HW324508   3.918   1.144   2.532
 6047SOL    MW424509   3.884   1.204   2.585
 6048SOL     OW24510   4.369   1.284   3.566
 6048SOL    HW224511   4.417   1.367   3.553
 6048SOL    HW324512   4.426   1.232   3.622
 6048SOL    MW424513   4.383   1.288   3.572
 6049SOL     OW24514   3.945   1.526   3.706
 6049SOL    HW224515   4.001   1.450   3.721
 6049SOL    HW324516   3.894   1.504   3.628
 6049SOL    MW424517   3.945   1.513   3.697
 6050SOL     OW24518   5.044   0.378   1.985
 6050SOL    HW224519   5.017   0.444   1.921
 6050SOL    HW324520   5.114   0.421   2.035
 6050SOL    MW424521   5.049   0.391   1.982
 6051SOL     OW24522   4.712   0.083   1.922
 6051SOL    HW224523   4.768   0.075   1.844
 6051SOL    HW324524   4.689  -0.007   1.944
 6051SOL    MW424525   4.717   0.070   1.915
 6052SOL     OW24526   5.217   0.934   2.127
 6052SOL    HW224527   5.184   1.023   2.117
 6052SOL    HW324528   5.182   0.905   2.212
 6052SOL    MW424529   5.207   0.943   2.138
 6053SOL     OW24530   4.830   1.363   3.315
 6053SOL    HW224531   4.741   1.369   3.283
 6053SOL    HW324532   4.874   1.442   3.283
 6053SOL    MW424533   4.825   1.373   3.307
 6054SOL     OW24534   4.123   0.031   3.657
 6054SOL    HW224535   4.051  -0.004   3.605
 6054SOL    HW324536   4.181   0.072   3.592
 6054SOL    MW424537   4.121   0.032   3.642
 6055SOL     OW24538   4.147   1.521   2.956
 6055SOL    HW224539   4.192   1.583   3.013
 6055SOL    HW324540   4.054   1.540   2.969
 6055SOL    MW424541   4.140   1.531   2.963
 6056SOL     OW24542   5.587   1.050   3.310
 6056SOL    HW224543   5.502   1.063   3.269
 6056SOL    HW324544   5.567   1.014   3.397
 6056SOL    MW424545   5.574   1.046   3.315
 6057SOL     OW24546   4.569   1.589   3.064
 6057SOL    HW224547   4.593   1.578   2.973
 6057SOL    HW324548   4.492   1.646   3.062
 6057SOL    MW424549   4.561   1.594   3.053
 6058SOL     OW24550   4.211   0.972   1.919
 6058SOL    HW224551   4.134   0.985   1.975
 6058SOL    HW324552   4.175   0.936   1.838
 6058SOL    MW424553   4.197   0.968   1.916
 6059SOL     OW24554   4.864   0.945   2.162
 6059SOL    HW224555   4.774   0.966   2.137
 6059SOL    HW324556   4.891   1.018   2.218
 6059SOL    MW424557   4.856   0.957   2.165
 6060SOL     OW24558   4.364   1.294   2.854
 6060SOL    HW224559   4.357   1.273   2.948
 6060SOL    HW324560   4.282   1.262   2.817
 6060SOL    MW424561   4.352   1.288   2.861
 6061SOL     OW24562   5.228   0.304   3.256
 6061SOL    HW224563   5.175   0.306   3.336
 6061SOL    HW324564   5.213   0.217   3.219
 6061SOL    MW424565   5.220   0.294   3.261
 6062SOL     OW24566   3.810   1.386   3.517
 6062SOL    HW224567   3.854   1.319   3.463
 6062SOL    HW324568   3.725   1.348   3.537
 6062SOL    MW424569   3.805   1.372   3.513
 6063SOL     OW24570   4.493   0.061   2.569
 6063SOL    HW224571   4.422   0.122   2.551
 6063SOL    HW324572   4.544   0.058   2.488
 6063SOL    MW424573   4.489   0.067   2.556
 6064SOL     OW24574   4.251   1.301   2.318
 6064SOL    HW224575   4.244   1.333   2.408
 6064SOL    HW324576   4.161   1.285   2.290
 6064SOL    MW424577   4.239   1.303   2.325
 6065SOL     OW24578   4.846   1.694   3.227
 6065SOL    HW224579   4.766   1.679   3.177
 6065SOL    HW324580   4.853   1.789   3.234
 6065SOL    MW424581   4.837   1.705   3.221
 6066SOL     OW24582   4.960   1.659   2.717
 6066SOL    HW224583   5.007   1.732   2.676
 6066SOL    HW324584   4.881   1.698   2.753
 6066SOL    MW424585   4.955   1.674   2.716
 6067SOL     OW24586   5.368   1.754   2.992
 6067SOL    HW224587   5.411   1.724   3.072
 6067SOL    HW324588   5.287   1.702   2.989
 6067SOL    MW424589   5.363   1.743   3.002
 6068SOL     OW24590   4.453   0.718   3.699
 6068SOL    HW224591   4.523   0.660   3.671
 6068SOL    HW324592   4.396   0.663   3.754
 6068SOL    MW424593   4.455   0.705   3.703
 6069SOL     OW24594   5.240   0.930   3.332
 6069SOL    HW224595   5.245   0.983   3.412
 6069SOL    HW324596   5.202   0.847   3.360
 6069SOL    MW424597   5.236   0.925   3.347
 6070SOL     OW24598   4.880   0.065   3.578
 6070SOL    HW224599   4.875  -0.028   3.559
 6070SOL    HW324600   4.963   0.076   3.624
 6070SOL    MW424601   4.888   0.054   3.582
 6071SOL     OW24602   4.254   0.585   2.032
 6071SOL    HW224603   4.220   0.641   2.102
 6071SOL    HW324604   4.325   0.535   2.072
 6071SOL    MW424605   4.260   0.586   2.046
 6072SOL     OW24606   5.350   1.336   2.854
 6072SOL    HW224607   5.385   1.318   2.767
 6072SOL    HW324608   5.255   1.337   2.841
 6072SOL    MW424609   5.342   1.333   2.841
 6073SOL     OW24610   4.779   0.984   3.223
 6073SOL    HW224611   4.822   1.019   3.301
 6073SOL    HW324612   4.762   1.061   3.169
 6073SOL    MW424613   4.782   0.999   3.226
 6074SOL     OW24614   5.310   0.471   2.096
 6074SOL    HW224615   5.302   0.542   2.033
 6074SOL    HW324616   5.328   0.515   2.179
 6074SOL    MW424617   5.311   0.485   2.098
 6075SOL     OW24618   4.170   0.126   2.525
 6075SOL    HW224619   4.220   0.169   2.456
 6075SOL    HW324620   4.085   0.170   2.525
 6075SOL    MW424621   4.167   0.139   2.516
 6076SOL     OW24622   3.929   1.188   3.385
 6076SOL    HW224623   3.957   1.141   3.463
 6076SOL    HW324624   3.850   1.143   3.356
 6076SOL    MW424625   3.922   1.177   3.391
 6077SOL     OW24626   4.437   0.515   3.352
 6077SOL    HW224627   4.409   0.603   3.376
 6077SOL    HW324628   4.406   0.459   3.423
 6077SOL    MW424629   4.429   0.518   3.364
 6078SOL     OW24630   4.979   0.733   2.071
 6078SOL    HW224631   5.026   0.751   1.990
 6078SOL    HW324632   4.945   0.817   2.099
 6078SOL    MW424633   4.981   0.747   2.064
 6079SOL     OW24634   4.092   0.911   2.565
 6079SOL    HW224635   4.150   0.967   2.513
 6079SOL    HW324636   4.136   0.826   2.567
 6079SOL    MW424637   4.105   0.908   2.558
 6080SOL     OW24638   5.232   0.263   2.402
 6080SOL    HW224639   5.154   0.213   2.427
 6080SOL    HW324640   5.203   0.354   2.402
 6080SOL    MW424641   5.218   0.267   2.405
 6081SOL     OW24642   4.818   0.225   2.561
 6081SOL    HW224643   4.838   0.300   2.505
 6081SOL    HW324644   4.798   0.264   2.646
 6081SOL    MW424645   4.819   0.241   2.565
 6082SOL     OW24646   4.714   1.475   1.893
 6082SOL    HW224647   4.741   1.553   1.845
 6082SOL    HW324648   4.621   1.490   1.912
 6082SOL    MW424649   4.705   1.488   1.889
 6083SOL     OW24650   5.578   0.998   3.580
 6083SOL    HW224651   5.491   0.978   3.616
 6083SOL    HW324652   5.632   0.924   3.605
 6083SOL    MW424653   5.573   0.987   3.588
 6084SOL     OW24654   3.799   1.511   2.737
 6084SOL    HW224655   3.831   1.515   2.828
 6084SOL    HW324656   3.704   1.519   2.745
 6084SOL    MW424657   3.791   1.514   2.750
 6085SOL     OW24658   3.754   0.637   2.284
 6085SOL    HW224659   3.694   0.609   2.354
 6085SOL    HW324660   3.828   0.577   2.290
 6085SOL    MW424661   3.756   0.626   2.293
 6086SOL     OW24662   5.322   1.849   3.718
 6086SOL    HW224663   5.367   1.773   3.683
 6086SOL    HW324664   5.360   1.862   3.805
 6086SOL    MW424665   5.332   1.842   3.724
 6087SOL     OW24666   4.922   1.368   2.444
 6087SOL    HW224667   4.945   1.319   2.522
 6087SOL    HW324668   5.003   1.410   2.416
 6087SOL    MW424669   4.935   1.368   2.451
 6088SOL     OW24670   4.180   0.376   3.173
 6088SOL    HW224671   4.213   0.457   3.213
 6088SOL    HW324672   4.153   0.402   3.085
 6088SOL    MW424673   4.179   0.390   3.167
 6089SOL     OW24674   4.134   0.343   2.909
 6089SOL    HW224675   4.164   0.257   2.880
 6089SOL    HW324676   4.039   0.336   2.912
 6089SOL    MW424677   4.126   0.332   2.907
 6090SOL     OW24678   4.963   0.552   3.600
 6090SOL    HW224679   5.015   0.487   3.553
 6090SOL    HW324680   4.921   0.603   3.530
 6090SOL    MW424681   4.964   0.549   3.583
 6091SOL     OW24682   5.062   0.347   3.461
 6091SOL    HW224683   4.969   0.331   3.448
 6091SOL    HW324684   5.088   0.285   3.529
 6091SOL    MW424685   5.052   0.337   3.468
 6092SOL     OW24686   4.277   0.121   2.800
 6092SOL    HW224687   4.287   0.030   2.826
 6092SOL    HW324688   4.233   0.117   2.715
 6092SOL    MW424689   4.273   0.109   2.792
 6093SOL     OW24690   4.371   1.736   3.346
 6093SOL    HW224691   4.288   1.721   3.391
 6093SOL    HW324692   4.430   1.669   3.381
 6093SOL    MW424693   4.369   1.726   3.356
 6094SOL     OW24694   5.428   0.443   2.971
 6094SOL    HW224695   5.361   0.476   3.031
 6094SOL    HW324696   5.471   0.521   2.937
 6094SOL    MW424697   5.426   0.458   2.975
 6095SOL     OW24698   5.606   1.163   2.941
 6095SOL    HW224699   5.599   1.103   2.866
 6095SOL    HW324700   5.532   1.223   2.930
 6095SOL    MW424701   5.596   1.163   2.930
 6096SOL     OW24702   4.988   1.025   2.859
 6096SOL    HW224703   5.002   0.997   2.950
 6096SOL    HW324704   5.074   1.056   2.831
 6096SOL    MW424705   5.001   1.026   2.868
 6097SOL     OW24706   5.071   0.520   3.138
 6097SOL    HW224707   5.092   0.521   3.045
 6097SOL    HW324708   5.116   0.442   3.171
 6097SOL    MW424709   5.078   0.510   3.130
 6098SOL     OW24710   5.564   0.651   3.680
 6098SOL    HW224711   5.601   0.596   3.749
 6098SOL    HW324712   5.589   0.608   3.598
 6098SOL    MW424713   5.571   0.639   3.679
 6099SOL     OW24714   5.111   0.949   3.731
 6099SOL    HW224715   5.177   0.897   3.685
 6099SOL    HW324716   5.131   0.936   3.824
 6099SOL    MW424717   5.122   0.940   3.738
 6100SOL     OW24718   5.122   0.810   2.358
 6100SOL    HW224719   5.037   0.780   2.328
 6100SOL    HW324720   5.114   0.817   2.453
 6100SOL    MW424721   5.110   0.808   2.367
 6101SOL     OW24722   4.198   1.273   3.089
 6101SOL    HW224723   4.210   1.300   3.180
 6101SOL    HW324724   4.179   1.354   3.042
 6101SOL    MW424725   4.197   1.288   3.094
 6102SOL     OW24726   4.482   0.253   2.912
 6102SOL    HW224727   4.455   0.255   3.003
 6102SOL    HW324728   4.412   0.205   2.867
 6102SOL    MW424729   4.470   0.249   2.919
 6103SOL     OW24730   4.336   1.745   3.074
 6103SOL    HW224731   4.388   1.822   3.051
 6103SOL    HW324732   4.345   1.737   3.169
 6103SOL    MW424733   4.345   1.752   3.085
 6104SOL     OW24734   5.238   1.330   3.306
 6104SOL    HW224735   5.223   1.259   3.369
 6104SOL    HW324736   5.284   1.288   3.234
 6104SOL    MW424737   5.244   1.314   3.306
 6105SOL     OW24738   4.312   1.061   3.423
 6105SOL    HW224739   4.349   1.066   3.335
 6105SOL    HW324740   4.351   1.134   3.470
 6105SOL    MW424741   4.322   1.071   3.418
 6106SOL     OW24742   4.492   1.104   3.235
 6106SOL    HW224743   4.551   1.050   3.288
 6106SOL    HW324744   4.507   1.076   3.145
 6106SOL    MW424745   4.502   1.093   3.231
 6107SOL     OW24746   4.495   0.476   2.084
 6107SOL    HW224747   4.568   0.525   2.047
 6107SOL    HW324748   4.511   0.385   2.058
 6107SOL    MW424749   4.507   0.471   2.077
 6108SOL     OW24750   5.303   1.593   3.407
 6108SOL    HW224751   5.345   1.578   3.492
 6108SOL    HW324752   5.294   1.506   3.369
 6108SOL    MW424753   5.307   1.581   3.414
 6109SOL     OW24754   4.963   0.072   2.998
 6109SOL    HW224755   5.018   0.081   2.920
 6109SOL    HW324756   5.018   0.106   3.069
 6109SOL    MW424757   4.977   0.077   2.997
 6110SOL     OW24758   3.970   0.985   2.182
 6110SOL    HW224759   3.907   1.001   2.111
 6110SOL    HW324760   3.917   0.948   2.253
 6110SOL    MW424761   3.955   0.982   2.182
 6111SOL     OW24762   4.326   1.339   2.041
 6111SOL    HW224763   4.341   1.315   2.133
 6111SOL    HW324764   4.234   1.317   2.025
 6111SOL    MW424765   4.316   1.332   2.051
 6112SOL     OW24766   4.865   1.570   2.193
 6112SOL    HW224767   4.873   1.488   2.144
 6112SOL    HW324768   4.784   1.609   2.160
 6112SOL    MW424769   4.855   1.565   2.183
 6113SOL     OW24770   4.124   1.728   2.762
 6113SOL    HW224771   4.128   1.639   2.797
 6113SOL    HW324772   4.150   1.719   2.671
 6113SOL    MW424773   4.127   1.716   2.754
 6114SOL     OW24774   4.741   1.206   3.005
 6114SOL    HW224775   4.673   1.140   3.021
 6114SOL    HW324776   4.759   1.200   2.912
 6114SOL    MW424777   4.734   1.197   2.996
 6115SOL     OW24778   3.830   1.481   3.256
 6115SOL    HW224779   3.820   1.439   3.342
 6115SOL    HW324780   3.751   1.534   3.246
 6115SOL    MW424781   3.819   1.482   3.267
 6116SOL     OW24782   4.734   0.345   2.826
 6116SOL    HW224783   4.664   0.297   2.871
 6116SOL    HW324784   4.766   0.408   2.890
 6116SOL    MW424785   4.729   0.347   2.840
 6117SOL     OW24786   4.385   0.781   3.446
 6117SOL    HW224787   4.378   0.876   3.434
 6117SOL    HW324788   4.394   0.770   3.541
 6117SOL    MW424789   4.386   0.793   3.456
 6118SOL     OW24790   4.106   1.296   3.704
 6118SOL    HW224791   4.178   1.298   3.641
 6118SOL    HW324792   4.076   1.205   3.703
 6118SOL    MW424793   4.111   1.285   3.696
 6119SOL     OW24794   5.390   1.589   3.655
 6119SOL    HW224795   5.363   1.586   3.746
 6119SOL    HW324796   5.486   1.593   3.658
 6119SOL    MW424797   5.400   1.589   3.667
 6120SOL     OW24798   4.201   0.451   2.639
 6120SOL    HW224799   4.272   0.399   2.602
 6120SOL    HW324800   4.187   0.416   2.726
 6120SOL    MW424801   4.209   0.440   2.646
 6121SOL     OW24802   3.756   1.786   3.711
 6121SOL    HW224803   3.806   1.764   3.633
 6121SOL    HW324804   3.764   1.881   3.719
 6121SOL    MW424805   3.764   1.795   3.702
 6122SOL     OW24806   4.517   1.544   2.715
 6122SOL    HW224807   4.445   1.481   2.728
 6122SOL    HW324808   4.478   1.629   2.733
 6122SOL    MW424809   4.501   1.547   2.718
 6123SOL     OW24810   4.837   0.392   2.363
 6123SOL    HW224811   4.859   0.329   2.295
 6123SOL    HW324812   4.742   0.384   2.374
 6123SOL    MW424813   4.827   0.383   2.355
 6124SOL     OW24814   3.922   0.082   2.295
 6124SOL    HW224815   3.993   0.103   2.234
 6124SOL    HW324816   3.876   0.010   2.253
 6124SOL    MW424817   3.926   0.076   2.281
 6125SOL     OW24818   3.753   0.549   3.438
 6125SOL    HW224819   3.817   0.615   3.413
 6125SOL    HW324820   3.672   0.576   3.395
 6125SOL    MW424821   3.751   0.561   3.430
 6126SOL     OW24822   5.491   1.456   2.395
 6126SOL    HW224823   5.461   1.389   2.456
 6126SOL    HW324824   5.585   1.462   2.409
 6126SOL    MW424825   5.499   1.448   2.405
 6127SOL     OW24826   5.047   1.133   2.325
 6127SOL    HW224827   5.019   1.219   2.358
 6127SOL    HW324828   5.075   1.149   2.235
 6127SOL    MW424829   5.047   1.147   2.317
 6128SOL     OW24830   4.709   0.053   2.378
 6128SOL    HW224831   4.746   0.112   2.443
 6128SOL    HW324832   4.686   0.109   2.304
 6128SOL    MW424833   4.710   0.068   2.377
 6129SOL     OW24834   5.562   0.935   2.800
 6129SOL    HW224835   5.553   0.967   2.711
 6129SOL    HW324836   5.515   0.851   2.800
 6129SOL    MW424837   5.555   0.928   2.790
 6130SOL     OW24838   3.938   0.775   3.379
 6130SOL    HW224839   3.959   0.844   3.317
 6130SOL    HW324840   4.018   0.722   3.384
 6130SOL    MW424841   3.951   0.776   3.373
 6131SOL     OW24842   5.474   0.866   2.501
 6131SOL    HW224843   5.568   0.855   2.489
 6131SOL    HW324844   5.450   0.938   2.442
 6131SOL    MW424845   5.484   0.874   2.492
 6132SOL     OW24846   3.923   0.790   3.646
 6132SOL    HW224847   3.849   0.734   3.672
 6132SOL    HW324848   3.918   0.793   3.551
 6132SOL    MW424849   3.912   0.783   3.636
 6133SOL     OW24850   4.089   0.077   3.096
 6133SOL    HW224851   4.132   0.161   3.116
 6133SOL    HW324852   4.162   0.015   3.089
 6133SOL    MW424853   4.104   0.080   3.097
 6134SOL     OW24854   4.130   0.744   2.274
 6134SOL    HW224855   4.130   0.839   2.259
 6134SOL    HW324856   4.207   0.728   2.328
 6134SOL    MW424857   4.140   0.755   2.279
 6135SOL     OW24858   4.906   0.603   3.338
 6135SOL    HW224859   4.942   0.576   3.254
 6135SOL    HW324860   4.819   0.637   3.317
 6135SOL    MW424861   4.900   0.604   3.325
 6136SOL     OW24862   3.889   0.475   2.563
 6136SOL    HW224863   3.951   0.482   2.636
 6136SOL    HW324864   3.889   0.382   2.540
 6136SOL    MW424865   3.897   0.464   2.570
 6137SOL     OW24866   5.436   1.815   2.095
 6137SOL    HW224867   5.503   1.848   2.035
 6137SOL    HW324868   5.393   1.894   2.129
 6137SOL    MW424869   5.438   1.830   2.091
 6138SOL     OW24870   4.571   0.736   3.047
 6138SOL    HW224871   4.529   0.654   3.023
 6138SOL    HW324872   4.572   0.735   3.143
 6138SOL    MW424873   4.564   0.725   3.056
 6139SOL     OW24874   5.242   1.869   3.446
 6139SOL    HW224875   5.245   1.775   3.429
 6139SOL    HW324876   5.265   1.877   3.538
 6139SOL    MW424877   5.245   1.857   3.456
 6140SOL     OW24878   4.375   0.206   3.152
 6140SOL    HW224879   4.306   0.269   3.173
 6140SOL    HW324880   4.402   0.170   3.237
 6140SOL    MW424881   4.369   0.209   3.165
 6141SOL     OW24882   3.758   1.047   2.021
 6141SOL    HW224883   3.727   1.112   2.084
 6141SOL    HW324884   3.707   0.969   2.040
 6141SOL    MW424885   3.748   1.044   2.031
 6142SOL     OW24886   5.202   0.798   2.613
 6142SOL    HW224887   5.282   0.813   2.562
 6142SOL    HW324888   5.195   0.703   2.619
 6142SOL    MW424889   5.211   0.787   2.608
 6143SOL     OW24890   4.342   1.847   1.963
 6143SOL    HW224891   4.247   1.847   1.955
 6143SOL    HW324892   4.358   1.793   2.041
 6143SOL    MW424893   4.332   1.841   1.972
 6144SOL     OW24894   4.652   0.724   3.310
 6144SOL    HW224895   4.721   0.791   3.307
 6144SOL    HW324896   4.585   0.762   3.366
 6144SOL    MW424897   4.653   0.737   3.317
 6145SOL     OW24898   4.070   1.024   3.558
 6145SOL    HW224899   4.024   0.940   3.560
 6145SOL    HW324900   4.127   1.018   3.482
 6145SOL    MW424901   4.072   1.012   3.550
 6146SOL     OW24902   5.187   0.667   1.879
 6146SOL    HW224903   5.115   0.643   1.821
 6146SOL    HW324904   5.253   0.704   1.821
 6146SOL    MW424905   5.186   0.669   1.864
 6147SOL     OW24906   4.321   1.399   2.559
 6147SOL    HW224907   4.386   1.332   2.580
 6147SOL    HW324908   4.373   1.476   2.536
 6147SOL    MW424909   4.336   1.401   2.558
 6148SOL     OW24910   4.582   0.564   2.689
 6148SOL    HW224911   4.522   0.582   2.761
 6148SOL    HW324912   4.616   0.476   2.708
 6148SOL    MW424913   4.578   0.554   2.702
 6149SOL     OW24914   4.807   1.147   2.708
 6149SOL    HW224915   4.899   1.128   2.726
 6149SOL    HW324916   4.780   1.077   2.648
 6149SOL    MW424917   4.815   1.135   2.702
 6150SOL     OW24918   4.600   0.967   2.063
 6150SOL    HW224919   4.586   0.879   2.028
 6150SOL    HW324920   4.551   1.024   2.004
 6150SOL    MW424921   4.592   0.962   2.051
 6151SOL     OW24922   5.081   1.385   2.804
 6151SOL    HW224923   5.054   1.469   2.769
 6151SOL    HW324924   5.041   1.380   2.891
 6151SOL    MW424925   5.074   1.394   2.810
 6152SOL     OW24926   5.000   1.333   3.072
 6152SOL    HW224927   5.011   1.300   3.161
 6152SOL    HW324928   4.919   1.292   3.041
 6152SOL    MW424929   4.990   1.325   3.078
 6153SOL     OW24930   4.013   0.691   2.842
 6153SOL    HW224931   3.963   0.690   2.923
 6153SOL    HW324932   4.033   0.783   2.826
 6153SOL    MW424933   4.009   0.703   2.850
 6154SOL     OW24934   5.080   1.455   3.604
 6154SOL    HW224935   5.080   1.549   3.620
 6154SOL    HW324936   5.125   1.445   3.520
 6154SOL    MW424937   5.086   1.465   3.595
 6155SOL     OW24938   4.608   0.736   2.279
 6155SOL    HW224939   4.588   0.722   2.186
 6155SOL    HW324940   4.701   0.715   2.286
 6155SOL    MW424941   4.618   0.731   2.268
 6156SOL     OW24942   3.935   0.359   3.583
 6156SOL    HW224943   3.892   0.418   3.520
 6156SOL    HW324944   4.003   0.414   3.623
 6156SOL    MW424945   3.939   0.374   3.580
 6157SOL     OW24946   5.047   0.979   3.128
 6157SOL    HW224947   5.110   0.976   3.201
 6157SOL    HW324948   4.963   0.997   3.170
 6157SOL    MW424949   5.043   0.981   3.143
 6158SOL     OW24950   4.591   1.694   2.317
 6158SOL    HW224951   4.649   1.765   2.344
 6158SOL    HW324952   4.614   1.622   2.375
 6158SOL    MW424953   4.602   1.694   2.328
 6159SOL     OW24954   3.834  -0.001   3.006
 6159SOL    HW224955   3.825   0.000   2.911
 6159SOL    HW324956   3.928   0.011   3.021
 6159SOL    MW424957   3.846   0.002   2.997
 6160SOL     OW24958   5.471   1.192   2.626
 6160SOL    HW224959   5.450   1.138   2.549
 6160SOL    HW324960   5.567   1.190   2.630
 6160SOL    MW424961   5.480   1.185   2.615
 6161SOL     OW24962   4.163   1.337   3.369
 6161SOL    HW224963   4.084   1.287   3.392
 6161SOL    HW324964   4.233   1.296   3.419
 6161SOL    MW424965   4.161   1.325   3.379
 6162SOL     OW24966   4.047   0.126   2.052
 6162SOL    HW224967   3.976   0.181   2.020
 6162SOL    HW324968   4.089   0.092   1.973
 6162SOL    MW424969   4.043   0.128   2.038
 6163SOL     OW24970   5.171   0.623   2.888
 6163SOL    HW224971   5.094   0.669   2.854
 6163SOL    HW324972   5.228   0.692   2.922
 6163SOL    MW424973   5.168   0.638   2.888
 6164SOL     OW24974   3.803   0.225   1.901
 6164SOL    HW224975   3.770   0.304   1.945
 6164SOL    HW324976   3.858   0.258   1.830
 6164SOL    MW424977   3.806   0.239   1.898
 6165SOL     OW24978   3.837   1.482   2.090
 6165SOL    HW224979   3.854   1.566   2.132
 6165SOL    HW324980   3.872   1.491   2.002
 6165SOL    MW424981   3.842   1.495   2.084
 6166SOL     OW24982   5.109   1.571   2.307
 6166SOL    HW224983   5.172   1.561   2.236
 6166SOL    HW324984   5.026   1.591   2.262
 6166SOL    MW424985   5.106   1.572   2.292
 6167SOL     OW24986   5.472   0.839   3.993
 6167SOL    HW224987   5.513   0.781   4.058
 6167SOL    HW324988   5.379   0.831   4.010
 6167SOL    MW424989   5.466   0.831   4.003
 6168SOL     OW24990   5.338   0.771   4.988
 6168SOL    HW224991   5.293   0.838   5.039
 6168SOL    HW324992   5.426   0.807   4.974
 6168SOL    MW424993   5.344   0.784   4.992
 6169SOL     OW24994   4.266   1.022   4.222
 6169SOL    HW224995   4.356   0.997   4.206
 6169SOL    HW324996   4.262   1.115   4.199
 6169SOL    MW424997   4.278   1.031   4.217
 6170SOL     OW24998   5.382   1.725   4.364
 6170SOL    HW224999   5.394   1.671   4.442
 6170SOL    HW325000   5.419   1.673   4.293
 6170SOL    MW425001   5.388   1.710   4.365
 6171SOL     OW25002   4.761   1.610   5.365
 6171SOL    HW225003   4.802   1.646   5.286
 6171SOL    HW325004   4.796   1.521   5.372
 6171SOL    MW425005   4.772   1.603   5.356
 6172SOL     OW25006   5.318   1.165   4.969
 6172SOL    HW225007   5.239   1.130   4.927
 6172SOL    HW325008   5.345   1.237   4.913
 6172SOL    MW425009   5.311   1.170   4.956
 6173SOL     OW25010   4.550   0.478   4.235
 6173SOL    HW225011   4.525   0.566   4.263
 6173SOL    HW325012   4.547   0.481   4.139
 6173SOL    MW425013   4.546   0.490   4.227
 6174SOL     OW25014   3.992   0.506   4.163
 6174SOL    HW225015   4.024   0.594   4.145
 6174SOL    HW325016   3.980   0.504   4.258
 6174SOL    MW425017   3.995   0.518   4.175
 6175SOL     OW25018   4.070   0.919   5.064
 6175SOL    HW225019   4.133   0.866   5.015
 6175SOL    HW325020   4.051   0.993   5.007
 6175SOL    MW425021   4.076   0.921   5.051
 6176SOL     OW25022   4.391   0.261   4.250
 6176SOL    HW225023   4.449   0.337   4.252
 6176SOL    HW325024   4.326   0.282   4.183
 6176SOL    MW425025   4.390   0.273   4.241
 6177SOL     OW25026   4.478   1.188   4.425
 6177SOL    HW225027   4.558   1.191   4.477
 6177SOL    HW325028   4.506   1.155   4.339
 6177SOL    MW425029   4.492   1.184   4.420
 6178SOL     OW25030   4.503   1.529   5.328
 6178SOL    HW225031   4.587   1.555   5.367
 6178SOL    HW325032   4.527   1.473   5.254
 6178SOL    MW425033   4.517   1.525   5.323
 6179SOL     OW25034   4.255   0.692   4.416
 6179SOL    HW225035   4.240   0.612   4.467
 6179SOL    HW325036   4.337   0.727   4.450
 6179SOL    MW425037   4.263   0.684   4.428
 6180SOL     OW25038   4.592   1.378   5.101
 6180SOL    HW225039   4.556   1.444   5.041
 6180SOL    HW325040   4.520   1.316   5.114
 6180SOL    MW425041   4.578   1.378   5.095
 6181SOL     OW25042   4.397   0.518   4.793
 6181SOL    HW225043   4.303   0.514   4.811
 6181SOL    HW325044   4.427   0.427   4.802
 6181SOL    MW425045   4.388   0.506   4.796
 6182SOL     OW25046   4.143   0.932   4.697
 6182SOL    HW225047   4.098   0.939   4.613
 6182SOL    HW325048   4.123   1.015   4.741
 6182SOL    MW425049   4.135   0.944   4.691
 6183SOL     OW25050   3.840   1.778   4.572
 6183SOL    HW225051   3.929   1.770   4.607
 6183SOL    HW325052   3.804   1.690   4.577
 6183SOL    MW425053   3.847   1.765   4.577
 6184SOL     OW25054   5.105   1.170   3.941
 6184SOL    HW225055   5.023   1.206   3.907
 6184SOL    HW325056   5.173   1.213   3.890
 6184SOL    MW425057   5.103   1.180   3.929
 6185SOL     OW25058   4.104   1.305   4.607
 6185SOL    HW225059   4.080   1.358   4.683
 6185SOL    HW325060   4.160   1.363   4.555
 6185SOL    MW425061   4.108   1.320   4.610
 6186SOL     OW25062   4.666   0.949   4.417
 6186SOL    HW225063   4.580   0.936   4.457
 6186SOL    HW325064   4.719   0.876   4.449
 6186SOL    MW425065   4.662   0.938   4.426
 6187SOL     OW25066   4.074   1.601   5.202
 6187SOL    HW225067   3.982   1.577   5.187
 6187SOL    HW325068   4.118   1.518   5.219
 6187SOL    MW425069   4.068   1.586   5.201
 6188SOL     OW25070   4.657   1.311   4.134
 6188SOL    HW225071   4.634   1.373   4.202
 6188SOL    HW325072   4.614   1.229   4.160
 6188SOL    MW425073   4.649   1.307   4.145
 6189SOL     OW25074   4.154   0.284   4.102
 6189SOL    HW225075   4.128   0.246   4.018
 6189SOL    HW325076   4.091   0.354   4.118
 6189SOL    MW425077   4.143   0.287   4.093
 6190SOL     OW25078   3.989   1.245   4.139
 6190SOL    HW225079   3.937   1.313   4.095
 6190SOL    HW325080   3.986   1.171   4.079
 6190SOL    MW425081   3.981   1.244   4.126
 6191SOL     OW25082   4.651   1.708   3.917
 6191SOL    HW225083   4.606   1.724   4.000
 6191SOL    HW325084   4.582   1.673   3.859
 6191SOL    MW425085   4.637   1.705   3.919
 6192SOL     OW25086   5.586   0.481   3.892
 6192SOL    HW225087   5.495   0.483   3.920
 6192SOL    HW325088   5.631   0.543   3.950
 6192SOL    MW425089   5.579   0.489   3.902
 6193SOL     OW25090   5.331   1.084   4.242
 6193SOL    HW225091   5.241   1.084   4.277
 6193SOL    HW325092   5.324   1.130   4.159
 6193SOL    MW425093   5.318   1.090   4.236
 6194SOL     OW25094   5.131   0.719   5.314
 6194SOL    HW225095   5.200   0.657   5.291
 6194SOL    HW325096   5.056   0.693   5.261
 6194SOL    MW425097   5.131   0.706   5.305
 6195SOL     OW25098   3.872   1.599   4.866
 6195SOL    HW225099   3.855   1.545   4.943
 6195SOL    HW325100   3.860   1.689   4.896
 6195SOL    MW425101   3.869   1.603   4.880
 6196SOL     OW25102   4.867   1.106   5.306
 6196SOL    HW225103   4.852   1.199   5.291
 6196SOL    HW325104   4.962   1.096   5.306
 6196SOL    MW425105   4.876   1.116   5.303
 6197SOL     OW25106   4.663   0.530   5.507
 6197SOL    HW225107   4.753   0.531   5.474
 6197SOL    HW325108   4.622   0.455   5.465
 6197SOL    MW425109   4.669   0.520   5.498
 6198SOL     OW25110   5.238   1.062   4.634
 6198SOL    HW225111   5.241   0.996   4.565
 6198SOL    HW325112   5.323   1.105   4.630
 6198SOL    MW425113   5.250   1.058   4.625
 6199SOL     OW25114   4.858   0.665   4.203
 6199SOL    HW225115   4.884   0.689   4.114
 6199SOL    HW325116   4.840   0.572   4.199
 6199SOL    MW425117   4.860   0.657   4.190
 6200SOL     OW25118   5.523   1.285   4.054
 6200SOL    HW225119   5.479   1.326   4.129
 6200SOL    HW325120   5.580   1.353   4.019
 6200SOL    MW425121   5.525   1.299   4.059
 6201SOL     OW25122   4.443   0.334   5.457
 6201SOL    HW225123   4.453   0.260   5.397
 6201SOL    HW325124   4.479   0.303   5.540
 6201SOL    MW425125   4.449   0.320   5.459
 6202SOL     OW25126   4.179   1.701   4.372
 6202SOL    HW225127   4.211   1.789   4.350
 6202SOL    HW325128   4.132   1.673   4.294
 6202SOL    MW425129   4.178   1.709   4.359
 6203SOL     OW25130   3.895   1.761   3.949
 6203SOL    HW225131   3.924   1.851   3.941
 6203SOL    HW325132   3.845   1.744   3.870
 6203SOL    MW425133   3.893   1.769   3.938
 6204SOL     OW25134   4.682   0.016   4.834
 6204SOL    HW225135   4.641   0.094   4.796
 6204SOL    HW325136   4.776   0.034   4.829
 6204SOL    MW425137   4.688   0.028   4.829
 6205SOL     OW25138   5.299   1.569   3.920
 6205SOL    HW225139   5.347   1.638   3.966
 6205SOL    HW325140   5.220   1.613   3.889
 6205SOL    MW425141   5.294   1.583   3.923
 6206SOL     OW25142   4.697   0.694   3.864
 6206SOL    HW225143   4.699   0.641   3.785
 6206SOL    HW325144   4.785   0.731   3.870
 6206SOL    MW425145   4.709   0.693   3.853
 6207SOL     OW25146   5.311   0.620   4.200
 6207SOL    HW225147   5.350   0.620   4.287
 6207SOL    HW325148   5.252   0.696   4.200
 6207SOL    MW425149   5.308   0.631   4.211
 6208SOL     OW25150   4.628   0.987   5.329
 6208SOL    HW225151   4.605   0.967   5.419
 6208SOL    HW325152   4.713   1.031   5.334
 6208SOL    MW425153   4.635   0.990   5.341
 6209SOL     OW25154   4.708   0.124   5.089
 6209SOL    HW225155   4.714   0.086   5.002
 6209SOL    HW325156   4.697   0.218   5.074
 6209SOL    MW425157   4.709   0.132   5.077
 6210SOL     OW25158   4.797   0.613   4.923
 6210SOL    HW225159   4.872   0.642   4.870
 6210SOL    HW325160   4.729   0.678   4.907
 6210SOL    MW425161   4.798   0.625   4.913
 6211SOL     OW25162   5.347   0.581   5.200
 6211SOL    HW225163   5.328   0.490   5.179
 6211SOL    HW325164   5.325   0.630   5.121
 6211SOL    MW425165   5.342   0.574   5.187
 6212SOL     OW25166   5.489   1.675   5.104
 6212SOL    HW225167   5.417   1.637   5.155
 6212SOL    HW325168   5.506   1.760   5.145
 6212SOL    MW425169   5.483   1.680   5.116
 6213SOL     OW25170   4.794   0.319   5.306
 6213SOL    HW225171   4.760   0.358   5.225
 6213SOL    HW325172   4.772   0.227   5.299
 6213SOL    MW425173   4.787   0.312   5.296
 6214SOL     OW25174   5.203   1.133   5.382
 6214SOL    HW225175   5.285   1.174   5.412
 6214SOL    HW325176   5.166   1.095   5.462
 6214SOL    MW425177   5.209   1.134   5.397
 6215SOL     OW25178   5.498   0.506   4.366
 6215SOL    HW225179   5.587   0.475   4.383
 6215SOL    HW325180   5.441   0.446   4.414
 6215SOL    MW425181   5.501   0.494   4.375
 6216SOL     OW25182   3.924   0.220   4.395
 6216SOL    HW225183   3.915   0.160   4.321
 6216SOL    HW325184   3.857   0.191   4.458
 6216SOL    MW425185   3.914   0.207   4.393
 6217SOL     OW25186   4.867   1.313   3.956
 6217SOL    HW225187   4.817   1.315   4.038
 6217SOL    HW325188   4.801   1.331   3.888
 6217SOL    MW425189   4.853   1.315   3.958
 6218SOL     OW25190   3.871   0.393   4.758
 6218SOL    HW225191   3.843   0.484   4.767
 6218SOL    HW325192   3.808   0.354   4.697
 6218SOL    MW425193   3.858   0.399   4.752
 6219SOL     OW25194   4.330   1.731   4.064
 6219SOL    HW225195   4.251   1.689   4.097
 6219SOL    HW325196   4.396   1.714   4.131
 6219SOL    MW425197   4.329   1.723   4.077
 6220SOL     OW25198   5.458   1.251   5.461
 6220SOL    HW225199   5.508   1.177   5.493
 6220SOL    HW325200   5.404   1.278   5.536
 6220SOL    MW425201   5.458   1.245   5.474
 6221SOL     OW25202   4.466   1.146   3.771
 6221SOL    HW225203   4.388   1.092   3.758
 6221SOL    HW325204   4.437   1.219   3.824
 6221SOL    MW425205   4.452   1.148   3.776
 6222SOL     OW25206   5.592   0.886   4.963
 6222SOL    HW225207   5.608   0.924   4.876
 6222SOL    HW325208   5.626   0.952   5.024
 6222SOL    MW425209   5.599   0.899   4.959
 6223SOL     OW25210   5.384   1.595   4.632
 6223SOL    HW225211   5.413   1.662   4.693
 6223SOL    HW325212   5.365   1.519   4.687
 6223SOL    MW425213   5.386   1.595   4.647
 6224SOL     OW25214   5.047   1.662   3.839
 6224SOL    HW225215   4.973   1.625   3.889
 6224SOL    HW325216   5.055   1.752   3.872
 6224SOL    MW425217   5.038   1.669   3.851
 6225SOL     OW25218   3.855   0.668   4.928
 6225SOL    HW225219   3.917   0.698   4.994
 6225SOL    HW325220   3.789   0.737   4.922
 6225SOL    MW425221   3.854   0.681   4.935
 6226SOL     OW25222   5.271   1.336   3.781
 6226SOL    HW225223   5.218   1.385   3.717
 6226SOL    HW325224   5.302   1.402   3.842
 6226SOL    MW425225   5.269   1.350   3.779
 6227SOL     OW25226   4.496   0.225   3.836
 6227SOL    HW225227   4.444   0.145   3.824
 6227SOL    HW325228   4.583   0.202   3.804
 6227SOL    MW425229   4.499   0.211   3.830
 6228SOL     OW25230   3.950   1.777   5.380
 6228SOL    HW225231   3.924   1.845   5.318
 6228SOL    HW325232   3.998   1.714   5.328
 6228SOL    MW425233   3.952   1.777   5.366
 6229SOL     OW25234   4.002   1.096   4.887
 6229SOL    HW225235   4.055   1.171   4.912
 6229SOL    HW325236   3.921   1.134   4.853
 6229SOL    MW425237   3.998   1.111   4.887
 6230SOL     OW25238   4.542   1.000   4.875
 6230SOL    HW225239   4.570   0.909   4.887
 6230SOL    HW325240   4.471   0.994   4.811
 6230SOL    MW425241   4.535   0.988   4.870
 6231SOL     OW25242   3.857   0.865   4.293
 6231SOL    HW225243   3.948   0.880   4.320
 6231SOL    HW325244   3.860   0.786   4.239
 6231SOL    MW425245   3.869   0.857   4.291
 6232SOL     OW25246   4.093   0.573   5.547
 6232SOL    HW225247   4.040   0.653   5.554
 6232SOL    HW325248   4.163   0.585   5.612
 6232SOL    MW425249   4.095   0.586   5.555
 6233SOL     OW25250   4.479   0.123   5.254
 6233SOL    HW225251   4.456   0.031   5.256
 6233SOL    HW325252   4.565   0.125   5.211
 6233SOL    MW425253   4.486   0.113   5.250
 6234SOL     OW25254   4.163   0.647   5.293
 6234SOL    HW225255   4.243   0.697   5.279
 6234SOL    HW325256   4.154   0.641   5.388
 6234SOL    MW425257   4.172   0.653   5.303
 6235SOL     OW25258   4.484   1.797   4.667
 6235SOL    HW225259   4.573   1.812   4.697
 6235SOL    HW325260   4.479   1.844   4.583
 6235SOL    MW425261   4.494   1.805   4.660
 6236SOL     OW25262   3.865   1.477   4.332
 6236SOL    HW225263   3.837   1.516   4.414
 6236SOL    HW325264   3.885   1.386   4.354
 6236SOL    MW425265   3.863   1.469   4.345
 6237SOL     OW25266   4.698   1.520   4.367
 6237SOL    HW225267   4.781   1.474   4.351
 6237SOL    HW325268   4.688   1.519   4.463
 6237SOL    MW425269   4.708   1.513   4.377
 6238SOL     OW25270   5.530   0.665   4.681
 6238SOL    HW225271   5.619   0.695   4.663
 6238SOL    HW325272   5.510   0.605   4.610
 6238SOL    MW425273   5.539   0.662   4.670
 6239SOL     OW25274   5.381   0.844   5.561
 6239SOL    HW225275   5.436   0.768   5.542
 6239SOL    HW325276   5.383   0.852   5.656
 6239SOL    MW425277   5.389   0.835   5.569
 6240SOL     OW25278   4.431   1.577   3.772
 6240SOL    HW225279   4.371   1.646   3.742
 6240SOL    HW325280   4.376   1.519   3.825
 6240SOL    MW425281   4.415   1.579   3.774
 6241SOL     OW25282   4.869   0.222   3.995
 6241SOL    HW225283   4.802   0.198   3.932
 6241SOL    HW325284   4.934   0.271   3.944
 6241SOL    MW425285   4.869   0.224   3.980
 6242SOL     OW25286   4.676   0.406   5.080
 6242SOL    HW225287   4.595   0.447   5.108
 6242SOL    HW325288   4.723   0.474   5.032
 6242SOL    MW425289   4.671   0.421   5.078
 6243SOL     OW25290   4.936   0.744   4.703
 6243SOL    HW225291   4.949   0.838   4.713
 6243SOL    HW325292   4.897   0.734   4.617
 6243SOL    MW425293   4.932   0.755   4.693
 6244SOL     OW25294   4.388   0.939   4.507
 6244SOL    HW225295   4.299   0.930   4.540
 6244SOL    HW325296   4.392   1.029   4.475
 6244SOL    MW425297   4.377   0.950   4.507
 6245SOL     OW25298   5.187   0.522   4.502
 6245SOL    HW225299   5.132   0.443   4.501
 6245SOL    HW325300   5.169   0.563   4.586
 6245SOL    MW425301   5.177   0.517   4.511
 6246SOL     OW25302   4.158   0.209   5.319
 6246SOL    HW225303   4.079   0.227   5.371
 6246SOL    HW325304   4.153   0.271   5.246
 6246SOL    MW425305   4.148   0.219   5.316
 6247SOL     OW25306   4.806   0.726   4.459
 6247SOL    HW225307   4.743   0.658   4.483
 6247SOL    HW325308   4.826   0.707   4.367
 6247SOL    MW425309   4.800   0.713   4.451
 6248SOL     OW25310   4.062   1.621   4.161
 6248SOL    HW225311   4.023   1.668   4.087
 6248SOL    HW325312   3.996   1.556   4.186
 6248SOL    MW425313   4.049   1.619   4.155
 6249SOL     OW25314   4.554   1.030   4.185
 6249SOL    HW225315   4.556   1.004   4.092
 6249SOL    HW325316   4.612   0.967   4.228
 6249SOL    MW425317   4.562   1.019   4.179
 6250SOL     OW25318   5.107   1.590   4.957
 6250SOL    HW225319   5.032   1.636   4.995
 6250SOL    HW325320   5.089   1.497   4.974
 6250SOL    MW425321   5.096   1.584   4.965
 6251SOL     OW25322   5.111   1.798   4.387
 6251SOL    HW225323   5.054   1.751   4.326
 6251SOL    HW325324   5.197   1.759   4.374
 6251SOL    MW425325   5.114   1.789   4.377
 6252SOL     OW25326   3.869   1.208   4.452
 6252SOL    HW225327   3.933   1.240   4.515
 6252SOL    HW325328   3.918   1.144   4.400
 6252SOL    MW425329   3.884   1.204   4.453
 6253SOL     OW25330   4.369   1.284   5.434
 6253SOL    HW225331   4.417   1.367   5.421
 6253SOL    HW325332   4.426   1.232   5.490
 6253SOL    MW425333   4.383   1.288   5.440
 6254SOL     OW25334   3.945   1.526   5.574
 6254SOL    HW225335   4.001   1.450   5.589
 6254SOL    HW325336   3.894   1.504   5.496
 6254SOL    MW425337   3.945   1.513   5.565
 6255SOL     OW25338   5.044   0.378   3.853
 6255SOL    HW225339   5.017   0.444   3.789
 6255SOL    HW325340   5.114   0.421   3.903
 6255SOL    MW425341   5.049   0.391   3.850
 6256SOL     OW25342   4.712   0.083   3.790
 6256SOL    HW225343   4.768   0.075   3.712
 6256SOL    HW325344   4.689  -0.007   3.812
 6256SOL    MW425345   4.717   0.070   3.783
 6257SOL     OW25346   5.217   0.934   3.995
 6257SOL    HW225347   5.184   1.023   3.985
 6257SOL    HW325348   5.182   0.905   4.080
 6257SOL    MW425349   5.207   0.943   4.006
 6258SOL     OW25350   4.830   1.363   5.183
 6258SOL    HW225351   4.741   1.369   5.151
 6258SOL    HW325352   4.874   1.442   5.151
 6258SOL    MW425353   4.825   1.373   5.175
 6259SOL     OW25354   4.123   0.031   5.525
 6259SOL    HW225355   4.051  -0.004   5.473
 6259SOL    HW325356   4.181   0.072   5.460
 6259SOL    MW425357   4.121   0.032   5.510
 6260SOL     OW25358   4.147   1.521   4.824
 6260SOL    HW225359   4.192   1.583   4.881
 6260SOL    HW325360   4.054   1.540   4.837
 6260SOL    MW425361   4.140   1.531   4.831
 6261SOL     OW25362   5.587   1.050   5.178
 6261SOL    HW225363   5.502   1.063   5.137
 6261SOL    HW325364   5.567   1.014   5.265
 6261SOL    MW425365   5.574   1.046   5.183
 6262SOL     OW25366   4.569   1.589   4.932
 6262SOL    HW225367   4.593   1.578   4.841
 6262SOL    HW325368   4.492   1.646   4.930
 6262SOL    MW425369   4.561   1.594   4.921
 6263SOL     OW25370   4.211   0.972   3.787
 6263SOL    HW225371   4.134   0.985   3.843
 6263SOL    HW325372   4.175   0.936   3.706
 6263SOL    MW425373   4.197   0.968   3.784
 6264SOL     OW25374   4.864   0.945   4.030
 6264SOL    HW225375   4.774   0.966   4.005
 6264SOL    HW325376   4.891   1.018   4.086
 6264SOL    MW425377   4.856   0.957   4.033
 6265SOL     OW25378   4.364   1.294   4.722
 6265SOL    HW225379   4.357   1.273   4.816
 6265SOL    HW325380   4.282   1.262   4.685
 6265SOL    MW425381   4.352   1.288   4.729
 6266SOL     OW25382   5.228   0.304   5.124
 6266SOL    HW225383   5.175   0.306   5.204
 6266SOL    HW325384   5.213   0.217   5.087
 6266SOL    MW425385   5.220   0.294   5.129
 6267SOL     OW25386   3.810   1.386   5.385
 6267SOL    HW225387   3.854   1.319   5.331
 6267SOL    HW325388   3.725   1.348   5.405
 6267SOL    MW425389   3.805   1.372   5.381
 6268SOL     OW25390   4.493   0.061   4.437
 6268SOL    HW225391   4.422   0.122   4.419
 6268SOL    HW325392   4.544   0.058   4.356
 6268SOL    MW425393   4.489   0.067   4.424
 6269SOL     OW25394   4.251   1.301   4.186
 6269SOL    HW225395   4.244   1.333   4.276
 6269SOL    HW325396   4.161   1.285   4.158
 6269SOL    MW425397   4.239   1.303   4.193
 6270SOL     OW25398   4.846   1.694   5.095
 6270SOL    HW225399   4.766   1.679   5.045
 6270SOL    HW325400   4.853   1.789   5.102
 6270SOL    MW425401   4.837   1.705   5.089
 6271SOL     OW25402   4.960   1.659   4.585
 6271SOL    HW225403   5.007   1.732   4.544
 6271SOL    HW325404   4.881   1.698   4.621
 6271SOL    MW425405   4.955   1.674   4.584
 6272SOL     OW25406   5.368   1.754   4.860
 6272SOL    HW225407   5.411   1.724   4.940
 6272SOL    HW325408   5.287   1.702   4.857
 6272SOL    MW425409   5.363   1.743   4.870
 6273SOL     OW25410   4.453   0.718   5.567
 6273SOL    HW225411   4.523   0.660   5.539
 6273SOL    HW325412   4.396   0.663   5.622
 6273SOL    MW425413   4.455   0.705   5.571
 6274SOL     OW25414   5.240   0.930   5.200
 6274SOL    HW225415   5.245   0.983   5.280
 6274SOL    HW325416   5.202   0.847   5.228
 6274SOL    MW425417   5.236   0.925   5.215
 6275SOL     OW25418   4.880   0.065   5.446
 6275SOL    HW225419   4.875  -0.028   5.427
 6275SOL    HW325420   4.963   0.076   5.492
 6275SOL    MW425421   4.888   0.054   5.450
 6276SOL     OW25422   4.254   0.585   3.900
 6276SOL    HW225423   4.220   0.641   3.970
 6276SOL    HW325424   4.325   0.535   3.940
 6276SOL    MW425425   4.260   0.586   3.914
 6277SOL     OW25426   5.350   1.336   4.722
 6277SOL    HW225427   5.385   1.318   4.635
 6277SOL    HW325428   5.255   1.337   4.709
 6277SOL    MW425429   5.342   1.333   4.709
 6278SOL     OW25430   4.779   0.984   5.091
 6278SOL    HW225431   4.822   1.019   5.169
 6278SOL    HW325432   4.762   1.061   5.037
 6278SOL    MW425433   4.782   0.999   5.094
 6279SOL     OW25434   5.310   0.471   3.964
 6279SOL    HW225435   5.302   0.542   3.901
 6279SOL    HW325436   5.328   0.515   4.047
 6279SOL    MW425437   5.311   0.485   3.966
 6280SOL     OW25438   4.170   0.126   4.393
 6280SOL    HW225439   4.220   0.169   4.324
 6280SOL    HW325440   4.085   0.170   4.393
 6280SOL    MW425441   4.167   0.139   4.384
 6281SOL     OW25442   3.929   1.188   5.253
 6281SOL    HW225443   3.957   1.141   5.331
 6281SOL    HW325444   3.850   1.143   5.224
 6281SOL    MW425445   3.922   1.177   5.259
 6282SOL     OW25446   4.437   0.515   5.220
 6282SOL    HW225447   4.409   0.603   5.244
 6282SOL    HW325448   4.406   0.459   5.291
 6282SOL    MW425449   4.429   0.518   5.232
 6283SOL     OW25450   4.979   0.733   3.939
 6283SOL    HW225451   5.026   0.751   3.858
 6283SOL    HW325452   4.945   0.817   3.967
 6283SOL    MW425453   4.981   0.747   3.932
 6284SOL     OW25454   4.092   0.911   4.433
 6284SOL    HW225455   4.150   0.967   4.381
 6284SOL    HW325456   4.136   0.826   4.435
 6284SOL    MW425457   4.105   0.908   4.426
 6285SOL     OW25458   5.232   0.263   4.270
 6285SOL    HW225459   5.154   0.213   4.295
 6285SOL    HW325460   5.203   0.354   4.270
 6285SOL    MW425461   5.218   0.267   4.273
 6286SOL     OW25462   4.818   0.225   4.429
 6286SOL    HW225463   4.838   0.300   4.373
 6286SOL    HW325464   4.798   0.264   4.514
 6286SOL    MW425465   4.819   0.241   4.433
 6287SOL     OW25466   4.714   1.475   3.761
 6287SOL    HW225467   4.741   1.553   3.713
 6287SOL    HW325468   4.621   1.490   3.780
 6287SOL    MW425469   4.705   1.488   3.757
 6288SOL     OW25470   5.578   0.998   5.448
 6288SOL    HW225471   5.491   0.978   5.484
 6288SOL    HW325472   5.632   0.924   5.473
 6288SOL    MW425473   5.573   0.987   5.456
 6289SOL     OW25474   3.799   1.511   4.605
 6289SOL    HW225475   3.831   1.515   4.696
 6289SOL    HW325476   3.704   1.519   4.613
 6289SOL    MW425477   3.791   1.514   4.618
 6290SOL     OW25478   3.754   0.637   4.152
 6290SOL    HW225479   3.694   0.609   4.222
 6290SOL    HW325480   3.828   0.577   4.158
 6290SOL    MW425481   3.756   0.626   4.161
 6291SOL     OW25482   5.322   1.849   5.586
 6291SOL    HW225483   5.367   1.773   5.551
 6291SOL    HW325484   5.360   1.862   5.673
 6291SOL    MW425485   5.332   1.842   5.592
 6292SOL     OW25486   4.922   1.368   4.312
 6292SOL    HW225487   4.945   1.319   4.390
 6292SOL    HW325488   5.003   1.410   4.284
 6292SOL    MW425489   4.935   1.368   4.319
 6293SOL     OW25490   4.180   0.376   5.041
 6293SOL    HW225491   4.213   0.457   5.081
 6293SOL    HW325492   4.153   0.402   4.953
 6293SOL    MW425493   4.179   0.390   5.035
 6294SOL     OW25494   4.134   0.343   4.777
 6294SOL    HW225495   4.164   0.257   4.748
 6294SOL    HW325496   4.039   0.336   4.780
 6294SOL    MW425497   4.126   0.332   4.775
 6295SOL     OW25498   4.963   0.552   5.468
 6295SOL    HW225499   5.015   0.487   5.421
 6295SOL    HW325500   4.921   0.603   5.398
 6295SOL    MW425501   4.964   0.549   5.451
 6296SOL     OW25502   5.062   0.347   5.329
 6296SOL    HW225503   4.969   0.331   5.316
 6296SOL    HW325504   5.088   0.285   5.397
 6296SOL    MW425505   5.052   0.337   5.336
 6297SOL     OW25506   4.277   0.121   4.668
 6297SOL    HW225507   4.287   0.030   4.694
 6297SOL    HW325508   4.233   0.117   4.583
 6297SOL    MW425509   4.273   0.109   4.660
 6298SOL     OW25510   4.371   1.736   5.214
 6298SOL    HW225511   4.288   1.721   5.259
 6298SOL    HW325512   4.430   1.669   5.249
 6298SOL    MW425513   4.369   1.726   5.224
 6299SOL     OW25514   5.428   0.443   4.839
 6299SOL    HW225515   5.361   0.476   4.899
 6299SOL    HW325516   5.471   0.521   4.805
 6299SOL    MW425517   5.426   0.458   4.843
 6300SOL     OW25518   5.606   1.163   4.809
 6300SOL    HW225519   5.599   1.103   4.734
 6300SOL    HW325520   5.532   1.223   4.798
 6300SOL    MW425521   5.596   1.163   4.798
 6301SOL     OW25522   4.988   1.025   4.727
 6301SOL    HW225523   5.002   0.997   4.818
 6301SOL    HW325524   5.074   1.056   4.699
 6301SOL    MW425525   5.001   1.026   4.736
 6302SOL     OW25526   5.071   0.520   5.006
 6302SOL    HW225527   5.092   0.521   4.913
 6302SOL    HW325528   5.116   0.442   5.039
 6302SOL    MW425529   5.078   0.510   4.998
 6303SOL     OW25530   5.564   0.651   5.548
 6303SOL    HW225531   5.601   0.596   5.617
 6303SOL    HW325532   5.589   0.608   5.466
 6303SOL    MW425533   5.571   0.639   5.547
 6304SOL     OW25534   5.111   0.949   5.600
 6304SOL    HW225535   5.177   0.897   5.554
 6304SOL    HW325536   5.131   0.936   5.693
 6304SOL    MW425537   5.122   0.940   5.607
 6305SOL     OW25538   5.122   0.810   4.226
 6305SOL    HW225539   5.037   0.780   4.196
 6305SOL    HW325540   5.114   0.817   4.321
 6305SOL    MW425541   5.110   0.808   4.235
 6306SOL     OW25542   4.198   1.273   4.957
 6306SOL    HW225543   4.210   1.300   5.048
 6306SOL    HW325544   4.179   1.354   4.910
 6306SOL    MW425545   4.197   1.288   4.962
 6307SOL     OW25546   4.482   0.253   4.780
 6307SOL    HW225547   4.455   0.255   4.871
 6307SOL    HW325548   4.412   0.205   4.735
 6307SOL    MW425549   4.470   0.249   4.787
 6308SOL     OW25550   4.336   1.745   4.942
 6308SOL    HW225551   4.388   1.822   4.919
 6308SOL    HW325552   4.345   1.737   5.037
 6308SOL    MW425553   4.345   1.752   4.953
 6309SOL     OW25554   5.238   1.330   5.174
 6309SOL    HW225555   5.223   1.259   5.237
 6309SOL    HW325556   5.284   1.288   5.102
 6309SOL    MW425557   5.244   1.314   5.174
 6310SOL     OW25558   4.312   1.061   5.291
 6310SOL    HW225559   4.349   1.066   5.203
 6310SOL    HW325560   4.351   1.134   5.338
 6310SOL    MW425561   4.322   1.071   5.286
 6311SOL     OW25562   4.492   1.104   5.103
 6311SOL    HW225563   4.551   1.050   5.156
 6311SOL    HW325564   4.507   1.076   5.013
 6311SOL    MW425565   4.502   1.093   5.099
 6312SOL     OW25566   4.495   0.476   3.952
 6312SOL    HW225567   4.568   0.525   3.915
 6312SOL    HW325568   4.511   0.385   3.926
 6312SOL    MW425569   4.507   0.471   3.945
 6313SOL     OW25570   5.303   1.593   5.275
 6313SOL    HW225571   5.345   1.578   5.360
 6313SOL    HW325572   5.294   1.506   5.237
 6313SOL    MW425573   5.307   1.581   5.282
 6314SOL     OW25574   4.963   0.072   4.866
 6314SOL    HW225575   5.018   0.081   4.788
 6314SOL    HW325576   5.018   0.106   4.937
 6314SOL    MW425577   4.977   0.077   4.865
 6315SOL     OW25578   3.970   0.985   4.050
 6315SOL    HW225579   3.907   1.001   3.979
 6315SOL    HW325580   3.917   0.948   4.121
 6315SOL    MW425581   3.955   0.982   4.050
 6316SOL     OW25582   4.326   1.339   3.909
 6316SOL    HW225583   4.341   1.315   4.001
 6316SOL    HW325584   4.234   1.317   3.893
 6316SOL    MW425585   4.316   1.332   3.919
 6317SOL     OW25586   4.865   1.570   4.061
 6317SOL    HW225587   4.873   1.488   4.012
 6317SOL    HW325588   4.784   1.609   4.028
 6317SOL    MW425589   4.855   1.565   4.051
 6318SOL     OW25590   4.124   1.728   4.630
 6318SOL    HW225591   4.128   1.639   4.665
 6318SOL    HW325592   4.150   1.719   4.539
 6318SOL    MW425593   4.127   1.716   4.622
 6319SOL     OW25594   4.741   1.206   4.873
 6319SOL    HW225595   4.673   1.140   4.889
 6319SOL    HW325596   4.759   1.200   4.780
 6319SOL    MW425597   4.734   1.197   4.864
 6320SOL     OW25598   3.830   1.481   5.124
 6320SOL    HW225599   3.820   1.439   5.210
 6320SOL    HW325600   3.751   1.534   5.114
 6320SOL    MW425601   3.819   1.482   5.135
 6321SOL     OW25602   4.734   0.345   4.694
 6321SOL    HW225603   4.664   0.297   4.739
 6321SOL    HW325604   4.766   0.408   4.758
 6321SOL    MW425605   4.729   0.347   4.708
 6322SOL     OW25606   4.385   0.781   5.314
 6322SOL    HW225607   4.378   0.876   5.302
 6322SOL    HW325608   4.394   0.770   5.409
 6322SOL    MW425609   4.386   0.793   5.324
 6323SOL     OW25610   4.106   1.296   5.572
 6323SOL    HW225611   4.178   1.298   5.509
 6323SOL    HW325612   4.076   1.205   5.571
 6323SOL    MW425613   4.111   1.285   5.564
 6324SOL     OW25614   5.390   1.589   5.523
 6324SOL    HW225615   5.363   1.586   5.614
 6324SOL    HW325616   5.486   1.593   5.526
 6324SOL    MW425617   5.400   1.589   5.535
 6325SOL     OW25618   4.201   0.451   4.507
 6325SOL    HW225619   4.272   0.399   4.470
 6325SOL    HW325620   4.187   0.416   4.594
 6325SOL    MW425621   4.209   0.440   4.514
 6326SOL     OW25622   3.756   1.786   5.579
 6326SOL    HW225623   3.806   1.764   5.501
 6326SOL    HW325624   3.764   1.881   5.587
 6326SOL    MW425625   3.764   1.795   5.570
 6327SOL     OW25626   4.517   1.544   4.583
 6327SOL    HW225627   4.445   1.481   4.596
 6327SOL    HW325628   4.478   1.629   4.601
 6327SOL    MW425629   4.501   1.547   4.586
 6328SOL     OW25630   4.837   0.392   4.231
 6328SOL    HW225631   4.859   0.329   4.163
 6328SOL    HW325632   4.742   0.384   4.242
 6328SOL    MW425633   4.827   0.383   4.223
 6329SOL     OW25634   3.922   0.082   4.163
 6329SOL    HW225635   3.993   0.103   4.102
 6329SOL    HW325636   3.876   0.010   4.121
 6329SOL    MW425637   3.926   0.076   4.149
 6330SOL     OW25638   3.753   0.549   5.306
 6330SOL    HW225639   3.817   0.615   5.281
 6330SOL    HW325640   3.672   0.576   5.263
 6330SOL    MW425641   3.751   0.561   5.298
 6331SOL     OW25642   5.491   1.456   4.263
 6331SOL    HW225643   5.461   1.389   4.324
 6331SOL    HW325644   5.585   1.462   4.277
 6331SOL    MW425645   5.499   1.448   4.273
 6332SOL     OW25646   5.047   1.133   4.193
 6332SOL    HW225647   5.019   1.219   4.226
 6332SOL    HW325648   5.075   1.149   4.103
 6332SOL    MW425649   5.047   1.147   4.185
 6333SOL     OW25650   4.709   0.053   4.246
 6333SOL    HW225651   4.746   0.112   4.311
 6333SOL    HW325652   4.686   0.109   4.172
 6333SOL    MW425653   4.710   0.068   4.245
 6334SOL     OW25654   5.562   0.935   4.668
 6334SOL    HW225655   5.553   0.967   4.579
 6334SOL    HW325656   5.515   0.851   4.668
 6334SOL    MW425657   5.555   0.928   4.658
 6335SOL     OW25658   3.938   0.775   5.247
 6335SOL    HW225659   3.959   0.844   5.185
 6335SOL    HW325660   4.018   0.722   5.252
 6335SOL    MW425661   3.951   0.776   5.241
 6336SOL     OW25662   5.474   0.866   4.369
 6336SOL    HW225663   5.568   0.855   4.357
 6336SOL    HW325664   5.450   0.938   4.310
 6336SOL    MW425665   5.484   0.874   4.360
 6337SOL     OW25666   3.923   0.790   5.514
 6337SOL    HW225667   3.849   0.734   5.540
 6337SOL    HW325668   3.918   0.793   5.419
 6337SOL    MW425669   3.912   0.783   5.504
 6338SOL     OW25670   4.089   0.077   4.964
 6338SOL    HW225671   4.132   0.161   4.984
 6338SOL    HW325672   4.162   0.015   4.957
 6338SOL    MW425673   4.104   0.080   4.965
 6339SOL     OW25674   4.130   0.744   4.142
 6339SOL    HW225675   4.130   0.839   4.127
 6339SOL    HW325676   4.207   0.728   4.196
 6339SOL    MW425677   4.140   0.755   4.147
 6340SOL     OW25678   4.906   0.603   5.206
 6340SOL    HW225679   4.942   0.576   5.122
 6340SOL    HW325680   4.819   0.637   5.185
 6340SOL    MW425681   4.900   0.604   5.193
 6341SOL     OW25682   3.889   0.475   4.431
 6341SOL    HW225683   3.951   0.482   4.504
 6341SOL    HW325684   3.889   0.382   4.408
 6341SOL    MW425685   3.897   0.464   4.438
 6342SOL     OW25686   5.436   1.815   3.963
 6342SOL    HW225687   5.503   1.848   3.903
 6342SOL    HW325688   5.393   1.894   3.997
 6342SOL    MW425689   5.438   1.830   3.959
 6343SOL     OW25690   4.571   0.736   4.915
 6343SOL    HW225691   4.529   0.654   4.891
 6343SOL    HW325692   4.572   0.735   5.011
 6343SOL    MW425693   4.564   0.725   4.924
 6344SOL     OW25694   5.242   1.869   5.314
 6344SOL    HW225695   5.245   1.775   5.297
 6344SOL    HW325696   5.265   1.877   5.406
 6344SOL    MW425697   5.245   1.857   5.324
 6345SOL     OW25698   4.375   0.206   5.020
 6345SOL    HW225699   4.306   0.269   5.041
 6345SOL    HW325700   4.402   0.170   5.105
 6345SOL    MW425701   4.369   0.209   5.033
 6346SOL     OW25702   3.758   1.047   3.889
 6346SOL    HW225703   3.727   1.112   3.952
 6346SOL    HW325704   3.707   0.969   3.908
 6346SOL    MW425705   3.748   1.044   3.899
 6347SOL     OW25706   5.202   0.798   4.481
 6347SOL    HW225707   5.282   0.813   4.430
 6347SOL    HW325708   5.195   0.703   4.487
 6347SOL    MW425709   5.211   0.787   4.476
 6348SOL     OW25710   4.342   1.847   3.831
 6348SOL    HW225711   4.247   1.847   3.823
 6348SOL    HW325712   4.358   1.793   3.909
 6348SOL    MW425713   4.332   1.841   3.840
 6349SOL     OW25714   4.652   0.724   5.178
 6349SOL    HW225715   4.721   0.791   5.175
 6349SOL    HW325716   4.585   0.762   5.234
 6349SOL    MW425717   4.653   0.737   5.185
 6350SOL     OW25718   4.070   1.024   5.426
 6350SOL    HW225719   4.024   0.940   5.428
 6350SOL    HW325720   4.127   1.018   5.350
 6350SOL    MW425721   4.072   1.012   5.418
 6351SOL     OW25722   5.187   0.667   3.747
 6351SOL    HW225723   5.115   0.643   3.689
 6351SOL    HW325724   5.253   0.704   3.689
 6351SOL    MW425725   5.186   0.669   3.732
 6352SOL     OW25726   4.321   1.399   4.427
 6352SOL    HW225727   4.386   1.332   4.448
 6352SOL    HW325728   4.373   1.476   4.404
 6352SOL    MW425729   4.336   1.401   4.426
 6353SOL     OW25730   4.582   0.564   4.557
 6353SOL    HW225731   4.522   0.582   4.629
 6353SOL    HW325732   4.616   0.476   4.576
 6353SOL    MW425733   4.578   0.554   4.570
 6354SOL     OW25734   4.807   1.147   4.576
 6354SOL    HW225735   4.899   1.128   4.594
 6354SOL    HW325736   4.780   1.077   4.516
 6354SOL    MW425737   4.815   1.135   4.570
 6355SOL     OW25738   4.600   0.967   3.931
 6355SOL    HW225739   4.586   0.879   3.896
 6355SOL    HW325740   4.551   1.024   3.872
 6355SOL    MW425741   4.592   0.962   3.919
 6356SOL     OW25742   5.081   1.385   4.672
 6356SOL    HW225743   5.054   1.469   4.637
 6356SOL    HW325744   5.041   1.380   4.759
 6356SOL    MW425745   5.074   1.394   4.678
 6357SOL     OW25746   5.000   1.333   4.940
 6357SOL    HW225747   5.011   1.300   5.029
 6357SOL    HW325748   4.919   1.292   4.909
 6357SOL    MW425749   4.990   1.325   4.946
 6358SOL     OW25750   4.013   0.691   4.710
 6358SOL    HW225751   3.963   0.690   4.791
 6358SOL    HW325752   4.033   0.783   4.694
 6358SOL    MW425753   4.009   0.703   4.718
 6359SOL     OW25754   5.080   1.455   5.472
 6359SOL    HW225755   5.080   1.549   5.488
 6359SOL    HW325756   5.125   1.445   5.388
 6359SOL    MW425757   5.086   1.465   5.463
 6360SOL     OW25758   4.608   0.736   4.147
 6360SOL    HW225759   4.588   0.722   4.054
 6360SOL    HW325760   4.701   0.715   4.154
 6360SOL    MW425761   4.618   0.731   4.136
 6361SOL     OW25762   3.935   0.359   5.451
 6361SOL    HW225763   3.892   0.418   5.388
 6361SOL    HW325764   4.003   0.414   5.491
 6361SOL    MW425765   3.939   0.374   5.448
 6362SOL     OW25766   5.047   0.979   4.996
 6362SOL    HW225767   5.110   0.976   5.069
 6362SOL    HW325768   4.963   0.997   5.038
 6362SOL    MW425769   5.043   0.981   5.011
 6363SOL     OW25770   4.591   1.694   4.185
 6363SOL    HW225771   4.649   1.765   4.212
 6363SOL    HW325772   4.614   1.622   4.243
 6363SOL    MW425773   4.602   1.694   4.196
 6364SOL     OW25774   3.834  -0.001   4.874
 6364SOL    HW225775   3.825   0.000   4.779
 6364SOL    HW325776   3.928   0.011   4.889
 6364SOL    MW425777   3.846   0.002   4.865
 6365SOL     OW25778   5.471   1.192   4.494
 6365SOL    HW225779   5.450   1.138   4.417
 6365SOL    HW325780   5.567   1.190   4.498
 6365SOL    MW425781   5.480   1.185   4.483
 6366SOL     OW25782   4.163   1.337   5.237
 6366SOL    HW225783   4.084   1.287   5.260
 6366SOL    HW325784   4.233   1.296   5.287
 6366SOL    MW425785   4.161   1.325   5.247
 6367SOL     OW25786   4.047   0.126   3.920
 6367SOL    HW225787   3.976   0.181   3.888
 6367SOL    HW325788   4.089   0.092   3.841
 6367SOL    MW425789   4.043   0.128   3.906
 6368SOL     OW25790   5.171   0.623   4.756
 6368SOL    HW225791   5.094   0.669   4.722
 6368SOL    HW325792   5.228   0.692   4.790
 6368SOL    MW425793   5.168   0.638   4.756
 6369SOL     OW25794   3.803   0.225   3.769
 6369SOL    HW225795   3.770   0.304   3.813
 6369SOL    HW325796   3.858   0.258   3.698
 6369SOL    MW425797   3.806   0.239   3.766
 6370SOL     OW25798   3.837   1.482   3.958
 6370SOL    HW225799   3.854   1.566   4.000
 6370SOL    HW325800   3.872   1.491   3.870
 6370SOL    MW425801   3.842   1.495   3.952
 6371SOL     OW25802   5.109   1.571   4.175
 6371SOL    HW225803   5.172   1.561   4.104
 6371SOL    HW325804   5.026   1.591   4.130
 6371SOL    MW425805   5.106   1.572   4.160
 6372SOL     OW25806   5.472   0.839   5.862
 6372SOL    HW225807   5.513   0.781   5.927
 6372SOL    HW325808   5.379   0.831   5.879
 6372SOL    MW425809   5.466   0.831   5.872
 6373SOL     OW25810   4.266   1.022   6.091
 6373SOL    HW225811   4.356   0.997   6.075
 6373SOL    HW325812   4.262   1.115   6.068
 6373SOL    MW425813   4.278   1.031   6.086
 6374SOL     OW25814   3.992   0.506   6.032
 6374SOL    HW225815   4.024   0.594   6.014
 6374SOL    HW325816   3.980   0.504   6.127
 6374SOL    MW425817   3.995   0.518   6.044
 6375SOL     OW25818   5.105   1.170   5.810
 6375SOL    HW225819   5.023   1.206   5.776
 6375SOL    HW325820   5.173   1.213   5.759
 6375SOL    MW425821   5.103   1.180   5.798
 6376SOL     OW25822   4.666   0.949   6.286
 6376SOL    HW225823   4.580   0.936   6.326
 6376SOL    HW325824   4.719   0.876   6.318
 6376SOL    MW425825   4.662   0.938   6.295
 6377SOL     OW25826   4.657   1.311   6.003
 6377SOL    HW225827   4.634   1.373   6.071
 6377SOL    HW325828   4.614   1.229   6.029
 6377SOL    MW425829   4.649   1.307   6.014
 6378SOL     OW25830   4.154   0.284   5.971
 6378SOL    HW225831   4.128   0.246   5.887
 6378SOL    HW325832   4.091   0.354   5.987
 6378SOL    MW425833   4.143   0.287   5.962
 6379SOL     OW25834   3.989   1.245   6.008
 6379SOL    HW225835   3.937   1.313   5.964
 6379SOL    HW325836   3.986   1.171   5.948
 6379SOL    MW425837   3.981   1.244   5.995
 6380SOL     OW25838   4.651   1.708   5.786
 6380SOL    HW225839   4.606   1.724   5.869
 6380SOL    HW325840   4.582   1.673   5.728
 6380SOL    MW425841   4.637   1.705   5.788
 6381SOL     OW25842   5.586   0.481   5.761
 6381SOL    HW225843   5.495   0.483   5.789
 6381SOL    HW325844   5.631   0.543   5.819
 6381SOL    MW425845   5.579   0.489   5.771
 6382SOL     OW25846   5.331   1.084   6.111
 6382SOL    HW225847   5.241   1.084   6.146
 6382SOL    HW325848   5.324   1.130   6.028
 6382SOL    MW425849   5.318   1.090   6.105
 6383SOL     OW25850   4.858   0.665   6.072
 6383SOL    HW225851   4.884   0.689   5.983
 6383SOL    HW325852   4.840   0.572   6.068
 6383SOL    MW425853   4.860   0.657   6.059
 6384SOL     OW25854   5.523   1.285   5.923
 6384SOL    HW225855   5.479   1.326   5.998
 6384SOL    HW325856   5.580   1.353   5.888
 6384SOL    MW425857   5.525   1.299   5.928
 6385SOL     OW25858   4.179   1.701   6.241
 6385SOL    HW225859   4.211   1.789   6.219
 6385SOL    HW325860   4.132   1.673   6.163
 6385SOL    MW425861   4.178   1.709   6.228
 6386SOL     OW25862   3.895   1.761   5.818
 6386SOL    HW225863   3.924   1.851   5.810
 6386SOL    HW325864   3.845   1.744   5.739
 6386SOL    MW425865   3.893   1.769   5.807
 6387SOL     OW25866   5.299   1.569   5.789
 6387SOL    HW225867   5.347   1.638   5.835
 6387SOL    HW325868   5.220   1.613   5.758
 6387SOL    MW425869   5.294   1.583   5.792
 6388SOL     OW25870   4.697   0.694   5.733
 6388SOL    HW225871   4.699   0.641   5.654
 6388SOL    HW325872   4.785   0.731   5.739
 6388SOL    MW425873   4.709   0.693   5.722
 6389SOL     OW25874   5.311   0.620   6.069
 6389SOL    HW225875   5.350   0.620   6.156
 6389SOL    HW325876   5.252   0.696   6.069
 6389SOL    MW425877   5.308   0.631   6.080
 6390SOL     OW25878   4.867   1.313   5.825
 6390SOL    HW225879   4.817   1.315   5.907
 6390SOL    HW325880   4.801   1.331   5.757
 6390SOL    MW425881   4.853   1.315   5.827
 6391SOL     OW25882   4.330   1.731   5.933
 6391SOL    HW225883   4.251   1.689   5.966
 6391SOL    HW325884   4.396   1.714   6.000
 6391SOL    MW425885   4.329   1.723   5.946
 6392SOL     OW25886   4.466   1.146   5.640
 6392SOL    HW225887   4.388   1.092   5.627
 6392SOL    HW325888   4.437   1.219   5.693
 6392SOL    MW425889   4.452   1.148   5.645
 6393SOL     OW25890   5.047   1.662   5.708
 6393SOL    HW225891   4.973   1.625   5.758
 6393SOL    HW325892   5.055   1.752   5.741
 6393SOL    MW425893   5.038   1.669   5.720
 6394SOL     OW25894   5.271   1.336   5.650
 6394SOL    HW225895   5.218   1.385   5.586
 6394SOL    HW325896   5.302   1.402   5.711
 6394SOL    MW425897   5.269   1.350   5.648
 6395SOL     OW25898   4.496   0.225   5.705
 6395SOL    HW225899   4.444   0.145   5.693
 6395SOL    HW325900   4.583   0.202   5.673
 6395SOL    MW425901   4.499   0.211   5.699
 6396SOL     OW25902   3.865   1.477   6.201
 6396SOL    HW225903   3.837   1.516   6.283
 6396SOL    HW325904   3.885   1.386   6.223
 6396SOL    MW425905   3.863   1.469   6.214
 6397SOL     OW25906   4.698   1.520   6.236
 6397SOL    HW225907   4.781   1.474   6.220
 6397SOL    HW325908   4.688   1.519   6.332
 6397SOL    MW425909   4.708   1.513   6.246
 6398SOL     OW25910   4.431   1.577   5.641
 6398SOL    HW225911   4.371   1.646   5.611
 6398SOL    HW325912   4.376   1.519   5.694
 6398SOL    MW425913   4.415   1.579   5.643
 6399SOL     OW25914   4.869   0.222   5.864
 6399SOL    HW225915   4.802   0.198   5.801
 6399SOL    HW325916   4.934   0.271   5.813
 6399SOL    MW425917   4.869   0.224   5.849
 6400SOL     OW25918   4.062   1.621   6.030
 6400SOL    HW225919   4.023   1.668   5.956
 6400SOL    HW325920   3.996   1.556   6.055
 6400SOL    MW425921   4.049   1.619   6.024
 6401SOL     OW25922   4.554   1.030   6.054
 6401SOL    HW225923   4.556   1.004   5.961
 6401SOL    HW325924   4.612   0.967   6.097
 6401SOL    MW425925   4.562   1.019   6.048
 6402SOL     OW25926   5.044   0.378   5.722
 6402SOL    HW225927   5.017   0.444   5.658
 6402SOL    HW325928   5.114   0.421   5.772
 6402SOL    MW425929   5.049   0.391   5.719
 6403SOL     OW25930   4.712   0.083   5.659
 6403SOL    HW225931   4.768   0.075   5.581
 6403SOL    HW325932   4.689  -0.007   5.681
 6403SOL    MW425933   4.717   0.070   5.652
 6404SOL     OW25934   5.217   0.934   5.864
 6404SOL    HW225935   5.184   1.023   5.854
 6404SOL    HW325936   5.182   0.905   5.949
 6404SOL    MW425937   5.207   0.943   5.875
 6405SOL     OW25938   4.211   0.972   5.656
 6405SOL    HW225939   4.134   0.985   5.712
 6405SOL    HW325940   4.175   0.936   5.575
 6405SOL    MW425941   4.197   0.968   5.653
 6406SOL     OW25942   4.864   0.945   5.899
 6406SOL    HW225943   4.774   0.966   5.874
 6406SOL    HW325944   4.891   1.018   5.955
 6406SOL    MW425945   4.856   0.957   5.902
 6407SOL     OW25946   4.251   1.301   6.055
 6407SOL    HW225947   4.244   1.333   6.145
 6407SOL    HW325948   4.161   1.285   6.027
 6407SOL    MW425949   4.239   1.303   6.062
 6408SOL     OW25950   4.254   0.585   5.769
 6408SOL    HW225951   4.220   0.641   5.839
 6408SOL    HW325952   4.325   0.535   5.809
 6408SOL    MW425953   4.260   0.586   5.783
 6409SOL     OW25954   5.310   0.471   5.833
 6409SOL    HW225955   5.302   0.542   5.770
 6409SOL    HW325956   5.328   0.515   5.916
 6409SOL    MW425957   5.311   0.485   5.835
 6410SOL     OW25958   4.170   0.126   6.262
 6410SOL    HW225959   4.220   0.169   6.193
 6410SOL    HW325960   4.085   0.170   6.262
 6410SOL    MW425961   4.167   0.139   6.253
 6411SOL     OW25962   4.979   0.733   5.808
 6411SOL    HW225963   5.026   0.751   5.727
 6411SOL    HW325964   4.945   0.817   5.836
 6411SOL    MW425965   4.981   0.747   5.801
 6412SOL     OW25966   5.232   0.263   6.139
 6412SOL    HW225967   5.154   0.213   6.164
 6412SOL    HW325968   5.203   0.354   6.139
 6412SOL    MW425969   5.218   0.267   6.142
 6413SOL     OW25970   4.714   1.475   5.630
 6413SOL    HW225971   4.741   1.553   5.582
 6413SOL    HW325972   4.621   1.490   5.649
 6413SOL    MW425973   4.705   1.488   5.626
 6414SOL     OW25974   3.754   0.637   6.021
 6414SOL    HW225975   3.694   0.609   6.091
 6414SOL    HW325976   3.828   0.577   6.027
 6414SOL    MW425977   3.756   0.626   6.030
 6415SOL     OW25978   4.922   1.368   6.181
 6415SOL    HW225979   4.945   1.319   6.259
 6415SOL    HW325980   5.003   1.410   6.153
 6415SOL    MW425981   4.935   1.368   6.188
 6416SOL     OW25982   5.122   0.810   6.095
 6416SOL    HW225983   5.037   0.780   6.065
 6416SOL    HW325984   5.114   0.817   6.190
 6416SOL    MW425985   5.110   0.808   6.104
 6417SOL     OW25986   4.495   0.476   5.821
 6417SOL    HW225987   4.568   0.525   5.784
 6417SOL    HW325988   4.511   0.385   5.795
 6417SOL    MW425989   4.507   0.471   5.814
 6418SOL     OW25990   3.970   0.985   5.919
 6418SOL    HW225991   3.907   1.001   5.848
 6418SOL    HW325992   3.917   0.948   5.990
 6418SOL    MW425993   3.955   0.982   5.919
 6419SOL     OW25994   4.326   1.339   5.778
 6419SOL    HW225995   4.341   1.315   5.870
 6419SOL    HW325996   4.234   1.317   5.762
 6419SOL    MW425997   4.316   1.332   5.788
 6420SOL     OW25998   4.865   1.570   5.930
 6420SOL    HW225999   4.873   1.488   5.881
 6420SOL    HW326000   4.784   1.609   5.897
 6420SOL    MW426001   4.855   1.565   5.920
 6421SOL     OW26002   4.837   0.392   6.100
 6421SOL    HW226003   4.859   0.329   6.032
 6421SOL    HW326004   4.742   0.384   6.111
 6421SOL    MW426005   4.827   0.383   6.092
 6422SOL     OW26006   3.922   0.082   6.032
 6422SOL    HW226007   3.993   0.103   5.971
 6422SOL    HW326008   3.876   0.010   5.990
 6422SOL    MW426009   3.926   0.076   6.018
 6423SOL     OW26010   5.491   1.456   6.132
 6423SOL    HW226011   5.461   1.389   6.193
 6423SOL    HW326012   5.585   1.462   6.146
 6423SOL    MW426013   5.499   1.448   6.142
 6424SOL     OW26014   5.047   1.133   6.062
 6424SOL    HW226015   5.019   1.219   6.095
 6424SOL    HW326016   5.075   1.149   5.972
 6424SOL    MW426017   5.047   1.147   6.054
 6425SOL     OW26018   4.709   0.053   6.115
 6425SOL    HW226019   4.746   0.112   6.180
 6425SOL    HW326020   4.686   0.109   6.041
 6425SOL    MW426021   4.710   0.068   6.114
 6426SOL     OW26022   4.130   0.744   6.011
 6426SOL    HW226023   4.130   0.839   5.996
 6426SOL    HW326024   4.207   0.728   6.065
 6426SOL    MW426025   4.140   0.755   6.016
 6427SOL     OW26026   5.436   1.815   5.832
 6427SOL    HW226027   5.503   1.848   5.772
 6427SOL    HW326028   5.393   1.894   5.866
 6427SOL    MW426029   5.438   1.830   5.828
 6428SOL     OW26030   3.758   1.047   5.758
 6428SOL    HW226031   3.727   1.112   5.821
 6428SOL    HW326032   3.707   0.969   5.777
 6428SOL    MW426033   3.748   1.044   5.768
 6429SOL     OW26034   4.342   1.847   5.700
 6429SOL    HW226035   4.247   1.847   5.692
 6429SOL    HW326036   4.358   1.793   5.778
 6429SOL    MW426037   4.332   1.841   5.709
 6430SOL     OW26038   5.187   0.667   5.615
 6430SOL    HW226039   5.115   0.643   5.557
 6430SOL    HW326040   5.253   0.704   5.557
 6430SOL    MW426041   5.186   0.669   5.600
 6431SOL     OW26042   4.582   0.564   6.426
 6431SOL    HW226043   4.522   0.582   6.498
 6431SOL    HW326044   4.616   0.476   6.445
 6431SOL    MW426045   4.578   0.554   6.439
 6432SOL     OW26046   4.600   0.967   5.800
 6432SOL    HW226047   4.586   0.879   5.765
 6432SOL    HW326048   4.551   1.024   5.741
 6432SOL    MW426049   4.592   0.962   5.788
 6433SOL     OW26050   4.608   0.736   6.016
 6433SOL    HW226051   4.588   0.722   5.923
 6433SOL    HW326052   4.701   0.715   6.023
 6433SOL    MW426053   4.618   0.731   6.005
 6434SOL     OW26054   4.591   1.694   6.054
 6434SOL    HW226055   4.649   1.765   6.081
 6434SOL    HW326056   4.614   1.622   6.112
 6434SOL    MW426057   4.602   1.694   6.065
 6435SOL     OW26058   4.047   0.126   5.789
 6435SOL    HW226059   3.976   0.181   5.757
 6435SOL    HW326060   4.089   0.092   5.710
 6435SOL    MW426061   4.043   0.128   5.775
 6436SOL     OW26062   3.803   0.225   5.638
 6436SOL    HW226063   3.770   0.304   5.682
 6436SOL    HW326064   3.858   0.258   5.567
 6436SOL    MW426065   3.806   0.239   5.635
 6437SOL     OW26066   3.837   1.482   5.827
 6437SOL    HW226067   3.854   1.566   5.869
 6437SOL    HW326068   3.872   1.491   5.739
 6437SOL    MW426069   3.842   1.495   5.821
 6438SOL     OW26070   5.109   1.571   6.044
 6438SOL    HW226071   5.172   1.561   5.973
 6438SOL    HW326072   5.026   1.591   5.999
 6438SOL    MW426073   5.106   1.572   6.029
 6439SOL     OW26074   5.338   2.639   1.252
 6439SOL    HW226075   5.293   2.706   1.303
 6439SOL    HW326076   5.426   2.675   1.238
 6439SOL    MW426077   5.344   2.652   1.256
 6440SOL     OW26078   4.266   2.890   0.486
 6440SOL    HW226079   4.356   2.865   0.470
 6440SOL    HW326080   4.262   2.983   0.463
 6440SOL    MW426081   4.278   2.899   0.481
 6441SOL     OW26082   5.382   3.593   0.628
 6441SOL    HW226083   5.394   3.539   0.706
 6441SOL    HW326084   5.419   3.541   0.557
 6441SOL    MW426085   5.388   3.578   0.629
 6442SOL     OW26086   4.761   3.478   1.629
 6442SOL    HW226087   4.802   3.514   1.550
 6442SOL    HW326088   4.796   3.389   1.636
 6442SOL    MW426089   4.772   3.471   1.620
 6443SOL     OW26090   5.318   3.033   1.233
 6443SOL    HW226091   5.239   2.998   1.191
 6443SOL    HW326092   5.345   3.105   1.177
 6443SOL    MW426093   5.311   3.038   1.220
 6444SOL     OW26094   4.550   2.346   0.499
 6444SOL    HW226095   4.525   2.434   0.527
 6444SOL    HW326096   4.547   2.349   0.403
 6444SOL    MW426097   4.546   2.358   0.491
 6445SOL     OW26098   3.992   2.374   0.427
 6445SOL    HW226099   4.024   2.462   0.409
 6445SOL    HW326100   3.980   2.372   0.522
 6445SOL    MW426101   3.995   2.386   0.439
 6446SOL     OW26102   4.070   2.787   1.328
 6446SOL    HW226103   4.133   2.734   1.279
 6446SOL    HW326104   4.051   2.861   1.271
 6446SOL    MW426105   4.076   2.789   1.315
 6447SOL     OW26106   4.391   2.129   0.514
 6447SOL    HW226107   4.449   2.205   0.516
 6447SOL    HW326108   4.326   2.150   0.447
 6447SOL    MW426109   4.390   2.141   0.505
 6448SOL     OW26110   4.478   3.056   0.689
 6448SOL    HW226111   4.558   3.059   0.741
 6448SOL    HW326112   4.506   3.023   0.603
 6448SOL    MW426113   4.492   3.052   0.684
 6449SOL     OW26114   4.503   3.397   1.592
 6449SOL    HW226115   4.587   3.423   1.631
 6449SOL    HW326116   4.527   3.341   1.518
 6449SOL    MW426117   4.517   3.393   1.587
 6450SOL     OW26118   4.255   2.560   0.680
 6450SOL    HW226119   4.240   2.480   0.731
 6450SOL    HW326120   4.337   2.595   0.714
 6450SOL    MW426121   4.263   2.552   0.692
 6451SOL     OW26122   4.592   3.246   1.365
 6451SOL    HW226123   4.556   3.312   1.305
 6451SOL    HW326124   4.520   3.184   1.378
 6451SOL    MW426125   4.578   3.246   1.359
 6452SOL     OW26126   4.397   2.386   1.057
 6452SOL    HW226127   4.303   2.382   1.075
 6452SOL    HW326128   4.427   2.295   1.066
 6452SOL    MW426129   4.388   2.374   1.060
 6453SOL     OW26130   4.143   2.800   0.961
 6453SOL    HW226131   4.098   2.807   0.877
 6453SOL    HW326132   4.123   2.883   1.005
 6453SOL    MW426133   4.135   2.812   0.955
 6454SOL     OW26134   3.840   3.646   0.836
 6454SOL    HW226135   3.929   3.638   0.871
 6454SOL    HW326136   3.804   3.558   0.841
 6454SOL    MW426137   3.847   3.633   0.841
 6455SOL     OW26138   4.104   3.173   0.871
 6455SOL    HW226139   4.080   3.226   0.947
 6455SOL    HW326140   4.160   3.231   0.819
 6455SOL    MW426141   4.108   3.188   0.874
 6456SOL     OW26142   4.666   2.817   0.681
 6456SOL    HW226143   4.580   2.804   0.721
 6456SOL    HW326144   4.719   2.744   0.713
 6456SOL    MW426145   4.662   2.806   0.690
 6457SOL     OW26146   4.074   3.469   1.466
 6457SOL    HW226147   3.982   3.445   1.451
 6457SOL    HW326148   4.118   3.386   1.483
 6457SOL    MW426149   4.068   3.454   1.465
 6458SOL     OW26150   4.657   3.179   0.398
 6458SOL    HW226151   4.634   3.241   0.466
 6458SOL    HW326152   4.614   3.097   0.424
 6458SOL    MW426153   4.649   3.175   0.409
 6459SOL     OW26154   5.530   2.180   0.854
 6459SOL    HW226155   5.467   2.160   0.923
 6459SOL    HW326156   5.520   2.109   0.791
 6459SOL    MW426157   5.520   2.167   0.855
 6460SOL     OW26158   5.331   2.952   0.506
 6460SOL    HW226159   5.241   2.952   0.541
 6460SOL    HW326160   5.324   2.998   0.423
 6460SOL    MW426161   5.318   2.958   0.500
 6461SOL     OW26162   5.131   2.587   1.578
 6461SOL    HW226163   5.200   2.525   1.555
 6461SOL    HW326164   5.056   2.561   1.525
 6461SOL    MW426165   5.131   2.574   1.569
 6462SOL     OW26166   3.872   3.467   1.130
 6462SOL    HW226167   3.855   3.413   1.207
 6462SOL    HW326168   3.860   3.557   1.160
 6462SOL    MW426169   3.869   3.471   1.144
 6463SOL     OW26170   4.867   2.974   1.570
 6463SOL    HW226171   4.852   3.067   1.555
 6463SOL    HW326172   4.962   2.964   1.570
 6463SOL    MW426173   4.876   2.984   1.567
 6464SOL     OW26174   4.663   2.398   1.771
 6464SOL    HW226175   4.753   2.399   1.738
 6464SOL    HW326176   4.622   2.323   1.729
 6464SOL    MW426177   4.669   2.388   1.762
 6465SOL     OW26178   5.238   2.930   0.898
 6465SOL    HW226179   5.241   2.864   0.829
 6465SOL    HW326180   5.323   2.973   0.894
 6465SOL    MW426181   5.250   2.926   0.889
 6466SOL     OW26182   4.858   2.533   0.467
 6466SOL    HW226183   4.884   2.557   0.378
 6466SOL    HW326184   4.840   2.440   0.463
 6466SOL    MW426185   4.860   2.525   0.454
 6467SOL     OW26186   4.443   2.202   1.721
 6467SOL    HW226187   4.453   2.128   1.661
 6467SOL    HW326188   4.479   2.171   1.804
 6467SOL    MW426189   4.449   2.188   1.723
 6468SOL     OW26190   4.179   3.569   0.636
 6468SOL    HW226191   4.211   3.657   0.614
 6468SOL    HW326192   4.132   3.541   0.558
 6468SOL    MW426193   4.178   3.577   0.623
 6469SOL     OW26194   5.563   1.931   0.685
 6469SOL    HW226195   5.617   1.882   0.747
 6469SOL    HW326196   5.506   1.865   0.646
 6469SOL    MW426197   5.563   1.915   0.687
 6470SOL     OW26198   4.682   1.884   1.098
 6470SOL    HW226199   4.641   1.962   1.060
 6470SOL    HW326200   4.776   1.902   1.093
 6470SOL    MW426201   4.688   1.896   1.093
 6471SOL     OW26202   5.311   2.488   0.464
 6471SOL    HW226203   5.350   2.488   0.551
 6471SOL    HW326204   5.252   2.564   0.464
 6471SOL    MW426205   5.308   2.499   0.475
 6472SOL     OW26206   4.628   2.855   1.593
 6472SOL    HW226207   4.605   2.835   1.683
 6472SOL    HW326208   4.713   2.899   1.598
 6472SOL    MW426209   4.635   2.858   1.605
 6473SOL     OW26210   4.708   1.992   1.353
 6473SOL    HW226211   4.714   1.954   1.266
 6473SOL    HW326212   4.697   2.086   1.338
 6473SOL    MW426213   4.709   2.000   1.341
 6474SOL     OW26214   4.797   2.481   1.187
 6474SOL    HW226215   4.872   2.510   1.134
 6474SOL    HW326216   4.729   2.546   1.171
 6474SOL    MW426217   4.798   2.493   1.177
 6475SOL     OW26218   5.347   2.449   1.464
 6475SOL    HW226219   5.328   2.358   1.443
 6475SOL    HW326220   5.325   2.498   1.385
 6475SOL    MW426221   5.342   2.442   1.451
 6476SOL     OW26222   5.489   3.543   1.368
 6476SOL    HW226223   5.417   3.505   1.419
 6476SOL    HW326224   5.506   3.628   1.409
 6476SOL    MW426225   5.483   3.548   1.380
 6477SOL     OW26226   4.794   2.187   1.570
 6477SOL    HW226227   4.760   2.226   1.489
 6477SOL    HW326228   4.772   2.095   1.563
 6477SOL    MW426229   4.787   2.180   1.560
 6478SOL     OW26230   5.203   3.001   1.646
 6478SOL    HW226231   5.285   3.042   1.676
 6478SOL    HW326232   5.166   2.963   1.726
 6478SOL    MW426233   5.209   3.002   1.661
 6479SOL     OW26234   5.498   2.374   0.630
 6479SOL    HW226235   5.587   2.343   0.647
 6479SOL    HW326236   5.441   2.314   0.678
 6479SOL    MW426237   5.501   2.362   0.639
 6480SOL     OW26238   3.924   2.088   0.659
 6480SOL    HW226239   3.915   2.028   0.585
 6480SOL    HW326240   3.857   2.059   0.722
 6480SOL    MW426241   3.914   2.075   0.657
 6481SOL     OW26242   3.871   2.261   1.022
 6481SOL    HW226243   3.843   2.352   1.031
 6481SOL    HW326244   3.808   2.222   0.961
 6481SOL    MW426245   3.858   2.267   1.016
 6482SOL     OW26246   4.330   3.599   0.328
 6482SOL    HW226247   4.251   3.557   0.361
 6482SOL    HW326248   4.396   3.582   0.395
 6482SOL    MW426249   4.329   3.591   0.341
 6483SOL     OW26250   5.458   3.119   1.725
 6483SOL    HW226251   5.508   3.045   1.757
 6483SOL    HW326252   5.404   3.146   1.800
 6483SOL    MW426253   5.458   3.113   1.738
 6484SOL     OW26254   5.592   2.754   1.227
 6484SOL    HW226255   5.608   2.792   1.140
 6484SOL    HW326256   5.626   2.820   1.288
 6484SOL    MW426257   5.599   2.767   1.223
 6485SOL     OW26258   5.384   3.463   0.896
 6485SOL    HW226259   5.413   3.530   0.957
 6485SOL    HW326260   5.365   3.387   0.951
 6485SOL    MW426261   5.386   3.463   0.911
 6486SOL     OW26262   3.855   2.536   1.192
 6486SOL    HW226263   3.917   2.566   1.258
 6486SOL    HW326264   3.789   2.605   1.186
 6486SOL    MW426265   3.854   2.549   1.199
 6487SOL     OW26266   3.950   3.645   1.644
 6487SOL    HW226267   3.924   3.713   1.582
 6487SOL    HW326268   3.998   3.582   1.592
 6487SOL    MW426269   3.952   3.645   1.630
 6488SOL     OW26270   4.002   2.964   1.151
 6488SOL    HW226271   4.055   3.039   1.176
 6488SOL    HW326272   3.921   3.002   1.117
 6488SOL    MW426273   3.998   2.979   1.151
 6489SOL     OW26274   4.542   2.868   1.139
 6489SOL    HW226275   4.570   2.777   1.151
 6489SOL    HW326276   4.471   2.862   1.075
 6489SOL    MW426277   4.535   2.856   1.134
 6490SOL     OW26278   3.857   2.733   0.557
 6490SOL    HW226279   3.948   2.748   0.584
 6490SOL    HW326280   3.860   2.654   0.503
 6490SOL    MW426281   3.869   2.725   0.555
 6491SOL     OW26282   4.093   2.441   1.811
 6491SOL    HW226283   4.040   2.521   1.818
 6491SOL    HW326284   4.163   2.453   1.876
 6491SOL    MW426285   4.095   2.454   1.819
 6492SOL     OW26286   4.479   1.991   1.518
 6492SOL    HW226287   4.456   1.899   1.520
 6492SOL    HW326288   4.565   1.993   1.475
 6492SOL    MW426289   4.486   1.981   1.514
 6493SOL     OW26290   4.163   2.515   1.557
 6493SOL    HW226291   4.243   2.565   1.543
 6493SOL    HW326292   4.154   2.509   1.652
 6493SOL    MW426293   4.172   2.521   1.567
 6494SOL     OW26294   4.484   3.665   0.931
 6494SOL    HW226295   4.573   3.680   0.961
 6494SOL    HW326296   4.479   3.712   0.847
 6494SOL    MW426297   4.494   3.673   0.924
 6495SOL     OW26298   5.140   2.040   1.828
 6495SOL    HW226299   5.196   1.967   1.854
 6495SOL    HW326300   5.110   2.078   1.910
 6495SOL    MW426301   5.144   2.035   1.841
 6496SOL     OW26302   3.865   3.345   0.596
 6496SOL    HW226303   3.837   3.384   0.678
 6496SOL    HW326304   3.885   3.254   0.618
 6496SOL    MW426305   3.863   3.337   0.609
 6497SOL     OW26306   4.698   3.388   0.631
 6497SOL    HW226307   4.781   3.342   0.615
 6497SOL    HW326308   4.688   3.387   0.727
 6497SOL    MW426309   4.708   3.381   0.641
 6498SOL     OW26310   5.530   2.533   0.945
 6498SOL    HW226311   5.619   2.563   0.927
 6498SOL    HW326312   5.510   2.473   0.874
 6498SOL    MW426313   5.539   2.530   0.934
 6499SOL     OW26314   5.381   2.712   1.825
 6499SOL    HW226315   5.436   2.636   1.806
 6499SOL    HW326316   5.383   2.720   1.920
 6499SOL    MW426317   5.389   2.703   1.833
 6500SOL     OW26318   4.676   2.274   1.344
 6500SOL    HW226319   4.595   2.315   1.372
 6500SOL    HW326320   4.723   2.342   1.296
 6500SOL    MW426321   4.671   2.289   1.342
 6501SOL     OW26322   4.936   2.612   0.967
 6501SOL    HW226323   4.949   2.706   0.977
 6501SOL    HW326324   4.897   2.602   0.881
 6501SOL    MW426325   4.932   2.623   0.957
 6502SOL     OW26326   4.388   2.807   0.771
 6502SOL    HW226327   4.299   2.798   0.804
 6502SOL    HW326328   4.392   2.897   0.739
 6502SOL    MW426329   4.377   2.818   0.771
 6503SOL     OW26330   5.187   2.390   0.766
 6503SOL    HW226331   5.132   2.311   0.765
 6503SOL    HW326332   5.169   2.431   0.850
 6503SOL    MW426333   5.177   2.385   0.775
 6504SOL     OW26334   4.158   2.077   1.583
 6504SOL    HW226335   4.079   2.095   1.635
 6504SOL    HW326336   4.153   2.139   1.510
 6504SOL    MW426337   4.148   2.087   1.580
 6505SOL     OW26338   4.806   2.594   0.723
 6505SOL    HW226339   4.743   2.526   0.747
 6505SOL    HW326340   4.826   2.575   0.631
 6505SOL    MW426341   4.800   2.581   0.715
 6506SOL     OW26342   4.062   3.489   0.425
 6506SOL    HW226343   4.023   3.536   0.351
 6506SOL    HW326344   3.996   3.424   0.450
 6506SOL    MW426345   4.049   3.487   0.419
 6507SOL     OW26346   4.554   2.898   0.449
 6507SOL    HW226347   4.556   2.872   0.356
 6507SOL    HW326348   4.612   2.835   0.492
 6507SOL    MW426349   4.562   2.887   0.443
 6508SOL     OW26350   5.107   3.458   1.221
 6508SOL    HW226351   5.032   3.504   1.259
 6508SOL    HW326352   5.089   3.365   1.238
 6508SOL    MW426353   5.096   3.452   1.229
 6509SOL     OW26354   5.111   3.666   0.651
 6509SOL    HW226355   5.054   3.619   0.590
 6509SOL    HW326356   5.197   3.627   0.638
 6509SOL    MW426357   5.114   3.657   0.641
 6510SOL     OW26358   5.064   2.142   0.782
 6510SOL    HW226359   5.092   2.074   0.843
 6510SOL    HW326360   4.978   2.113   0.752
 6510SOL    MW426361   5.057   2.129   0.786
 6511SOL     OW26362   3.869   3.076   0.716
 6511SOL    HW226363   3.933   3.108   0.779
 6511SOL    HW326364   3.918   3.012   0.664
 6511SOL    MW426365   3.884   3.072   0.717
 6512SOL     OW26366   4.369   3.152   1.698
 6512SOL    HW226367   4.417   3.235   1.685
 6512SOL    HW326368   4.426   3.100   1.754
 6512SOL    MW426369   4.383   3.156   1.704
 6513SOL     OW26370   3.945   3.394   1.838
 6513SOL    HW226371   4.001   3.318   1.853
 6513SOL    HW326372   3.894   3.372   1.760
 6513SOL    MW426373   3.945   3.381   1.829
 6514SOL     OW26374   5.217   2.802   0.259
 6514SOL    HW226375   5.184   2.891   0.249
 6514SOL    HW326376   5.182   2.773   0.344
 6514SOL    MW426377   5.207   2.811   0.270
 6515SOL     OW26378   4.830   3.231   1.447
 6515SOL    HW226379   4.741   3.237   1.415
 6515SOL    HW326380   4.874   3.310   1.415
 6515SOL    MW426381   4.825   3.241   1.439
 6516SOL     OW26382   4.123   1.899   1.789
 6516SOL    HW226383   4.051   1.864   1.737
 6516SOL    HW326384   4.181   1.940   1.724
 6516SOL    MW426385   4.121   1.900   1.774
 6517SOL     OW26386   4.147   3.389   1.088
 6517SOL    HW226387   4.192   3.451   1.145
 6517SOL    HW326388   4.054   3.408   1.101
 6517SOL    MW426389   4.140   3.399   1.095
 6518SOL     OW26390   5.587   2.918   1.442
 6518SOL    HW226391   5.502   2.931   1.401
 6518SOL    HW326392   5.567   2.882   1.529
 6518SOL    MW426393   5.574   2.914   1.447
 6519SOL     OW26394   4.569   3.457   1.196
 6519SOL    HW226395   4.593   3.446   1.105
 6519SOL    HW326396   4.492   3.514   1.194
 6519SOL    MW426397   4.561   3.462   1.185
 6520SOL     OW26398   4.864   2.813   0.294
 6520SOL    HW226399   4.774   2.834   0.269
 6520SOL    HW326400   4.891   2.886   0.350
 6520SOL    MW426401   4.856   2.825   0.297
 6521SOL     OW26402   4.364   3.162   0.986
 6521SOL    HW226403   4.357   3.141   1.080
 6521SOL    HW326404   4.282   3.130   0.949
 6521SOL    MW426405   4.352   3.156   0.993
 6522SOL     OW26406   5.228   2.172   1.388
 6522SOL    HW226407   5.175   2.174   1.468
 6522SOL    HW326408   5.213   2.085   1.351
 6522SOL    MW426409   5.220   2.162   1.393
 6523SOL     OW26410   5.564   2.096   1.261
 6523SOL    HW226411   5.545   2.163   1.196
 6523SOL    HW326412   5.621   2.034   1.216
 6523SOL    MW426413   5.568   2.097   1.247
 6524SOL     OW26414   3.810   3.254   1.649
 6524SOL    HW226415   3.854   3.187   1.595
 6524SOL    HW326416   3.725   3.216   1.669
 6524SOL    MW426417   3.805   3.240   1.645
 6525SOL     OW26418   4.493   1.929   0.701
 6525SOL    HW226419   4.422   1.990   0.683
 6525SOL    HW326420   4.544   1.926   0.620
 6525SOL    MW426421   4.489   1.935   0.688
 6526SOL     OW26422   4.251   3.169   0.450
 6526SOL    HW226423   4.244   3.201   0.540
 6526SOL    HW326424   4.161   3.153   0.422
 6526SOL    MW426425   4.239   3.171   0.457
 6527SOL     OW26426   4.846   3.562   1.359
 6527SOL    HW226427   4.766   3.547   1.309
 6527SOL    HW326428   4.853   3.657   1.366
 6527SOL    MW426429   4.837   3.573   1.353
 6528SOL     OW26430   4.960   3.527   0.849
 6528SOL    HW226431   5.007   3.600   0.808
 6528SOL    HW326432   4.881   3.566   0.885
 6528SOL    MW426433   4.955   3.542   0.848
 6529SOL     OW26434   5.368   3.622   1.124
 6529SOL    HW226435   5.411   3.592   1.204
 6529SOL    HW326436   5.287   3.570   1.121
 6529SOL    MW426437   5.363   3.611   1.134
 6530SOL     OW26438   4.453   2.586   1.831
 6530SOL    HW226439   4.523   2.528   1.803
 6530SOL    HW326440   4.396   2.531   1.886
 6530SOL    MW426441   4.455   2.573   1.835
 6531SOL     OW26442   5.240   2.798   1.464
 6531SOL    HW226443   5.245   2.851   1.544
 6531SOL    HW326444   5.202   2.715   1.492
 6531SOL    MW426445   5.236   2.793   1.479
 6532SOL     OW26446   4.880   1.933   1.710
 6532SOL    HW226447   4.875   1.840   1.691
 6532SOL    HW326448   4.963   1.944   1.756
 6532SOL    MW426449   4.888   1.922   1.714
 6533SOL     OW26450   5.350   3.204   0.986
 6533SOL    HW226451   5.385   3.186   0.899
 6533SOL    HW326452   5.255   3.205   0.973
 6533SOL    MW426453   5.342   3.201   0.973
 6534SOL     OW26454   4.779   2.852   1.355
 6534SOL    HW226455   4.822   2.887   1.433
 6534SOL    HW326456   4.762   2.929   1.301
 6534SOL    MW426457   4.782   2.867   1.358
 6535SOL     OW26458   4.170   1.994   0.657
 6535SOL    HW226459   4.220   2.037   0.588
 6535SOL    HW326460   4.085   2.038   0.657
 6535SOL    MW426461   4.167   2.007   0.648
 6536SOL     OW26462   3.929   3.056   1.517
 6536SOL    HW226463   3.957   3.009   1.595
 6536SOL    HW326464   3.850   3.011   1.488
 6536SOL    MW426465   3.922   3.045   1.523
 6537SOL     OW26466   4.437   2.383   1.484
 6537SOL    HW226467   4.409   2.471   1.508
 6537SOL    HW326468   4.406   2.327   1.555
 6537SOL    MW426469   4.429   2.386   1.496
 6538SOL     OW26470   4.092   2.779   0.697
 6538SOL    HW226471   4.150   2.835   0.645
 6538SOL    HW326472   4.136   2.694   0.699
 6538SOL    MW426473   4.105   2.776   0.690
 6539SOL     OW26474   5.232   2.131   0.534
 6539SOL    HW226475   5.154   2.081   0.559
 6539SOL    HW326476   5.203   2.222   0.534
 6539SOL    MW426477   5.218   2.135   0.537
 6540SOL     OW26478   4.818   2.093   0.693
 6540SOL    HW226479   4.838   2.168   0.637
 6540SOL    HW326480   4.798   2.132   0.778
 6540SOL    MW426481   4.819   2.109   0.697
 6541SOL     OW26482   5.578   2.866   1.712
 6541SOL    HW226483   5.491   2.846   1.748
 6541SOL    HW326484   5.632   2.792   1.737
 6541SOL    MW426485   5.573   2.855   1.720
 6542SOL     OW26486   3.799   3.379   0.869
 6542SOL    HW226487   3.831   3.383   0.960
 6542SOL    HW326488   3.704   3.387   0.877
 6542SOL    MW426489   3.791   3.382   0.882
 6543SOL     OW26490   3.754   2.505   0.416
 6543SOL    HW226491   3.694   2.477   0.486
 6543SOL    HW326492   3.828   2.445   0.422
 6543SOL    MW426493   3.756   2.494   0.425
 6544SOL     OW26494   5.322   3.717   1.850
 6544SOL    HW226495   5.367   3.641   1.815
 6544SOL    HW326496   5.360   3.730   1.937
 6544SOL    MW426497   5.332   3.710   1.856
 6545SOL     OW26498   4.922   3.236   0.576
 6545SOL    HW226499   4.945   3.187   0.654
 6545SOL    HW326500   5.003   3.278   0.548
 6545SOL    MW426501   4.935   3.236   0.583
 6546SOL     OW26502   4.180   2.244   1.305
 6546SOL    HW226503   4.213   2.325   1.345
 6546SOL    HW326504   4.153   2.270   1.217
 6546SOL    MW426505   4.179   2.258   1.299
 6547SOL     OW26506   4.134   2.211   1.041
 6547SOL    HW226507   4.164   2.125   1.012
 6547SOL    HW326508   4.039   2.204   1.044
 6547SOL    MW426509   4.126   2.200   1.039
 6548SOL     OW26510   4.963   2.420   1.732
 6548SOL    HW226511   5.015   2.355   1.685
 6548SOL    HW326512   4.921   2.471   1.662
 6548SOL    MW426513   4.964   2.417   1.715
 6549SOL     OW26514   5.062   2.215   1.593
 6549SOL    HW226515   4.969   2.199   1.580
 6549SOL    HW326516   5.088   2.153   1.661
 6549SOL    MW426517   5.052   2.205   1.600
 6550SOL     OW26518   4.277   1.989   0.932
 6550SOL    HW226519   4.287   1.898   0.958
 6550SOL    HW326520   4.233   1.985   0.847
 6550SOL    MW426521   4.273   1.977   0.924
 6551SOL     OW26522   4.371   3.604   1.478
 6551SOL    HW226523   4.288   3.589   1.523
 6551SOL    HW326524   4.430   3.537   1.513
 6551SOL    MW426525   4.369   3.594   1.488
 6552SOL     OW26526   5.428   2.311   1.103
 6552SOL    HW226527   5.361   2.344   1.163
 6552SOL    HW326528   5.471   2.389   1.069
 6552SOL    MW426529   5.426   2.326   1.107
 6553SOL     OW26530   5.606   3.031   1.073
 6553SOL    HW226531   5.599   2.971   0.998
 6553SOL    HW326532   5.532   3.091   1.062
 6553SOL    MW426533   5.596   3.031   1.062
 6554SOL     OW26534   4.988   2.893   0.991
 6554SOL    HW226535   5.002   2.865   1.082
 6554SOL    HW326536   5.074   2.924   0.963
 6554SOL    MW426537   5.001   2.894   1.000
 6555SOL     OW26538   5.071   2.388   1.270
 6555SOL    HW226539   5.092   2.389   1.177
 6555SOL    HW326540   5.116   2.310   1.303
 6555SOL    MW426541   5.078   2.378   1.262
 6556SOL     OW26542   5.564   2.519   1.812
 6556SOL    HW226543   5.601   2.464   1.881
 6556SOL    HW326544   5.589   2.476   1.730
 6556SOL    MW426545   5.571   2.507   1.811
 6557SOL     OW26546   5.111   2.817   1.863
 6557SOL    HW226547   5.177   2.765   1.817
 6557SOL    HW326548   5.131   2.804   1.956
 6557SOL    MW426549   5.122   2.808   1.870
 6558SOL     OW26550   5.122   2.678   0.490
 6558SOL    HW226551   5.037   2.648   0.460
 6558SOL    HW326552   5.114   2.685   0.585
 6558SOL    MW426553   5.110   2.676   0.499
 6559SOL     OW26554   4.198   3.141   1.221
 6559SOL    HW226555   4.210   3.168   1.312
 6559SOL    HW326556   4.179   3.222   1.174
 6559SOL    MW426557   4.197   3.156   1.226
 6560SOL     OW26558   4.482   2.121   1.044
 6560SOL    HW226559   4.455   2.123   1.135
 6560SOL    HW326560   4.412   2.073   0.999
 6560SOL    MW426561   4.470   2.117   1.051
 6561SOL     OW26562   4.336   3.613   1.206
 6561SOL    HW226563   4.388   3.690   1.183
 6561SOL    HW326564   4.345   3.605   1.301
 6561SOL    MW426565   4.345   3.620   1.217
 6562SOL     OW26566   5.238   3.198   1.438
 6562SOL    HW226567   5.223   3.127   1.501
 6562SOL    HW326568   5.284   3.156   1.366
 6562SOL    MW426569   5.244   3.182   1.438
 6563SOL     OW26570   4.312   2.929   1.555
 6563SOL    HW226571   4.349   2.934   1.467
 6563SOL    HW326572   4.351   3.002   1.602
 6563SOL    MW426573   4.322   2.939   1.550
 6564SOL     OW26574   4.492   2.972   1.367
 6564SOL    HW226575   4.551   2.918   1.420
 6564SOL    HW326576   4.507   2.944   1.277
 6564SOL    MW426577   4.502   2.961   1.363
 6565SOL     OW26578   5.303   3.461   1.539
 6565SOL    HW226579   5.345   3.446   1.624
 6565SOL    HW326580   5.294   3.374   1.501
 6565SOL    MW426581   5.307   3.449   1.546
 6566SOL     OW26582   4.963   1.940   1.130
 6566SOL    HW226583   5.018   1.949   1.052
 6566SOL    HW326584   5.018   1.974   1.201
 6566SOL    MW426585   4.977   1.945   1.129
 6567SOL     OW26586   4.124   3.596   0.894
 6567SOL    HW226587   4.128   3.507   0.929
 6567SOL    HW326588   4.150   3.587   0.803
 6567SOL    MW426589   4.127   3.584   0.886
 6568SOL     OW26590   4.741   3.074   1.137
 6568SOL    HW226591   4.673   3.008   1.153
 6568SOL    HW326592   4.759   3.068   1.044
 6568SOL    MW426593   4.734   3.065   1.128
 6569SOL     OW26594   3.830   3.349   1.388
 6569SOL    HW226595   3.820   3.307   1.474
 6569SOL    HW326596   3.751   3.402   1.378
 6569SOL    MW426597   3.819   3.350   1.399
 6570SOL     OW26598   4.734   2.213   0.958
 6570SOL    HW226599   4.664   2.165   1.003
 6570SOL    HW326600   4.766   2.276   1.022
 6570SOL    MW426601   4.729   2.215   0.972
 6571SOL     OW26602   4.385   2.649   1.578
 6571SOL    HW226603   4.378   2.744   1.566
 6571SOL    HW326604   4.394   2.638   1.673
 6571SOL    MW426605   4.386   2.661   1.588
 6572SOL     OW26606   4.106   3.164   1.836
 6572SOL    HW226607   4.178   3.166   1.773
 6572SOL    HW326608   4.076   3.073   1.835
 6572SOL    MW426609   4.111   3.153   1.828
 6573SOL     OW26610   5.190   1.927   1.303
 6573SOL    HW226611   5.261   1.873   1.267
 6573SOL    HW326612   5.189   1.906   1.396
 6573SOL    MW426613   5.199   1.918   1.311
 6574SOL     OW26614   5.390   3.457   1.787
 6574SOL    HW226615   5.363   3.454   1.878
 6574SOL    HW326616   5.486   3.461   1.790
 6574SOL    MW426617   5.400   3.457   1.799
 6575SOL     OW26618   4.201   2.319   0.771
 6575SOL    HW226619   4.272   2.267   0.734
 6575SOL    HW326620   4.187   2.284   0.858
 6575SOL    MW426621   4.209   2.308   0.778
 6576SOL     OW26622   3.756   3.654   1.843
 6576SOL    HW226623   3.806   3.632   1.765
 6576SOL    HW326624   3.764   3.749   1.851
 6576SOL    MW426625   3.764   3.663   1.834
 6577SOL     OW26626   4.517   3.412   0.847
 6577SOL    HW226627   4.445   3.349   0.860
 6577SOL    HW326628   4.478   3.497   0.865
 6577SOL    MW426629   4.501   3.415   0.850
 6578SOL     OW26630   3.753   2.417   1.570
 6578SOL    HW226631   3.817   2.483   1.545
 6578SOL    HW326632   3.672   2.444   1.527
 6578SOL    MW426633   3.751   2.429   1.562
 6579SOL     OW26634   5.491   3.324   0.527
 6579SOL    HW226635   5.461   3.257   0.588
 6579SOL    HW326636   5.585   3.330   0.541
 6579SOL    MW426637   5.499   3.316   0.537
 6580SOL     OW26638   5.047   3.001   0.457
 6580SOL    HW226639   5.019   3.087   0.490
 6580SOL    HW326640   5.075   3.017   0.367
 6580SOL    MW426641   5.047   3.015   0.449
 6581SOL     OW26642   4.709   1.921   0.510
 6581SOL    HW226643   4.746   1.980   0.575
 6581SOL    HW326644   4.686   1.977   0.436
 6581SOL    MW426645   4.710   1.936   0.509
 6582SOL     OW26646   5.562   2.803   0.932
 6582SOL    HW226647   5.553   2.835   0.843
 6582SOL    HW326648   5.515   2.719   0.932
 6582SOL    MW426649   5.555   2.796   0.922
 6583SOL     OW26650   3.938   2.643   1.511
 6583SOL    HW226651   3.959   2.712   1.449
 6583SOL    HW326652   4.018   2.590   1.516
 6583SOL    MW426653   3.951   2.644   1.505
 6584SOL     OW26654   5.474   2.734   0.633
 6584SOL    HW226655   5.568   2.723   0.621
 6584SOL    HW326656   5.450   2.806   0.574
 6584SOL    MW426657   5.484   2.742   0.624
 6585SOL     OW26658   3.923   2.658   1.778
 6585SOL    HW226659   3.849   2.602   1.804
 6585SOL    HW326660   3.918   2.661   1.683
 6585SOL    MW426661   3.912   2.651   1.768
 6586SOL     OW26662   4.089   1.945   1.228
 6586SOL    HW226663   4.132   2.029   1.248
 6586SOL    HW326664   4.162   1.883   1.221
 6586SOL    MW426665   4.104   1.948   1.229
 6587SOL     OW26666   4.130   2.612   0.406
 6587SOL    HW226667   4.130   2.707   0.391
 6587SOL    HW326668   4.207   2.596   0.460
 6587SOL    MW426669   4.140   2.623   0.411
 6588SOL     OW26670   4.906   2.471   1.470
 6588SOL    HW226671   4.942   2.444   1.386
 6588SOL    HW326672   4.819   2.505   1.449
 6588SOL    MW426673   4.900   2.472   1.457
 6589SOL     OW26674   3.889   2.343   0.695
 6589SOL    HW226675   3.951   2.350   0.768
 6589SOL    HW326676   3.889   2.250   0.672
 6589SOL    MW426677   3.897   2.332   0.702
 6590SOL     OW26678   4.571   2.604   1.179
 6590SOL    HW226679   4.529   2.522   1.155
 6590SOL    HW326680   4.572   2.603   1.275
 6590SOL    MW426681   4.564   2.593   1.188
 6591SOL     OW26682   5.242   3.737   1.578
 6591SOL    HW226683   5.245   3.643   1.561
 6591SOL    HW326684   5.265   3.745   1.670
 6591SOL    MW426685   5.245   3.725   1.588
 6592SOL     OW26686   4.375   2.074   1.284
 6592SOL    HW226687   4.306   2.137   1.305
 6592SOL    HW326688   4.402   2.038   1.369
 6592SOL    MW426689   4.369   2.077   1.297
 6593SOL     OW26690   5.170   1.927   0.901
 6593SOL    HW226691   5.258   1.936   0.938
 6593SOL    HW326692   5.180   1.868   0.827
 6593SOL    MW426693   5.184   1.921   0.895
 6594SOL     OW26694   5.202   2.666   0.745
 6594SOL    HW226695   5.282   2.681   0.694
 6594SOL    HW326696   5.195   2.571   0.751
 6594SOL    MW426697   5.211   2.655   0.740
 6595SOL     OW26698   4.652   2.592   1.442
 6595SOL    HW226699   4.721   2.659   1.439
 6595SOL    HW326700   4.585   2.630   1.498
 6595SOL    MW426701   4.653   2.605   1.449
 6596SOL     OW26702   4.070   2.892   1.690
 6596SOL    HW226703   4.024   2.808   1.692
 6596SOL    HW326704   4.127   2.886   1.614
 6596SOL    MW426705   4.072   2.880   1.682
 6597SOL     OW26706   4.321   3.267   0.691
 6597SOL    HW226707   4.386   3.200   0.712
 6597SOL    HW326708   4.373   3.344   0.668
 6597SOL    MW426709   4.336   3.269   0.690
 6598SOL     OW26710   4.582   2.432   0.821
 6598SOL    HW226711   4.522   2.450   0.893
 6598SOL    HW326712   4.616   2.344   0.840
 6598SOL    MW426713   4.578   2.422   0.834
 6599SOL     OW26714   5.523   1.931   1.490
 6599SOL    HW226715   5.444   1.977   1.518
 6599SOL    HW326716   5.558   1.985   1.419
 6599SOL    MW426717   5.517   1.944   1.484
 6600SOL     OW26718   4.807   3.015   0.840
 6600SOL    HW226719   4.899   2.996   0.858
 6600SOL    HW326720   4.780   2.945   0.780
 6600SOL    MW426721   4.815   3.003   0.834
 6601SOL     OW26722   4.600   2.835   0.195
 6601SOL    HW226723   4.586   2.747   0.160
 6601SOL    HW326724   4.551   2.892   0.136
 6601SOL    MW426725   4.592   2.830   0.183
 6602SOL     OW26726   5.081   3.253   0.936
 6602SOL    HW226727   5.054   3.337   0.901
 6602SOL    HW326728   5.041   3.248   1.023
 6602SOL    MW426729   5.074   3.262   0.942
 6603SOL     OW26730   5.000   3.201   1.204
 6603SOL    HW226731   5.011   3.168   1.293
 6603SOL    HW326732   4.919   3.160   1.173
 6603SOL    MW426733   4.990   3.193   1.210
 6604SOL     OW26734   4.013   2.559   0.974
 6604SOL    HW226735   3.963   2.558   1.055
 6604SOL    HW326736   4.033   2.651   0.958
 6604SOL    MW426737   4.009   2.571   0.982
 6605SOL     OW26738   5.080   3.323   1.736
 6605SOL    HW226739   5.080   3.417   1.752
 6605SOL    HW326740   5.125   3.313   1.652
 6605SOL    MW426741   5.086   3.333   1.727
 6606SOL     OW26742   4.608   2.604   0.411
 6606SOL    HW226743   4.588   2.590   0.318
 6606SOL    HW326744   4.701   2.583   0.418
 6606SOL    MW426745   4.618   2.599   0.400
 6607SOL     OW26746   3.935   2.227   1.715
 6607SOL    HW226747   3.892   2.286   1.652
 6607SOL    HW326748   4.003   2.282   1.755
 6607SOL    MW426749   3.939   2.242   1.712
 6608SOL     OW26750   5.047   2.847   1.260
 6608SOL    HW226751   5.110   2.844   1.333
 6608SOL    HW326752   4.963   2.865   1.302
 6608SOL    MW426753   5.043   2.849   1.275
 6609SOL     OW26754   4.591   3.562   0.449
 6609SOL    HW226755   4.649   3.633   0.476
 6609SOL    HW326756   4.614   3.490   0.507
 6609SOL    MW426757   4.602   3.562   0.460
 6610SOL     OW26758   5.386   2.024   1.039
 6610SOL    HW226759   5.431   1.942   1.058
 6610SOL    HW326760   5.406   2.080   1.115
 6610SOL    MW426761   5.396   2.020   1.051
 6611SOL     OW26762   3.834   1.867   1.138
 6611SOL    HW226763   3.825   1.868   1.043
 6611SOL    HW326764   3.928   1.879   1.153
 6611SOL    MW426765   3.846   1.870   1.129
 6612SOL     OW26766   5.471   3.060   0.758
 6612SOL    HW226767   5.450   3.006   0.681
 6612SOL    HW326768   5.567   3.058   0.762
 6612SOL    MW426769   5.480   3.053   0.747
 6613SOL     OW26770   4.163   3.205   1.501
 6613SOL    HW226771   4.084   3.155   1.524
 6613SOL    HW326772   4.233   3.164   1.551
 6613SOL    MW426773   4.161   3.193   1.511
 6614SOL     OW26774   5.171   2.491   1.020
 6614SOL    HW226775   5.094   2.537   0.986
 6614SOL    HW326776   5.228   2.560   1.054
 6614SOL    MW426777   5.168   2.506   1.020
 6615SOL     OW26778   3.837   3.350   0.222
 6615SOL    HW226779   3.854   3.434   0.264
 6615SOL    HW326780   3.872   3.359   0.134
 6615SOL    MW426781   3.842   3.363   0.216
 6616SOL     OW26782   5.109   3.439   0.439
 6616SOL    HW226783   5.172   3.429   0.368
 6616SOL    HW326784   5.026   3.459   0.394
 6616SOL    MW426785   5.106   3.440   0.424
 6617SOL     OW26786   5.472   2.707   2.125
 6617SOL    HW226787   5.513   2.649   2.190
 6617SOL    HW326788   5.379   2.699   2.142
 6617SOL    MW426789   5.466   2.699   2.135
 6618SOL     OW26790   5.338   2.639   3.120
 6618SOL    HW226791   5.293   2.706   3.171
 6618SOL    HW326792   5.426   2.675   3.106
 6618SOL    MW426793   5.344   2.652   3.124
 6619SOL     OW26794   4.266   2.890   2.354
 6619SOL    HW226795   4.356   2.865   2.338
 6619SOL    HW326796   4.262   2.983   2.331
 6619SOL    MW426797   4.278   2.899   2.349
 6620SOL     OW26798   5.382   3.593   2.496
 6620SOL    HW226799   5.394   3.539   2.574
 6620SOL    HW326800   5.419   3.541   2.425
 6620SOL    MW426801   5.388   3.578   2.497
 6621SOL     OW26802   4.761   3.478   3.497
 6621SOL    HW226803   4.802   3.514   3.418
 6621SOL    HW326804   4.796   3.389   3.504
 6621SOL    MW426805   4.772   3.471   3.488
 6622SOL     OW26806   5.318   3.033   3.101
 6622SOL    HW226807   5.239   2.998   3.059
 6622SOL    HW326808   5.345   3.105   3.045
 6622SOL    MW426809   5.311   3.038   3.088
 6623SOL     OW26810   4.550   2.346   2.367
 6623SOL    HW226811   4.525   2.434   2.395
 6623SOL    HW326812   4.547   2.349   2.271
 6623SOL    MW426813   4.546   2.358   2.359
 6624SOL     OW26814   3.992   2.374   2.295
 6624SOL    HW226815   4.024   2.462   2.277
 6624SOL    HW326816   3.980   2.372   2.390
 6624SOL    MW426817   3.995   2.386   2.307
 6625SOL     OW26818   4.070   2.787   3.196
 6625SOL    HW226819   4.133   2.734   3.147
 6625SOL    HW326820   4.051   2.861   3.139
 6625SOL    MW426821   4.076   2.789   3.183
 6626SOL     OW26822   4.391   2.129   2.382
 6626SOL    HW226823   4.449   2.205   2.384
 6626SOL    HW326824   4.326   2.150   2.315
 6626SOL    MW426825   4.390   2.141   2.373
 6627SOL     OW26826   4.478   3.056   2.557
 6627SOL    HW226827   4.558   3.059   2.609
 6627SOL    HW326828   4.506   3.023   2.471
 6627SOL    MW426829   4.492   3.052   2.552
 6628SOL     OW26830   4.503   3.397   3.460
 6628SOL    HW226831   4.587   3.423   3.499
 6628SOL    HW326832   4.527   3.341   3.386
 6628SOL    MW426833   4.517   3.393   3.455
 6629SOL     OW26834   4.255   2.560   2.548
 6629SOL    HW226835   4.240   2.480   2.599
 6629SOL    HW326836   4.337   2.595   2.582
 6629SOL    MW426837   4.263   2.552   2.560
 6630SOL     OW26838   4.592   3.246   3.233
 6630SOL    HW226839   4.556   3.312   3.173
 6630SOL    HW326840   4.520   3.184   3.246
 6630SOL    MW426841   4.578   3.246   3.227
 6631SOL     OW26842   4.397   2.386   2.925
 6631SOL    HW226843   4.303   2.382   2.943
 6631SOL    HW326844   4.427   2.295   2.934
 6631SOL    MW426845   4.388   2.374   2.928
 6632SOL     OW26846   4.143   2.800   2.829
 6632SOL    HW226847   4.098   2.807   2.745
 6632SOL    HW326848   4.123   2.883   2.873
 6632SOL    MW426849   4.135   2.812   2.823
 6633SOL     OW26850   3.840   3.646   2.704
 6633SOL    HW226851   3.929   3.638   2.739
 6633SOL    HW326852   3.804   3.558   2.709
 6633SOL    MW426853   3.847   3.633   2.709
 6634SOL     OW26854   5.105   3.038   2.073
 6634SOL    HW226855   5.023   3.074   2.039
 6634SOL    HW326856   5.173   3.081   2.022
 6634SOL    MW426857   5.103   3.048   2.061
 6635SOL     OW26858   4.104   3.173   2.739
 6635SOL    HW226859   4.080   3.226   2.815
 6635SOL    HW326860   4.160   3.231   2.687
 6635SOL    MW426861   4.108   3.188   2.742
 6636SOL     OW26862   4.666   2.817   2.549
 6636SOL    HW226863   4.580   2.804   2.589
 6636SOL    HW326864   4.719   2.744   2.581
 6636SOL    MW426865   4.662   2.806   2.558
 6637SOL     OW26866   4.074   3.469   3.334
 6637SOL    HW226867   3.982   3.445   3.319
 6637SOL    HW326868   4.118   3.386   3.351
 6637SOL    MW426869   4.068   3.454   3.333
 6638SOL     OW26870   4.657   3.179   2.266
 6638SOL    HW226871   4.634   3.241   2.334
 6638SOL    HW326872   4.614   3.097   2.292
 6638SOL    MW426873   4.649   3.175   2.277
 6639SOL     OW26874   5.530   2.180   2.722
 6639SOL    HW226875   5.467   2.160   2.791
 6639SOL    HW326876   5.520   2.109   2.659
 6639SOL    MW426877   5.520   2.167   2.723
 6640SOL     OW26878   4.154   2.152   2.234
 6640SOL    HW226879   4.128   2.114   2.150
 6640SOL    HW326880   4.091   2.222   2.250
 6640SOL    MW426881   4.143   2.155   2.225
 6641SOL     OW26882   3.989   3.113   2.271
 6641SOL    HW226883   3.937   3.181   2.227
 6641SOL    HW326884   3.986   3.039   2.211
 6641SOL    MW426885   3.981   3.112   2.258
 6642SOL     OW26886   4.651   3.576   2.049
 6642SOL    HW226887   4.606   3.592   2.132
 6642SOL    HW326888   4.582   3.541   1.991
 6642SOL    MW426889   4.637   3.573   2.051
 6643SOL     OW26890   5.586   2.349   2.024
 6643SOL    HW226891   5.495   2.351   2.052
 6643SOL    HW326892   5.631   2.411   2.082
 6643SOL    MW426893   5.579   2.357   2.034
 6644SOL     OW26894   5.331   2.952   2.374
 6644SOL    HW226895   5.241   2.952   2.409
 6644SOL    HW326896   5.324   2.998   2.291
 6644SOL    MW426897   5.318   2.958   2.368
 6645SOL     OW26898   5.131   2.587   3.446
 6645SOL    HW226899   5.200   2.525   3.423
 6645SOL    HW326900   5.056   2.561   3.393
 6645SOL    MW426901   5.131   2.574   3.437
 6646SOL     OW26902   3.872   3.467   2.998
 6646SOL    HW226903   3.855   3.413   3.075
 6646SOL    HW326904   3.860   3.557   3.028
 6646SOL    MW426905   3.869   3.471   3.012
 6647SOL     OW26906   4.867   2.974   3.438
 6647SOL    HW226907   4.852   3.067   3.423
 6647SOL    HW326908   4.962   2.964   3.438
 6647SOL    MW426909   4.876   2.984   3.435
 6648SOL     OW26910   4.663   2.398   3.639
 6648SOL    HW226911   4.753   2.399   3.606
 6648SOL    HW326912   4.622   2.323   3.597
 6648SOL    MW426913   4.669   2.388   3.630
 6649SOL     OW26914   5.238   2.930   2.766
 6649SOL    HW226915   5.241   2.864   2.697
 6649SOL    HW326916   5.323   2.973   2.762
 6649SOL    MW426917   5.250   2.926   2.757
 6650SOL     OW26918   4.858   2.533   2.335
 6650SOL    HW226919   4.884   2.557   2.246
 6650SOL    HW326920   4.840   2.440   2.331
 6650SOL    MW426921   4.860   2.525   2.322
 6651SOL     OW26922   5.523   3.153   2.186
 6651SOL    HW226923   5.479   3.194   2.261
 6651SOL    HW326924   5.580   3.221   2.151
 6651SOL    MW426925   5.525   3.167   2.191
 6652SOL     OW26926   4.443   2.202   3.589
 6652SOL    HW226927   4.453   2.128   3.529
 6652SOL    HW326928   4.479   2.171   3.672
 6652SOL    MW426929   4.449   2.188   3.591
 6653SOL     OW26930   4.179   3.569   2.504
 6653SOL    HW226931   4.211   3.657   2.482
 6653SOL    HW326932   4.132   3.541   2.426
 6653SOL    MW426933   4.178   3.577   2.491
 6654SOL     OW26934   5.563   1.931   2.553
 6654SOL    HW226935   5.617   1.882   2.615
 6654SOL    HW326936   5.506   1.865   2.514
 6654SOL    MW426937   5.563   1.915   2.555
 6655SOL     OW26938   3.895   3.629   2.081
 6655SOL    HW226939   3.924   3.719   2.073
 6655SOL    HW326940   3.845   3.612   2.002
 6655SOL    MW426941   3.893   3.637   2.070
 6656SOL     OW26942   4.682   1.884   2.966
 6656SOL    HW226943   4.641   1.962   2.928
 6656SOL    HW326944   4.776   1.902   2.961
 6656SOL    MW426945   4.688   1.896   2.961
 6657SOL     OW26946   5.299   3.437   2.052
 6657SOL    HW226947   5.347   3.506   2.098
 6657SOL    HW326948   5.220   3.481   2.021
 6657SOL    MW426949   5.294   3.451   2.055
 6658SOL     OW26950   4.697   2.562   1.996
 6658SOL    HW226951   4.699   2.509   1.917
 6658SOL    HW326952   4.785   2.599   2.002
 6658SOL    MW426953   4.709   2.561   1.985
 6659SOL     OW26954   5.311   2.488   2.332
 6659SOL    HW226955   5.350   2.488   2.419
 6659SOL    HW326956   5.252   2.564   2.332
 6659SOL    MW426957   5.308   2.499   2.343
 6660SOL     OW26958   4.628   2.855   3.461
 6660SOL    HW226959   4.605   2.835   3.551
 6660SOL    HW326960   4.713   2.899   3.466
 6660SOL    MW426961   4.635   2.858   3.473
 6661SOL     OW26962   4.708   1.992   3.221
 6661SOL    HW226963   4.714   1.954   3.134
 6661SOL    HW326964   4.697   2.086   3.206
 6661SOL    MW426965   4.709   2.000   3.209
 6662SOL     OW26966   4.797   2.481   3.055
 6662SOL    HW226967   4.872   2.510   3.002
 6662SOL    HW326968   4.729   2.546   3.039
 6662SOL    MW426969   4.798   2.493   3.045
 6663SOL     OW26970   5.347   2.449   3.332
 6663SOL    HW226971   5.328   2.358   3.311
 6663SOL    HW326972   5.325   2.498   3.253
 6663SOL    MW426973   5.342   2.442   3.319
 6664SOL     OW26974   5.489   3.543   3.236
 6664SOL    HW226975   5.417   3.505   3.287
 6664SOL    HW326976   5.506   3.628   3.277
 6664SOL    MW426977   5.483   3.548   3.248
 6665SOL     OW26978   4.794   2.187   3.438
 6665SOL    HW226979   4.760   2.226   3.357
 6665SOL    HW326980   4.772   2.095   3.431
 6665SOL    MW426981   4.787   2.180   3.428
 6666SOL     OW26982   5.203   3.001   3.514
 6666SOL    HW226983   5.285   3.042   3.544
 6666SOL    HW326984   5.166   2.963   3.594
 6666SOL    MW426985   5.209   3.002   3.529
 6667SOL     OW26986   5.498   2.374   2.498
 6667SOL    HW226987   5.587   2.343   2.515
 6667SOL    HW326988   5.441   2.314   2.546
 6667SOL    MW426989   5.501   2.362   2.507
 6668SOL     OW26990   3.924   2.088   2.527
 6668SOL    HW226991   3.915   2.028   2.453
 6668SOL    HW326992   3.857   2.059   2.590
 6668SOL    MW426993   3.914   2.075   2.525
 6669SOL     OW26994   4.867   3.181   2.088
 6669SOL    HW226995   4.817   3.183   2.170
 6669SOL    HW326996   4.801   3.199   2.020
 6669SOL    MW426997   4.853   3.183   2.090
 6670SOL     OW26998   3.871   2.261   2.890
 6670SOL    HW226999   3.843   2.352   2.899
 6670SOL    HW327000   3.808   2.222   2.829
 6670SOL    MW427001   3.858   2.267   2.884
 6671SOL     OW27002   4.330   3.599   2.196
 6671SOL    HW227003   4.251   3.557   2.229
 6671SOL    HW327004   4.396   3.582   2.263
 6671SOL    MW427005   4.329   3.591   2.209
 6672SOL     OW27006   5.458   3.119   3.593
 6672SOL    HW227007   5.508   3.045   3.625
 6672SOL    HW327008   5.404   3.146   3.668
 6672SOL    MW427009   5.458   3.113   3.606
 6673SOL     OW27010   4.466   3.014   1.903
 6673SOL    HW227011   4.388   2.960   1.890
 6673SOL    HW327012   4.437   3.087   1.956
 6673SOL    MW427013   4.452   3.016   1.908
 6674SOL     OW27014   5.592   2.754   3.095
 6674SOL    HW227015   5.608   2.792   3.008
 6674SOL    HW327016   5.626   2.820   3.156
 6674SOL    MW427017   5.599   2.767   3.091
 6675SOL     OW27018   5.384   3.463   2.764
 6675SOL    HW227019   5.413   3.530   2.825
 6675SOL    HW327020   5.365   3.387   2.819
 6675SOL    MW427021   5.386   3.463   2.779
 6676SOL     OW27022   5.047   3.530   1.971
 6676SOL    HW227023   4.973   3.493   2.021
 6676SOL    HW327024   5.055   3.620   2.004
 6676SOL    MW427025   5.038   3.537   1.983
 6677SOL     OW27026   3.855   2.536   3.060
 6677SOL    HW227027   3.917   2.566   3.126
 6677SOL    HW327028   3.789   2.605   3.054
 6677SOL    MW427029   3.854   2.549   3.067
 6678SOL     OW27030   5.271   3.204   1.913
 6678SOL    HW227031   5.218   3.253   1.849
 6678SOL    HW327032   5.302   3.270   1.974
 6678SOL    MW427033   5.269   3.218   1.911
 6679SOL     OW27034   4.496   2.093   1.968
 6679SOL    HW227035   4.444   2.013   1.956
 6679SOL    HW327036   4.583   2.070   1.936
 6679SOL    MW427037   4.499   2.079   1.962
 6680SOL     OW27038   3.950   3.645   3.512
 6680SOL    HW227039   3.924   3.713   3.450
 6680SOL    HW327040   3.998   3.582   3.460
 6680SOL    MW427041   3.952   3.645   3.498
 6681SOL     OW27042   4.002   2.964   3.019
 6681SOL    HW227043   4.055   3.039   3.044
 6681SOL    HW327044   3.921   3.002   2.985
 6681SOL    MW427045   3.998   2.979   3.019
 6682SOL     OW27046   4.542   2.868   3.007
 6682SOL    HW227047   4.570   2.777   3.019
 6682SOL    HW327048   4.471   2.862   2.943
 6682SOL    MW427049   4.535   2.856   3.002
 6683SOL     OW27050   3.857   2.733   2.425
 6683SOL    HW227051   3.948   2.748   2.452
 6683SOL    HW327052   3.860   2.654   2.371
 6683SOL    MW427053   3.869   2.725   2.423
 6684SOL     OW27054   4.093   2.441   3.679
 6684SOL    HW227055   4.040   2.521   3.686
 6684SOL    HW327056   4.163   2.453   3.744
 6684SOL    MW427057   4.095   2.454   3.687
 6685SOL     OW27058   4.479   1.991   3.386
 6685SOL    HW227059   4.456   1.899   3.388
 6685SOL    HW327060   4.565   1.993   3.343
 6685SOL    MW427061   4.486   1.981   3.382
 6686SOL     OW27062   4.163   2.515   3.425
 6686SOL    HW227063   4.243   2.565   3.411
 6686SOL    HW327064   4.154   2.509   3.520
 6686SOL    MW427065   4.172   2.521   3.435
 6687SOL     OW27066   4.484   3.665   2.799
 6687SOL    HW227067   4.573   3.680   2.829
 6687SOL    HW327068   4.479   3.712   2.715
 6687SOL    MW427069   4.494   3.673   2.792
 6688SOL     OW27070   5.140   2.040   3.696
 6688SOL    HW227071   5.196   1.967   3.722
 6688SOL    HW327072   5.110   2.078   3.778
 6688SOL    MW427073   5.144   2.035   3.709
 6689SOL     OW27074   3.865   3.345   2.464
 6689SOL    HW227075   3.837   3.384   2.546
 6689SOL    HW327076   3.885   3.254   2.486
 6689SOL    MW427077   3.863   3.337   2.477
 6690SOL     OW27078   4.698   3.388   2.499
 6690SOL    HW227079   4.781   3.342   2.483
 6690SOL    HW327080   4.688   3.387   2.595
 6690SOL    MW427081   4.708   3.381   2.509
 6691SOL     OW27082   5.530   2.533   2.813
 6691SOL    HW227083   5.619   2.563   2.795
 6691SOL    HW327084   5.510   2.473   2.742
 6691SOL    MW427085   5.539   2.530   2.802
 6692SOL     OW27086   5.381   2.712   3.693
 6692SOL    HW227087   5.436   2.636   3.674
 6692SOL    HW327088   5.383   2.720   3.788
 6692SOL    MW427089   5.389   2.703   3.701
 6693SOL     OW27090   4.431   3.445   1.904
 6693SOL    HW227091   4.371   3.514   1.874
 6693SOL    HW327092   4.376   3.387   1.957
 6693SOL    MW427093   4.415   3.447   1.906
 6694SOL     OW27094   4.869   2.090   2.127
 6694SOL    HW227095   4.802   2.066   2.064
 6694SOL    HW327096   4.934   2.139   2.076
 6694SOL    MW427097   4.869   2.092   2.112
 6695SOL     OW27098   4.676   2.274   3.212
 6695SOL    HW227099   4.595   2.315   3.240
 6695SOL    HW327100   4.723   2.342   3.164
 6695SOL    MW427101   4.671   2.289   3.210
 6696SOL     OW27102   4.936   2.612   2.835
 6696SOL    HW227103   4.949   2.706   2.845
 6696SOL    HW327104   4.897   2.602   2.749
 6696SOL    MW427105   4.932   2.623   2.825
 6697SOL     OW27106   4.388   2.807   2.639
 6697SOL    HW227107   4.299   2.798   2.672
 6697SOL    HW327108   4.392   2.897   2.607
 6697SOL    MW427109   4.377   2.818   2.639
 6698SOL     OW27110   5.187   2.390   2.634
 6698SOL    HW227111   5.132   2.311   2.633
 6698SOL    HW327112   5.169   2.431   2.718
 6698SOL    MW427113   5.177   2.385   2.643
 6699SOL     OW27114   4.158   2.077   3.451
 6699SOL    HW227115   4.079   2.095   3.503
 6699SOL    HW327116   4.153   2.139   3.378
 6699SOL    MW427117   4.148   2.087   3.448
 6700SOL     OW27118   4.806   2.594   2.591
 6700SOL    HW227119   4.743   2.526   2.615
 6700SOL    HW327120   4.826   2.575   2.499
 6700SOL    MW427121   4.800   2.581   2.583
 6701SOL     OW27122   4.062   3.489   2.293
 6701SOL    HW227123   4.023   3.536   2.219
 6701SOL    HW327124   3.996   3.424   2.318
 6701SOL    MW427125   4.049   3.487   2.287
 6702SOL     OW27126   4.554   2.898   2.317
 6702SOL    HW227127   4.556   2.872   2.224
 6702SOL    HW327128   4.612   2.835   2.360
 6702SOL    MW427129   4.562   2.887   2.311
 6703SOL     OW27130   5.107   3.458   3.089
 6703SOL    HW227131   5.032   3.504   3.127
 6703SOL    HW327132   5.089   3.365   3.106
 6703SOL    MW427133   5.096   3.452   3.097
 6704SOL     OW27134   5.111   3.666   2.519
 6704SOL    HW227135   5.054   3.619   2.458
 6704SOL    HW327136   5.197   3.627   2.506
 6704SOL    MW427137   5.114   3.657   2.509
 6705SOL     OW27138   5.064   2.142   2.650
 6705SOL    HW227139   5.092   2.074   2.711
 6705SOL    HW327140   4.978   2.113   2.620
 6705SOL    MW427141   5.057   2.129   2.654
 6706SOL     OW27142   3.869   3.076   2.584
 6706SOL    HW227143   3.933   3.108   2.647
 6706SOL    HW327144   3.918   3.012   2.532
 6706SOL    MW427145   3.884   3.072   2.585
 6707SOL     OW27146   4.369   3.152   3.566
 6707SOL    HW227147   4.417   3.235   3.553
 6707SOL    HW327148   4.426   3.100   3.622
 6707SOL    MW427149   4.383   3.156   3.572
 6708SOL     OW27150   3.945   3.394   3.706
 6708SOL    HW227151   4.001   3.318   3.721
 6708SOL    HW327152   3.894   3.372   3.628
 6708SOL    MW427153   3.945   3.381   3.697
 6709SOL     OW27154   5.044   2.246   1.985
 6709SOL    HW227155   5.017   2.312   1.921
 6709SOL    HW327156   5.114   2.289   2.035
 6709SOL    MW427157   5.049   2.259   1.982
 6710SOL     OW27158   4.712   1.951   1.922
 6710SOL    HW227159   4.768   1.943   1.844
 6710SOL    HW327160   4.689   1.861   1.944
 6710SOL    MW427161   4.717   1.938   1.915
 6711SOL     OW27162   5.217   2.802   2.127
 6711SOL    HW227163   5.184   2.891   2.117
 6711SOL    HW327164   5.182   2.773   2.212
 6711SOL    MW427165   5.207   2.811   2.138
 6712SOL     OW27166   4.830   3.231   3.315
 6712SOL    HW227167   4.741   3.237   3.283
 6712SOL    HW327168   4.874   3.310   3.283
 6712SOL    MW427169   4.825   3.241   3.307
 6713SOL     OW27170   4.123   1.899   3.657
 6713SOL    HW227171   4.051   1.864   3.605
 6713SOL    HW327172   4.181   1.940   3.592
 6713SOL    MW427173   4.121   1.900   3.642
 6714SOL     OW27174   4.147   3.389   2.956
 6714SOL    HW227175   4.192   3.451   3.013
 6714SOL    HW327176   4.054   3.408   2.969
 6714SOL    MW427177   4.140   3.399   2.963
 6715SOL     OW27178   5.587   2.918   3.310
 6715SOL    HW227179   5.502   2.931   3.269
 6715SOL    HW327180   5.567   2.882   3.397
 6715SOL    MW427181   5.574   2.914   3.315
 6716SOL     OW27182   4.569   3.457   3.064
 6716SOL    HW227183   4.593   3.446   2.973
 6716SOL    HW327184   4.492   3.514   3.062
 6716SOL    MW427185   4.561   3.462   3.053
 6717SOL     OW27186   4.211   2.840   1.919
 6717SOL    HW227187   4.134   2.853   1.975
 6717SOL    HW327188   4.175   2.804   1.838
 6717SOL    MW427189   4.197   2.836   1.916
 6718SOL     OW27190   4.864   2.813   2.162
 6718SOL    HW227191   4.774   2.834   2.137
 6718SOL    HW327192   4.891   2.886   2.218
 6718SOL    MW427193   4.856   2.825   2.165
 6719SOL     OW27194   4.364   3.162   2.854
 6719SOL    HW227195   4.357   3.141   2.948
 6719SOL    HW327196   4.282   3.130   2.817
 6719SOL    MW427197   4.352   3.156   2.861
 6720SOL     OW27198   5.228   2.172   3.256
 6720SOL    HW227199   5.175   2.174   3.336
 6720SOL    HW327200   5.213   2.085   3.219
 6720SOL    MW427201   5.220   2.162   3.261
 6721SOL     OW27202   5.564   2.096   3.129
 6721SOL    HW227203   5.545   2.163   3.064
 6721SOL    HW327204   5.621   2.034   3.084
 6721SOL    MW427205   5.568   2.097   3.115
 6722SOL     OW27206   3.810   3.254   3.517
 6722SOL    HW227207   3.854   3.187   3.463
 6722SOL    HW327208   3.725   3.216   3.537
 6722SOL    MW427209   3.805   3.240   3.513
 6723SOL     OW27210   4.493   1.929   2.569
 6723SOL    HW227211   4.422   1.990   2.551
 6723SOL    HW327212   4.544   1.926   2.488
 6723SOL    MW427213   4.489   1.935   2.556
 6724SOL     OW27214   4.251   3.169   2.318
 6724SOL    HW227215   4.244   3.201   2.408
 6724SOL    HW327216   4.161   3.153   2.290
 6724SOL    MW427217   4.239   3.171   2.325
 6725SOL     OW27218   4.846   3.562   3.227
 6725SOL    HW227219   4.766   3.547   3.177
 6725SOL    HW327220   4.853   3.657   3.234
 6725SOL    MW427221   4.837   3.573   3.221
 6726SOL     OW27222   4.960   3.527   2.717
 6726SOL    HW227223   5.007   3.600   2.676
 6726SOL    HW327224   4.881   3.566   2.753
 6726SOL    MW427225   4.955   3.542   2.716
 6727SOL     OW27226   5.368   3.622   2.992
 6727SOL    HW227227   5.411   3.592   3.072
 6727SOL    HW327228   5.287   3.570   2.989
 6727SOL    MW427229   5.363   3.611   3.002
 6728SOL     OW27230   4.453   2.586   3.699
 6728SOL    HW227231   4.523   2.528   3.671
 6728SOL    HW327232   4.396   2.531   3.754
 6728SOL    MW427233   4.455   2.573   3.703
 6729SOL     OW27234   5.240   2.798   3.332
 6729SOL    HW227235   5.245   2.851   3.412
 6729SOL    HW327236   5.202   2.715   3.360
 6729SOL    MW427237   5.236   2.793   3.347
 6730SOL     OW27238   4.880   1.933   3.578
 6730SOL    HW227239   4.875   1.840   3.559
 6730SOL    HW327240   4.963   1.944   3.624
 6730SOL    MW427241   4.888   1.922   3.582
 6731SOL     OW27242   4.254   2.453   2.032
 6731SOL    HW227243   4.220   2.509   2.102
 6731SOL    HW327244   4.325   2.403   2.072
 6731SOL    MW427245   4.260   2.454   2.046
 6732SOL     OW27246   5.350   3.204   2.854
 6732SOL    HW227247   5.385   3.186   2.767
 6732SOL    HW327248   5.255   3.205   2.841
 6732SOL    MW427249   5.342   3.201   2.841
 6733SOL     OW27250   4.779   2.852   3.223
 6733SOL    HW227251   4.822   2.887   3.301
 6733SOL    HW327252   4.762   2.929   3.169
 6733SOL    MW427253   4.782   2.867   3.226
 6734SOL     OW27254   5.310   2.339   2.096
 6734SOL    HW227255   5.302   2.410   2.033
 6734SOL    HW327256   5.328   2.383   2.179
 6734SOL    MW427257   5.311   2.353   2.098
 6735SOL     OW27258   4.170   1.994   2.525
 6735SOL    HW227259   4.220   2.037   2.456
 6735SOL    HW327260   4.085   2.038   2.525
 6735SOL    MW427261   4.167   2.007   2.516
 6736SOL     OW27262   3.929   3.056   3.385
 6736SOL    HW227263   3.957   3.009   3.463
 6736SOL    HW327264   3.850   3.011   3.356
 6736SOL    MW427265   3.922   3.045   3.391
 6737SOL     OW27266   4.437   2.383   3.352
 6737SOL    HW227267   4.409   2.471   3.376
 6737SOL    HW327268   4.406   2.327   3.423
 6737SOL    MW427269   4.429   2.386   3.364
 6738SOL     OW27270   4.979   2.601   2.071
 6738SOL    HW227271   5.026   2.619   1.990
 6738SOL    HW327272   4.945   2.685   2.099
 6738SOL    MW427273   4.981   2.615   2.064
 6739SOL     OW27274   4.092   2.779   2.565
 6739SOL    HW227275   4.150   2.835   2.513
 6739SOL    HW327276   4.136   2.694   2.567
 6739SOL    MW427277   4.105   2.776   2.558
 6740SOL     OW27278   5.232   2.131   2.402
 6740SOL    HW227279   5.154   2.081   2.427
 6740SOL    HW327280   5.203   2.222   2.402
 6740SOL    MW427281   5.218   2.135   2.405
 6741SOL     OW27282   4.818   2.093   2.561
 6741SOL    HW227283   4.838   2.168   2.505
 6741SOL    HW327284   4.798   2.132   2.646
 6741SOL    MW427285   4.819   2.109   2.565
 6742SOL     OW27286   4.714   3.343   1.893
 6742SOL    HW227287   4.741   3.421   1.845
 6742SOL    HW327288   4.621   3.358   1.912
 6742SOL    MW427289   4.705   3.356   1.889
 6743SOL     OW27290   5.578   2.866   3.580
 6743SOL    HW227291   5.491   2.846   3.616
 6743SOL    HW327292   5.632   2.792   3.605
 6743SOL    MW427293   5.573   2.855   3.588
 6744SOL     OW27294   3.799   3.379   2.737
 6744SOL    HW227295   3.831   3.383   2.828
 6744SOL    HW327296   3.704   3.387   2.745
 6744SOL    MW427297   3.791   3.382   2.750
 6745SOL     OW27298   3.754   2.505   2.284
 6745SOL    HW227299   3.694   2.477   2.354
 6745SOL    HW327300   3.828   2.445   2.290
 6745SOL    MW427301   3.756   2.494   2.293
 6746SOL     OW27302   5.322   3.717   3.718
 6746SOL    HW227303   5.367   3.641   3.683
 6746SOL    HW327304   5.360   3.730   3.805
 6746SOL    MW427305   5.332   3.710   3.724
 6747SOL     OW27306   4.922   3.236   2.444
 6747SOL    HW227307   4.945   3.187   2.522
 6747SOL    HW327308   5.003   3.278   2.416
 6747SOL    MW427309   4.935   3.236   2.451
 6748SOL     OW27310   4.180   2.244   3.173
 6748SOL    HW227311   4.213   2.325   3.213
 6748SOL    HW327312   4.153   2.270   3.085
 6748SOL    MW427313   4.179   2.258   3.167
 6749SOL     OW27314   4.134   2.211   2.909
 6749SOL    HW227315   4.164   2.125   2.880
 6749SOL    HW327316   4.039   2.204   2.912
 6749SOL    MW427317   4.126   2.200   2.907
 6750SOL     OW27318   4.963   2.420   3.600
 6750SOL    HW227319   5.015   2.355   3.553
 6750SOL    HW327320   4.921   2.471   3.530
 6750SOL    MW427321   4.964   2.417   3.583
 6751SOL     OW27322   5.062   2.215   3.461
 6751SOL    HW227323   4.969   2.199   3.448
 6751SOL    HW327324   5.088   2.153   3.529
 6751SOL    MW427325   5.052   2.205   3.468
 6752SOL     OW27326   4.277   1.989   2.800
 6752SOL    HW227327   4.287   1.898   2.826
 6752SOL    HW327328   4.233   1.985   2.715
 6752SOL    MW427329   4.273   1.977   2.792
 6753SOL     OW27330   4.371   3.604   3.346
 6753SOL    HW227331   4.288   3.589   3.391
 6753SOL    HW327332   4.430   3.537   3.381
 6753SOL    MW427333   4.369   3.594   3.356
 6754SOL     OW27334   5.428   2.311   2.971
 6754SOL    HW227335   5.361   2.344   3.031
 6754SOL    HW327336   5.471   2.389   2.937
 6754SOL    MW427337   5.426   2.326   2.975
 6755SOL     OW27338   5.606   3.031   2.941
 6755SOL    HW227339   5.599   2.971   2.866
 6755SOL    HW327340   5.532   3.091   2.930
 6755SOL    MW427341   5.596   3.031   2.930
 6756SOL     OW27342   4.988   2.893   2.859
 6756SOL    HW227343   5.002   2.865   2.950
 6756SOL    HW327344   5.074   2.924   2.831
 6756SOL    MW427345   5.001   2.894   2.868
 6757SOL     OW27346   5.071   2.388   3.138
 6757SOL    HW227347   5.092   2.389   3.045
 6757SOL    HW327348   5.116   2.310   3.171
 6757SOL    MW427349   5.078   2.378   3.130
 6758SOL     OW27350   5.564   2.519   3.680
 6758SOL    HW227351   5.601   2.464   3.749
 6758SOL    HW327352   5.589   2.476   3.598
 6758SOL    MW427353   5.571   2.507   3.679
 6759SOL     OW27354   5.111   2.817   3.731
 6759SOL    HW227355   5.177   2.765   3.685
 6759SOL    HW327356   5.131   2.804   3.824
 6759SOL    MW427357   5.122   2.808   3.738
 6760SOL     OW27358   5.062   1.903   2.080
 6760SOL    HW227359   5.136   1.947   2.123
 6760SOL    HW327360   4.986   1.957   2.102
 6760SOL    MW427361   5.062   1.915   2.088
 6761SOL     OW27362   5.122   2.678   2.358
 6761SOL    HW227363   5.037   2.648   2.328
 6761SOL    HW327364   5.114   2.685   2.453
 6761SOL    MW427365   5.110   2.676   2.367
 6762SOL     OW27366   4.198   3.141   3.089
 6762SOL    HW227367   4.210   3.168   3.180
 6762SOL    HW327368   4.179   3.222   3.042
 6762SOL    MW427369   4.197   3.156   3.094
 6763SOL     OW27370   4.482   2.121   2.912
 6763SOL    HW227371   4.455   2.123   3.003
 6763SOL    HW327372   4.412   2.073   2.867
 6763SOL    MW427373   4.470   2.117   2.919
 6764SOL     OW27374   4.336   3.613   3.074
 6764SOL    HW227375   4.388   3.690   3.051
 6764SOL    HW327376   4.345   3.605   3.169
 6764SOL    MW427377   4.345   3.620   3.085
 6765SOL     OW27378   5.238   3.198   3.306
 6765SOL    HW227379   5.223   3.127   3.369
 6765SOL    HW327380   5.284   3.156   3.234
 6765SOL    MW427381   5.244   3.182   3.306
 6766SOL     OW27382   4.312   2.929   3.423
 6766SOL    HW227383   4.349   2.934   3.335
 6766SOL    HW327384   4.351   3.002   3.470
 6766SOL    MW427385   4.322   2.939   3.418
 6767SOL     OW27386   4.492   2.972   3.235
 6767SOL    HW227387   4.551   2.918   3.288
 6767SOL    HW327388   4.507   2.944   3.145
 6767SOL    MW427389   4.502   2.961   3.231
 6768SOL     OW27390   4.495   2.344   2.084
 6768SOL    HW227391   4.568   2.393   2.047
 6768SOL    HW327392   4.511   2.253   2.058
 6768SOL    MW427393   4.507   2.339   2.077
 6769SOL     OW27394   5.303   3.461   3.407
 6769SOL    HW227395   5.345   3.446   3.492
 6769SOL    HW327396   5.294   3.374   3.369
 6769SOL    MW427397   5.307   3.449   3.414
 6770SOL     OW27398   4.963   1.940   2.998
 6770SOL    HW227399   5.018   1.949   2.920
 6770SOL    HW327400   5.018   1.974   3.069
 6770SOL    MW427401   4.977   1.945   2.997
 6771SOL     OW27402   3.970   2.853   2.182
 6771SOL    HW227403   3.907   2.869   2.111
 6771SOL    HW327404   3.917   2.816   2.253
 6771SOL    MW427405   3.955   2.850   2.182
 6772SOL     OW27406   4.326   3.207   2.041
 6772SOL    HW227407   4.341   3.183   2.133
 6772SOL    HW327408   4.234   3.185   2.025
 6772SOL    MW427409   4.316   3.200   2.051
 6773SOL     OW27410   4.865   3.438   2.193
 6773SOL    HW227411   4.873   3.356   2.144
 6773SOL    HW327412   4.784   3.477   2.160
 6773SOL    MW427413   4.855   3.433   2.183
 6774SOL     OW27414   4.124   3.596   2.762
 6774SOL    HW227415   4.128   3.507   2.797
 6774SOL    HW327416   4.150   3.587   2.671
 6774SOL    MW427417   4.127   3.584   2.754
 6775SOL     OW27418   4.741   3.074   3.005
 6775SOL    HW227419   4.673   3.008   3.021
 6775SOL    HW327420   4.759   3.068   2.912
 6775SOL    MW427421   4.734   3.065   2.996
 6776SOL     OW27422   3.830   3.349   3.256
 6776SOL    HW227423   3.820   3.307   3.342
 6776SOL    HW327424   3.751   3.402   3.246
 6776SOL    MW427425   3.819   3.350   3.267
 6777SOL     OW27426   4.734   2.213   2.826
 6777SOL    HW227427   4.664   2.165   2.871
 6777SOL    HW327428   4.766   2.276   2.890
 6777SOL    MW427429   4.729   2.215   2.840
 6778SOL     OW27430   4.385   2.649   3.446
 6778SOL    HW227431   4.378   2.744   3.434
 6778SOL    HW327432   4.394   2.638   3.541
 6778SOL    MW427433   4.386   2.661   3.456
 6779SOL     OW27434   4.106   3.164   3.704
 6779SOL    HW227435   4.178   3.166   3.641
 6779SOL    HW327436   4.076   3.073   3.703
 6779SOL    MW427437   4.111   3.153   3.696
 6780SOL     OW27438   5.190   1.927   3.171
 6780SOL    HW227439   5.261   1.873   3.135
 6780SOL    HW327440   5.189   1.906   3.264
 6780SOL    MW427441   5.199   1.918   3.179
 6781SOL     OW27442   5.390   3.457   3.655
 6781SOL    HW227443   5.363   3.454   3.746
 6781SOL    HW327444   5.486   3.461   3.658
 6781SOL    MW427445   5.400   3.457   3.667
 6782SOL     OW27446   4.201   2.319   2.639
 6782SOL    HW227447   4.272   2.267   2.602
 6782SOL    HW327448   4.187   2.284   2.726
 6782SOL    MW427449   4.209   2.308   2.646
 6783SOL     OW27450   3.756   3.654   3.711
 6783SOL    HW227451   3.806   3.632   3.633
 6783SOL    HW327452   3.764   3.749   3.719
 6783SOL    MW427453   3.764   3.663   3.702
 6784SOL     OW27454   4.517   3.412   2.715
 6784SOL    HW227455   4.445   3.349   2.728
 6784SOL    HW327456   4.478   3.497   2.733
 6784SOL    MW427457   4.501   3.415   2.718
 6785SOL     OW27458   4.837   2.260   2.363
 6785SOL    HW227459   4.859   2.197   2.295
 6785SOL    HW327460   4.742   2.252   2.374
 6785SOL    MW427461   4.827   2.251   2.355
 6786SOL     OW27462   3.922   1.950   2.295
 6786SOL    HW227463   3.993   1.971   2.234
 6786SOL    HW327464   3.876   1.878   2.253
 6786SOL    MW427465   3.926   1.944   2.281
 6787SOL     OW27466   3.753   2.417   3.438
 6787SOL    HW227467   3.817   2.483   3.413
 6787SOL    HW327468   3.672   2.444   3.395
 6787SOL    MW427469   3.751   2.429   3.430
 6788SOL     OW27470   5.491   3.324   2.395
 6788SOL    HW227471   5.461   3.257   2.456
 6788SOL    HW327472   5.585   3.330   2.409
 6788SOL    MW427473   5.499   3.316   2.405
 6789SOL     OW27474   5.047   3.001   2.325
 6789SOL    HW227475   5.019   3.087   2.358
 6789SOL    HW327476   5.075   3.017   2.235
 6789SOL    MW427477   5.047   3.015   2.317
 6790SOL     OW27478   4.709   1.921   2.378
 6790SOL    HW227479   4.746   1.980   2.443
 6790SOL    HW327480   4.686   1.977   2.304
 6790SOL    MW427481   4.710   1.936   2.377
 6791SOL     OW27482   5.562   2.803   2.800
 6791SOL    HW227483   5.553   2.835   2.711
 6791SOL    HW327484   5.515   2.719   2.800
 6791SOL    MW427485   5.555   2.796   2.790
 6792SOL     OW27486   3.938   2.643   3.379
 6792SOL    HW227487   3.959   2.712   3.317
 6792SOL    HW327488   4.018   2.590   3.384
 6792SOL    MW427489   3.951   2.644   3.373
 6793SOL     OW27490   5.474   2.734   2.501
 6793SOL    HW227491   5.568   2.723   2.489
 6793SOL    HW327492   5.450   2.806   2.442
 6793SOL    MW427493   5.484   2.742   2.492
 6794SOL     OW27494   3.923   2.658   3.646
 6794SOL    HW227495   3.849   2.602   3.672
 6794SOL    HW327496   3.918   2.661   3.551
 6794SOL    MW427497   3.912   2.651   3.636
 6795SOL     OW27498   4.089   1.945   3.096
 6795SOL    HW227499   4.132   2.029   3.116
 6795SOL    HW327500   4.162   1.883   3.089
 6795SOL    MW427501   4.104   1.948   3.097
 6796SOL     OW27502   4.130   2.612   2.274
 6796SOL    HW227503   4.130   2.707   2.259
 6796SOL    HW327504   4.207   2.596   2.328
 6796SOL    MW427505   4.140   2.623   2.279
 6797SOL     OW27506   4.906   2.471   3.338
 6797SOL    HW227507   4.942   2.444   3.254
 6797SOL    HW327508   4.819   2.505   3.317
 6797SOL    MW427509   4.900   2.472   3.325
 6798SOL     OW27510   3.889   2.343   2.563
 6798SOL    HW227511   3.951   2.350   2.636
 6798SOL    HW327512   3.889   2.250   2.540
 6798SOL    MW427513   3.897   2.332   2.570
 6799SOL     OW27514   5.436   3.683   2.095
 6799SOL    HW227515   5.503   3.716   2.035
 6799SOL    HW327516   5.393   3.762   2.129
 6799SOL    MW427517   5.438   3.698   2.091
 6800SOL     OW27518   4.571   2.604   3.047
 6800SOL    HW227519   4.529   2.522   3.023
 6800SOL    HW327520   4.572   2.603   3.143
 6800SOL    MW427521   4.564   2.593   3.056
 6801SOL     OW27522   5.242   3.737   3.446
 6801SOL    HW227523   5.245   3.643   3.429
 6801SOL    HW327524   5.265   3.745   3.538
 6801SOL    MW427525   5.245   3.725   3.456
 6802SOL     OW27526   4.375   2.074   3.152
 6802SOL    HW227527   4.306   2.137   3.173
 6802SOL    HW327528   4.402   2.038   3.237
 6802SOL    MW427529   4.369   2.077   3.165
 6803SOL     OW27530   3.758   2.915   2.021
 6803SOL    HW227531   3.727   2.980   2.084
 6803SOL    HW327532   3.707   2.837   2.040
 6803SOL    MW427533   3.748   2.912   2.031
 6804SOL     OW27534   5.170   1.927   2.769
 6804SOL    HW227535   5.258   1.936   2.806
 6804SOL    HW327536   5.180   1.868   2.695
 6804SOL    MW427537   5.184   1.921   2.763
 6805SOL     OW27538   5.202   2.666   2.613
 6805SOL    HW227539   5.282   2.681   2.562
 6805SOL    HW327540   5.195   2.571   2.619
 6805SOL    MW427541   5.211   2.655   2.608
 6806SOL     OW27542   4.342   3.715   1.963
 6806SOL    HW227543   4.247   3.715   1.955
 6806SOL    HW327544   4.358   3.661   2.041
 6806SOL    MW427545   4.332   3.709   1.972
 6807SOL     OW27546   4.652   2.592   3.310
 6807SOL    HW227547   4.721   2.659   3.307
 6807SOL    HW327548   4.585   2.630   3.366
 6807SOL    MW427549   4.653   2.605   3.317
 6808SOL     OW27550   4.070   2.892   3.558
 6808SOL    HW227551   4.024   2.808   3.560
 6808SOL    HW327552   4.127   2.886   3.482
 6808SOL    MW427553   4.072   2.880   3.550
 6809SOL     OW27554   5.187   2.535   1.879
 6809SOL    HW227555   5.115   2.511   1.821
 6809SOL    HW327556   5.253   2.572   1.821
 6809SOL    MW427557   5.186   2.537   1.864
 6810SOL     OW27558   4.321   3.267   2.559
 6810SOL    HW227559   4.386   3.200   2.580
 6810SOL    HW327560   4.373   3.344   2.536
 6810SOL    MW427561   4.336   3.269   2.558
 6811SOL     OW27562   4.582   2.432   2.689
 6811SOL    HW227563   4.522   2.450   2.761
 6811SOL    HW327564   4.616   2.344   2.708
 6811SOL    MW427565   4.578   2.422   2.702
 6812SOL     OW27566   5.523   1.931   3.358
 6812SOL    HW227567   5.444   1.977   3.386
 6812SOL    HW327568   5.558   1.985   3.287
 6812SOL    MW427569   5.517   1.944   3.352
 6813SOL     OW27570   4.807   3.015   2.708
 6813SOL    HW227571   4.899   2.996   2.726
 6813SOL    HW327572   4.780   2.945   2.648
 6813SOL    MW427573   4.815   3.003   2.702
 6814SOL     OW27574   4.600   2.835   2.063
 6814SOL    HW227575   4.586   2.747   2.028
 6814SOL    HW327576   4.551   2.892   2.004
 6814SOL    MW427577   4.592   2.830   2.051
 6815SOL     OW27578   5.081   3.253   2.804
 6815SOL    HW227579   5.054   3.337   2.769
 6815SOL    HW327580   5.041   3.248   2.891
 6815SOL    MW427581   5.074   3.262   2.810
 6816SOL     OW27582   5.000   3.201   3.072
 6816SOL    HW227583   5.011   3.168   3.161
 6816SOL    HW327584   4.919   3.160   3.041
 6816SOL    MW427585   4.990   3.193   3.078
 6817SOL     OW27586   4.013   2.559   2.842
 6817SOL    HW227587   3.963   2.558   2.923
 6817SOL    HW327588   4.033   2.651   2.826
 6817SOL    MW427589   4.009   2.571   2.850
 6818SOL     OW27590   5.080   3.323   3.604
 6818SOL    HW227591   5.080   3.417   3.620
 6818SOL    HW327592   5.125   3.313   3.520
 6818SOL    MW427593   5.086   3.333   3.595
 6819SOL     OW27594   5.319   2.041   2.165
 6819SOL    HW227595   5.312   2.045   2.260
 6819SOL    HW327596   5.331   2.132   2.138
 6819SOL    MW427597   5.320   2.054   2.173
 6820SOL     OW27598   4.608   2.604   2.279
 6820SOL    HW227599   4.588   2.590   2.186
 6820SOL    HW327600   4.701   2.583   2.286
 6820SOL    MW427601   4.618   2.599   2.268
 6821SOL     OW27602   3.935   2.227   3.583
 6821SOL    HW227603   3.892   2.286   3.520
 6821SOL    HW327604   4.003   2.282   3.623
 6821SOL    MW427605   3.939   2.242   3.580
 6822SOL     OW27606   5.047   2.847   3.128
 6822SOL    HW227607   5.110   2.844   3.201
 6822SOL    HW327608   4.963   2.865   3.170
 6822SOL    MW427609   5.043   2.849   3.143
 6823SOL     OW27610   4.591   3.562   2.317
 6823SOL    HW227611   4.649   3.633   2.344
 6823SOL    HW327612   4.614   3.490   2.375
 6823SOL    MW427613   4.602   3.562   2.328
 6824SOL     OW27614   5.386   2.024   2.907
 6824SOL    HW227615   5.431   1.942   2.926
 6824SOL    HW327616   5.406   2.080   2.983
 6824SOL    MW427617   5.396   2.020   2.919
 6825SOL     OW27618   3.834   1.867   3.006
 6825SOL    HW227619   3.825   1.868   2.911
 6825SOL    HW327620   3.928   1.879   3.021
 6825SOL    MW427621   3.846   1.870   2.997
 6826SOL     OW27622   5.471   3.060   2.626
 6826SOL    HW227623   5.450   3.006   2.549
 6826SOL    HW327624   5.567   3.058   2.630
 6826SOL    MW427625   5.480   3.053   2.615
 6827SOL     OW27626   4.163   3.205   3.369
 6827SOL    HW227627   4.084   3.155   3.392
 6827SOL    HW327628   4.233   3.164   3.419
 6827SOL    MW427629   4.161   3.193   3.379
 6828SOL     OW27630   4.047   1.994   2.052
 6828SOL    HW227631   3.976   2.049   2.020
 6828SOL    HW327632   4.089   1.960   1.973
 6828SOL    MW427633   4.043   1.996   2.038
 6829SOL     OW27634   5.171   2.491   2.888
 6829SOL    HW227635   5.094   2.537   2.854
 6829SOL    HW327636   5.228   2.560   2.922
 6829SOL    MW427637   5.168   2.506   2.888
 6830SOL     OW27638   3.803   2.093   1.901
 6830SOL    HW227639   3.770   2.172   1.945
 6830SOL    HW327640   3.858   2.126   1.830
 6830SOL    MW427641   3.806   2.107   1.898
 6831SOL     OW27642   3.837   3.350   2.090
 6831SOL    HW227643   3.854   3.434   2.132
 6831SOL    HW327644   3.872   3.359   2.002
 6831SOL    MW427645   3.842   3.363   2.084
 6832SOL     OW27646   5.109   3.439   2.307
 6832SOL    HW227647   5.172   3.429   2.236
 6832SOL    HW327648   5.026   3.459   2.262
 6832SOL    MW427649   5.106   3.440   2.292
 6833SOL     OW27650   5.472   2.707   3.993
 6833SOL    HW227651   5.513   2.649   4.058
 6833SOL    HW327652   5.379   2.699   4.010
 6833SOL    MW427653   5.466   2.699   4.003
 6834SOL     OW27654   5.338   2.639   4.988
 6834SOL    HW227655   5.293   2.706   5.039
 6834SOL    HW327656   5.426   2.675   4.974
 6834SOL    MW427657   5.344   2.652   4.992
 6835SOL     OW27658   4.266   2.890   4.222
 6835SOL    HW227659   4.356   2.865   4.206
 6835SOL    HW327660   4.262   2.983   4.199
 6835SOL    MW427661   4.278   2.899   4.217
 6836SOL     OW27662   5.382   3.593   4.364
 6836SOL    HW227663   5.394   3.539   4.442
 6836SOL    HW327664   5.419   3.541   4.293
 6836SOL    MW427665   5.388   3.578   4.365
 6837SOL     OW27666   4.761   3.478   5.365
 6837SOL    HW227667   4.802   3.514   5.286
 6837SOL    HW327668   4.796   3.389   5.372
 6837SOL    MW427669   4.772   3.471   5.356
 6838SOL     OW27670   5.318   3.033   4.969
 6838SOL    HW227671   5.239   2.998   4.927
 6838SOL    HW327672   5.345   3.105   4.913
 6838SOL    MW427673   5.311   3.038   4.956
 6839SOL     OW27674   4.550   2.346   4.235
 6839SOL    HW227675   4.525   2.434   4.263
 6839SOL    HW327676   4.547   2.349   4.139
 6839SOL    MW427677   4.546   2.358   4.227
 6840SOL     OW27678   3.992   2.374   4.163
 6840SOL    HW227679   4.024   2.462   4.145
 6840SOL    HW327680   3.980   2.372   4.258
 6840SOL    MW427681   3.995   2.386   4.175
 6841SOL     OW27682   4.070   2.787   5.064
 6841SOL    HW227683   4.133   2.734   5.015
 6841SOL    HW327684   4.051   2.861   5.007
 6841SOL    MW427685   4.076   2.789   5.051
 6842SOL     OW27686   4.391   2.129   4.250
 6842SOL    HW227687   4.449   2.205   4.252
 6842SOL    HW327688   4.326   2.150   4.183
 6842SOL    MW427689   4.390   2.141   4.241
 6843SOL     OW27690   4.478   3.056   4.425
 6843SOL    HW227691   4.558   3.059   4.477
 6843SOL    HW327692   4.506   3.023   4.339
 6843SOL    MW427693   4.492   3.052   4.420
 6844SOL     OW27694   4.503   3.397   5.328
 6844SOL    HW227695   4.587   3.423   5.367
 6844SOL    HW327696   4.527   3.341   5.254
 6844SOL    MW427697   4.517   3.393   5.323
 6845SOL     OW27698   4.255   2.560   4.416
 6845SOL    HW227699   4.240   2.480   4.467
 6845SOL    HW327700   4.337   2.595   4.450
 6845SOL    MW427701   4.263   2.552   4.428
 6846SOL     OW27702   4.592   3.246   5.101
 6846SOL    HW227703   4.556   3.312   5.041
 6846SOL    HW327704   4.520   3.184   5.114
 6846SOL    MW427705   4.578   3.246   5.095
 6847SOL     OW27706   4.397   2.386   4.793
 6847SOL    HW227707   4.303   2.382   4.811
 6847SOL    HW327708   4.427   2.295   4.802
 6847SOL    MW427709   4.388   2.374   4.796
 6848SOL     OW27710   4.143   2.800   4.697
 6848SOL    HW227711   4.098   2.807   4.613
 6848SOL    HW327712   4.123   2.883   4.741
 6848SOL    MW427713   4.135   2.812   4.691
 6849SOL     OW27714   3.840   3.646   4.572
 6849SOL    HW227715   3.929   3.638   4.607
 6849SOL    HW327716   3.804   3.558   4.577
 6849SOL    MW427717   3.847   3.633   4.577
 6850SOL     OW27718   5.105   3.038   3.941
 6850SOL    HW227719   5.023   3.074   3.907
 6850SOL    HW327720   5.173   3.081   3.890
 6850SOL    MW427721   5.103   3.048   3.929
 6851SOL     OW27722   4.104   3.173   4.607
 6851SOL    HW227723   4.080   3.226   4.683
 6851SOL    HW327724   4.160   3.231   4.555
 6851SOL    MW427725   4.108   3.188   4.610
 6852SOL     OW27726   4.666   2.817   4.417
 6852SOL    HW227727   4.580   2.804   4.457
 6852SOL    HW327728   4.719   2.744   4.449
 6852SOL    MW427729   4.662   2.806   4.426
 6853SOL     OW27730   4.074   3.469   5.202
 6853SOL    HW227731   3.982   3.445   5.187
 6853SOL    HW327732   4.118   3.386   5.219
 6853SOL    MW427733   4.068   3.454   5.201
 6854SOL     OW27734   4.657   3.179   4.134
 6854SOL    HW227735   4.634   3.241   4.202
 6854SOL    HW327736   4.614   3.097   4.160
 6854SOL    MW427737   4.649   3.175   4.145
 6855SOL     OW27738   5.530   2.180   4.590
 6855SOL    HW227739   5.467   2.160   4.659
 6855SOL    HW327740   5.520   2.109   4.527
 6855SOL    MW427741   5.520   2.167   4.591
 6856SOL     OW27742   4.154   2.152   4.102
 6856SOL    HW227743   4.128   2.114   4.018
 6856SOL    HW327744   4.091   2.222   4.118
 6856SOL    MW427745   4.143   2.155   4.093
 6857SOL     OW27746   3.989   3.113   4.139
 6857SOL    HW227747   3.937   3.181   4.095
 6857SOL    HW327748   3.986   3.039   4.079
 6857SOL    MW427749   3.981   3.112   4.126
 6858SOL     OW27750   4.651   3.576   3.917
 6858SOL    HW227751   4.606   3.592   4.000
 6858SOL    HW327752   4.582   3.541   3.859
 6858SOL    MW427753   4.637   3.573   3.919
 6859SOL     OW27754   5.586   2.349   3.892
 6859SOL    HW227755   5.495   2.351   3.920
 6859SOL    HW327756   5.631   2.411   3.950
 6859SOL    MW427757   5.579   2.357   3.902
 6860SOL     OW27758   5.331   2.952   4.242
 6860SOL    HW227759   5.241   2.952   4.277
 6860SOL    HW327760   5.324   2.998   4.159
 6860SOL    MW427761   5.318   2.958   4.236
 6861SOL     OW27762   5.131   2.587   5.314
 6861SOL    HW227763   5.200   2.525   5.291
 6861SOL    HW327764   5.056   2.561   5.261
 6861SOL    MW427765   5.131   2.574   5.305
 6862SOL     OW27766   3.872   3.467   4.866
 6862SOL    HW227767   3.855   3.413   4.943
 6862SOL    HW327768   3.860   3.557   4.896
 6862SOL    MW427769   3.869   3.471   4.880
 6863SOL     OW27770   4.867   2.974   5.306
 6863SOL    HW227771   4.852   3.067   5.291
 6863SOL    HW327772   4.962   2.964   5.306
 6863SOL    MW427773   4.876   2.984   5.303
 6864SOL     OW27774   4.663   2.398   5.507
 6864SOL    HW227775   4.753   2.399   5.474
 6864SOL    HW327776   4.622   2.323   5.465
 6864SOL    MW427777   4.669   2.388   5.498
 6865SOL     OW27778   5.238   2.930   4.634
 6865SOL    HW227779   5.241   2.864   4.565
 6865SOL    HW327780   5.323   2.973   4.630
 6865SOL    MW427781   5.250   2.926   4.625
 6866SOL     OW27782   4.858   2.533   4.203
 6866SOL    HW227783   4.884   2.557   4.114
 6866SOL    HW327784   4.840   2.440   4.199
 6866SOL    MW427785   4.860   2.525   4.190
 6867SOL     OW27786   5.523   3.153   4.054
 6867SOL    HW227787   5.479   3.194   4.129
 6867SOL    HW327788   5.580   3.221   4.019
 6867SOL    MW427789   5.525   3.167   4.059
 6868SOL     OW27790   4.443   2.202   5.457
 6868SOL    HW227791   4.453   2.128   5.397
 6868SOL    HW327792   4.479   2.171   5.540
 6868SOL    MW427793   4.449   2.188   5.459
 6869SOL     OW27794   4.179   3.569   4.372
 6869SOL    HW227795   4.211   3.657   4.350
 6869SOL    HW327796   4.132   3.541   4.294
 6869SOL    MW427797   4.178   3.577   4.359
 6870SOL     OW27798   5.563   1.931   4.421
 6870SOL    HW227799   5.617   1.882   4.483
 6870SOL    HW327800   5.506   1.865   4.382
 6870SOL    MW427801   5.563   1.915   4.423
 6871SOL     OW27802   3.895   3.629   3.949
 6871SOL    HW227803   3.924   3.719   3.941
 6871SOL    HW327804   3.845   3.612   3.870
 6871SOL    MW427805   3.893   3.637   3.938
 6872SOL     OW27806   4.682   1.884   4.834
 6872SOL    HW227807   4.641   1.962   4.796
 6872SOL    HW327808   4.776   1.902   4.829
 6872SOL    MW427809   4.688   1.896   4.829
 6873SOL     OW27810   5.299   3.437   3.920
 6873SOL    HW227811   5.347   3.506   3.966
 6873SOL    HW327812   5.220   3.481   3.889
 6873SOL    MW427813   5.294   3.451   3.923
 6874SOL     OW27814   4.697   2.562   3.864
 6874SOL    HW227815   4.699   2.509   3.785
 6874SOL    HW327816   4.785   2.599   3.870
 6874SOL    MW427817   4.709   2.561   3.853
 6875SOL     OW27818   5.311   2.488   4.200
 6875SOL    HW227819   5.350   2.488   4.287
 6875SOL    HW327820   5.252   2.564   4.200
 6875SOL    MW427821   5.308   2.499   4.211
 6876SOL     OW27822   4.628   2.855   5.329
 6876SOL    HW227823   4.605   2.835   5.419
 6876SOL    HW327824   4.713   2.899   5.334
 6876SOL    MW427825   4.635   2.858   5.341
 6877SOL     OW27826   4.708   1.992   5.089
 6877SOL    HW227827   4.714   1.954   5.002
 6877SOL    HW327828   4.697   2.086   5.074
 6877SOL    MW427829   4.709   2.000   5.077
 6878SOL     OW27830   4.797   2.481   4.923
 6878SOL    HW227831   4.872   2.510   4.870
 6878SOL    HW327832   4.729   2.546   4.907
 6878SOL    MW427833   4.798   2.493   4.913
 6879SOL     OW27834   5.347   2.449   5.200
 6879SOL    HW227835   5.328   2.358   5.179
 6879SOL    HW327836   5.325   2.498   5.121
 6879SOL    MW427837   5.342   2.442   5.187
 6880SOL     OW27838   5.489   3.543   5.104
 6880SOL    HW227839   5.417   3.505   5.155
 6880SOL    HW327840   5.506   3.628   5.145
 6880SOL    MW427841   5.483   3.548   5.116
 6881SOL     OW27842   4.794   2.187   5.306
 6881SOL    HW227843   4.760   2.226   5.225
 6881SOL    HW327844   4.772   2.095   5.299
 6881SOL    MW427845   4.787   2.180   5.296
 6882SOL     OW27846   5.203   3.001   5.382
 6882SOL    HW227847   5.285   3.042   5.412
 6882SOL    HW327848   5.166   2.963   5.462
 6882SOL    MW427849   5.209   3.002   5.397
 6883SOL     OW27850   5.498   2.374   4.366
 6883SOL    HW227851   5.587   2.343   4.383
 6883SOL    HW327852   5.441   2.314   4.414
 6883SOL    MW427853   5.501   2.362   4.375
 6884SOL     OW27854   3.924   2.088   4.395
 6884SOL    HW227855   3.915   2.028   4.321
 6884SOL    HW327856   3.857   2.059   4.458
 6884SOL    MW427857   3.914   2.075   4.393
 6885SOL     OW27858   4.867   3.181   3.956
 6885SOL    HW227859   4.817   3.183   4.038
 6885SOL    HW327860   4.801   3.199   3.888
 6885SOL    MW427861   4.853   3.183   3.958
 6886SOL     OW27862   3.871   2.261   4.758
 6886SOL    HW227863   3.843   2.352   4.767
 6886SOL    HW327864   3.808   2.222   4.697
 6886SOL    MW427865   3.858   2.267   4.752
 6887SOL     OW27866   4.330   3.599   4.064
 6887SOL    HW227867   4.251   3.557   4.097
 6887SOL    HW327868   4.396   3.582   4.131
 6887SOL    MW427869   4.329   3.591   4.077
 6888SOL     OW27870   5.458   3.119   5.461
 6888SOL    HW227871   5.508   3.045   5.493
 6888SOL    HW327872   5.404   3.146   5.536
 6888SOL    MW427873   5.458   3.113   5.474
 6889SOL     OW27874   4.466   3.014   3.771
 6889SOL    HW227875   4.388   2.960   3.758
 6889SOL    HW327876   4.437   3.087   3.824
 6889SOL    MW427877   4.452   3.016   3.776
 6890SOL     OW27878   5.592   2.754   4.963
 6890SOL    HW227879   5.608   2.792   4.876
 6890SOL    HW327880   5.626   2.820   5.024
 6890SOL    MW427881   5.599   2.767   4.959
 6891SOL     OW27882   5.384   3.463   4.632
 6891SOL    HW227883   5.413   3.530   4.693
 6891SOL    HW327884   5.365   3.387   4.687
 6891SOL    MW427885   5.386   3.463   4.647
 6892SOL     OW27886   5.047   3.530   3.839
 6892SOL    HW227887   4.973   3.493   3.889
 6892SOL    HW327888   5.055   3.620   3.872
 6892SOL    MW427889   5.038   3.537   3.851
 6893SOL     OW27890   3.855   2.536   4.928
 6893SOL    HW227891   3.917   2.566   4.994
 6893SOL    HW327892   3.789   2.605   4.922
 6893SOL    MW427893   3.854   2.549   4.935
 6894SOL     OW27894   5.271   3.204   3.781
 6894SOL    HW227895   5.218   3.253   3.717
 6894SOL    HW327896   5.302   3.270   3.842
 6894SOL    MW427897   5.269   3.218   3.779
 6895SOL     OW27898   4.496   2.093   3.836
 6895SOL    HW227899   4.444   2.013   3.824
 6895SOL    HW327900   4.583   2.070   3.804
 6895SOL    MW427901   4.499   2.079   3.830
 6896SOL     OW27902   3.950   3.645   5.380
 6896SOL    HW227903   3.924   3.713   5.318
 6896SOL    HW327904   3.998   3.582   5.328
 6896SOL    MW427905   3.952   3.645   5.366
 6897SOL     OW27906   4.002   2.964   4.887
 6897SOL    HW227907   4.055   3.039   4.912
 6897SOL    HW327908   3.921   3.002   4.853
 6897SOL    MW427909   3.998   2.979   4.887
 6898SOL     OW27910   4.542   2.868   4.875
 6898SOL    HW227911   4.570   2.777   4.887
 6898SOL    HW327912   4.471   2.862   4.811
 6898SOL    MW427913   4.535   2.856   4.870
 6899SOL     OW27914   3.857   2.733   4.293
 6899SOL    HW227915   3.948   2.748   4.320
 6899SOL    HW327916   3.860   2.654   4.239
 6899SOL    MW427917   3.869   2.725   4.291
 6900SOL     OW27918   4.093   2.441   5.547
 6900SOL    HW227919   4.040   2.521   5.554
 6900SOL    HW327920   4.163   2.453   5.612
 6900SOL    MW427921   4.095   2.454   5.555
 6901SOL     OW27922   4.479   1.991   5.254
 6901SOL    HW227923   4.456   1.899   5.256
 6901SOL    HW327924   4.565   1.993   5.211
 6901SOL    MW427925   4.486   1.981   5.250
 6902SOL     OW27926   4.163   2.515   5.293
 6902SOL    HW227927   4.243   2.565   5.279
 6902SOL    HW327928   4.154   2.509   5.388
 6902SOL    MW427929   4.172   2.521   5.303
 6903SOL     OW27930   4.484   3.665   4.667
 6903SOL    HW227931   4.573   3.680   4.697
 6903SOL    HW327932   4.479   3.712   4.583
 6903SOL    MW427933   4.494   3.673   4.660
 6904SOL     OW27934   5.140   2.040   5.564
 6904SOL    HW227935   5.196   1.967   5.590
 6904SOL    HW327936   5.110   2.078   5.646
 6904SOL    MW427937   5.144   2.035   5.577
 6905SOL     OW27938   3.865   3.345   4.332
 6905SOL    HW227939   3.837   3.384   4.414
 6905SOL    HW327940   3.885   3.254   4.354
 6905SOL    MW427941   3.863   3.337   4.345
 6906SOL     OW27942   4.698   3.388   4.367
 6906SOL    HW227943   4.781   3.342   4.351
 6906SOL    HW327944   4.688   3.387   4.463
 6906SOL    MW427945   4.708   3.381   4.377
 6907SOL     OW27946   5.530   2.533   4.681
 6907SOL    HW227947   5.619   2.563   4.663
 6907SOL    HW327948   5.510   2.473   4.610
 6907SOL    MW427949   5.539   2.530   4.670
 6908SOL     OW27950   5.381   2.712   5.561
 6908SOL    HW227951   5.436   2.636   5.542
 6908SOL    HW327952   5.383   2.720   5.656
 6908SOL    MW427953   5.389   2.703   5.569
 6909SOL     OW27954   4.431   3.445   3.772
 6909SOL    HW227955   4.371   3.514   3.742
 6909SOL    HW327956   4.376   3.387   3.825
 6909SOL    MW427957   4.415   3.447   3.774
 6910SOL     OW27958   4.869   2.090   3.995
 6910SOL    HW227959   4.802   2.066   3.932
 6910SOL    HW327960   4.934   2.139   3.944
 6910SOL    MW427961   4.869   2.092   3.980
 6911SOL     OW27962   4.676   2.274   5.080
 6911SOL    HW227963   4.595   2.315   5.108
 6911SOL    HW327964   4.723   2.342   5.032
 6911SOL    MW427965   4.671   2.289   5.078
 6912SOL     OW27966   4.936   2.612   4.703
 6912SOL    HW227967   4.949   2.706   4.713
 6912SOL    HW327968   4.897   2.602   4.617
 6912SOL    MW427969   4.932   2.623   4.693
 6913SOL     OW27970   4.388   2.807   4.507
 6913SOL    HW227971   4.299   2.798   4.540
 6913SOL    HW327972   4.392   2.897   4.475
 6913SOL    MW427973   4.377   2.818   4.507
 6914SOL     OW27974   5.187   2.390   4.502
 6914SOL    HW227975   5.132   2.311   4.501
 6914SOL    HW327976   5.169   2.431   4.586
 6914SOL    MW427977   5.177   2.385   4.511
 6915SOL     OW27978   4.158   2.077   5.319
 6915SOL    HW227979   4.079   2.095   5.371
 6915SOL    HW327980   4.153   2.139   5.246
 6915SOL    MW427981   4.148   2.087   5.316
 6916SOL     OW27982   4.806   2.594   4.459
 6916SOL    HW227983   4.743   2.526   4.483
 6916SOL    HW327984   4.826   2.575   4.367
 6916SOL    MW427985   4.800   2.581   4.451
 6917SOL     OW27986   4.062   3.489   4.161
 6917SOL    HW227987   4.023   3.536   4.087
 6917SOL    HW327988   3.996   3.424   4.186
 6917SOL    MW427989   4.049   3.487   4.155
 6918SOL     OW27990   4.554   2.898   4.185
 6918SOL    HW227991   4.556   2.872   4.092
 6918SOL    HW327992   4.612   2.835   4.228
 6918SOL    MW427993   4.562   2.887   4.179
 6919SOL     OW27994   5.107   3.458   4.957
 6919SOL    HW227995   5.032   3.504   4.995
 6919SOL    HW327996   5.089   3.365   4.974
 6919SOL    MW427997   5.096   3.452   4.965
 6920SOL     OW27998   5.111   3.666   4.387
 6920SOL    HW227999   5.054   3.619   4.326
 6920SOL    HW328000   5.197   3.627   4.374
 6920SOL    MW428001   5.114   3.657   4.377
 6921SOL     OW28002   5.064   2.142   4.518
 6921SOL    HW228003   5.092   2.074   4.579
 6921SOL    HW328004   4.978   2.113   4.488
 6921SOL    MW428005   5.057   2.129   4.522
 6922SOL     OW28006   3.869   3.076   4.452
 6922SOL    HW228007   3.933   3.108   4.515
 6922SOL    HW328008   3.918   3.012   4.400
 6922SOL    MW428009   3.884   3.072   4.453
 6923SOL     OW28010   4.369   3.152   5.434
 6923SOL    HW228011   4.417   3.235   5.421
 6923SOL    HW328012   4.426   3.100   5.490
 6923SOL    MW428013   4.383   3.156   5.440
 6924SOL     OW28014   3.945   3.394   5.574
 6924SOL    HW228015   4.001   3.318   5.589
 6924SOL    HW328016   3.894   3.372   5.496
 6924SOL    MW428017   3.945   3.381   5.565
 6925SOL     OW28018   5.044   2.246   3.853
 6925SOL    HW228019   5.017   2.312   3.789
 6925SOL    HW328020   5.114   2.289   3.903
 6925SOL    MW428021   5.049   2.259   3.850
 6926SOL     OW28022   4.712   1.951   3.790
 6926SOL    HW228023   4.768   1.943   3.712
 6926SOL    HW328024   4.689   1.861   3.812
 6926SOL    MW428025   4.717   1.938   3.783
 6927SOL     OW28026   5.217   2.802   3.995
 6927SOL    HW228027   5.184   2.891   3.985
 6927SOL    HW328028   5.182   2.773   4.080
 6927SOL    MW428029   5.207   2.811   4.006
 6928SOL     OW28030   4.830   3.231   5.183
 6928SOL    HW228031   4.741   3.237   5.151
 6928SOL    HW328032   4.874   3.310   5.151
 6928SOL    MW428033   4.825   3.241   5.175
 6929SOL     OW28034   4.123   1.899   5.525
 6929SOL    HW228035   4.051   1.864   5.473
 6929SOL    HW328036   4.181   1.940   5.460
 6929SOL    MW428037   4.121   1.900   5.510
 6930SOL     OW28038   4.147   3.389   4.824
 6930SOL    HW228039   4.192   3.451   4.881
 6930SOL    HW328040   4.054   3.408   4.837
 6930SOL    MW428041   4.140   3.399   4.831
 6931SOL     OW28042   5.587   2.918   5.178
 6931SOL    HW228043   5.502   2.931   5.137
 6931SOL    HW328044   5.567   2.882   5.265
 6931SOL    MW428045   5.574   2.914   5.183
 6932SOL     OW28046   4.569   3.457   4.932
 6932SOL    HW228047   4.593   3.446   4.841
 6932SOL    HW328048   4.492   3.514   4.930
 6932SOL    MW428049   4.561   3.462   4.921
 6933SOL     OW28050   4.211   2.840   3.787
 6933SOL    HW228051   4.134   2.853   3.843
 6933SOL    HW328052   4.175   2.804   3.706
 6933SOL    MW428053   4.197   2.836   3.784
 6934SOL     OW28054   4.864   2.813   4.030
 6934SOL    HW228055   4.774   2.834   4.005
 6934SOL    HW328056   4.891   2.886   4.086
 6934SOL    MW428057   4.856   2.825   4.033
 6935SOL     OW28058   4.364   3.162   4.722
 6935SOL    HW228059   4.357   3.141   4.816
 6935SOL    HW328060   4.282   3.130   4.685
 6935SOL    MW428061   4.352   3.156   4.729
 6936SOL     OW28062   5.228   2.172   5.124
 6936SOL    HW228063   5.175   2.174   5.204
 6936SOL    HW328064   5.213   2.085   5.087
 6936SOL    MW428065   5.220   2.162   5.129
 6937SOL     OW28066   5.564   2.096   4.997
 6937SOL    HW228067   5.545   2.163   4.932
 6937SOL    HW328068   5.621   2.034   4.952
 6937SOL    MW428069   5.568   2.097   4.983
 6938SOL     OW28070   3.810   3.254   5.385
 6938SOL    HW228071   3.854   3.187   5.331
 6938SOL    HW328072   3.725   3.216   5.405
 6938SOL    MW428073   3.805   3.240   5.381
 6939SOL     OW28074   4.493   1.929   4.437
 6939SOL    HW228075   4.422   1.990   4.419
 6939SOL    HW328076   4.544   1.926   4.356
 6939SOL    MW428077   4.489   1.935   4.424
 6940SOL     OW28078   4.251   3.169   4.186
 6940SOL    HW228079   4.244   3.201   4.276
 6940SOL    HW328080   4.161   3.153   4.158
 6940SOL    MW428081   4.239   3.171   4.193
 6941SOL     OW28082   4.846   3.562   5.095
 6941SOL    HW228083   4.766   3.547   5.045
 6941SOL    HW328084   4.853   3.657   5.102
 6941SOL    MW428085   4.837   3.573   5.089
 6942SOL     OW28086   4.960   3.527   4.585
 6942SOL    HW228087   5.007   3.600   4.544
 6942SOL    HW328088   4.881   3.566   4.621
 6942SOL    MW428089   4.955   3.542   4.584
 6943SOL     OW28090   5.368   3.622   4.860
 6943SOL    HW228091   5.411   3.592   4.940
 6943SOL    HW328092   5.287   3.570   4.857
 6943SOL    MW428093   5.363   3.611   4.870
 6944SOL     OW28094   4.453   2.586   5.567
 6944SOL    HW228095   4.523   2.528   5.539
 6944SOL    HW328096   4.396   2.531   5.622
 6944SOL    MW428097   4.455   2.573   5.571
 6945SOL     OW28098   5.240   2.798   5.200
 6945SOL    HW228099   5.245   2.851   5.280
 6945SOL    HW328100   5.202   2.715   5.228
 6945SOL    MW428101   5.236   2.793   5.215
 6946SOL     OW28102   4.880   1.933   5.446
 6946SOL    HW228103   4.875   1.840   5.427
 6946SOL    HW328104   4.963   1.944   5.492
 6946SOL    MW428105   4.888   1.922   5.450
 6947SOL     OW28106   4.254   2.453   3.900
 6947SOL    HW228107   4.220   2.509   3.970
 6947SOL    HW328108   4.325   2.403   3.940
 6947SOL    MW428109   4.260   2.454   3.914
 6948SOL     OW28110   5.350   3.204   4.722
 6948SOL    HW228111   5.385   3.186   4.635
 6948SOL    HW328112   5.255   3.205   4.709
 6948SOL    MW428113   5.342   3.201   4.709
 6949SOL     OW28114   4.779   2.852   5.091
 6949SOL    HW228115   4.822   2.887   5.169
 6949SOL    HW328116   4.762   2.929   5.037
 6949SOL    MW428117   4.782   2.867   5.094
 6950SOL     OW28118   5.310   2.339   3.964
 6950SOL    HW228119   5.302   2.410   3.901
 6950SOL    HW328120   5.328   2.383   4.047
 6950SOL    MW428121   5.311   2.353   3.966
 6951SOL     OW28122   4.170   1.994   4.393
 6951SOL    HW228123   4.220   2.037   4.324
 6951SOL    HW328124   4.085   2.038   4.393
 6951SOL    MW428125   4.167   2.007   4.384
 6952SOL     OW28126   3.929   3.056   5.253
 6952SOL    HW228127   3.957   3.009   5.331
 6952SOL    HW328128   3.850   3.011   5.224
 6952SOL    MW428129   3.922   3.045   5.259
 6953SOL     OW28130   4.437   2.383   5.220
 6953SOL    HW228131   4.409   2.471   5.244
 6953SOL    HW328132   4.406   2.327   5.291
 6953SOL    MW428133   4.429   2.386   5.232
 6954SOL     OW28134   4.979   2.601   3.939
 6954SOL    HW228135   5.026   2.619   3.858
 6954SOL    HW328136   4.945   2.685   3.967
 6954SOL    MW428137   4.981   2.615   3.932
 6955SOL     OW28138   4.092   2.779   4.433
 6955SOL    HW228139   4.150   2.835   4.381
 6955SOL    HW328140   4.136   2.694   4.435
 6955SOL    MW428141   4.105   2.776   4.426
 6956SOL     OW28142   5.232   2.131   4.270
 6956SOL    HW228143   5.154   2.081   4.295
 6956SOL    HW328144   5.203   2.222   4.270
 6956SOL    MW428145   5.218   2.135   4.273
 6957SOL     OW28146   4.818   2.093   4.429
 6957SOL    HW228147   4.838   2.168   4.373
 6957SOL    HW328148   4.798   2.132   4.514
 6957SOL    MW428149   4.819   2.109   4.433
 6958SOL     OW28150   4.714   3.343   3.761
 6958SOL    HW228151   4.741   3.421   3.713
 6958SOL    HW328152   4.621   3.358   3.780
 6958SOL    MW428153   4.705   3.356   3.757
 6959SOL     OW28154   5.578   2.866   5.448
 6959SOL    HW228155   5.491   2.846   5.484
 6959SOL    HW328156   5.632   2.792   5.473
 6959SOL    MW428157   5.573   2.855   5.456
 6960SOL     OW28158   3.799   3.379   4.605
 6960SOL    HW228159   3.831   3.383   4.696
 6960SOL    HW328160   3.704   3.387   4.613
 6960SOL    MW428161   3.791   3.382   4.618
 6961SOL     OW28162   3.754   2.505   4.152
 6961SOL    HW228163   3.694   2.477   4.222
 6961SOL    HW328164   3.828   2.445   4.158
 6961SOL    MW428165   3.756   2.494   4.161
 6962SOL     OW28166   5.322   3.717   5.586
 6962SOL    HW228167   5.367   3.641   5.551
 6962SOL    HW328168   5.360   3.730   5.673
 6962SOL    MW428169   5.332   3.710   5.592
 6963SOL     OW28170   4.922   3.236   4.312
 6963SOL    HW228171   4.945   3.187   4.390
 6963SOL    HW328172   5.003   3.278   4.284
 6963SOL    MW428173   4.935   3.236   4.319
 6964SOL     OW28174   4.180   2.244   5.041
 6964SOL    HW228175   4.213   2.325   5.081
 6964SOL    HW328176   4.153   2.270   4.953
 6964SOL    MW428177   4.179   2.258   5.035
 6965SOL     OW28178   4.134   2.211   4.777
 6965SOL    HW228179   4.164   2.125   4.748
 6965SOL    HW328180   4.039   2.204   4.780
 6965SOL    MW428181   4.126   2.200   4.775
 6966SOL     OW28182   4.963   2.420   5.468
 6966SOL    HW228183   5.015   2.355   5.421
 6966SOL    HW328184   4.921   2.471   5.398
 6966SOL    MW428185   4.964   2.417   5.451
 6967SOL     OW28186   5.062   2.215   5.329
 6967SOL    HW228187   4.969   2.199   5.316
 6967SOL    HW328188   5.088   2.153   5.397
 6967SOL    MW428189   5.052   2.205   5.336
 6968SOL     OW28190   4.277   1.989   4.668
 6968SOL    HW228191   4.287   1.898   4.694
 6968SOL    HW328192   4.233   1.985   4.583
 6968SOL    MW428193   4.273   1.977   4.660
 6969SOL     OW28194   4.371   3.604   5.214
 6969SOL    HW228195   4.288   3.589   5.259
 6969SOL    HW328196   4.430   3.537   5.249
 6969SOL    MW428197   4.369   3.594   5.224
 6970SOL     OW28198   5.428   2.311   4.839
 6970SOL    HW228199   5.361   2.344   4.899
 6970SOL    HW328200   5.471   2.389   4.805
 6970SOL    MW428201   5.426   2.326   4.843
 6971SOL     OW28202   5.606   3.031   4.809
 6971SOL    HW228203   5.599   2.971   4.734
 6971SOL    HW328204   5.532   3.091   4.798
 6971SOL    MW428205   5.596   3.031   4.798
 6972SOL     OW28206   4.988   2.893   4.727
 6972SOL    HW228207   5.002   2.865   4.818
 6972SOL    HW328208   5.074   2.924   4.699
 6972SOL    MW428209   5.001   2.894   4.736
 6973SOL     OW28210   5.071   2.388   5.006
 6973SOL    HW228211   5.092   2.389   4.913
 6973SOL    HW328212   5.116   2.310   5.039
 6973SOL    MW428213   5.078   2.378   4.998
 6974SOL     OW28214   5.564   2.519   5.548
 6974SOL    HW228215   5.601   2.464   5.617
 6974SOL    HW328216   5.589   2.476   5.466
 6974SOL    MW428217   5.571   2.507   5.547
 6975SOL     OW28218   5.111   2.817   5.600
 6975SOL    HW228219   5.177   2.765   5.554
 6975SOL    HW328220   5.131   2.804   5.693
 6975SOL    MW428221   5.122   2.808   5.607
 6976SOL     OW28222   5.062   1.903   3.948
 6976SOL    HW228223   5.136   1.947   3.991
 6976SOL    HW328224   4.986   1.957   3.970
 6976SOL    MW428225   5.062   1.915   3.956
 6977SOL     OW28226   5.122   2.678   4.226
 6977SOL    HW228227   5.037   2.648   4.196
 6977SOL    HW328228   5.114   2.685   4.321
 6977SOL    MW428229   5.110   2.676   4.235
 6978SOL     OW28230   4.198   3.141   4.957
 6978SOL    HW228231   4.210   3.168   5.048
 6978SOL    HW328232   4.179   3.222   4.910
 6978SOL    MW428233   4.197   3.156   4.962
 6979SOL     OW28234   4.482   2.121   4.780
 6979SOL    HW228235   4.455   2.123   4.871
 6979SOL    HW328236   4.412   2.073   4.735
 6979SOL    MW428237   4.470   2.117   4.787
 6980SOL     OW28238   4.336   3.613   4.942
 6980SOL    HW228239   4.388   3.690   4.919
 6980SOL    HW328240   4.345   3.605   5.037
 6980SOL    MW428241   4.345   3.620   4.953
 6981SOL     OW28242   5.238   3.198   5.174
 6981SOL    HW228243   5.223   3.127   5.237
 6981SOL    HW328244   5.284   3.156   5.102
 6981SOL    MW428245   5.244   3.182   5.174
 6982SOL     OW28246   4.312   2.929   5.291
 6982SOL    HW228247   4.349   2.934   5.203
 6982SOL    HW328248   4.351   3.002   5.338
 6982SOL    MW428249   4.322   2.939   5.286
 6983SOL     OW28250   4.492   2.972   5.103
 6983SOL    HW228251   4.551   2.918   5.156
 6983SOL    HW328252   4.507   2.944   5.013
 6983SOL    MW428253   4.502   2.961   5.099
 6984SOL     OW28254   4.495   2.344   3.952
 6984SOL    HW228255   4.568   2.393   3.915
 6984SOL    HW328256   4.511   2.253   3.926
 6984SOL    MW428257   4.507   2.339   3.945
 6985SOL     OW28258   5.303   3.461   5.275
 6985SOL    HW228259   5.345   3.446   5.360
 6985SOL    HW328260   5.294   3.374   5.237
 6985SOL    MW428261   5.307   3.449   5.282
 6986SOL     OW28262   4.963   1.940   4.866
 6986SOL    HW228263   5.018   1.949   4.788
 6986SOL    HW328264   5.018   1.974   4.937
 6986SOL    MW428265   4.977   1.945   4.865
 6987SOL     OW28266   3.970   2.853   4.050
 6987SOL    HW228267   3.907   2.869   3.979
 6987SOL    HW328268   3.917   2.816   4.121
 6987SOL    MW428269   3.955   2.850   4.050
 6988SOL     OW28270   4.326   3.207   3.909
 6988SOL    HW228271   4.341   3.183   4.001
 6988SOL    HW328272   4.234   3.185   3.893
 6988SOL    MW428273   4.316   3.200   3.919
 6989SOL     OW28274   4.865   3.438   4.061
 6989SOL    HW228275   4.873   3.356   4.012
 6989SOL    HW328276   4.784   3.477   4.028
 6989SOL    MW428277   4.855   3.433   4.051
 6990SOL     OW28278   4.124   3.596   4.630
 6990SOL    HW228279   4.128   3.507   4.665
 6990SOL    HW328280   4.150   3.587   4.539
 6990SOL    MW428281   4.127   3.584   4.622
 6991SOL     OW28282   4.741   3.074   4.873
 6991SOL    HW228283   4.673   3.008   4.889
 6991SOL    HW328284   4.759   3.068   4.780
 6991SOL    MW428285   4.734   3.065   4.864
 6992SOL     OW28286   3.830   3.349   5.124
 6992SOL    HW228287   3.820   3.307   5.210
 6992SOL    HW328288   3.751   3.402   5.114
 6992SOL    MW428289   3.819   3.350   5.135
 6993SOL     OW28290   4.734   2.213   4.694
 6993SOL    HW228291   4.664   2.165   4.739
 6993SOL    HW328292   4.766   2.276   4.758
 6993SOL    MW428293   4.729   2.215   4.708
 6994SOL     OW28294   4.385   2.649   5.314
 6994SOL    HW228295   4.378   2.744   5.302
 6994SOL    HW328296   4.394   2.638   5.409
 6994SOL    MW428297   4.386   2.661   5.324
 6995SOL     OW28298   4.106   3.164   5.572
 6995SOL    HW228299   4.178   3.166   5.509
 6995SOL    HW328300   4.076   3.073   5.571
 6995SOL    MW428301   4.111   3.153   5.564
 6996SOL     OW28302   5.190   1.927   5.039
 6996SOL    HW228303   5.261   1.873   5.003
 6996SOL    HW328304   5.189   1.906   5.132
 6996SOL    MW428305   5.199   1.918   5.047
 6997SOL     OW28306   5.390   3.457   5.523
 6997SOL    HW228307   5.363   3.454   5.614
 6997SOL    HW328308   5.486   3.461   5.526
 6997SOL    MW428309   5.400   3.457   5.535
 6998SOL     OW28310   4.201   2.319   4.507
 6998SOL    HW228311   4.272   2.267   4.470
 6998SOL    HW328312   4.187   2.284   4.594
 6998SOL    MW428313   4.209   2.308   4.514
 6999SOL     OW28314   3.756   3.654   5.579
 6999SOL    HW228315   3.806   3.632   5.501
 6999SOL    HW328316   3.764   3.749   5.587
 6999SOL    MW428317   3.764   3.663   5.570
 7000SOL     OW28318   4.517   3.412   4.583
 7000SOL    HW228319   4.445   3.349   4.596
 7000SOL    HW328320   4.478   3.497   4.601
 7000SOL    MW428321   4.501   3.415   4.586
 7001SOL     OW28322   4.837   2.260   4.231
 7001SOL    HW228323   4.859   2.197   4.163
 7001SOL    HW328324   4.742   2.252   4.242
 7001SOL    MW428325   4.827   2.251   4.223
 7002SOL     OW28326   3.922   1.950   4.163
 7002SOL    HW228327   3.993   1.971   4.102
 7002SOL    HW328328   3.876   1.878   4.121
 7002SOL    MW428329   3.926   1.944   4.149
 7003SOL     OW28330   3.753   2.417   5.306
 7003SOL    HW228331   3.817   2.483   5.281
 7003SOL    HW328332   3.672   2.444   5.263
 7003SOL    MW428333   3.751   2.429   5.298
 7004SOL     OW28334   5.491   3.324   4.263
 7004SOL    HW228335   5.461   3.257   4.324
 7004SOL    HW328336   5.585   3.330   4.277
 7004SOL    MW428337   5.499   3.316   4.273
 7005SOL     OW28338   5.047   3.001   4.193
 7005SOL    HW228339   5.019   3.087   4.226
 7005SOL    HW328340   5.075   3.017   4.103
 7005SOL    MW428341   5.047   3.015   4.185
 7006SOL     OW28342   4.709   1.921   4.246
 7006SOL    HW228343   4.746   1.980   4.311
 7006SOL    HW328344   4.686   1.977   4.172
 7006SOL    MW428345   4.710   1.936   4.245
 7007SOL     OW28346   5.562   2.803   4.668
 7007SOL    HW228347   5.553   2.835   4.579
 7007SOL    HW328348   5.515   2.719   4.668
 7007SOL    MW428349   5.555   2.796   4.658
 7008SOL     OW28350   3.938   2.643   5.247
 7008SOL    HW228351   3.959   2.712   5.185
 7008SOL    HW328352   4.018   2.590   5.252
 7008SOL    MW428353   3.951   2.644   5.241
 7009SOL     OW28354   5.474   2.734   4.369
 7009SOL    HW228355   5.568   2.723   4.357
 7009SOL    HW328356   5.450   2.806   4.310
 7009SOL    MW428357   5.484   2.742   4.360
 7010SOL     OW28358   3.923   2.658   5.514
 7010SOL    HW228359   3.849   2.602   5.540
 7010SOL    HW328360   3.918   2.661   5.419
 7010SOL    MW428361   3.912   2.651   5.504
 7011SOL     OW28362   4.089   1.945   4.964
 7011SOL    HW228363   4.132   2.029   4.984
 7011SOL    HW328364   4.162   1.883   4.957
 7011SOL    MW428365   4.104   1.948   4.965
 7012SOL     OW28366   4.130   2.612   4.142
 7012SOL    HW228367   4.130   2.707   4.127
 7012SOL    HW328368   4.207   2.596   4.196
 7012SOL    MW428369   4.140   2.623   4.147
 7013SOL     OW28370   4.906   2.471   5.206
 7013SOL    HW228371   4.942   2.444   5.122
 7013SOL    HW328372   4.819   2.505   5.185
 7013SOL    MW428373   4.900   2.472   5.193
 7014SOL     OW28374   3.889   2.343   4.431
 7014SOL    HW228375   3.951   2.350   4.504
 7014SOL    HW328376   3.889   2.250   4.408
 7014SOL    MW428377   3.897   2.332   4.438
 7015SOL     OW28378   5.436   3.683   3.963
 7015SOL    HW228379   5.503   3.716   3.903
 7015SOL    HW328380   5.393   3.762   3.997
 7015SOL    MW428381   5.438   3.698   3.959
 7016SOL     OW28382   4.571   2.604   4.915
 7016SOL    HW228383   4.529   2.522   4.891
 7016SOL    HW328384   4.572   2.603   5.011
 7016SOL    MW428385   4.564   2.593   4.924
 7017SOL     OW28386   5.242   3.737   5.314
 7017SOL    HW228387   5.245   3.643   5.297
 7017SOL    HW328388   5.265   3.745   5.406
 7017SOL    MW428389   5.245   3.725   5.324
 7018SOL     OW28390   4.375   2.074   5.020
 7018SOL    HW228391   4.306   2.137   5.041
 7018SOL    HW328392   4.402   2.038   5.105
 7018SOL    MW428393   4.369   2.077   5.033
 7019SOL     OW28394   3.758   2.915   3.889
 7019SOL    HW228395   3.727   2.980   3.952
 7019SOL    HW328396   3.707   2.837   3.908
 7019SOL    MW428397   3.748   2.912   3.899
 7020SOL     OW28398   5.170   1.927   4.637
 7020SOL    HW228399   5.258   1.936   4.674
 7020SOL    HW328400   5.180   1.868   4.563
 7020SOL    MW428401   5.184   1.921   4.631
 7021SOL     OW28402   5.202   2.666   4.481
 7021SOL    HW228403   5.282   2.681   4.430
 7021SOL    HW328404   5.195   2.571   4.487
 7021SOL    MW428405   5.211   2.655   4.476
 7022SOL     OW28406   4.342   3.715   3.831
 7022SOL    HW228407   4.247   3.715   3.823
 7022SOL    HW328408   4.358   3.661   3.909
 7022SOL    MW428409   4.332   3.709   3.840
 7023SOL     OW28410   4.652   2.592   5.178
 7023SOL    HW228411   4.721   2.659   5.175
 7023SOL    HW328412   4.585   2.630   5.234
 7023SOL    MW428413   4.653   2.605   5.185
 7024SOL     OW28414   4.070   2.892   5.426
 7024SOL    HW228415   4.024   2.808   5.428
 7024SOL    HW328416   4.127   2.886   5.350
 7024SOL    MW428417   4.072   2.880   5.418
 7025SOL     OW28418   5.187   2.535   3.747
 7025SOL    HW228419   5.115   2.511   3.689
 7025SOL    HW328420   5.253   2.572   3.689
 7025SOL    MW428421   5.186   2.537   3.732
 7026SOL     OW28422   4.321   3.267   4.427
 7026SOL    HW228423   4.386   3.200   4.448
 7026SOL    HW328424   4.373   3.344   4.404
 7026SOL    MW428425   4.336   3.269   4.426
 7027SOL     OW28426   4.582   2.432   4.557
 7027SOL    HW228427   4.522   2.450   4.629
 7027SOL    HW328428   4.616   2.344   4.576
 7027SOL    MW428429   4.578   2.422   4.570
 7028SOL     OW28430   5.523   1.931   5.226
 7028SOL    HW228431   5.444   1.977   5.254
 7028SOL    HW328432   5.558   1.985   5.155
 7028SOL    MW428433   5.517   1.944   5.220
 7029SOL     OW28434   4.807   3.015   4.576
 7029SOL    HW228435   4.899   2.996   4.594
 7029SOL    HW328436   4.780   2.945   4.516
 7029SOL    MW428437   4.815   3.003   4.570
 7030SOL     OW28438   4.600   2.835   3.931
 7030SOL    HW228439   4.586   2.747   3.896
 7030SOL    HW328440   4.551   2.892   3.872
 7030SOL    MW428441   4.592   2.830   3.919
 7031SOL     OW28442   5.081   3.253   4.672
 7031SOL    HW228443   5.054   3.337   4.637
 7031SOL    HW328444   5.041   3.248   4.759
 7031SOL    MW428445   5.074   3.262   4.678
 7032SOL     OW28446   5.000   3.201   4.940
 7032SOL    HW228447   5.011   3.168   5.029
 7032SOL    HW328448   4.919   3.160   4.909
 7032SOL    MW428449   4.990   3.193   4.946
 7033SOL     OW28450   4.013   2.559   4.710
 7033SOL    HW228451   3.963   2.558   4.791
 7033SOL    HW328452   4.033   2.651   4.694
 7033SOL    MW428453   4.009   2.571   4.718
 7034SOL     OW28454   5.080   3.323   5.472
 7034SOL    HW228455   5.080   3.417   5.488
 7034SOL    HW328456   5.125   3.313   5.388
 7034SOL    MW428457   5.086   3.333   5.463
 7035SOL     OW28458   5.319   2.041   4.033
 7035SOL    HW228459   5.312   2.045   4.128
 7035SOL    HW328460   5.331   2.132   4.006
 7035SOL    MW428461   5.320   2.054   4.041
 7036SOL     OW28462   4.608   2.604   4.147
 7036SOL    HW228463   4.588   2.590   4.054
 7036SOL    HW328464   4.701   2.583   4.154
 7036SOL    MW428465   4.618   2.599   4.136
 7037SOL     OW28466   3.935   2.227   5.451
 7037SOL    HW228467   3.892   2.286   5.388
 7037SOL    HW328468   4.003   2.282   5.491
 7037SOL    MW428469   3.939   2.242   5.448
 7038SOL     OW28470   5.047   2.847   4.996
 7038SOL    HW228471   5.110   2.844   5.069
 7038SOL    HW328472   4.963   2.865   5.038
 7038SOL    MW428473   5.043   2.849   5.011
 7039SOL     OW28474   4.591   3.562   4.185
 7039SOL    HW228475   4.649   3.633   4.212
 7039SOL    HW328476   4.614   3.490   4.243
 7039SOL    MW428477   4.602   3.562   4.196
 7040SOL     OW28478   5.386   2.024   4.775
 7040SOL    HW228479   5.431   1.942   4.794
 7040SOL    HW328480   5.406   2.080   4.851
 7040SOL    MW428481   5.396   2.020   4.787
 7041SOL     OW28482   3.834   1.867   4.874
 7041SOL    HW228483   3.825   1.868   4.779
 7041SOL    HW328484   3.928   1.879   4.889
 7041SOL    MW428485   3.846   1.870   4.865
 7042SOL     OW28486   5.471   3.060   4.494
 7042SOL    HW228487   5.450   3.006   4.417
 7042SOL    HW328488   5.567   3.058   4.498
 7042SOL    MW428489   5.480   3.053   4.483
 7043SOL     OW28490   4.163   3.205   5.237
 7043SOL    HW228491   4.084   3.155   5.260
 7043SOL    HW328492   4.233   3.164   5.287
 7043SOL    MW428493   4.161   3.193   5.247
 7044SOL     OW28494   4.047   1.994   3.920
 7044SOL    HW228495   3.976   2.049   3.888
 7044SOL    HW328496   4.089   1.960   3.841
 7044SOL    MW428497   4.043   1.996   3.906
 7045SOL     OW28498   5.171   2.491   4.756
 7045SOL    HW228499   5.094   2.537   4.722
 7045SOL    HW328500   5.228   2.560   4.790
 7045SOL    MW428501   5.168   2.506   4.756
 7046SOL     OW28502   3.803   2.093   3.769
 7046SOL    HW228503   3.770   2.172   3.813
 7046SOL    HW328504   3.858   2.126   3.698
 7046SOL    MW428505   3.806   2.107   3.766
 7047SOL     OW28506   3.837   3.350   3.958
 7047SOL    HW228507   3.854   3.434   4.000
 7047SOL    HW328508   3.872   3.359   3.870
 7047SOL    MW428509   3.842   3.363   3.952
 7048SOL     OW28510   5.109   3.439   4.175
 7048SOL    HW228511   5.172   3.429   4.104
 7048SOL    HW328512   5.026   3.459   4.130
 7048SOL    MW428513   5.106   3.440   4.160
 7049SOL     OW28514   5.472   2.707   5.862
 7049SOL    HW228515   5.513   2.649   5.927
 7049SOL    HW328516   5.379   2.699   5.879
 7049SOL    MW428517   5.466   2.699   5.872
 7050SOL     OW28518   4.266   2.890   6.091
 7050SOL    HW228519   4.356   2.865   6.075
 7050SOL    HW328520   4.262   2.983   6.068
 7050SOL    MW428521   4.278   2.899   6.086
 7051SOL     OW28522   3.992   2.374   6.032
 7051SOL    HW228523   4.024   2.462   6.014
 7051SOL    HW328524   3.980   2.372   6.127
 7051SOL    MW428525   3.995   2.386   6.044
 7052SOL     OW28526   5.105   3.038   5.810
 7052SOL    HW228527   5.023   3.074   5.776
 7052SOL    HW328528   5.173   3.081   5.759
 7052SOL    MW428529   5.103   3.048   5.798
 7053SOL     OW28530   4.666   2.817   6.286
 7053SOL    HW228531   4.580   2.804   6.326
 7053SOL    HW328532   4.719   2.744   6.318
 7053SOL    MW428533   4.662   2.806   6.295
 7054SOL     OW28534   4.657   3.179   6.003
 7054SOL    HW228535   4.634   3.241   6.071
 7054SOL    HW328536   4.614   3.097   6.029
 7054SOL    MW428537   4.649   3.175   6.014
 7055SOL     OW28538   4.154   2.152   5.971
 7055SOL    HW228539   4.128   2.114   5.887
 7055SOL    HW328540   4.091   2.222   5.987
 7055SOL    MW428541   4.143   2.155   5.962
 7056SOL     OW28542   3.989   3.113   6.008
 7056SOL    HW228543   3.937   3.181   5.964
 7056SOL    HW328544   3.986   3.039   5.948
 7056SOL    MW428545   3.981   3.112   5.995
 7057SOL     OW28546   4.651   3.576   5.786
 7057SOL    HW228547   4.606   3.592   5.869
 7057SOL    HW328548   4.582   3.541   5.728
 7057SOL    MW428549   4.637   3.573   5.788
 7058SOL     OW28550   5.586   2.349   5.761
 7058SOL    HW228551   5.495   2.351   5.789
 7058SOL    HW328552   5.631   2.411   5.819
 7058SOL    MW428553   5.579   2.357   5.771
 7059SOL     OW28554   5.331   2.952   6.111
 7059SOL    HW228555   5.241   2.952   6.146
 7059SOL    HW328556   5.324   2.998   6.028
 7059SOL    MW428557   5.318   2.958   6.105
 7060SOL     OW28558   4.858   2.533   6.072
 7060SOL    HW228559   4.884   2.557   5.983
 7060SOL    HW328560   4.840   2.440   6.068
 7060SOL    MW428561   4.860   2.525   6.059
 7061SOL     OW28562   5.523   3.153   5.923
 7061SOL    HW228563   5.479   3.194   5.998
 7061SOL    HW328564   5.580   3.221   5.888
 7061SOL    MW428565   5.525   3.167   5.928
 7062SOL     OW28566   4.179   3.569   6.241
 7062SOL    HW228567   4.211   3.657   6.219
 7062SOL    HW328568   4.132   3.541   6.163
 7062SOL    MW428569   4.178   3.577   6.228
 7063SOL     OW28570   3.895   3.629   5.818
 7063SOL    HW228571   3.924   3.719   5.810
 7063SOL    HW328572   3.845   3.612   5.739
 7063SOL    MW428573   3.893   3.637   5.807
 7064SOL     OW28574   5.299   3.437   5.789
 7064SOL    HW228575   5.347   3.506   5.835
 7064SOL    HW328576   5.220   3.481   5.758
 7064SOL    MW428577   5.294   3.451   5.792
 7065SOL     OW28578   4.697   2.562   5.733
 7065SOL    HW228579   4.699   2.509   5.654
 7065SOL    HW328580   4.785   2.599   5.739
 7065SOL    MW428581   4.709   2.561   5.722
 7066SOL     OW28582   5.311   2.488   6.069
 7066SOL    HW228583   5.350   2.488   6.156
 7066SOL    HW328584   5.252   2.564   6.069
 7066SOL    MW428585   5.308   2.499   6.080
 7067SOL     OW28586   5.498   2.374   6.235
 7067SOL    HW228587   5.587   2.343   6.252
 7067SOL    HW328588   5.441   2.314   6.283
 7067SOL    MW428589   5.501   2.362   6.244
 7068SOL     OW28590   4.867   3.181   5.825
 7068SOL    HW228591   4.817   3.183   5.907
 7068SOL    HW328592   4.801   3.199   5.757
 7068SOL    MW428593   4.853   3.183   5.827
 7069SOL     OW28594   4.330   3.599   5.933
 7069SOL    HW228595   4.251   3.557   5.966
 7069SOL    HW328596   4.396   3.582   6.000
 7069SOL    MW428597   4.329   3.591   5.946
 7070SOL     OW28598   4.466   3.014   5.640
 7070SOL    HW228599   4.388   2.960   5.627
 7070SOL    HW328600   4.437   3.087   5.693
 7070SOL    MW428601   4.452   3.016   5.645
 7071SOL     OW28602   5.047   3.530   5.708
 7071SOL    HW228603   4.973   3.493   5.758
 7071SOL    HW328604   5.055   3.620   5.741
 7071SOL    MW428605   5.038   3.537   5.720
 7072SOL     OW28606   5.271   3.204   5.650
 7072SOL    HW228607   5.218   3.253   5.586
 7072SOL    HW328608   5.302   3.270   5.711
 7072SOL    MW428609   5.269   3.218   5.648
 7073SOL     OW28610   4.496   2.093   5.705
 7073SOL    HW228611   4.444   2.013   5.693
 7073SOL    HW328612   4.583   2.070   5.673
 7073SOL    MW428613   4.499   2.079   5.699
 7074SOL     OW28614   3.865   3.345   6.201
 7074SOL    HW228615   3.837   3.384   6.283
 7074SOL    HW328616   3.885   3.254   6.223
 7074SOL    MW428617   3.863   3.337   6.214
 7075SOL     OW28618   4.698   3.388   6.236
 7075SOL    HW228619   4.781   3.342   6.220
 7075SOL    HW328620   4.688   3.387   6.332
 7075SOL    MW428621   4.708   3.381   6.246
 7076SOL     OW28622   4.431   3.445   5.641
 7076SOL    HW228623   4.371   3.514   5.611
 7076SOL    HW328624   4.376   3.387   5.694
 7076SOL    MW428625   4.415   3.447   5.643
 7077SOL     OW28626   4.869   2.090   5.864
 7077SOL    HW228627   4.802   2.066   5.801
 7077SOL    HW328628   4.934   2.139   5.813
 7077SOL    MW428629   4.869   2.092   5.849
 7078SOL     OW28630   4.062   3.489   6.030
 7078SOL    HW228631   4.023   3.536   5.956
 7078SOL    HW328632   3.996   3.424   6.055
 7078SOL    MW428633   4.049   3.487   6.024
 7079SOL     OW28634   4.554   2.898   6.054
 7079SOL    HW228635   4.556   2.872   5.961
 7079SOL    HW328636   4.612   2.835   6.097
 7079SOL    MW428637   4.562   2.887   6.048
 7080SOL     OW28638   5.044   2.246   5.722
 7080SOL    HW228639   5.017   2.312   5.658
 7080SOL    HW328640   5.114   2.289   5.772
 7080SOL    MW428641   5.049   2.259   5.719
 7081SOL     OW28642   4.712   1.951   5.659
 7081SOL    HW228643   4.768   1.943   5.581
 7081SOL    HW328644   4.689   1.861   5.681
 7081SOL    MW428645   4.717   1.938   5.652
 7082SOL     OW28646   5.217   2.802   5.864
 7082SOL    HW228647   5.184   2.891   5.854
 7082SOL    HW328648   5.182   2.773   5.949
 7082SOL    MW428649   5.207   2.811   5.875
 7083SOL     OW28650   4.211   2.840   5.656
 7083SOL    HW228651   4.134   2.853   5.712
 7083SOL    HW328652   4.175   2.804   5.575
 7083SOL    MW428653   4.197   2.836   5.653
 7084SOL     OW28654   4.864   2.813   5.899
 7084SOL    HW228655   4.774   2.834   5.874
 7084SOL    HW328656   4.891   2.886   5.955
 7084SOL    MW428657   4.856   2.825   5.902
 7085SOL     OW28658   4.251   3.169   6.055
 7085SOL    HW228659   4.244   3.201   6.145
 7085SOL    HW328660   4.161   3.153   6.027
 7085SOL    MW428661   4.239   3.171   6.062
 7086SOL     OW28662   4.254   2.453   5.769
 7086SOL    HW228663   4.220   2.509   5.839
 7086SOL    HW328664   4.325   2.403   5.809
 7086SOL    MW428665   4.260   2.454   5.783
 7087SOL     OW28666   5.310   2.339   5.833
 7087SOL    HW228667   5.302   2.410   5.770
 7087SOL    HW328668   5.328   2.383   5.916
 7087SOL    MW428669   5.311   2.353   5.835
 7088SOL     OW28670   4.170   1.994   6.262
 7088SOL    HW228671   4.220   2.037   6.193
 7088SOL    HW328672   4.085   2.038   6.262
 7088SOL    MW428673   4.167   2.007   6.253
 7089SOL     OW28674   4.979   2.601   5.808
 7089SOL    HW228675   5.026   2.619   5.727
 7089SOL    HW328676   4.945   2.685   5.836
 7089SOL    MW428677   4.981   2.615   5.801
 7090SOL     OW28678   5.232   2.131   6.139
 7090SOL    HW228679   5.154   2.081   6.164
 7090SOL    HW328680   5.203   2.222   6.139
 7090SOL    MW428681   5.218   2.135   6.142
 7091SOL     OW28682   4.714   3.343   5.630
 7091SOL    HW228683   4.741   3.421   5.582
 7091SOL    HW328684   4.621   3.358   5.649
 7091SOL    MW428685   4.705   3.356   5.626
 7092SOL     OW28686   3.754   2.505   6.021
 7092SOL    HW228687   3.694   2.477   6.091
 7092SOL    HW328688   3.828   2.445   6.027
 7092SOL    MW428689   3.756   2.494   6.030
 7093SOL     OW28690   5.062   1.903   5.817
 7093SOL    HW228691   5.136   1.947   5.860
 7093SOL    HW328692   4.986   1.957   5.839
 7093SOL    MW428693   5.062   1.915   5.825
 7094SOL     OW28694   5.122   2.678   6.095
 7094SOL    HW228695   5.037   2.648   6.065
 7094SOL    HW328696   5.114   2.685   6.190
 7094SOL    MW428697   5.110   2.676   6.104
 7095SOL     OW28698   4.495   2.344   5.821
 7095SOL    HW228699   4.568   2.393   5.784
 7095SOL    HW328700   4.511   2.253   5.795
 7095SOL    MW428701   4.507   2.339   5.814
 7096SOL     OW28702   3.970   2.853   5.919
 7096SOL    HW228703   3.907   2.869   5.848
 7096SOL    HW328704   3.917   2.816   5.990
 7096SOL    MW428705   3.955   2.850   5.919
 7097SOL     OW28706   4.326   3.207   5.778
 7097SOL    HW228707   4.341   3.183   5.870
 7097SOL    HW328708   4.234   3.185   5.762
 7097SOL    MW428709   4.316   3.200   5.788
 7098SOL     OW28710   4.865   3.438   5.930
 7098SOL    HW228711   4.873   3.356   5.881
 7098SOL    HW328712   4.784   3.477   5.897
 7098SOL    MW428713   4.855   3.433   5.920
 7099SOL     OW28714   4.837   2.260   6.100
 7099SOL    HW228715   4.859   2.197   6.032
 7099SOL    HW328716   4.742   2.252   6.111
 7099SOL    MW428717   4.827   2.251   6.092
 7100SOL     OW28718   3.922   1.950   6.032
 7100SOL    HW228719   3.993   1.971   5.971
 7100SOL    HW328720   3.876   1.878   5.990
 7100SOL    MW428721   3.926   1.944   6.018
 7101SOL     OW28722   5.491   3.324   6.132
 7101SOL    HW228723   5.461   3.257   6.193
 7101SOL    HW328724   5.585   3.330   6.146
 7101SOL    MW428725   5.499   3.316   6.142
 7102SOL     OW28726   5.047   3.001   6.062
 7102SOL    HW228727   5.019   3.087   6.095
 7102SOL    HW328728   5.075   3.017   5.972
 7102SOL    MW428729   5.047   3.015   6.054
 7103SOL     OW28730   4.709   1.921   6.115
 7103SOL    HW228731   4.746   1.980   6.180
 7103SOL    HW328732   4.686   1.977   6.041
 7103SOL    MW428733   4.710   1.936   6.114
 7104SOL     OW28734   4.130   2.612   6.011
 7104SOL    HW228735   4.130   2.707   5.996
 7104SOL    HW328736   4.207   2.596   6.065
 7104SOL    MW428737   4.140   2.623   6.016
 7105SOL     OW28738   5.436   3.683   5.832
 7105SOL    HW228739   5.503   3.716   5.772
 7105SOL    HW328740   5.393   3.762   5.866
 7105SOL    MW428741   5.438   3.698   5.828
 7106SOL     OW28742   3.758   2.915   5.758
 7106SOL    HW228743   3.727   2.980   5.821
 7106SOL    HW328744   3.707   2.837   5.777
 7106SOL    MW428745   3.748   2.912   5.768
 7107SOL     OW28746   4.342   3.715   5.700
 7107SOL    HW228747   4.247   3.715   5.692
 7107SOL    HW328748   4.358   3.661   5.778
 7107SOL    MW428749   4.332   3.709   5.709
 7108SOL     OW28750   5.187   2.535   5.615
 7108SOL    HW228751   5.115   2.511   5.557
 7108SOL    HW328752   5.253   2.572   5.557
 7108SOL    MW428753   5.186   2.537   5.600
 7109SOL     OW28754   4.582   2.432   6.426
 7109SOL    HW228755   4.522   2.450   6.498
 7109SOL    HW328756   4.616   2.344   6.445
 7109SOL    MW428757   4.578   2.422   6.439
 7110SOL     OW28758   4.600   2.835   5.800
 7110SOL    HW228759   4.586   2.747   5.765
 7110SOL    HW328760   4.551   2.892   5.741
 7110SOL    MW428761   4.592   2.830   5.788
 7111SOL     OW28762   5.319   2.041   5.902
 7111SOL    HW228763   5.312   2.045   5.997
 7111SOL    HW328764   5.331   2.132   5.875
 7111SOL    MW428765   5.320   2.054   5.910
 7112SOL     OW28766   4.608   2.604   6.016
 7112SOL    HW228767   4.588   2.590   5.923
 7112SOL    HW328768   4.701   2.583   6.023
 7112SOL    MW428769   4.618   2.599   6.005
 7113SOL     OW28770   4.591   3.562   6.054
 7113SOL    HW228771   4.649   3.633   6.081
 7113SOL    HW328772   4.614   3.490   6.112
 7113SOL    MW428773   4.602   3.562   6.065
 7114SOL     OW28774   4.047   1.994   5.789
 7114SOL    HW228775   3.976   2.049   5.757
 7114SOL    HW328776   4.089   1.960   5.710
 7114SOL    MW428777   4.043   1.996   5.775
 7115SOL     OW28778   3.803   2.093   5.638
 7115SOL    HW228779   3.770   2.172   5.682
 7115SOL    HW328780   3.858   2.126   5.567
 7115SOL    MW428781   3.806   2.107   5.635
 7116SOL     OW28782   3.837   3.350   5.827
 7116SOL    HW228783   3.854   3.434   5.869
 7116SOL    HW328784   3.872   3.359   5.739
 7116SOL    MW428785   3.842   3.363   5.821
 7117SOL     OW28786   5.109   3.439   6.044
 7117SOL    HW228787   5.172   3.429   5.973
 7117SOL    HW328788   5.026   3.459   5.999
 7117SOL    MW428789   5.106   3.440   6.029
 7118SOL     OW28790   5.472   4.575   0.257
 7118SOL    HW228791   5.513   4.517   0.322
 7118SOL    HW328792   5.379   4.567   0.274
 7118SOL    MW428793   5.466   4.567   0.267
 7119SOL     OW28794   5.338   4.507   1.252
 7119SOL    HW228795   5.293   4.574   1.303
 7119SOL    HW328796   5.426   4.543   1.238
 7119SOL    MW428797   5.344   4.520   1.256
 7120SOL     OW28798   4.266   4.758   0.486
 7120SOL    HW228799   4.356   4.733   0.470
 7120SOL    HW328800   4.262   4.851   0.463
 7120SOL    MW428801   4.278   4.767   0.481
 7121SOL     OW28802   5.382   5.461   0.628
 7121SOL    HW228803   5.394   5.407   0.706
 7121SOL    HW328804   5.419   5.409   0.557
 7121SOL    MW428805   5.388   5.446   0.629
 7122SOL     OW28806   4.761   5.346   1.629
 7122SOL    HW228807   4.802   5.382   1.550
 7122SOL    HW328808   4.796   5.257   1.636
 7122SOL    MW428809   4.772   5.339   1.620
 7123SOL     OW28810   5.318   4.901   1.233
 7123SOL    HW228811   5.239   4.866   1.191
 7123SOL    HW328812   5.345   4.973   1.177
 7123SOL    MW428813   5.311   4.906   1.220
 7124SOL     OW28814   4.550   4.214   0.499
 7124SOL    HW228815   4.525   4.302   0.527
 7124SOL    HW328816   4.547   4.217   0.403
 7124SOL    MW428817   4.546   4.226   0.491
 7125SOL     OW28818   3.992   4.242   0.427
 7125SOL    HW228819   4.024   4.330   0.409
 7125SOL    HW328820   3.980   4.240   0.522
 7125SOL    MW428821   3.995   4.254   0.439
 7126SOL     OW28822   4.070   4.655   1.328
 7126SOL    HW228823   4.133   4.602   1.279
 7126SOL    HW328824   4.051   4.729   1.271
 7126SOL    MW428825   4.076   4.657   1.315
 7127SOL     OW28826   4.391   3.997   0.514
 7127SOL    HW228827   4.449   4.073   0.516
 7127SOL    HW328828   4.326   4.018   0.447
 7127SOL    MW428829   4.390   4.009   0.505
 7128SOL     OW28830   4.478   4.924   0.689
 7128SOL    HW228831   4.558   4.927   0.741
 7128SOL    HW328832   4.506   4.891   0.603
 7128SOL    MW428833   4.492   4.920   0.684
 7129SOL     OW28834   4.255   4.428   0.680
 7129SOL    HW228835   4.240   4.348   0.731
 7129SOL    HW328836   4.337   4.463   0.714
 7129SOL    MW428837   4.263   4.420   0.692
 7130SOL     OW28838   4.397   4.254   1.057
 7130SOL    HW228839   4.303   4.250   1.075
 7130SOL    HW328840   4.427   4.163   1.066
 7130SOL    MW428841   4.388   4.242   1.060
 7131SOL     OW28842   4.143   4.668   0.961
 7131SOL    HW228843   4.098   4.675   0.877
 7131SOL    HW328844   4.123   4.751   1.005
 7131SOL    MW428845   4.135   4.680   0.955
 7132SOL     OW28846   3.840   5.514   0.836
 7132SOL    HW228847   3.929   5.506   0.871
 7132SOL    HW328848   3.804   5.426   0.841
 7132SOL    MW428849   3.847   5.501   0.841
 7133SOL     OW28850   5.105   4.906   0.205
 7133SOL    HW228851   5.023   4.942   0.171
 7133SOL    HW328852   5.173   4.949   0.154
 7133SOL    MW428853   5.103   4.916   0.193
 7134SOL     OW28854   4.104   5.041   0.871
 7134SOL    HW228855   4.080   5.094   0.947
 7134SOL    HW328856   4.160   5.099   0.819
 7134SOL    MW428857   4.108   5.056   0.874
 7135SOL     OW28858   4.666   4.685   0.681
 7135SOL    HW228859   4.580   4.672   0.721
 7135SOL    HW328860   4.719   4.612   0.713
 7135SOL    MW428861   4.662   4.674   0.690
 7136SOL     OW28862   4.657   5.047   0.398
 7136SOL    HW228863   4.634   5.109   0.466
 7136SOL    HW328864   4.614   4.965   0.424
 7136SOL    MW428865   4.649   5.043   0.409
 7137SOL     OW28866   5.530   4.048   0.854
 7137SOL    HW228867   5.467   4.028   0.923
 7137SOL    HW328868   5.520   3.977   0.791
 7137SOL    MW428869   5.520   4.035   0.855
 7138SOL     OW28870   4.154   4.020   0.366
 7138SOL    HW228871   4.128   3.982   0.282
 7138SOL    HW328872   4.091   4.090   0.382
 7138SOL    MW428873   4.143   4.023   0.357
 7139SOL     OW28874   3.989   4.981   0.403
 7139SOL    HW228875   3.937   5.049   0.359
 7139SOL    HW328876   3.986   4.907   0.343
 7139SOL    MW428877   3.981   4.980   0.390
 7140SOL     OW28878   4.651   5.444   0.181
 7140SOL    HW228879   4.606   5.460   0.264
 7140SOL    HW328880   4.582   5.409   0.123
 7140SOL    MW428881   4.637   5.441   0.183
 7141SOL     OW28882   5.331   4.820   0.506
 7141SOL    HW228883   5.241   4.820   0.541
 7141SOL    HW328884   5.324   4.866   0.423
 7141SOL    MW428885   5.318   4.826   0.500
 7142SOL     OW28886   5.131   4.455   1.578
 7142SOL    HW228887   5.200   4.393   1.555
 7142SOL    HW328888   5.056   4.429   1.525
 7142SOL    MW428889   5.131   4.442   1.569
 7143SOL     OW28890   3.872   5.335   1.130
 7143SOL    HW228891   3.855   5.281   1.207
 7143SOL    HW328892   3.860   5.425   1.160
 7143SOL    MW428893   3.869   5.339   1.144
 7144SOL     OW28894   4.663   4.266   1.771
 7144SOL    HW228895   4.753   4.267   1.738
 7144SOL    HW328896   4.622   4.191   1.729
 7144SOL    MW428897   4.669   4.256   1.762
 7145SOL     OW28898   5.238   4.798   0.898
 7145SOL    HW228899   5.241   4.732   0.829
 7145SOL    HW328900   5.323   4.841   0.894
 7145SOL    MW428901   5.250   4.794   0.889
 7146SOL     OW28902   4.858   4.401   0.467
 7146SOL    HW228903   4.884   4.425   0.378
 7146SOL    HW328904   4.840   4.308   0.463
 7146SOL    MW428905   4.860   4.393   0.454
 7147SOL     OW28906   4.443   4.070   1.721
 7147SOL    HW228907   4.453   3.996   1.661
 7147SOL    HW328908   4.479   4.039   1.804
 7147SOL    MW428909   4.449   4.056   1.723
 7148SOL     OW28910   4.179   5.437   0.636
 7148SOL    HW228911   4.211   5.525   0.614
 7148SOL    HW328912   4.132   5.409   0.558
 7148SOL    MW428913   4.178   5.445   0.623
 7149SOL     OW28914   5.563   3.799   0.685
 7149SOL    HW228915   5.617   3.750   0.747
 7149SOL    HW328916   5.506   3.733   0.646
 7149SOL    MW428917   5.563   3.783   0.687
 7150SOL     OW28918   3.895   5.497   0.213
 7150SOL    HW228919   3.924   5.587   0.205
 7150SOL    HW328920   3.845   5.480   0.134
 7150SOL    MW428921   3.893   5.505   0.202
 7151SOL     OW28922   4.682   3.752   1.098
 7151SOL    HW228923   4.641   3.830   1.060
 7151SOL    HW328924   4.776   3.770   1.093
 7151SOL    MW428925   4.688   3.764   1.093
 7152SOL     OW28926   4.697   4.430   0.128
 7152SOL    HW228927   4.699   4.377   0.049
 7152SOL    HW328928   4.785   4.467   0.134
 7152SOL    MW428929   4.709   4.429   0.117
 7153SOL     OW28930   5.311   4.356   0.464
 7153SOL    HW228931   5.350   4.356   0.551
 7153SOL    HW328932   5.252   4.432   0.464
 7153SOL    MW428933   5.308   4.367   0.475
 7154SOL     OW28934   4.708   3.860   1.353
 7154SOL    HW228935   4.714   3.822   1.266
 7154SOL    HW328936   4.697   3.954   1.338
 7154SOL    MW428937   4.709   3.868   1.341
 7155SOL     OW28938   4.797   4.349   1.187
 7155SOL    HW228939   4.872   4.378   1.134
 7155SOL    HW328940   4.729   4.414   1.171
 7155SOL    MW428941   4.798   4.361   1.177
 7156SOL     OW28942   5.347   4.317   1.464
 7156SOL    HW228943   5.328   4.226   1.443
 7156SOL    HW328944   5.325   4.366   1.385
 7156SOL    MW428945   5.342   4.310   1.451
 7157SOL     OW28946   5.489   5.411   1.368
 7157SOL    HW228947   5.417   5.373   1.419
 7157SOL    HW328948   5.506   5.496   1.409
 7157SOL    MW428949   5.483   5.416   1.380
 7158SOL     OW28950   4.794   4.055   1.570
 7158SOL    HW228951   4.760   4.094   1.489
 7158SOL    HW328952   4.772   3.963   1.563
 7158SOL    MW428953   4.787   4.048   1.560
 7159SOL     OW28954   5.203   4.869   1.646
 7159SOL    HW228955   5.285   4.910   1.676
 7159SOL    HW328956   5.166   4.831   1.726
 7159SOL    MW428957   5.209   4.870   1.661
 7160SOL     OW28958   5.498   4.242   0.630
 7160SOL    HW228959   5.587   4.211   0.647
 7160SOL    HW328960   5.441   4.182   0.678
 7160SOL    MW428961   5.501   4.230   0.639
 7161SOL     OW28962   3.924   3.956   0.659
 7161SOL    HW228963   3.915   3.896   0.585
 7161SOL    HW328964   3.857   3.927   0.722
 7161SOL    MW428965   3.914   3.943   0.657
 7162SOL     OW28966   4.867   5.049   0.220
 7162SOL    HW228967   4.817   5.051   0.302
 7162SOL    HW328968   4.801   5.067   0.152
 7162SOL    MW428969   4.853   5.051   0.222
 7163SOL     OW28970   3.871   4.129   1.022
 7163SOL    HW228971   3.843   4.220   1.031
 7163SOL    HW328972   3.808   4.090   0.961
 7163SOL    MW428973   3.858   4.135   1.016
 7164SOL     OW28974   4.330   5.467   0.328
 7164SOL    HW228975   4.251   5.425   0.361
 7164SOL    HW328976   4.396   5.450   0.395
 7164SOL    MW428977   4.329   5.459   0.341
 7165SOL     OW28978   5.458   4.987   1.725
 7165SOL    HW228979   5.508   4.913   1.757
 7165SOL    HW328980   5.404   5.014   1.800
 7165SOL    MW428981   5.458   4.981   1.738
 7166SOL     OW28982   4.466   4.882   0.035
 7166SOL    HW228983   4.388   4.828   0.022
 7166SOL    HW328984   4.437   4.955   0.088
 7166SOL    MW428985   4.452   4.884   0.040
 7167SOL     OW28986   5.592   4.622   1.227
 7167SOL    HW228987   5.608   4.660   1.140
 7167SOL    HW328988   5.626   4.688   1.288
 7167SOL    MW428989   5.599   4.635   1.223
 7168SOL     OW28990   5.384   5.331   0.896
 7168SOL    HW228991   5.413   5.398   0.957
 7168SOL    HW328992   5.365   5.255   0.951
 7168SOL    MW428993   5.386   5.331   0.911
 7169SOL     OW28994   5.047   5.398   0.103
 7169SOL    HW228995   4.973   5.361   0.153
 7169SOL    HW328996   5.055   5.488   0.136
 7169SOL    MW428997   5.038   5.405   0.115
 7170SOL     OW28998   3.855   4.404   1.192
 7170SOL    HW228999   3.917   4.434   1.258
 7170SOL    HW329000   3.789   4.473   1.186
 7170SOL    MW429001   3.854   4.417   1.199
 7171SOL     OW29002   4.496   3.961   0.100
 7171SOL    HW229003   4.444   3.881   0.088
 7171SOL    HW329004   4.583   3.938   0.068
 7171SOL    MW429005   4.499   3.947   0.094
 7172SOL     OW29006   3.950   5.513   1.644
 7172SOL    HW229007   3.924   5.581   1.582
 7172SOL    HW329008   3.998   5.450   1.592
 7172SOL    MW429009   3.952   5.513   1.630
 7173SOL     OW29010   4.002   4.832   1.151
 7173SOL    HW229011   4.055   4.907   1.176
 7173SOL    HW329012   3.921   4.870   1.117
 7173SOL    MW429013   3.998   4.847   1.151
 7174SOL     OW29014   4.542   4.736   1.139
 7174SOL    HW229015   4.570   4.645   1.151
 7174SOL    HW329016   4.471   4.730   1.075
 7174SOL    MW429017   4.535   4.724   1.134
 7175SOL     OW29018   3.857   4.601   0.557
 7175SOL    HW229019   3.948   4.616   0.584
 7175SOL    HW329020   3.860   4.522   0.503
 7175SOL    MW429021   3.869   4.593   0.555
 7176SOL     OW29022   4.093   4.309   1.811
 7176SOL    HW229023   4.040   4.389   1.818
 7176SOL    HW329024   4.163   4.321   1.876
 7176SOL    MW429025   4.095   4.322   1.819
 7177SOL     OW29026   4.479   3.859   1.518
 7177SOL    HW229027   4.456   3.767   1.520
 7177SOL    HW329028   4.565   3.861   1.475
 7177SOL    MW429029   4.486   3.849   1.514
 7178SOL     OW29030   4.163   4.383   1.557
 7178SOL    HW229031   4.243   4.433   1.543
 7178SOL    HW329032   4.154   4.377   1.652
 7178SOL    MW429033   4.172   4.389   1.567
 7179SOL     OW29034   4.484   5.533   0.931
 7179SOL    HW229035   4.573   5.548   0.961
 7179SOL    HW329036   4.479   5.580   0.847
 7179SOL    MW429037   4.494   5.541   0.924
 7180SOL     OW29038   5.140   3.908   1.828
 7180SOL    HW229039   5.196   3.835   1.854
 7180SOL    HW329040   5.110   3.946   1.910
 7180SOL    MW429041   5.144   3.903   1.841
 7181SOL     OW29042   3.865   5.213   0.596
 7181SOL    HW229043   3.837   5.252   0.678
 7181SOL    HW329044   3.885   5.122   0.618
 7181SOL    MW429045   3.863   5.205   0.609
 7182SOL     OW29046   4.698   5.256   0.631
 7182SOL    HW229047   4.781   5.210   0.615
 7182SOL    HW329048   4.688   5.255   0.727
 7182SOL    MW429049   4.708   5.249   0.641
 7183SOL     OW29050   5.530   4.401   0.945
 7183SOL    HW229051   5.619   4.431   0.927
 7183SOL    HW329052   5.510   4.341   0.874
 7183SOL    MW429053   5.539   4.398   0.934
 7184SOL     OW29054   5.381   4.580   1.825
 7184SOL    HW229055   5.436   4.504   1.806
 7184SOL    HW329056   5.383   4.588   1.920
 7184SOL    MW429057   5.389   4.571   1.833
 7185SOL     OW29058   4.431   5.313   0.036
 7185SOL    HW229059   4.371   5.382   0.006
 7185SOL    HW329060   4.376   5.255   0.089
 7185SOL    MW429061   4.415   5.315   0.038
 7186SOL     OW29062   4.869   3.958   0.259
 7186SOL    HW229063   4.802   3.934   0.196
 7186SOL    HW329064   4.934   4.007   0.208
 7186SOL    MW429065   4.869   3.960   0.244
 7187SOL     OW29066   4.676   4.142   1.344
 7187SOL    HW229067   4.595   4.183   1.372
 7187SOL    HW329068   4.723   4.210   1.296
 7187SOL    MW429069   4.671   4.157   1.342
 7188SOL     OW29070   4.936   4.480   0.967
 7188SOL    HW229071   4.949   4.574   0.977
 7188SOL    HW329072   4.897   4.470   0.881
 7188SOL    MW429073   4.932   4.491   0.957
 7189SOL     OW29074   4.388   4.675   0.771
 7189SOL    HW229075   4.299   4.666   0.804
 7189SOL    HW329076   4.392   4.765   0.739
 7189SOL    MW429077   4.377   4.686   0.771
 7190SOL     OW29078   5.187   4.258   0.766
 7190SOL    HW229079   5.132   4.179   0.765
 7190SOL    HW329080   5.169   4.299   0.850
 7190SOL    MW429081   5.177   4.253   0.775
 7191SOL     OW29082   4.158   3.945   1.583
 7191SOL    HW229083   4.079   3.963   1.635
 7191SOL    HW329084   4.153   4.007   1.510
 7191SOL    MW429085   4.148   3.955   1.580
 7192SOL     OW29086   4.806   4.462   0.723
 7192SOL    HW229087   4.743   4.394   0.747
 7192SOL    HW329088   4.826   4.443   0.631
 7192SOL    MW429089   4.800   4.449   0.715
 7193SOL     OW29090   4.062   5.357   0.425
 7193SOL    HW229091   4.023   5.404   0.351
 7193SOL    HW329092   3.996   5.292   0.450
 7193SOL    MW429093   4.049   5.355   0.419
 7194SOL     OW29094   4.554   4.766   0.449
 7194SOL    HW229095   4.556   4.740   0.356
 7194SOL    HW329096   4.612   4.703   0.492
 7194SOL    MW429097   4.562   4.755   0.443
 7195SOL     OW29098   5.111   5.534   0.651
 7195SOL    HW229099   5.054   5.487   0.590
 7195SOL    HW329100   5.197   5.495   0.638
 7195SOL    MW429101   5.114   5.525   0.641
 7196SOL     OW29102   5.064   4.010   0.782
 7196SOL    HW229103   5.092   3.942   0.843
 7196SOL    HW329104   4.978   3.981   0.752
 7196SOL    MW429105   5.057   3.997   0.786
 7197SOL     OW29106   3.869   4.944   0.716
 7197SOL    HW229107   3.933   4.976   0.779
 7197SOL    HW329108   3.918   4.880   0.664
 7197SOL    MW429109   3.884   4.940   0.717
 7198SOL     OW29110   3.945   5.262   1.838
 7198SOL    HW229111   4.001   5.186   1.853
 7198SOL    HW329112   3.894   5.240   1.760
 7198SOL    MW429113   3.945   5.249   1.829
 7199SOL     OW29114   5.044   4.114   0.117
 7199SOL    HW229115   5.017   4.180   0.053
 7199SOL    HW329116   5.114   4.157   0.167
 7199SOL    MW429117   5.049   4.127   0.114
 7200SOL     OW29118   4.123   3.767   1.789
 7200SOL    HW229119   4.051   3.732   1.737
 7200SOL    HW329120   4.181   3.808   1.724
 7200SOL    MW429121   4.121   3.768   1.774
 7201SOL     OW29122   4.147   5.257   1.088
 7201SOL    HW229123   4.192   5.319   1.145
 7201SOL    HW329124   4.054   5.276   1.101
 7201SOL    MW429125   4.140   5.267   1.095
 7202SOL     OW29126   5.587   4.786   1.442
 7202SOL    HW229127   5.502   4.799   1.401
 7202SOL    HW329128   5.567   4.750   1.529
 7202SOL    MW429129   5.574   4.782   1.447
 7203SOL     OW29130   4.211   4.708   0.051
 7203SOL    HW229131   4.134   4.721   0.107
 7203SOL    HW329132   4.175   4.672  -0.030
 7203SOL    MW429133   4.197   4.704   0.048
 7204SOL     OW29134   4.864   4.681   0.294
 7204SOL    HW229135   4.774   4.702   0.269
 7204SOL    HW329136   4.891   4.754   0.350
 7204SOL    MW429137   4.856   4.693   0.297
 7205SOL     OW29138   4.364   5.030   0.986
 7205SOL    HW229139   4.357   5.009   1.080
 7205SOL    HW329140   4.282   4.998   0.949
 7205SOL    MW429141   4.352   5.024   0.993
 7206SOL     OW29142   5.228   4.040   1.388
 7206SOL    HW229143   5.175   4.042   1.468
 7206SOL    HW329144   5.213   3.953   1.351
 7206SOL    MW429145   5.220   4.030   1.393
 7207SOL     OW29146   5.564   3.964   1.261
 7207SOL    HW229147   5.545   4.031   1.196
 7207SOL    HW329148   5.621   3.902   1.216
 7207SOL    MW429149   5.568   3.965   1.247
 7208SOL     OW29150   3.810   5.122   1.649
 7208SOL    HW229151   3.854   5.055   1.595
 7208SOL    HW329152   3.725   5.084   1.669
 7208SOL    MW429153   3.805   5.108   1.645
 7209SOL     OW29154   4.493   3.797   0.701
 7209SOL    HW229155   4.422   3.858   0.683
 7209SOL    HW329156   4.544   3.794   0.620
 7209SOL    MW429157   4.489   3.803   0.688
 7210SOL     OW29158   4.251   5.037   0.450
 7210SOL    HW229159   4.244   5.069   0.540
 7210SOL    HW329160   4.161   5.021   0.422
 7210SOL    MW429161   4.239   5.039   0.457
 7211SOL     OW29162   4.960   5.395   0.849
 7211SOL    HW229163   5.007   5.468   0.808
 7211SOL    HW329164   4.881   5.434   0.885
 7211SOL    MW429165   4.955   5.410   0.848
 7212SOL     OW29166   5.368   5.490   1.124
 7212SOL    HW229167   5.411   5.460   1.204
 7212SOL    HW329168   5.287   5.438   1.121
 7212SOL    MW429169   5.363   5.479   1.134
 7213SOL     OW29170   4.453   4.454   1.831
 7213SOL    HW229171   4.523   4.396   1.803
 7213SOL    HW329172   4.396   4.399   1.886
 7213SOL    MW429173   4.455   4.441   1.835
 7214SOL     OW29174   5.240   4.666   1.464
 7214SOL    HW229175   5.245   4.719   1.544
 7214SOL    HW329176   5.202   4.583   1.492
 7214SOL    MW429177   5.236   4.661   1.479
 7215SOL     OW29178   4.880   3.801   1.710
 7215SOL    HW229179   4.875   3.708   1.691
 7215SOL    HW329180   4.963   3.812   1.756
 7215SOL    MW429181   4.888   3.790   1.714
 7216SOL     OW29182   4.254   4.321   0.164
 7216SOL    HW229183   4.220   4.377   0.234
 7216SOL    HW329184   4.325   4.271   0.204
 7216SOL    MW429185   4.260   4.322   0.178
 7217SOL     OW29186   5.350   5.072   0.986
 7217SOL    HW229187   5.385   5.054   0.899
 7217SOL    HW329188   5.255   5.073   0.973
 7217SOL    MW429189   5.342   5.069   0.973
 7218SOL     OW29190   5.310   4.207   0.228
 7218SOL    HW229191   5.302   4.278   0.165
 7218SOL    HW329192   5.328   4.251   0.311
 7218SOL    MW429193   5.311   4.221   0.230
 7219SOL     OW29194   4.170   3.862   0.657
 7219SOL    HW229195   4.220   3.905   0.588
 7219SOL    HW329196   4.085   3.906   0.657
 7219SOL    MW429197   4.167   3.875   0.648
 7220SOL     OW29198   3.929   4.924   1.517
 7220SOL    HW229199   3.957   4.877   1.595
 7220SOL    HW329200   3.850   4.879   1.488
 7220SOL    MW429201   3.922   4.913   1.523
 7221SOL     OW29202   4.437   4.251   1.484
 7221SOL    HW229203   4.409   4.339   1.508
 7221SOL    HW329204   4.406   4.195   1.555
 7221SOL    MW429205   4.429   4.254   1.496
 7222SOL     OW29206   4.979   4.469   0.203
 7222SOL    HW229207   5.026   4.487   0.122
 7222SOL    HW329208   4.945   4.553   0.231
 7222SOL    MW429209   4.981   4.483   0.196
 7223SOL     OW29210   4.092   4.647   0.697
 7223SOL    HW229211   4.150   4.703   0.645
 7223SOL    HW329212   4.136   4.562   0.699
 7223SOL    MW429213   4.105   4.644   0.690
 7224SOL     OW29214   5.232   3.999   0.534
 7224SOL    HW229215   5.154   3.949   0.559
 7224SOL    HW329216   5.203   4.090   0.534
 7224SOL    MW429217   5.218   4.003   0.537
 7225SOL     OW29218   4.818   3.961   0.693
 7225SOL    HW229219   4.838   4.036   0.637
 7225SOL    HW329220   4.798   4.000   0.778
 7225SOL    MW429221   4.819   3.977   0.697
 7226SOL     OW29222   4.714   5.211   0.025
 7226SOL    HW229223   4.741   5.289  -0.023
 7226SOL    HW329224   4.621   5.226   0.044
 7226SOL    MW429225   4.705   5.224   0.021
 7227SOL     OW29226   5.578   4.734   1.712
 7227SOL    HW229227   5.491   4.714   1.748
 7227SOL    HW329228   5.632   4.660   1.737
 7227SOL    MW429229   5.573   4.723   1.720
 7228SOL     OW29230   3.799   5.247   0.869
 7228SOL    HW229231   3.831   5.251   0.960
 7228SOL    HW329232   3.704   5.255   0.877
 7228SOL    MW429233   3.791   5.250   0.882
 7229SOL     OW29234   3.754   4.373   0.416
 7229SOL    HW229235   3.694   4.345   0.486
 7229SOL    HW329236   3.828   4.313   0.422
 7229SOL    MW429237   3.756   4.362   0.425
 7230SOL     OW29238   5.322   5.585   1.850
 7230SOL    HW229239   5.367   5.509   1.815
 7230SOL    HW329240   5.360   5.598   1.937
 7230SOL    MW429241   5.332   5.578   1.856
 7231SOL     OW29242   4.922   5.104   0.576
 7231SOL    HW229243   4.945   5.055   0.654
 7231SOL    HW329244   5.003   5.146   0.548
 7231SOL    MW429245   4.935   5.104   0.583
 7232SOL     OW29246   4.180   4.112   1.305
 7232SOL    HW229247   4.213   4.193   1.345
 7232SOL    HW329248   4.153   4.138   1.217
 7232SOL    MW429249   4.179   4.126   1.299
 7233SOL     OW29250   4.134   4.079   1.041
 7233SOL    HW229251   4.164   3.993   1.012
 7233SOL    HW329252   4.039   4.072   1.044
 7233SOL    MW429253   4.126   4.068   1.039
 7234SOL     OW29254   4.963   4.288   1.732
 7234SOL    HW229255   5.015   4.223   1.685
 7234SOL    HW329256   4.921   4.339   1.662
 7234SOL    MW429257   4.964   4.285   1.715
 7235SOL     OW29258   5.062   4.083   1.593
 7235SOL    HW229259   4.969   4.067   1.580
 7235SOL    HW329260   5.088   4.021   1.661
 7235SOL    MW429261   5.052   4.073   1.600
 7236SOL     OW29262   4.277   3.857   0.932
 7236SOL    HW229263   4.287   3.766   0.958
 7236SOL    HW329264   4.233   3.853   0.847
 7236SOL    MW429265   4.273   3.845   0.924
 7237SOL     OW29266   4.371   5.472   1.478
 7237SOL    HW229267   4.288   5.457   1.523
 7237SOL    HW329268   4.430   5.405   1.513
 7237SOL    MW429269   4.369   5.462   1.488
 7238SOL     OW29270   5.428   4.179   1.103
 7238SOL    HW229271   5.361   4.212   1.163
 7238SOL    HW329272   5.471   4.257   1.069
 7238SOL    MW429273   5.426   4.194   1.107
 7239SOL     OW29274   5.606   4.899   1.073
 7239SOL    HW229275   5.599   4.839   0.998
 7239SOL    HW329276   5.532   4.959   1.062
 7239SOL    MW429277   5.596   4.899   1.062
 7240SOL     OW29278   4.988   4.761   0.991
 7240SOL    HW229279   5.002   4.733   1.082
 7240SOL    HW329280   5.074   4.792   0.963
 7240SOL    MW429281   5.001   4.762   1.000
 7241SOL     OW29282   5.071   4.256   1.270
 7241SOL    HW229283   5.092   4.257   1.177
 7241SOL    HW329284   5.116   4.178   1.303
 7241SOL    MW429285   5.078   4.246   1.262
 7242SOL     OW29286   5.564   4.387   1.812
 7242SOL    HW229287   5.601   4.332   1.881
 7242SOL    HW329288   5.589   4.344   1.730
 7242SOL    MW429289   5.571   4.375   1.811
 7243SOL     OW29290   5.111   4.685   1.863
 7243SOL    HW229291   5.177   4.633   1.817
 7243SOL    HW329292   5.131   4.672   1.956
 7243SOL    MW429293   5.122   4.676   1.870
 7244SOL     OW29294   5.062   3.771   0.212
 7244SOL    HW229295   5.136   3.815   0.255
 7244SOL    HW329296   4.986   3.825   0.234
 7244SOL    MW429297   5.062   3.783   0.220
 7245SOL     OW29298   5.122   4.546   0.490
 7245SOL    HW229299   5.037   4.516   0.460
 7245SOL    HW329300   5.114   4.553   0.585
 7245SOL    MW429301   5.110   4.544   0.499
 7246SOL     OW29302   4.482   3.989   1.044
 7246SOL    HW229303   4.455   3.991   1.135
 7246SOL    HW329304   4.412   3.941   0.999
 7246SOL    MW429305   4.470   3.985   1.051
 7247SOL     OW29306   4.336   5.481   1.206
 7247SOL    HW229307   4.388   5.558   1.183
 7247SOL    HW329308   4.345   5.473   1.301
 7247SOL    MW429309   4.345   5.488   1.217
 7248SOL     OW29310   5.238   5.066   1.438
 7248SOL    HW229311   5.223   4.995   1.501
 7248SOL    HW329312   5.284   5.024   1.366
 7248SOL    MW429313   5.244   5.050   1.438
 7249SOL     OW29314   4.492   4.840   1.367
 7249SOL    HW229315   4.551   4.786   1.420
 7249SOL    HW329316   4.507   4.812   1.277
 7249SOL    MW429317   4.502   4.829   1.363
 7250SOL     OW29318   4.495   4.212   0.216
 7250SOL    HW229319   4.568   4.261   0.179
 7250SOL    HW329320   4.511   4.121   0.190
 7250SOL    MW429321   4.507   4.207   0.209
 7251SOL     OW29322   5.303   5.329   1.539
 7251SOL    HW229323   5.345   5.314   1.624
 7251SOL    HW329324   5.294   5.242   1.501
 7251SOL    MW429325   5.307   5.317   1.546
 7252SOL     OW29326   4.963   3.808   1.130
 7252SOL    HW229327   5.018   3.817   1.052
 7252SOL    HW329328   5.018   3.842   1.201
 7252SOL    MW429329   4.977   3.813   1.129
 7253SOL     OW29330   3.970   4.721   0.314
 7253SOL    HW229331   3.907   4.737   0.243
 7253SOL    HW329332   3.917   4.684   0.385
 7253SOL    MW429333   3.955   4.718   0.314
 7254SOL     OW29334   4.326   5.075   0.173
 7254SOL    HW229335   4.341   5.051   0.265
 7254SOL    HW329336   4.234   5.053   0.157
 7254SOL    MW429337   4.316   5.068   0.183
 7255SOL     OW29338   4.865   5.306   0.325
 7255SOL    HW229339   4.873   5.224   0.276
 7255SOL    HW329340   4.784   5.345   0.292
 7255SOL    MW429341   4.855   5.301   0.315
 7256SOL     OW29342   4.124   5.464   0.894
 7256SOL    HW229343   4.128   5.375   0.929
 7256SOL    HW329344   4.150   5.455   0.803
 7256SOL    MW429345   4.127   5.452   0.886
 7257SOL     OW29346   4.741   4.942   1.137
 7257SOL    HW229347   4.673   4.876   1.153
 7257SOL    HW329348   4.759   4.936   1.044
 7257SOL    MW429349   4.734   4.933   1.128
 7258SOL     OW29350   3.830   5.217   1.388
 7258SOL    HW229351   3.820   5.175   1.474
 7258SOL    HW329352   3.751   5.270   1.378
 7258SOL    MW429353   3.819   5.218   1.399
 7259SOL     OW29354   4.734   4.081   0.958
 7259SOL    HW229355   4.664   4.033   1.003
 7259SOL    HW329356   4.766   4.144   1.022
 7259SOL    MW429357   4.729   4.083   0.972
 7260SOL     OW29358   4.385   4.517   1.578
 7260SOL    HW229359   4.378   4.612   1.566
 7260SOL    HW329360   4.394   4.506   1.673
 7260SOL    MW429361   4.386   4.529   1.588
 7261SOL     OW29362   5.190   3.795   1.303
 7261SOL    HW229363   5.261   3.741   1.267
 7261SOL    HW329364   5.189   3.774   1.396
 7261SOL    MW429365   5.199   3.786   1.311
 7262SOL     OW29366   5.390   5.325   1.787
 7262SOL    HW229367   5.363   5.322   1.878
 7262SOL    HW329368   5.486   5.329   1.790
 7262SOL    MW429369   5.400   5.325   1.799
 7263SOL     OW29370   4.201   4.187   0.771
 7263SOL    HW229371   4.272   4.135   0.734
 7263SOL    HW329372   4.187   4.152   0.858
 7263SOL    MW429373   4.209   4.176   0.778
 7264SOL     OW29374   3.756   5.522   1.843
 7264SOL    HW229375   3.806   5.500   1.765
 7264SOL    HW329376   3.764   5.617   1.851
 7264SOL    MW429377   3.764   5.531   1.834
 7265SOL     OW29378   4.517   5.280   0.847
 7265SOL    HW229379   4.445   5.217   0.860
 7265SOL    HW329380   4.478   5.365   0.865
 7265SOL    MW429381   4.501   5.283   0.850
 7266SOL     OW29382   4.837   4.128   0.495
 7266SOL    HW229383   4.859   4.065   0.427
 7266SOL    HW329384   4.742   4.120   0.506
 7266SOL    MW429385   4.827   4.119   0.487
 7267SOL     OW29386   3.922   3.818   0.427
 7267SOL    HW229387   3.993   3.839   0.366
 7267SOL    HW329388   3.876   3.746   0.385
 7267SOL    MW429389   3.926   3.812   0.413
 7268SOL     OW29390   3.753   4.285   1.570
 7268SOL    HW229391   3.817   4.351   1.545
 7268SOL    HW329392   3.672   4.312   1.527
 7268SOL    MW429393   3.751   4.297   1.562
 7269SOL     OW29394   5.491   5.192   0.527
 7269SOL    HW229395   5.461   5.125   0.588
 7269SOL    HW329396   5.585   5.198   0.541
 7269SOL    MW429397   5.499   5.184   0.537
 7270SOL     OW29398   5.047   4.869   0.457
 7270SOL    HW229399   5.019   4.955   0.490
 7270SOL    HW329400   5.075   4.885   0.367
 7270SOL    MW429401   5.047   4.883   0.449
 7271SOL     OW29402   4.709   3.789   0.510
 7271SOL    HW229403   4.746   3.848   0.575
 7271SOL    HW329404   4.686   3.845   0.436
 7271SOL    MW429405   4.710   3.804   0.509
 7272SOL     OW29406   5.562   4.671   0.932
 7272SOL    HW229407   5.553   4.703   0.843
 7272SOL    HW329408   5.515   4.587   0.932
 7272SOL    MW429409   5.555   4.664   0.922
 7273SOL     OW29410   3.938   4.511   1.511
 7273SOL    HW229411   3.959   4.580   1.449
 7273SOL    HW329412   4.018   4.458   1.516
 7273SOL    MW429413   3.951   4.512   1.505
 7274SOL     OW29414   5.474   4.602   0.633
 7274SOL    HW229415   5.568   4.591   0.621
 7274SOL    HW329416   5.450   4.674   0.574
 7274SOL    MW429417   5.484   4.610   0.624
 7275SOL     OW29418   3.923   4.526   1.778
 7275SOL    HW229419   3.849   4.470   1.804
 7275SOL    HW329420   3.918   4.529   1.683
 7275SOL    MW429421   3.912   4.519   1.768
 7276SOL     OW29422   4.089   3.813   1.228
 7276SOL    HW229423   4.132   3.897   1.248
 7276SOL    HW329424   4.162   3.751   1.221
 7276SOL    MW429425   4.104   3.816   1.229
 7277SOL     OW29426   4.130   4.480   0.406
 7277SOL    HW229427   4.130   4.575   0.391
 7277SOL    HW329428   4.207   4.464   0.460
 7277SOL    MW429429   4.140   4.491   0.411
 7278SOL     OW29430   4.906   4.339   1.470
 7278SOL    HW229431   4.942   4.312   1.386
 7278SOL    HW329432   4.819   4.373   1.449
 7278SOL    MW429433   4.900   4.340   1.457
 7279SOL     OW29434   3.889   4.211   0.695
 7279SOL    HW229435   3.951   4.218   0.768
 7279SOL    HW329436   3.889   4.118   0.672
 7279SOL    MW429437   3.897   4.200   0.702
 7280SOL     OW29438   4.571   4.472   1.179
 7280SOL    HW229439   4.529   4.390   1.155
 7280SOL    HW329440   4.572   4.471   1.275
 7280SOL    MW429441   4.564   4.461   1.188
 7281SOL     OW29442   5.242   5.605   1.578
 7281SOL    HW229443   5.245   5.511   1.561
 7281SOL    HW329444   5.265   5.613   1.670
 7281SOL    MW429445   5.245   5.593   1.588
 7282SOL     OW29446   4.375   3.942   1.284
 7282SOL    HW229447   4.306   4.005   1.305
 7282SOL    HW329448   4.402   3.906   1.369
 7282SOL    MW429449   4.369   3.945   1.297
 7283SOL     OW29450   3.758   4.783   0.153
 7283SOL    HW229451   3.727   4.848   0.216
 7283SOL    HW329452   3.707   4.705   0.172
 7283SOL    MW429453   3.748   4.780   0.163
 7284SOL     OW29454   5.170   3.795   0.901
 7284SOL    HW229455   5.258   3.804   0.938
 7284SOL    HW329456   5.180   3.736   0.827
 7284SOL    MW429457   5.184   3.789   0.895
 7285SOL     OW29458   5.202   4.534   0.745
 7285SOL    HW229459   5.282   4.549   0.694
 7285SOL    HW329460   5.195   4.439   0.751
 7285SOL    MW429461   5.211   4.523   0.740
 7286SOL     OW29462   4.342   5.583   0.095
 7286SOL    HW229463   4.247   5.583   0.087
 7286SOL    HW329464   4.358   5.529   0.173
 7286SOL    MW429465   4.332   5.577   0.104
 7287SOL     OW29466   4.652   4.460   1.442
 7287SOL    HW229467   4.721   4.527   1.439
 7287SOL    HW329468   4.585   4.498   1.498
 7287SOL    MW429469   4.653   4.473   1.449
 7288SOL     OW29470   4.070   4.760   1.690
 7288SOL    HW229471   4.024   4.676   1.692
 7288SOL    HW329472   4.127   4.754   1.614
 7288SOL    MW429473   4.072   4.748   1.682
 7289SOL     OW29474   4.321   5.135   0.691
 7289SOL    HW229475   4.386   5.068   0.712
 7289SOL    HW329476   4.373   5.212   0.668
 7289SOL    MW429477   4.336   5.137   0.690
 7290SOL     OW29478   4.582   4.300   0.821
 7290SOL    HW229479   4.522   4.318   0.893
 7290SOL    HW329480   4.616   4.212   0.840
 7290SOL    MW429481   4.578   4.290   0.834
 7291SOL     OW29482   5.523   3.799   1.490
 7291SOL    HW229483   5.444   3.845   1.518
 7291SOL    HW329484   5.558   3.853   1.419
 7291SOL    MW429485   5.517   3.812   1.484
 7292SOL     OW29486   4.807   4.883   0.840
 7292SOL    HW229487   4.899   4.864   0.858
 7292SOL    HW329488   4.780   4.813   0.780
 7292SOL    MW429489   4.815   4.871   0.834
 7293SOL     OW29490   4.600   4.703   0.195
 7293SOL    HW229491   4.586   4.615   0.160
 7293SOL    HW329492   4.551   4.760   0.136
 7293SOL    MW429493   4.592   4.698   0.183
 7294SOL     OW29494   5.081   5.121   0.936
 7294SOL    HW229495   5.054   5.205   0.901
 7294SOL    HW329496   5.041   5.116   1.023
 7294SOL    MW429497   5.074   5.130   0.942
 7295SOL     OW29498   4.013   4.427   0.974
 7295SOL    HW229499   3.963   4.426   1.055
 7295SOL    HW329500   4.033   4.519   0.958
 7295SOL    MW429501   4.009   4.439   0.982
 7296SOL     OW29502   5.080   5.191   1.736
 7296SOL    HW229503   5.080   5.285   1.752
 7296SOL    HW329504   5.125   5.181   1.652
 7296SOL    MW429505   5.086   5.201   1.727
 7297SOL     OW29506   4.608   4.472   0.411
 7297SOL    HW229507   4.588   4.458   0.318
 7297SOL    HW329508   4.701   4.451   0.418
 7297SOL    MW429509   4.618   4.467   0.400
 7298SOL     OW29510   3.935   4.095   1.715
 7298SOL    HW229511   3.892   4.154   1.652
 7298SOL    HW329512   4.003   4.150   1.755
 7298SOL    MW429513   3.939   4.110   1.712
 7299SOL     OW29514   5.047   4.715   1.260
 7299SOL    HW229515   5.110   4.712   1.333
 7299SOL    HW329516   4.963   4.733   1.302
 7299SOL    MW429517   5.043   4.717   1.275
 7300SOL     OW29518   4.591   5.430   0.449
 7300SOL    HW229519   4.649   5.501   0.476
 7300SOL    HW329520   4.614   5.358   0.507
 7300SOL    MW429521   4.602   5.430   0.460
 7301SOL     OW29522   5.386   3.892   1.039
 7301SOL    HW229523   5.431   3.810   1.058
 7301SOL    HW329524   5.406   3.948   1.115
 7301SOL    MW429525   5.396   3.888   1.051
 7302SOL     OW29526   3.834   3.735   1.138
 7302SOL    HW229527   3.825   3.736   1.043
 7302SOL    HW329528   3.928   3.747   1.153
 7302SOL    MW429529   3.846   3.738   1.129
 7303SOL     OW29530   5.471   4.928   0.758
 7303SOL    HW229531   5.450   4.874   0.681
 7303SOL    HW329532   5.567   4.926   0.762
 7303SOL    MW429533   5.480   4.921   0.747
 7304SOL     OW29534   5.171   4.359   1.020
 7304SOL    HW229535   5.094   4.405   0.986
 7304SOL    HW329536   5.228   4.428   1.054
 7304SOL    MW429537   5.168   4.374   1.020
 7305SOL     OW29538   3.803   3.961   0.033
 7305SOL    HW229539   3.770   4.040   0.077
 7305SOL    HW329540   3.858   3.994  -0.038
 7305SOL    MW429541   3.806   3.975   0.030
 7306SOL     OW29542   3.837   5.218   0.222
 7306SOL    HW229543   3.854   5.302   0.264
 7306SOL    HW329544   3.872   5.227   0.134
 7306SOL    MW429545   3.842   5.231   0.216
 7307SOL     OW29546   5.472   4.575   2.125
 7307SOL    HW229547   5.513   4.517   2.190
 7307SOL    HW329548   5.379   4.567   2.142
 7307SOL    MW429549   5.466   4.567   2.135
 7308SOL     OW29550   5.338   4.507   3.120
 7308SOL    HW229551   5.293   4.574   3.171
 7308SOL    HW329552   5.426   4.543   3.106
 7308SOL    MW429553   5.344   4.520   3.124
 7309SOL     OW29554   5.382   5.461   2.496
 7309SOL    HW229555   5.394   5.407   2.574
 7309SOL    HW329556   5.419   5.409   2.425
 7309SOL    MW429557   5.388   5.446   2.497
 7310SOL     OW29558   4.761   5.346   3.497
 7310SOL    HW229559   4.802   5.382   3.418
 7310SOL    HW329560   4.796   5.257   3.504
 7310SOL    MW429561   4.772   5.339   3.488
 7311SOL     OW29562   5.318   4.901   3.101
 7311SOL    HW229563   5.239   4.866   3.059
 7311SOL    HW329564   5.345   4.973   3.045
 7311SOL    MW429565   5.311   4.906   3.088
 7312SOL     OW29566   4.550   4.214   2.367
 7312SOL    HW229567   4.525   4.302   2.395
 7312SOL    HW329568   4.547   4.217   2.271
 7312SOL    MW429569   4.546   4.226   2.359
 7313SOL     OW29570   3.992   4.242   2.295
 7313SOL    HW229571   4.024   4.330   2.277
 7313SOL    HW329572   3.980   4.240   2.390
 7313SOL    MW429573   3.995   4.254   2.307
 7314SOL     OW29574   4.070   4.655   3.196
 7314SOL    HW229575   4.133   4.602   3.147
 7314SOL    HW329576   4.051   4.729   3.139
 7314SOL    MW429577   4.076   4.657   3.183
 7315SOL     OW29578   4.391   3.997   2.382
 7315SOL    HW229579   4.449   4.073   2.384
 7315SOL    HW329580   4.326   4.018   2.315
 7315SOL    MW429581   4.390   4.009   2.373
 7316SOL     OW29582   4.503   5.265   3.460
 7316SOL    HW229583   4.587   5.291   3.499
 7316SOL    HW329584   4.527   5.209   3.386
 7316SOL    MW429585   4.517   5.261   3.455
 7317SOL     OW29586   4.255   4.428   2.548
 7317SOL    HW229587   4.240   4.348   2.599
 7317SOL    HW329588   4.337   4.463   2.582
 7317SOL    MW429589   4.263   4.420   2.560
 7318SOL     OW29590   4.592   5.114   3.233
 7318SOL    HW229591   4.556   5.180   3.173
 7318SOL    HW329592   4.520   5.052   3.246
 7318SOL    MW429593   4.578   5.114   3.227
 7319SOL     OW29594   4.397   4.254   2.925
 7319SOL    HW229595   4.303   4.250   2.943
 7319SOL    HW329596   4.427   4.163   2.934
 7319SOL    MW429597   4.388   4.242   2.928
 7320SOL     OW29598   4.143   4.668   2.829
 7320SOL    HW229599   4.098   4.675   2.745
 7320SOL    HW329600   4.123   4.751   2.873
 7320SOL    MW429601   4.135   4.680   2.823
 7321SOL     OW29602   5.105   4.906   2.073
 7321SOL    HW229603   5.023   4.942   2.039
 7321SOL    HW329604   5.173   4.949   2.022
 7321SOL    MW429605   5.103   4.916   2.061
 7322SOL     OW29606   5.530   4.048   2.722
 7322SOL    HW229607   5.467   4.028   2.791
 7322SOL    HW329608   5.520   3.977   2.659
 7322SOL    MW429609   5.520   4.035   2.723
 7323SOL     OW29610   4.154   4.020   2.234
 7323SOL    HW229611   4.128   3.982   2.150
 7323SOL    HW329612   4.091   4.090   2.250
 7323SOL    MW429613   4.143   4.023   2.225
 7324SOL     OW29614   3.989   4.981   2.271
 7324SOL    HW229615   3.937   5.049   2.227
 7324SOL    HW329616   3.986   4.907   2.211
 7324SOL    MW429617   3.981   4.980   2.258
 7325SOL     OW29618   5.586   4.217   2.024
 7325SOL    HW229619   5.495   4.219   2.052
 7325SOL    HW329620   5.631   4.279   2.082
 7325SOL    MW429621   5.579   4.225   2.034
 7326SOL     OW29622   5.331   4.820   2.374
 7326SOL    HW229623   5.241   4.820   2.409
 7326SOL    HW329624   5.324   4.866   2.291
 7326SOL    MW429625   5.318   4.826   2.368
 7327SOL     OW29626   5.131   4.455   3.446
 7327SOL    HW229627   5.200   4.393   3.423
 7327SOL    HW329628   5.056   4.429   3.393
 7327SOL    MW429629   5.131   4.442   3.437
 7328SOL     OW29630   4.867   4.842   3.438
 7328SOL    HW229631   4.852   4.935   3.423
 7328SOL    HW329632   4.962   4.832   3.438
 7328SOL    MW429633   4.876   4.852   3.435
 7329SOL     OW29634   4.663   4.266   3.639
 7329SOL    HW229635   4.753   4.267   3.606
 7329SOL    HW329636   4.622   4.191   3.597
 7329SOL    MW429637   4.669   4.256   3.630
 7330SOL     OW29638   5.238   4.798   2.766
 7330SOL    HW229639   5.241   4.732   2.697
 7330SOL    HW329640   5.323   4.841   2.762
 7330SOL    MW429641   5.250   4.794   2.757
 7331SOL     OW29642   5.523   5.021   2.186
 7331SOL    HW229643   5.479   5.062   2.261
 7331SOL    HW329644   5.580   5.089   2.151
 7331SOL    MW429645   5.525   5.035   2.191
 7332SOL     OW29646   4.443   4.070   3.589
 7332SOL    HW229647   4.453   3.996   3.529
 7332SOL    HW329648   4.479   4.039   3.672
 7332SOL    MW429649   4.449   4.056   3.591
 7333SOL     OW29650   5.563   3.799   2.553
 7333SOL    HW229651   5.617   3.750   2.615
 7333SOL    HW329652   5.506   3.733   2.514
 7333SOL    MW429653   5.563   3.783   2.555
 7334SOL     OW29654   3.895   5.497   2.081
 7334SOL    HW229655   3.924   5.587   2.073
 7334SOL    HW329656   3.845   5.480   2.002
 7334SOL    MW429657   3.893   5.505   2.070
 7335SOL     OW29658   4.682   3.752   2.966
 7335SOL    HW229659   4.641   3.830   2.928
 7335SOL    HW329660   4.776   3.770   2.961
 7335SOL    MW429661   4.688   3.764   2.961
 7336SOL     OW29662   5.299   5.305   2.052
 7336SOL    HW229663   5.347   5.374   2.098
 7336SOL    HW329664   5.220   5.349   2.021
 7336SOL    MW429665   5.294   5.319   2.055
 7337SOL     OW29666   4.697   4.430   1.996
 7337SOL    HW229667   4.699   4.377   1.917
 7337SOL    HW329668   4.785   4.467   2.002
 7337SOL    MW429669   4.709   4.429   1.985
 7338SOL     OW29670   5.311   4.356   2.332
 7338SOL    HW229671   5.350   4.356   2.419
 7338SOL    HW329672   5.252   4.432   2.332
 7338SOL    MW429673   5.308   4.367   2.343
 7339SOL     OW29674   4.628   4.723   3.461
 7339SOL    HW229675   4.605   4.703   3.551
 7339SOL    HW329676   4.713   4.767   3.466
 7339SOL    MW429677   4.635   4.726   3.473
 7340SOL     OW29678   4.708   3.860   3.221
 7340SOL    HW229679   4.714   3.822   3.134
 7340SOL    HW329680   4.697   3.954   3.206
 7340SOL    MW429681   4.709   3.868   3.209
 7341SOL     OW29682   4.797   4.349   3.055
 7341SOL    HW229683   4.872   4.378   3.002
 7341SOL    HW329684   4.729   4.414   3.039
 7341SOL    MW429685   4.798   4.361   3.045
 7342SOL     OW29686   5.347   4.317   3.332
 7342SOL    HW229687   5.328   4.226   3.311
 7342SOL    HW329688   5.325   4.366   3.253
 7342SOL    MW429689   5.342   4.310   3.319
 7343SOL     OW29690   5.489   5.411   3.236
 7343SOL    HW229691   5.417   5.373   3.287
 7343SOL    HW329692   5.506   5.496   3.277
 7343SOL    MW429693   5.483   5.416   3.248
 7344SOL     OW29694   4.794   4.055   3.438
 7344SOL    HW229695   4.760   4.094   3.357
 7344SOL    HW329696   4.772   3.963   3.431
 7344SOL    MW429697   4.787   4.048   3.428
 7345SOL     OW29698   5.203   4.869   3.514
 7345SOL    HW229699   5.285   4.910   3.544
 7345SOL    HW329700   5.166   4.831   3.594
 7345SOL    MW429701   5.209   4.870   3.529
 7346SOL     OW29702   5.498   4.242   2.498
 7346SOL    HW229703   5.587   4.211   2.515
 7346SOL    HW329704   5.441   4.182   2.546
 7346SOL    MW429705   5.501   4.230   2.507
 7347SOL     OW29706   3.924   3.956   2.527
 7347SOL    HW229707   3.915   3.896   2.453
 7347SOL    HW329708   3.857   3.927   2.590
 7347SOL    MW429709   3.914   3.943   2.525
 7348SOL     OW29710   3.871   4.129   2.890
 7348SOL    HW229711   3.843   4.220   2.899
 7348SOL    HW329712   3.808   4.090   2.829
 7348SOL    MW429713   3.858   4.135   2.884
 7349SOL     OW29714   5.458   4.987   3.593
 7349SOL    HW229715   5.508   4.913   3.625
 7349SOL    HW329716   5.404   5.014   3.668
 7349SOL    MW429717   5.458   4.981   3.606
 7350SOL     OW29718   4.466   4.882   1.903
 7350SOL    HW229719   4.388   4.828   1.890
 7350SOL    HW329720   4.437   4.955   1.956
 7350SOL    MW429721   4.452   4.884   1.908
 7351SOL     OW29722   5.592   4.622   3.095
 7351SOL    HW229723   5.608   4.660   3.008
 7351SOL    HW329724   5.626   4.688   3.156
 7351SOL    MW429725   5.599   4.635   3.091
 7352SOL     OW29726   5.384   5.331   2.764
 7352SOL    HW229727   5.413   5.398   2.825
 7352SOL    HW329728   5.365   5.255   2.819
 7352SOL    MW429729   5.386   5.331   2.779
 7353SOL     OW29730   3.855   4.404   3.060
 7353SOL    HW229731   3.917   4.434   3.126
 7353SOL    HW329732   3.789   4.473   3.054
 7353SOL    MW429733   3.854   4.417   3.067
 7354SOL     OW29734   5.271   5.072   1.913
 7354SOL    HW229735   5.218   5.121   1.849
 7354SOL    HW329736   5.302   5.138   1.974
 7354SOL    MW429737   5.269   5.086   1.911
 7355SOL     OW29738   4.496   3.961   1.968
 7355SOL    HW229739   4.444   3.881   1.956
 7355SOL    HW329740   4.583   3.938   1.936
 7355SOL    MW429741   4.499   3.947   1.962
 7356SOL     OW29742   4.002   4.832   3.019
 7356SOL    HW229743   4.055   4.907   3.044
 7356SOL    HW329744   3.921   4.870   2.985
 7356SOL    MW429745   3.998   4.847   3.019
 7357SOL     OW29746   4.542   4.736   3.007
 7357SOL    HW229747   4.570   4.645   3.019
 7357SOL    HW329748   4.471   4.730   2.943
 7357SOL    MW429749   4.535   4.724   3.002
 7358SOL     OW29750   3.857   4.601   2.425
 7358SOL    HW229751   3.948   4.616   2.452
 7358SOL    HW329752   3.860   4.522   2.371
 7358SOL    MW429753   3.869   4.593   2.423
 7359SOL     OW29754   4.093   4.309   3.679
 7359SOL    HW229755   4.040   4.389   3.686
 7359SOL    HW329756   4.163   4.321   3.744
 7359SOL    MW429757   4.095   4.322   3.687
 7360SOL     OW29758   4.479   3.859   3.386
 7360SOL    HW229759   4.456   3.767   3.388
 7360SOL    HW329760   4.565   3.861   3.343
 7360SOL    MW429761   4.486   3.849   3.382
 7361SOL     OW29762   4.163   4.383   3.425
 7361SOL    HW229763   4.243   4.433   3.411
 7361SOL    HW329764   4.154   4.377   3.520
 7361SOL    MW429765   4.172   4.389   3.435
 7362SOL     OW29766   5.140   3.908   3.696
 7362SOL    HW229767   5.196   3.835   3.722
 7362SOL    HW329768   5.110   3.946   3.778
 7362SOL    MW429769   5.144   3.903   3.709
 7363SOL     OW29770   4.698   5.256   2.499
 7363SOL    HW229771   4.781   5.210   2.483
 7363SOL    HW329772   4.688   5.255   2.595
 7363SOL    MW429773   4.708   5.249   2.509
 7364SOL     OW29774   5.530   4.401   2.813
 7364SOL    HW229775   5.619   4.431   2.795
 7364SOL    HW329776   5.510   4.341   2.742
 7364SOL    MW429777   5.539   4.398   2.802
 7365SOL     OW29778   5.381   4.580   3.693
 7365SOL    HW229779   5.436   4.504   3.674
 7365SOL    HW329780   5.383   4.588   3.788
 7365SOL    MW429781   5.389   4.571   3.701
 7366SOL     OW29782   4.869   3.958   2.127
 7366SOL    HW229783   4.802   3.934   2.064
 7366SOL    HW329784   4.934   4.007   2.076
 7366SOL    MW429785   4.869   3.960   2.112
 7367SOL     OW29786   4.676   4.142   3.212
 7367SOL    HW229787   4.595   4.183   3.240
 7367SOL    HW329788   4.723   4.210   3.164
 7367SOL    MW429789   4.671   4.157   3.210
 7368SOL     OW29790   4.388   4.675   2.639
 7368SOL    HW229791   4.299   4.666   2.672
 7368SOL    HW329792   4.392   4.765   2.607
 7368SOL    MW429793   4.377   4.686   2.639
 7369SOL     OW29794   5.187   4.258   2.634
 7369SOL    HW229795   5.132   4.179   2.633
 7369SOL    HW329796   5.169   4.299   2.718
 7369SOL    MW429797   5.177   4.253   2.643
 7370SOL     OW29798   4.158   3.945   3.451
 7370SOL    HW229799   4.079   3.963   3.503
 7370SOL    HW329800   4.153   4.007   3.378
 7370SOL    MW429801   4.148   3.955   3.448
 7371SOL     OW29802   5.107   5.326   3.089
 7371SOL    HW229803   5.032   5.372   3.127
 7371SOL    HW329804   5.089   5.233   3.106
 7371SOL    MW429805   5.096   5.320   3.097
 7372SOL     OW29806   5.111   5.534   2.519
 7372SOL    HW229807   5.054   5.487   2.458
 7372SOL    HW329808   5.197   5.495   2.506
 7372SOL    MW429809   5.114   5.525   2.509
 7373SOL     OW29810   5.064   4.010   2.650
 7373SOL    HW229811   5.092   3.942   2.711
 7373SOL    HW329812   4.978   3.981   2.620
 7373SOL    MW429813   5.057   3.997   2.654
 7374SOL     OW29814   4.369   5.020   3.566
 7374SOL    HW229815   4.417   5.103   3.553
 7374SOL    HW329816   4.426   4.968   3.622
 7374SOL    MW429817   4.383   5.024   3.572
 7375SOL     OW29818   3.945   5.262   3.706
 7375SOL    HW229819   4.001   5.186   3.721
 7375SOL    HW329820   3.894   5.240   3.628
 7375SOL    MW429821   3.945   5.249   3.697
 7376SOL     OW29822   5.044   4.114   1.985
 7376SOL    HW229823   5.017   4.180   1.921
 7376SOL    HW329824   5.114   4.157   2.035
 7376SOL    MW429825   5.049   4.127   1.982
 7377SOL     OW29826   4.712   3.819   1.922
 7377SOL    HW229827   4.768   3.811   1.844
 7377SOL    HW329828   4.689   3.729   1.944
 7377SOL    MW429829   4.717   3.806   1.915
 7378SOL     OW29830   5.217   4.670   2.127
 7378SOL    HW229831   5.184   4.759   2.117
 7378SOL    HW329832   5.182   4.641   2.212
 7378SOL    MW429833   5.207   4.679   2.138
 7379SOL     OW29834   4.830   5.099   3.315
 7379SOL    HW229835   4.741   5.105   3.283
 7379SOL    HW329836   4.874   5.178   3.283
 7379SOL    MW429837   4.825   5.109   3.307
 7380SOL     OW29838   4.123   3.767   3.657
 7380SOL    HW229839   4.051   3.732   3.605
 7380SOL    HW329840   4.181   3.808   3.592
 7380SOL    MW429841   4.121   3.768   3.642
 7381SOL     OW29842   5.587   4.786   3.310
 7381SOL    HW229843   5.502   4.799   3.269
 7381SOL    HW329844   5.567   4.750   3.397
 7381SOL    MW429845   5.574   4.782   3.315
 7382SOL     OW29846   4.211   4.708   1.919
 7382SOL    HW229847   4.134   4.721   1.975
 7382SOL    HW329848   4.175   4.672   1.838
 7382SOL    MW429849   4.197   4.704   1.916
 7383SOL     OW29850   4.864   4.681   2.162
 7383SOL    HW229851   4.774   4.702   2.137
 7383SOL    HW329852   4.891   4.754   2.218
 7383SOL    MW429853   4.856   4.693   2.165
 7384SOL     OW29854   5.228   4.040   3.256
 7384SOL    HW229855   5.175   4.042   3.336
 7384SOL    HW329856   5.213   3.953   3.219
 7384SOL    MW429857   5.220   4.030   3.261
 7385SOL     OW29858   5.564   3.964   3.129
 7385SOL    HW229859   5.545   4.031   3.064
 7385SOL    HW329860   5.621   3.902   3.084
 7385SOL    MW429861   5.568   3.965   3.115
 7386SOL     OW29862   3.810   5.122   3.517
 7386SOL    HW229863   3.854   5.055   3.463
 7386SOL    HW329864   3.725   5.084   3.537
 7386SOL    MW429865   3.805   5.108   3.513
 7387SOL     OW29866   4.493   3.797   2.569
 7387SOL    HW229867   4.422   3.858   2.551
 7387SOL    HW329868   4.544   3.794   2.488
 7387SOL    MW429869   4.489   3.803   2.556
 7388SOL     OW29870   4.846   5.430   3.227
 7388SOL    HW229871   4.766   5.415   3.177
 7388SOL    HW329872   4.853   5.525   3.234
 7388SOL    MW429873   4.837   5.441   3.221
 7389SOL     OW29874   5.368   5.490   2.992
 7389SOL    HW229875   5.411   5.460   3.072
 7389SOL    HW329876   5.287   5.438   2.989
 7389SOL    MW429877   5.363   5.479   3.002
 7390SOL     OW29878   4.453   4.454   3.699
 7390SOL    HW229879   4.523   4.396   3.671
 7390SOL    HW329880   4.396   4.399   3.754
 7390SOL    MW429881   4.455   4.441   3.703
 7391SOL     OW29882   5.240   4.666   3.332
 7391SOL    HW229883   5.245   4.719   3.412
 7391SOL    HW329884   5.202   4.583   3.360
 7391SOL    MW429885   5.236   4.661   3.347
 7392SOL     OW29886   4.880   3.801   3.578
 7392SOL    HW229887   4.875   3.708   3.559
 7392SOL    HW329888   4.963   3.812   3.624
 7392SOL    MW429889   4.888   3.790   3.582
 7393SOL     OW29890   4.254   4.321   2.032
 7393SOL    HW229891   4.220   4.377   2.102
 7393SOL    HW329892   4.325   4.271   2.072
 7393SOL    MW429893   4.260   4.322   2.046
 7394SOL     OW29894   5.350   5.072   2.854
 7394SOL    HW229895   5.385   5.054   2.767
 7394SOL    HW329896   5.255   5.073   2.841
 7394SOL    MW429897   5.342   5.069   2.841
 7395SOL     OW29898   4.779   4.720   3.223
 7395SOL    HW229899   4.822   4.755   3.301
 7395SOL    HW329900   4.762   4.797   3.169
 7395SOL    MW429901   4.782   4.735   3.226
 7396SOL     OW29902   5.310   4.207   2.096
 7396SOL    HW229903   5.302   4.278   2.033
 7396SOL    HW329904   5.328   4.251   2.179
 7396SOL    MW429905   5.311   4.221   2.098
 7397SOL     OW29906   4.170   3.862   2.525
 7397SOL    HW229907   4.220   3.905   2.456
 7397SOL    HW329908   4.085   3.906   2.525
 7397SOL    MW429909   4.167   3.875   2.516
 7398SOL     OW29910   4.437   4.251   3.352
 7398SOL    HW229911   4.409   4.339   3.376
 7398SOL    HW329912   4.406   4.195   3.423
 7398SOL    MW429913   4.429   4.254   3.364
 7399SOL     OW29914   4.979   4.469   2.071
 7399SOL    HW229915   5.026   4.487   1.990
 7399SOL    HW329916   4.945   4.553   2.099
 7399SOL    MW429917   4.981   4.483   2.064
 7400SOL     OW29918   4.092   4.647   2.565
 7400SOL    HW229919   4.150   4.703   2.513
 7400SOL    HW329920   4.136   4.562   2.567
 7400SOL    MW429921   4.105   4.644   2.558
 7401SOL     OW29922   5.232   3.999   2.402
 7401SOL    HW229923   5.154   3.949   2.427
 7401SOL    HW329924   5.203   4.090   2.402
 7401SOL    MW429925   5.218   4.003   2.405
 7402SOL     OW29926   4.818   3.961   2.561
 7402SOL    HW229927   4.838   4.036   2.505
 7402SOL    HW329928   4.798   4.000   2.646
 7402SOL    MW429929   4.819   3.977   2.565
 7403SOL     OW29930   5.578   4.734   3.580
 7403SOL    HW229931   5.491   4.714   3.616
 7403SOL    HW329932   5.632   4.660   3.605
 7403SOL    MW429933   5.573   4.723   3.588
 7404SOL     OW29934   3.754   4.373   2.284
 7404SOL    HW229935   3.694   4.345   2.354
 7404SOL    HW329936   3.828   4.313   2.290
 7404SOL    MW429937   3.756   4.362   2.293
 7405SOL     OW29938   5.322   5.585   3.718
 7405SOL    HW229939   5.367   5.509   3.683
 7405SOL    HW329940   5.360   5.598   3.805
 7405SOL    MW429941   5.332   5.578   3.724
 7406SOL     OW29942   4.922   5.104   2.444
 7406SOL    HW229943   4.945   5.055   2.522
 7406SOL    HW329944   5.003   5.146   2.416
 7406SOL    MW429945   4.935   5.104   2.451
 7407SOL     OW29946   4.180   4.112   3.173
 7407SOL    HW229947   4.213   4.193   3.213
 7407SOL    HW329948   4.153   4.138   3.085
 7407SOL    MW429949   4.179   4.126   3.167
 7408SOL     OW29950   4.134   4.079   2.909
 7408SOL    HW229951   4.164   3.993   2.880
 7408SOL    HW329952   4.039   4.072   2.912
 7408SOL    MW429953   4.126   4.068   2.907
 7409SOL     OW29954   4.963   4.288   3.600
 7409SOL    HW229955   5.015   4.223   3.553
 7409SOL    HW329956   4.921   4.339   3.530
 7409SOL    MW429957   4.964   4.285   3.583
 7410SOL     OW29958   5.062   4.083   3.461
 7410SOL    HW229959   4.969   4.067   3.448
 7410SOL    HW329960   5.088   4.021   3.529
 7410SOL    MW429961   5.052   4.073   3.468
 7411SOL     OW29962   4.277   3.857   2.800
 7411SOL    HW229963   4.287   3.766   2.826
 7411SOL    HW329964   4.233   3.853   2.715
 7411SOL    MW429965   4.273   3.845   2.792
 7412SOL     OW29966   4.371   5.472   3.346
 7412SOL    HW229967   4.288   5.457   3.391
 7412SOL    HW329968   4.430   5.405   3.381
 7412SOL    MW429969   4.369   5.462   3.356
 7413SOL     OW29970   5.428   4.179   2.971
 7413SOL    HW229971   5.361   4.212   3.031
 7413SOL    HW329972   5.471   4.257   2.937
 7413SOL    MW429973   5.426   4.194   2.975
 7414SOL     OW29974   5.606   4.899   2.941
 7414SOL    HW229975   5.599   4.839   2.866
 7414SOL    HW329976   5.532   4.959   2.930
 7414SOL    MW429977   5.596   4.899   2.930
 7415SOL     OW29978   4.988   4.761   2.859
 7415SOL    HW229979   5.002   4.733   2.950
 7415SOL    HW329980   5.074   4.792   2.831
 7415SOL    MW429981   5.001   4.762   2.868
 7416SOL     OW29982   5.071   4.256   3.138
 7416SOL    HW229983   5.092   4.257   3.045
 7416SOL    HW329984   5.116   4.178   3.171
 7416SOL    MW429985   5.078   4.246   3.130
 7417SOL     OW29986   5.564   4.387   3.680
 7417SOL    HW229987   5.601   4.332   3.749
 7417SOL    HW329988   5.589   4.344   3.598
 7417SOL    MW429989   5.571   4.375   3.679
 7418SOL     OW29990   5.111   4.685   3.731
 7418SOL    HW229991   5.177   4.633   3.685
 7418SOL    HW329992   5.131   4.672   3.824
 7418SOL    MW429993   5.122   4.676   3.738
 7419SOL     OW29994   5.062   3.771   2.080
 7419SOL    HW229995   5.136   3.815   2.123
 7419SOL    HW329996   4.986   3.825   2.102
 7419SOL    MW429997   5.062   3.783   2.088
 7420SOL     OW29998   5.122   4.546   2.358
 7420SOL    HW229999   5.037   4.516   2.328
 7420SOL    HW330000   5.114   4.553   2.453
 7420SOL    MW430001   5.110   4.544   2.367
 7421SOL     OW30002   4.482   3.989   2.912
 7421SOL    HW230003   4.455   3.991   3.003
 7421SOL    HW330004   4.412   3.941   2.867
 7421SOL    MW430005   4.470   3.985   2.919
 7422SOL     OW30006   5.238   5.066   3.306
 7422SOL    HW230007   5.223   4.995   3.369
 7422SOL    HW330008   5.284   5.024   3.234
 7422SOL    MW430009   5.244   5.050   3.306
 7423SOL     OW30010   4.312   4.797   3.423
 7423SOL    HW230011   4.349   4.802   3.335
 7423SOL    HW330012   4.351   4.870   3.470
 7423SOL    MW430013   4.322   4.807   3.418
 7424SOL     OW30014   4.492   4.840   3.235
 7424SOL    HW230015   4.551   4.786   3.288
 7424SOL    HW330016   4.507   4.812   3.145
 7424SOL    MW430017   4.502   4.829   3.231
 7425SOL     OW30018   4.495   4.212   2.084
 7425SOL    HW230019   4.568   4.261   2.047
 7425SOL    HW330020   4.511   4.121   2.058
 7425SOL    MW430021   4.507   4.207   2.077
 7426SOL     OW30022   5.303   5.329   3.407
 7426SOL    HW230023   5.345   5.314   3.492
 7426SOL    HW330024   5.294   5.242   3.369
 7426SOL    MW430025   5.307   5.317   3.414
 7427SOL     OW30026   4.963   3.808   2.998
 7427SOL    HW230027   5.018   3.817   2.920
 7427SOL    HW330028   5.018   3.842   3.069
 7427SOL    MW430029   4.977   3.813   2.997
 7428SOL     OW30030   3.970   4.721   2.182
 7428SOL    HW230031   3.907   4.737   2.111
 7428SOL    HW330032   3.917   4.684   2.253
 7428SOL    MW430033   3.955   4.718   2.182
 7429SOL     OW30034   4.741   4.942   3.005
 7429SOL    HW230035   4.673   4.876   3.021
 7429SOL    HW330036   4.759   4.936   2.912
 7429SOL    MW430037   4.734   4.933   2.996
 7430SOL     OW30038   4.734   4.081   2.826
 7430SOL    HW230039   4.664   4.033   2.871
 7430SOL    HW330040   4.766   4.144   2.890
 7430SOL    MW430041   4.729   4.083   2.840
 7431SOL     OW30042   4.385   4.517   3.446
 7431SOL    HW230043   4.378   4.612   3.434
 7431SOL    HW330044   4.394   4.506   3.541
 7431SOL    MW430045   4.386   4.529   3.456
 7432SOL     OW30046   4.106   5.032   3.704
 7432SOL    HW230047   4.178   5.034   3.641
 7432SOL    HW330048   4.076   4.941   3.703
 7432SOL    MW430049   4.111   5.021   3.696
 7433SOL     OW30050   5.190   3.795   3.171
 7433SOL    HW230051   5.261   3.741   3.135
 7433SOL    HW330052   5.189   3.774   3.264
 7433SOL    MW430053   5.199   3.786   3.179
 7434SOL     OW30054   5.390   5.325   3.655
 7434SOL    HW230055   5.363   5.322   3.746
 7434SOL    HW330056   5.486   5.329   3.658
 7434SOL    MW430057   5.400   5.325   3.667
 7435SOL     OW30058   4.201   4.187   2.639
 7435SOL    HW230059   4.272   4.135   2.602
 7435SOL    HW330060   4.187   4.152   2.726
 7435SOL    MW430061   4.209   4.176   2.646
 7436SOL     OW30062   4.837   4.128   2.363
 7436SOL    HW230063   4.859   4.065   2.295
 7436SOL    HW330064   4.742   4.120   2.374
 7436SOL    MW430065   4.827   4.119   2.355
 7437SOL     OW30066   3.922   3.818   2.295
 7437SOL    HW230067   3.993   3.839   2.234
 7437SOL    HW330068   3.876   3.746   2.253
 7437SOL    MW430069   3.926   3.812   2.281
 7438SOL     OW30070   5.491   5.192   2.395
 7438SOL    HW230071   5.461   5.125   2.456
 7438SOL    HW330072   5.585   5.198   2.409
 7438SOL    MW430073   5.499   5.184   2.405
 7439SOL     OW30074   5.047   4.869   2.325
 7439SOL    HW230075   5.019   4.955   2.358
 7439SOL    HW330076   5.075   4.885   2.235
 7439SOL    MW430077   5.047   4.883   2.317
 7440SOL     OW30078   4.709   3.789   2.378
 7440SOL    HW230079   4.746   3.848   2.443
 7440SOL    HW330080   4.686   3.845   2.304
 7440SOL    MW430081   4.710   3.804   2.377
 7441SOL     OW30082   5.562   4.671   2.800
 7441SOL    HW230083   5.553   4.703   2.711
 7441SOL    HW330084   5.515   4.587   2.800
 7441SOL    MW430085   5.555   4.664   2.790
 7442SOL     OW30086   5.474   4.602   2.501
 7442SOL    HW230087   5.568   4.591   2.489
 7442SOL    HW330088   5.450   4.674   2.442
 7442SOL    MW430089   5.484   4.610   2.492
 7443SOL     OW30090   3.923   4.526   3.646
 7443SOL    HW230091   3.849   4.470   3.672
 7443SOL    HW330092   3.918   4.529   3.551
 7443SOL    MW430093   3.912   4.519   3.636
 7444SOL     OW30094   4.089   3.813   3.096
 7444SOL    HW230095   4.132   3.897   3.116
 7444SOL    HW330096   4.162   3.751   3.089
 7444SOL    MW430097   4.104   3.816   3.097
 7445SOL     OW30098   4.130   4.480   2.274
 7445SOL    HW230099   4.130   4.575   2.259
 7445SOL    HW330100   4.207   4.464   2.328
 7445SOL    MW430101   4.140   4.491   2.279
 7446SOL     OW30102   4.906   4.339   3.338
 7446SOL    HW230103   4.942   4.312   3.254
 7446SOL    HW330104   4.819   4.373   3.317
 7446SOL    MW430105   4.900   4.340   3.325
 7447SOL     OW30106   3.889   4.211   2.563
 7447SOL    HW230107   3.951   4.218   2.636
 7447SOL    HW330108   3.889   4.118   2.540
 7447SOL    MW430109   3.897   4.200   2.570
 7448SOL     OW30110   5.436   5.551   2.095
 7448SOL    HW230111   5.503   5.584   2.035
 7448SOL    HW330112   5.393   5.630   2.129
 7448SOL    MW430113   5.438   5.566   2.091
 7449SOL     OW30114   4.571   4.472   3.047
 7449SOL    HW230115   4.529   4.390   3.023
 7449SOL    HW330116   4.572   4.471   3.143
 7449SOL    MW430117   4.564   4.461   3.056
 7450SOL     OW30118   5.242   5.605   3.446
 7450SOL    HW230119   5.245   5.511   3.429
 7450SOL    HW330120   5.265   5.613   3.538
 7450SOL    MW430121   5.245   5.593   3.456
 7451SOL     OW30122   4.375   3.942   3.152
 7451SOL    HW230123   4.306   4.005   3.173
 7451SOL    HW330124   4.402   3.906   3.237
 7451SOL    MW430125   4.369   3.945   3.165
 7452SOL     OW30126   3.758   4.783   2.021
 7452SOL    HW230127   3.727   4.848   2.084
 7452SOL    HW330128   3.707   4.705   2.040
 7452SOL    MW430129   3.748   4.780   2.031
 7453SOL     OW30130   5.170   3.795   2.769
 7453SOL    HW230131   5.258   3.804   2.806
 7453SOL    HW330132   5.180   3.736   2.695
 7453SOL    MW430133   5.184   3.789   2.763
 7454SOL     OW30134   5.202   4.534   2.613
 7454SOL    HW230135   5.282   4.549   2.562
 7454SOL    HW330136   5.195   4.439   2.619
 7454SOL    MW430137   5.211   4.523   2.608
 7455SOL     OW30138   4.652   4.460   3.310
 7455SOL    HW230139   4.721   4.527   3.307
 7455SOL    HW330140   4.585   4.498   3.366
 7455SOL    MW430141   4.653   4.473   3.317
 7456SOL     OW30142   4.070   4.760   3.558
 7456SOL    HW230143   4.024   4.676   3.560
 7456SOL    HW330144   4.127   4.754   3.482
 7456SOL    MW430145   4.072   4.748   3.550
 7457SOL     OW30146   5.187   4.403   1.879
 7457SOL    HW230147   5.115   4.379   1.821
 7457SOL    HW330148   5.253   4.440   1.821
 7457SOL    MW430149   5.186   4.405   1.864
 7458SOL     OW30150   4.582   4.300   2.689
 7458SOL    HW230151   4.522   4.318   2.761
 7458SOL    HW330152   4.616   4.212   2.708
 7458SOL    MW430153   4.578   4.290   2.702
 7459SOL     OW30154   5.523   3.799   3.358
 7459SOL    HW230155   5.444   3.845   3.386
 7459SOL    HW330156   5.558   3.853   3.287
 7459SOL    MW430157   5.517   3.812   3.352
 7460SOL     OW30158   4.600   4.703   2.063
 7460SOL    HW230159   4.586   4.615   2.028
 7460SOL    HW330160   4.551   4.760   2.004
 7460SOL    MW430161   4.592   4.698   2.051
 7461SOL     OW30162   5.081   5.121   2.804
 7461SOL    HW230163   5.054   5.205   2.769
 7461SOL    HW330164   5.041   5.116   2.891
 7461SOL    MW430165   5.074   5.130   2.810
 7462SOL     OW30166   5.000   5.069   3.072
 7462SOL    HW230167   5.011   5.036   3.161
 7462SOL    HW330168   4.919   5.028   3.041
 7462SOL    MW430169   4.990   5.061   3.078
 7463SOL     OW30170   4.013   4.427   2.842
 7463SOL    HW230171   3.963   4.426   2.923
 7463SOL    HW330172   4.033   4.519   2.826
 7463SOL    MW430173   4.009   4.439   2.850
 7464SOL     OW30174   5.080   5.191   3.604
 7464SOL    HW230175   5.080   5.285   3.620
 7464SOL    HW330176   5.125   5.181   3.520
 7464SOL    MW430177   5.086   5.201   3.595
 7465SOL     OW30178   5.319   3.909   2.165
 7465SOL    HW230179   5.312   3.913   2.260
 7465SOL    HW330180   5.331   4.000   2.138
 7465SOL    MW430181   5.320   3.922   2.173
 7466SOL     OW30182   3.935   4.095   3.583
 7466SOL    HW230183   3.892   4.154   3.520
 7466SOL    HW330184   4.003   4.150   3.623
 7466SOL    MW430185   3.939   4.110   3.580
 7467SOL     OW30186   5.047   4.715   3.128
 7467SOL    HW230187   5.110   4.712   3.201
 7467SOL    HW330188   4.963   4.733   3.170
 7467SOL    MW430189   5.043   4.717   3.143
 7468SOL     OW30190   5.386   3.892   2.907
 7468SOL    HW230191   5.431   3.810   2.926
 7468SOL    HW330192   5.406   3.948   2.983
 7468SOL    MW430193   5.396   3.888   2.919
 7469SOL     OW30194   3.834   3.735   3.006
 7469SOL    HW230195   3.825   3.736   2.911
 7469SOL    HW330196   3.928   3.747   3.021
 7469SOL    MW430197   3.846   3.738   2.997
 7470SOL     OW30198   5.471   4.928   2.626
 7470SOL    HW230199   5.450   4.874   2.549
 7470SOL    HW330200   5.567   4.926   2.630
 7470SOL    MW430201   5.480   4.921   2.615
 7471SOL     OW30202   4.163   5.073   3.369
 7471SOL    HW230203   4.084   5.023   3.392
 7471SOL    HW330204   4.233   5.032   3.419
 7471SOL    MW430205   4.161   5.061   3.379
 7472SOL     OW30206   4.047   3.862   2.052
 7472SOL    HW230207   3.976   3.917   2.020
 7472SOL    HW330208   4.089   3.828   1.973
 7472SOL    MW430209   4.043   3.864   2.038
 7473SOL     OW30210   5.171   4.359   2.888
 7473SOL    HW230211   5.094   4.405   2.854
 7473SOL    HW330212   5.228   4.428   2.922
 7473SOL    MW430213   5.168   4.374   2.888
 7474SOL     OW30214   3.803   3.961   1.901
 7474SOL    HW230215   3.770   4.040   1.945
 7474SOL    HW330216   3.858   3.994   1.830
 7474SOL    MW430217   3.806   3.975   1.898
 7475SOL     OW30218   3.837   5.218   2.090
 7475SOL    HW230219   3.854   5.302   2.132
 7475SOL    HW330220   3.872   5.227   2.002
 7475SOL    MW430221   3.842   5.231   2.084
 7476SOL     OW30222   5.472   4.575   3.993
 7476SOL    HW230223   5.513   4.517   4.058
 7476SOL    HW330224   5.379   4.567   4.010
 7476SOL    MW430225   5.466   4.567   4.003
 7477SOL     OW30226   5.338   4.507   4.988
 7477SOL    HW230227   5.293   4.574   5.039
 7477SOL    HW330228   5.426   4.543   4.974
 7477SOL    MW430229   5.344   4.520   4.992
 7478SOL     OW30230   4.266   4.758   4.222
 7478SOL    HW230231   4.356   4.733   4.206
 7478SOL    HW330232   4.262   4.851   4.199
 7478SOL    MW430233   4.278   4.767   4.217
 7479SOL     OW30234   5.382   5.461   4.364
 7479SOL    HW230235   5.394   5.407   4.442
 7479SOL    HW330236   5.419   5.409   4.293
 7479SOL    MW430237   5.388   5.446   4.365
 7480SOL     OW30238   4.761   5.346   5.365
 7480SOL    HW230239   4.802   5.382   5.286
 7480SOL    HW330240   4.796   5.257   5.372
 7480SOL    MW430241   4.772   5.339   5.356
 7481SOL     OW30242   5.318   4.901   4.969
 7481SOL    HW230243   5.239   4.866   4.927
 7481SOL    HW330244   5.345   4.973   4.913
 7481SOL    MW430245   5.311   4.906   4.956
 7482SOL     OW30246   4.550   4.214   4.235
 7482SOL    HW230247   4.525   4.302   4.263
 7482SOL    HW330248   4.547   4.217   4.139
 7482SOL    MW430249   4.546   4.226   4.227
 7483SOL     OW30250   3.992   4.242   4.163
 7483SOL    HW230251   4.024   4.330   4.145
 7483SOL    HW330252   3.980   4.240   4.258
 7483SOL    MW430253   3.995   4.254   4.175
 7484SOL     OW30254   4.070   4.655   5.064
 7484SOL    HW230255   4.133   4.602   5.015
 7484SOL    HW330256   4.051   4.729   5.007
 7484SOL    MW430257   4.076   4.657   5.051
 7485SOL     OW30258   4.391   3.997   4.250
 7485SOL    HW230259   4.449   4.073   4.252
 7485SOL    HW330260   4.326   4.018   4.183
 7485SOL    MW430261   4.390   4.009   4.241
 7486SOL     OW30262   4.478   4.924   4.425
 7486SOL    HW230263   4.558   4.927   4.477
 7486SOL    HW330264   4.506   4.891   4.339
 7486SOL    MW430265   4.492   4.920   4.420
 7487SOL     OW30266   4.503   5.265   5.328
 7487SOL    HW230267   4.587   5.291   5.367
 7487SOL    HW330268   4.527   5.209   5.254
 7487SOL    MW430269   4.517   5.261   5.323
 7488SOL     OW30270   4.255   4.428   4.416
 7488SOL    HW230271   4.240   4.348   4.467
 7488SOL    HW330272   4.337   4.463   4.450
 7488SOL    MW430273   4.263   4.420   4.428
 7489SOL     OW30274   4.592   5.114   5.101
 7489SOL    HW230275   4.556   5.180   5.041
 7489SOL    HW330276   4.520   5.052   5.114
 7489SOL    MW430277   4.578   5.114   5.095
 7490SOL     OW30278   4.397   4.254   4.793
 7490SOL    HW230279   4.303   4.250   4.811
 7490SOL    HW330280   4.427   4.163   4.802
 7490SOL    MW430281   4.388   4.242   4.796
 7491SOL     OW30282   4.143   4.668   4.697
 7491SOL    HW230283   4.098   4.675   4.613
 7491SOL    HW330284   4.123   4.751   4.741
 7491SOL    MW430285   4.135   4.680   4.691
 7492SOL     OW30286   3.840   5.514   4.572
 7492SOL    HW230287   3.929   5.506   4.607
 7492SOL    HW330288   3.804   5.426   4.577
 7492SOL    MW430289   3.847   5.501   4.577
 7493SOL     OW30290   5.105   4.906   3.941
 7493SOL    HW230291   5.023   4.942   3.907
 7493SOL    HW330292   5.173   4.949   3.890
 7493SOL    MW430293   5.103   4.916   3.929
 7494SOL     OW30294   4.104   5.041   4.607
 7494SOL    HW230295   4.080   5.094   4.683
 7494SOL    HW330296   4.160   5.099   4.555
 7494SOL    MW430297   4.108   5.056   4.610
 7495SOL     OW30298   4.666   4.685   4.417
 7495SOL    HW230299   4.580   4.672   4.457
 7495SOL    HW330300   4.719   4.612   4.449
 7495SOL    MW430301   4.662   4.674   4.426
 7496SOL     OW30302   4.074   5.337   5.202
 7496SOL    HW230303   3.982   5.313   5.187
 7496SOL    HW330304   4.118   5.254   5.219
 7496SOL    MW430305   4.068   5.322   5.201
 7497SOL     OW30306   4.657   5.047   4.134
 7497SOL    HW230307   4.634   5.109   4.202
 7497SOL    HW330308   4.614   4.965   4.160
 7497SOL    MW430309   4.649   5.043   4.145
 7498SOL     OW30310   5.530   4.048   4.590
 7498SOL    HW230311   5.467   4.028   4.659
 7498SOL    HW330312   5.520   3.977   4.527
 7498SOL    MW430313   5.520   4.035   4.591
 7499SOL     OW30314   4.154   4.020   4.102
 7499SOL    HW230315   4.128   3.982   4.018
 7499SOL    HW330316   4.091   4.090   4.118
 7499SOL    MW430317   4.143   4.023   4.093
 7500SOL     OW30318   4.651   5.444   3.917
 7500SOL    HW230319   4.606   5.460   4.000
 7500SOL    HW330320   4.582   5.409   3.859
 7500SOL    MW430321   4.637   5.441   3.919
 7501SOL     OW30322   5.586   4.217   3.892
 7501SOL    HW230323   5.495   4.219   3.920
 7501SOL    HW330324   5.631   4.279   3.950
 7501SOL    MW430325   5.579   4.225   3.902
 7502SOL     OW30326   5.331   4.820   4.242
 7502SOL    HW230327   5.241   4.820   4.277
 7502SOL    HW330328   5.324   4.866   4.159
 7502SOL    MW430329   5.318   4.826   4.236
 7503SOL     OW30330   5.131   4.455   5.314
 7503SOL    HW230331   5.200   4.393   5.291
 7503SOL    HW330332   5.056   4.429   5.261
 7503SOL    MW430333   5.131   4.442   5.305
 7504SOL     OW30334   3.872   5.335   4.866
 7504SOL    HW230335   3.855   5.281   4.943
 7504SOL    HW330336   3.860   5.425   4.896
 7504SOL    MW430337   3.869   5.339   4.880
 7505SOL     OW30338   4.867   4.842   5.306
 7505SOL    HW230339   4.852   4.935   5.291
 7505SOL    HW330340   4.962   4.832   5.306
 7505SOL    MW430341   4.876   4.852   5.303
 7506SOL     OW30342   4.663   4.266   5.507
 7506SOL    HW230343   4.753   4.267   5.474
 7506SOL    HW330344   4.622   4.191   5.465
 7506SOL    MW430345   4.669   4.256   5.498
 7507SOL     OW30346   5.238   4.798   4.634
 7507SOL    HW230347   5.241   4.732   4.565
 7507SOL    HW330348   5.323   4.841   4.630
 7507SOL    MW430349   5.250   4.794   4.625
 7508SOL     OW30350   4.858   4.401   4.203
 7508SOL    HW230351   4.884   4.425   4.114
 7508SOL    HW330352   4.840   4.308   4.199
 7508SOL    MW430353   4.860   4.393   4.190
 7509SOL     OW30354   5.523   5.021   4.054
 7509SOL    HW230355   5.479   5.062   4.129
 7509SOL    HW330356   5.580   5.089   4.019
 7509SOL    MW430357   5.525   5.035   4.059
 7510SOL     OW30358   4.443   4.070   5.457
 7510SOL    HW230359   4.453   3.996   5.397
 7510SOL    HW330360   4.479   4.039   5.540
 7510SOL    MW430361   4.449   4.056   5.459
 7511SOL     OW30362   4.179   5.437   4.372
 7511SOL    HW230363   4.211   5.525   4.350
 7511SOL    HW330364   4.132   5.409   4.294
 7511SOL    MW430365   4.178   5.445   4.359
 7512SOL     OW30366   5.563   3.799   4.421
 7512SOL    HW230367   5.617   3.750   4.483
 7512SOL    HW330368   5.506   3.733   4.382
 7512SOL    MW430369   5.563   3.783   4.423
 7513SOL     OW30370   4.682   3.752   4.834
 7513SOL    HW230371   4.641   3.830   4.796
 7513SOL    HW330372   4.776   3.770   4.829
 7513SOL    MW430373   4.688   3.764   4.829
 7514SOL     OW30374   5.299   5.305   3.920
 7514SOL    HW230375   5.347   5.374   3.966
 7514SOL    HW330376   5.220   5.349   3.889
 7514SOL    MW430377   5.294   5.319   3.923
 7515SOL     OW30378   4.697   4.430   3.864
 7515SOL    HW230379   4.699   4.377   3.785
 7515SOL    HW330380   4.785   4.467   3.870
 7515SOL    MW430381   4.709   4.429   3.853
 7516SOL     OW30382   5.311   4.356   4.200
 7516SOL    HW230383   5.350   4.356   4.287
 7516SOL    HW330384   5.252   4.432   4.200
 7516SOL    MW430385   5.308   4.367   4.211
 7517SOL     OW30386   4.628   4.723   5.329
 7517SOL    HW230387   4.605   4.703   5.419
 7517SOL    HW330388   4.713   4.767   5.334
 7517SOL    MW430389   4.635   4.726   5.341
 7518SOL     OW30390   4.708   3.860   5.089
 7518SOL    HW230391   4.714   3.822   5.002
 7518SOL    HW330392   4.697   3.954   5.074
 7518SOL    MW430393   4.709   3.868   5.077
 7519SOL     OW30394   4.797   4.349   4.923
 7519SOL    HW230395   4.872   4.378   4.870
 7519SOL    HW330396   4.729   4.414   4.907
 7519SOL    MW430397   4.798   4.361   4.913
 7520SOL     OW30398   5.347   4.317   5.200
 7520SOL    HW230399   5.328   4.226   5.179
 7520SOL    HW330400   5.325   4.366   5.121
 7520SOL    MW430401   5.342   4.310   5.187
 7521SOL     OW30402   5.489   5.411   5.104
 7521SOL    HW230403   5.417   5.373   5.155
 7521SOL    HW330404   5.506   5.496   5.145
 7521SOL    MW430405   5.483   5.416   5.116
 7522SOL     OW30406   4.794   4.055   5.306
 7522SOL    HW230407   4.760   4.094   5.225
 7522SOL    HW330408   4.772   3.963   5.299
 7522SOL    MW430409   4.787   4.048   5.296
 7523SOL     OW30410   5.203   4.869   5.382
 7523SOL    HW230411   5.285   4.910   5.412
 7523SOL    HW330412   5.166   4.831   5.462
 7523SOL    MW430413   5.209   4.870   5.397
 7524SOL     OW30414   5.498   4.242   4.366
 7524SOL    HW230415   5.587   4.211   4.383
 7524SOL    HW330416   5.441   4.182   4.414
 7524SOL    MW430417   5.501   4.230   4.375
 7525SOL     OW30418   3.924   3.956   4.395
 7525SOL    HW230419   3.915   3.896   4.321
 7525SOL    HW330420   3.857   3.927   4.458
 7525SOL    MW430421   3.914   3.943   4.393
 7526SOL     OW30422   4.867   5.049   3.956
 7526SOL    HW230423   4.817   5.051   4.038
 7526SOL    HW330424   4.801   5.067   3.888
 7526SOL    MW430425   4.853   5.051   3.958
 7527SOL     OW30426   3.871   4.129   4.758
 7527SOL    HW230427   3.843   4.220   4.767
 7527SOL    HW330428   3.808   4.090   4.697
 7527SOL    MW430429   3.858   4.135   4.752
 7528SOL     OW30430   4.330   5.467   4.064
 7528SOL    HW230431   4.251   5.425   4.097
 7528SOL    HW330432   4.396   5.450   4.131
 7528SOL    MW430433   4.329   5.459   4.077
 7529SOL     OW30434   5.458   4.987   5.461
 7529SOL    HW230435   5.508   4.913   5.493
 7529SOL    HW330436   5.404   5.014   5.536
 7529SOL    MW430437   5.458   4.981   5.474
 7530SOL     OW30438   4.466   4.882   3.771
 7530SOL    HW230439   4.388   4.828   3.758
 7530SOL    HW330440   4.437   4.955   3.824
 7530SOL    MW430441   4.452   4.884   3.776
 7531SOL     OW30442   5.592   4.622   4.963
 7531SOL    HW230443   5.608   4.660   4.876
 7531SOL    HW330444   5.626   4.688   5.024
 7531SOL    MW430445   5.599   4.635   4.959
 7532SOL     OW30446   5.384   5.331   4.632
 7532SOL    HW230447   5.413   5.398   4.693
 7532SOL    HW330448   5.365   5.255   4.687
 7532SOL    MW430449   5.386   5.331   4.647
 7533SOL     OW30450   5.047   5.398   3.839
 7533SOL    HW230451   4.973   5.361   3.889
 7533SOL    HW330452   5.055   5.488   3.872
 7533SOL    MW430453   5.038   5.405   3.851
 7534SOL     OW30454   3.855   4.404   4.928
 7534SOL    HW230455   3.917   4.434   4.994
 7534SOL    HW330456   3.789   4.473   4.922
 7534SOL    MW430457   3.854   4.417   4.935
 7535SOL     OW30458   5.271   5.072   3.781
 7535SOL    HW230459   5.218   5.121   3.717
 7535SOL    HW330460   5.302   5.138   3.842
 7535SOL    MW430461   5.269   5.086   3.779
 7536SOL     OW30462   4.496   3.961   3.836
 7536SOL    HW230463   4.444   3.881   3.824
 7536SOL    HW330464   4.583   3.938   3.804
 7536SOL    MW430465   4.499   3.947   3.830
 7537SOL     OW30466   3.950   5.513   5.380
 7537SOL    HW230467   3.924   5.581   5.318
 7537SOL    HW330468   3.998   5.450   5.328
 7537SOL    MW430469   3.952   5.513   5.366
 7538SOL     OW30470   4.002   4.832   4.887
 7538SOL    HW230471   4.055   4.907   4.912
 7538SOL    HW330472   3.921   4.870   4.853
 7538SOL    MW430473   3.998   4.847   4.887
 7539SOL     OW30474   4.542   4.736   4.875
 7539SOL    HW230475   4.570   4.645   4.887
 7539SOL    HW330476   4.471   4.730   4.811
 7539SOL    MW430477   4.535   4.724   4.870
 7540SOL     OW30478   3.857   4.601   4.293
 7540SOL    HW230479   3.948   4.616   4.320
 7540SOL    HW330480   3.860   4.522   4.239
 7540SOL    MW430481   3.869   4.593   4.291
 7541SOL     OW30482   4.093   4.309   5.547
 7541SOL    HW230483   4.040   4.389   5.554
 7541SOL    HW330484   4.163   4.321   5.612
 7541SOL    MW430485   4.095   4.322   5.555
 7542SOL     OW30486   4.479   3.859   5.254
 7542SOL    HW230487   4.456   3.767   5.256
 7542SOL    HW330488   4.565   3.861   5.211
 7542SOL    MW430489   4.486   3.849   5.250
 7543SOL     OW30490   4.163   4.383   5.293
 7543SOL    HW230491   4.243   4.433   5.279
 7543SOL    HW330492   4.154   4.377   5.388
 7543SOL    MW430493   4.172   4.389   5.303
 7544SOL     OW30494   4.484   5.533   4.667
 7544SOL    HW230495   4.573   5.548   4.697
 7544SOL    HW330496   4.479   5.580   4.583
 7544SOL    MW430497   4.494   5.541   4.660
 7545SOL     OW30498   5.140   3.908   5.564
 7545SOL    HW230499   5.196   3.835   5.590
 7545SOL    HW330500   5.110   3.946   5.646
 7545SOL    MW430501   5.144   3.903   5.577
 7546SOL     OW30502   3.865   5.213   4.332
 7546SOL    HW230503   3.837   5.252   4.414
 7546SOL    HW330504   3.885   5.122   4.354
 7546SOL    MW430505   3.863   5.205   4.345
 7547SOL     OW30506   4.698   5.256   4.367
 7547SOL    HW230507   4.781   5.210   4.351
 7547SOL    HW330508   4.688   5.255   4.463
 7547SOL    MW430509   4.708   5.249   4.377
 7548SOL     OW30510   5.530   4.401   4.681
 7548SOL    HW230511   5.619   4.431   4.663
 7548SOL    HW330512   5.510   4.341   4.610
 7548SOL    MW430513   5.539   4.398   4.670
 7549SOL     OW30514   5.381   4.580   5.561
 7549SOL    HW230515   5.436   4.504   5.542
 7549SOL    HW330516   5.383   4.588   5.656
 7549SOL    MW430517   5.389   4.571   5.569
 7550SOL     OW30518   4.431   5.313   3.772
 7550SOL    HW230519   4.371   5.382   3.742
 7550SOL    HW330520   4.376   5.255   3.825
 7550SOL    MW430521   4.415   5.315   3.774
 7551SOL     OW30522   4.869   3.958   3.995
 7551SOL    HW230523   4.802   3.934   3.932
 7551SOL    HW330524   4.934   4.007   3.944
 7551SOL    MW430525   4.869   3.960   3.980
 7552SOL     OW30526   4.676   4.142   5.080
 7552SOL    HW230527   4.595   4.183   5.108
 7552SOL    HW330528   4.723   4.210   5.032
 7552SOL    MW430529   4.671   4.157   5.078
 7553SOL     OW30530   4.936   4.480   4.703
 7553SOL    HW230531   4.949   4.574   4.713
 7553SOL    HW330532   4.897   4.470   4.617
 7553SOL    MW430533   4.932   4.491   4.693
 7554SOL     OW30534   4.388   4.675   4.507
 7554SOL    HW230535   4.299   4.666   4.540
 7554SOL    HW330536   4.392   4.765   4.475
 7554SOL    MW430537   4.377   4.686   4.507
 7555SOL     OW30538   5.187   4.258   4.502
 7555SOL    HW230539   5.132   4.179   4.501
 7555SOL    HW330540   5.169   4.299   4.586
 7555SOL    MW430541   5.177   4.253   4.511
 7556SOL     OW30542   4.158   3.945   5.319
 7556SOL    HW230543   4.079   3.963   5.371
 7556SOL    HW330544   4.153   4.007   5.246
 7556SOL    MW430545   4.148   3.955   5.316
 7557SOL     OW30546   4.806   4.462   4.459
 7557SOL    HW230547   4.743   4.394   4.483
 7557SOL    HW330548   4.826   4.443   4.367
 7557SOL    MW430549   4.800   4.449   4.451
 7558SOL     OW30550   4.062   5.357   4.161
 7558SOL    HW230551   4.023   5.404   4.087
 7558SOL    HW330552   3.996   5.292   4.186
 7558SOL    MW430553   4.049   5.355   4.155
 7559SOL     OW30554   4.554   4.766   4.185
 7559SOL    HW230555   4.556   4.740   4.092
 7559SOL    HW330556   4.612   4.703   4.228
 7559SOL    MW430557   4.562   4.755   4.179
 7560SOL     OW30558   5.107   5.326   4.957
 7560SOL    HW230559   5.032   5.372   4.995
 7560SOL    HW330560   5.089   5.233   4.974
 7560SOL    MW430561   5.096   5.320   4.965
 7561SOL     OW30562   5.111   5.534   4.387
 7561SOL    HW230563   5.054   5.487   4.326
 7561SOL    HW330564   5.197   5.495   4.374
 7561SOL    MW430565   5.114   5.525   4.377
 7562SOL     OW30566   5.064   4.010   4.518
 7562SOL    HW230567   5.092   3.942   4.579
 7562SOL    HW330568   4.978   3.981   4.488
 7562SOL    MW430569   5.057   3.997   4.522
 7563SOL     OW30570   3.869   4.944   4.452
 7563SOL    HW230571   3.933   4.976   4.515
 7563SOL    HW330572   3.918   4.880   4.400
 7563SOL    MW430573   3.884   4.940   4.453
 7564SOL     OW30574   4.369   5.020   5.434
 7564SOL    HW230575   4.417   5.103   5.421
 7564SOL    HW330576   4.426   4.968   5.490
 7564SOL    MW430577   4.383   5.024   5.440
 7565SOL     OW30578   3.945   5.262   5.574
 7565SOL    HW230579   4.001   5.186   5.589
 7565SOL    HW330580   3.894   5.240   5.496
 7565SOL    MW430581   3.945   5.249   5.565
 7566SOL     OW30582   5.044   4.114   3.853
 7566SOL    HW230583   5.017   4.180   3.789
 7566SOL    HW330584   5.114   4.157   3.903
 7566SOL    MW430585   5.049   4.127   3.850
 7567SOL     OW30586   4.712   3.819   3.790
 7567SOL    HW230587   4.768   3.811   3.712
 7567SOL    HW330588   4.689   3.729   3.812
 7567SOL    MW430589   4.717   3.806   3.783
 7568SOL     OW30590   5.217   4.670   3.995
 7568SOL    HW230591   5.184   4.759   3.985
 7568SOL    HW330592   5.182   4.641   4.080
 7568SOL    MW430593   5.207   4.679   4.006
 7569SOL     OW30594   4.830   5.099   5.183
 7569SOL    HW230595   4.741   5.105   5.151
 7569SOL    HW330596   4.874   5.178   5.151
 7569SOL    MW430597   4.825   5.109   5.175
 7570SOL     OW30598   4.123   3.767   5.525
 7570SOL    HW230599   4.051   3.732   5.473
 7570SOL    HW330600   4.181   3.808   5.460
 7570SOL    MW430601   4.121   3.768   5.510
 7571SOL     OW30602   4.147   5.257   4.824
 7571SOL    HW230603   4.192   5.319   4.881
 7571SOL    HW330604   4.054   5.276   4.837
 7571SOL    MW430605   4.140   5.267   4.831
 7572SOL     OW30606   5.587   4.786   5.178
 7572SOL    HW230607   5.502   4.799   5.137
 7572SOL    HW330608   5.567   4.750   5.265
 7572SOL    MW430609   5.574   4.782   5.183
 7573SOL     OW30610   4.569   5.325   4.932
 7573SOL    HW230611   4.593   5.314   4.841
 7573SOL    HW330612   4.492   5.382   4.930
 7573SOL    MW430613   4.561   5.330   4.921
 7574SOL     OW30614   4.211   4.708   3.787
 7574SOL    HW230615   4.134   4.721   3.843
 7574SOL    HW330616   4.175   4.672   3.706
 7574SOL    MW430617   4.197   4.704   3.784
 7575SOL     OW30618   4.864   4.681   4.030
 7575SOL    HW230619   4.774   4.702   4.005
 7575SOL    HW330620   4.891   4.754   4.086
 7575SOL    MW430621   4.856   4.693   4.033
 7576SOL     OW30622   4.364   5.030   4.722
 7576SOL    HW230623   4.357   5.009   4.816
 7576SOL    HW330624   4.282   4.998   4.685
 7576SOL    MW430625   4.352   5.024   4.729
 7577SOL     OW30626   5.228   4.040   5.124
 7577SOL    HW230627   5.175   4.042   5.204
 7577SOL    HW330628   5.213   3.953   5.087
 7577SOL    MW430629   5.220   4.030   5.129
 7578SOL     OW30630   5.564   3.964   4.997
 7578SOL    HW230631   5.545   4.031   4.932
 7578SOL    HW330632   5.621   3.902   4.952
 7578SOL    MW430633   5.568   3.965   4.983
 7579SOL     OW30634   3.810   5.122   5.385
 7579SOL    HW230635   3.854   5.055   5.331
 7579SOL    HW330636   3.725   5.084   5.405
 7579SOL    MW430637   3.805   5.108   5.381
 7580SOL     OW30638   4.493   3.797   4.437
 7580SOL    HW230639   4.422   3.858   4.419
 7580SOL    HW330640   4.544   3.794   4.356
 7580SOL    MW430641   4.489   3.803   4.424
 7581SOL     OW30642   4.251   5.037   4.186
 7581SOL    HW230643   4.244   5.069   4.276
 7581SOL    HW330644   4.161   5.021   4.158
 7581SOL    MW430645   4.239   5.039   4.193
 7582SOL     OW30646   4.846   5.430   5.095
 7582SOL    HW230647   4.766   5.415   5.045
 7582SOL    HW330648   4.853   5.525   5.102
 7582SOL    MW430649   4.837   5.441   5.089
 7583SOL     OW30650   4.960   5.395   4.585
 7583SOL    HW230651   5.007   5.468   4.544
 7583SOL    HW330652   4.881   5.434   4.621
 7583SOL    MW430653   4.955   5.410   4.584
 7584SOL     OW30654   5.368   5.490   4.860
 7584SOL    HW230655   5.411   5.460   4.940
 7584SOL    HW330656   5.287   5.438   4.857
 7584SOL    MW430657   5.363   5.479   4.870
 7585SOL     OW30658   4.453   4.454   5.567
 7585SOL    HW230659   4.523   4.396   5.539
 7585SOL    HW330660   4.396   4.399   5.622
 7585SOL    MW430661   4.455   4.441   5.571
 7586SOL     OW30662   5.240   4.666   5.200
 7586SOL    HW230663   5.245   4.719   5.280
 7586SOL    HW330664   5.202   4.583   5.228
 7586SOL    MW430665   5.236   4.661   5.215
 7587SOL     OW30666   4.880   3.801   5.446
 7587SOL    HW230667   4.875   3.708   5.427
 7587SOL    HW330668   4.963   3.812   5.492
 7587SOL    MW430669   4.888   3.790   5.450
 7588SOL     OW30670   4.254   4.321   3.900
 7588SOL    HW230671   4.220   4.377   3.970
 7588SOL    HW330672   4.325   4.271   3.940
 7588SOL    MW430673   4.260   4.322   3.914
 7589SOL     OW30674   5.350   5.072   4.722
 7589SOL    HW230675   5.385   5.054   4.635
 7589SOL    HW330676   5.255   5.073   4.709
 7589SOL    MW430677   5.342   5.069   4.709
 7590SOL     OW30678   4.779   4.720   5.091
 7590SOL    HW230679   4.822   4.755   5.169
 7590SOL    HW330680   4.762   4.797   5.037
 7590SOL    MW430681   4.782   4.735   5.094
 7591SOL     OW30682   5.310   4.207   3.964
 7591SOL    HW230683   5.302   4.278   3.901
 7591SOL    HW330684   5.328   4.251   4.047
 7591SOL    MW430685   5.311   4.221   3.966
 7592SOL     OW30686   4.170   3.862   4.393
 7592SOL    HW230687   4.220   3.905   4.324
 7592SOL    HW330688   4.085   3.906   4.393
 7592SOL    MW430689   4.167   3.875   4.384
 7593SOL     OW30690   3.929   4.924   5.253
 7593SOL    HW230691   3.957   4.877   5.331
 7593SOL    HW330692   3.850   4.879   5.224
 7593SOL    MW430693   3.922   4.913   5.259
 7594SOL     OW30694   4.437   4.251   5.220
 7594SOL    HW230695   4.409   4.339   5.244
 7594SOL    HW330696   4.406   4.195   5.291
 7594SOL    MW430697   4.429   4.254   5.232
 7595SOL     OW30698   4.979   4.469   3.939
 7595SOL    HW230699   5.026   4.487   3.858
 7595SOL    HW330700   4.945   4.553   3.967
 7595SOL    MW430701   4.981   4.483   3.932
 7596SOL     OW30702   4.092   4.647   4.433
 7596SOL    HW230703   4.150   4.703   4.381
 7596SOL    HW330704   4.136   4.562   4.435
 7596SOL    MW430705   4.105   4.644   4.426
 7597SOL     OW30706   5.232   3.999   4.270
 7597SOL    HW230707   5.154   3.949   4.295
 7597SOL    HW330708   5.203   4.090   4.270
 7597SOL    MW430709   5.218   4.003   4.273
 7598SOL     OW30710   4.818   3.961   4.429
 7598SOL    HW230711   4.838   4.036   4.373
 7598SOL    HW330712   4.798   4.000   4.514
 7598SOL    MW430713   4.819   3.977   4.433
 7599SOL     OW30714   4.714   5.211   3.761
 7599SOL    HW230715   4.741   5.289   3.713
 7599SOL    HW330716   4.621   5.226   3.780
 7599SOL    MW430717   4.705   5.224   3.757
 7600SOL     OW30718   5.578   4.734   5.448
 7600SOL    HW230719   5.491   4.714   5.484
 7600SOL    HW330720   5.632   4.660   5.473
 7600SOL    MW430721   5.573   4.723   5.456
 7601SOL     OW30722   3.799   5.247   4.605
 7601SOL    HW230723   3.831   5.251   4.696
 7601SOL    HW330724   3.704   5.255   4.613
 7601SOL    MW430725   3.791   5.250   4.618
 7602SOL     OW30726   3.754   4.373   4.152
 7602SOL    HW230727   3.694   4.345   4.222
 7602SOL    HW330728   3.828   4.313   4.158
 7602SOL    MW430729   3.756   4.362   4.161
 7603SOL     OW30730   5.322   5.585   5.586
 7603SOL    HW230731   5.367   5.509   5.551
 7603SOL    HW330732   5.360   5.598   5.673
 7603SOL    MW430733   5.332   5.578   5.592
 7604SOL     OW30734   4.922   5.104   4.312
 7604SOL    HW230735   4.945   5.055   4.390
 7604SOL    HW330736   5.003   5.146   4.284
 7604SOL    MW430737   4.935   5.104   4.319
 7605SOL     OW30738   4.180   4.112   5.041
 7605SOL    HW230739   4.213   4.193   5.081
 7605SOL    HW330740   4.153   4.138   4.953
 7605SOL    MW430741   4.179   4.126   5.035
 7606SOL     OW30742   4.134   4.079   4.777
 7606SOL    HW230743   4.164   3.993   4.748
 7606SOL    HW330744   4.039   4.072   4.780
 7606SOL    MW430745   4.126   4.068   4.775
 7607SOL     OW30746   4.963   4.288   5.468
 7607SOL    HW230747   5.015   4.223   5.421
 7607SOL    HW330748   4.921   4.339   5.398
 7607SOL    MW430749   4.964   4.285   5.451
 7608SOL     OW30750   5.062   4.083   5.329
 7608SOL    HW230751   4.969   4.067   5.316
 7608SOL    HW330752   5.088   4.021   5.397
 7608SOL    MW430753   5.052   4.073   5.336
 7609SOL     OW30754   4.277   3.857   4.668
 7609SOL    HW230755   4.287   3.766   4.694
 7609SOL    HW330756   4.233   3.853   4.583
 7609SOL    MW430757   4.273   3.845   4.660
 7610SOL     OW30758   4.371   5.472   5.214
 7610SOL    HW230759   4.288   5.457   5.259
 7610SOL    HW330760   4.430   5.405   5.249
 7610SOL    MW430761   4.369   5.462   5.224
 7611SOL     OW30762   5.428   4.179   4.839
 7611SOL    HW230763   5.361   4.212   4.899
 7611SOL    HW330764   5.471   4.257   4.805
 7611SOL    MW430765   5.426   4.194   4.843
 7612SOL     OW30766   5.606   4.899   4.809
 7612SOL    HW230767   5.599   4.839   4.734
 7612SOL    HW330768   5.532   4.959   4.798
 7612SOL    MW430769   5.596   4.899   4.798
 7613SOL     OW30770   4.988   4.761   4.727
 7613SOL    HW230771   5.002   4.733   4.818
 7613SOL    HW330772   5.074   4.792   4.699
 7613SOL    MW430773   5.001   4.762   4.736
 7614SOL     OW30774   5.071   4.256   5.006
 7614SOL    HW230775   5.092   4.257   4.913
 7614SOL    HW330776   5.116   4.178   5.039
 7614SOL    MW430777   5.078   4.246   4.998
 7615SOL     OW30778   5.564   4.387   5.548
 7615SOL    HW230779   5.601   4.332   5.617
 7615SOL    HW330780   5.589   4.344   5.466
 7615SOL    MW430781   5.571   4.375   5.547
 7616SOL     OW30782   5.111   4.685   5.600
 7616SOL    HW230783   5.177   4.633   5.554
 7616SOL    HW330784   5.131   4.672   5.693
 7616SOL    MW430785   5.122   4.676   5.607
 7617SOL     OW30786   5.062   3.771   3.948
 7617SOL    HW230787   5.136   3.815   3.991
 7617SOL    HW330788   4.986   3.825   3.970
 7617SOL    MW430789   5.062   3.783   3.956
 7618SOL     OW30790   5.122   4.546   4.226
 7618SOL    HW230791   5.037   4.516   4.196
 7618SOL    HW330792   5.114   4.553   4.321
 7618SOL    MW430793   5.110   4.544   4.235
 7619SOL     OW30794   4.198   5.009   4.957
 7619SOL    HW230795   4.210   5.036   5.048
 7619SOL    HW330796   4.179   5.090   4.910
 7619SOL    MW430797   4.197   5.024   4.962
 7620SOL     OW30798   4.482   3.989   4.780
 7620SOL    HW230799   4.455   3.991   4.871
 7620SOL    HW330800   4.412   3.941   4.735
 7620SOL    MW430801   4.470   3.985   4.787
 7621SOL     OW30802   4.336   5.481   4.942
 7621SOL    HW230803   4.388   5.558   4.919
 7621SOL    HW330804   4.345   5.473   5.037
 7621SOL    MW430805   4.345   5.488   4.953
 7622SOL     OW30806   5.238   5.066   5.174
 7622SOL    HW230807   5.223   4.995   5.237
 7622SOL    HW330808   5.284   5.024   5.102
 7622SOL    MW430809   5.244   5.050   5.174
 7623SOL     OW30810   4.312   4.797   5.291
 7623SOL    HW230811   4.349   4.802   5.203
 7623SOL    HW330812   4.351   4.870   5.338
 7623SOL    MW430813   4.322   4.807   5.286
 7624SOL     OW30814   4.492   4.840   5.103
 7624SOL    HW230815   4.551   4.786   5.156
 7624SOL    HW330816   4.507   4.812   5.013
 7624SOL    MW430817   4.502   4.829   5.099
 7625SOL     OW30818   4.495   4.212   3.952
 7625SOL    HW230819   4.568   4.261   3.915
 7625SOL    HW330820   4.511   4.121   3.926
 7625SOL    MW430821   4.507   4.207   3.945
 7626SOL     OW30822   5.303   5.329   5.275
 7626SOL    HW230823   5.345   5.314   5.360
 7626SOL    HW330824   5.294   5.242   5.237
 7626SOL    MW430825   5.307   5.317   5.282
 7627SOL     OW30826   4.963   3.808   4.866
 7627SOL    HW230827   5.018   3.817   4.788
 7627SOL    HW330828   5.018   3.842   4.937
 7627SOL    MW430829   4.977   3.813   4.865
 7628SOL     OW30830   4.326   5.075   3.909
 7628SOL    HW230831   4.341   5.051   4.001
 7628SOL    HW330832   4.234   5.053   3.893
 7628SOL    MW430833   4.316   5.068   3.919
 7629SOL     OW30834   4.865   5.306   4.061
 7629SOL    HW230835   4.873   5.224   4.012
 7629SOL    HW330836   4.784   5.345   4.028
 7629SOL    MW430837   4.855   5.301   4.051
 7630SOL     OW30838   4.124   5.464   4.630
 7630SOL    HW230839   4.128   5.375   4.665
 7630SOL    HW330840   4.150   5.455   4.539
 7630SOL    MW430841   4.127   5.452   4.622
 7631SOL     OW30842   4.741   4.942   4.873
 7631SOL    HW230843   4.673   4.876   4.889
 7631SOL    HW330844   4.759   4.936   4.780
 7631SOL    MW430845   4.734   4.933   4.864
 7632SOL     OW30846   3.830   5.217   5.124
 7632SOL    HW230847   3.820   5.175   5.210
 7632SOL    HW330848   3.751   5.270   5.114
 7632SOL    MW430849   3.819   5.218   5.135
 7633SOL     OW30850   4.734   4.081   4.694
 7633SOL    HW230851   4.664   4.033   4.739
 7633SOL    HW330852   4.766   4.144   4.758
 7633SOL    MW430853   4.729   4.083   4.708
 7634SOL     OW30854   4.385   4.517   5.314
 7634SOL    HW230855   4.378   4.612   5.302
 7634SOL    HW330856   4.394   4.506   5.409
 7634SOL    MW430857   4.386   4.529   5.324
 7635SOL     OW30858   4.106   5.032   5.572
 7635SOL    HW230859   4.178   5.034   5.509
 7635SOL    HW330860   4.076   4.941   5.571
 7635SOL    MW430861   4.111   5.021   5.564
 7636SOL     OW30862   5.190   3.795   5.039
 7636SOL    HW230863   5.261   3.741   5.003
 7636SOL    HW330864   5.189   3.774   5.132
 7636SOL    MW430865   5.199   3.786   5.047
 7637SOL     OW30866   5.390   5.325   5.523
 7637SOL    HW230867   5.363   5.322   5.614
 7637SOL    HW330868   5.486   5.329   5.526
 7637SOL    MW430869   5.400   5.325   5.535
 7638SOL     OW30870   4.201   4.187   4.507
 7638SOL    HW230871   4.272   4.135   4.470
 7638SOL    HW330872   4.187   4.152   4.594
 7638SOL    MW430873   4.209   4.176   4.514
 7639SOL     OW30874   3.756   5.522   5.579
 7639SOL    HW230875   3.806   5.500   5.501
 7639SOL    HW330876   3.764   5.617   5.587
 7639SOL    MW430877   3.764   5.531   5.570
 7640SOL     OW30878   4.517   5.280   4.583
 7640SOL    HW230879   4.445   5.217   4.596
 7640SOL    HW330880   4.478   5.365   4.601
 7640SOL    MW430881   4.501   5.283   4.586
 7641SOL     OW30882   4.837   4.128   4.231
 7641SOL    HW230883   4.859   4.065   4.163
 7641SOL    HW330884   4.742   4.120   4.242
 7641SOL    MW430885   4.827   4.119   4.223
 7642SOL     OW30886   3.922   3.818   4.163
 7642SOL    HW230887   3.993   3.839   4.102
 7642SOL    HW330888   3.876   3.746   4.121
 7642SOL    MW430889   3.926   3.812   4.149
 7643SOL     OW30890   3.753   4.285   5.306
 7643SOL    HW230891   3.817   4.351   5.281
 7643SOL    HW330892   3.672   4.312   5.263
 7643SOL    MW430893   3.751   4.297   5.298
 7644SOL     OW30894   5.491   5.192   4.263
 7644SOL    HW230895   5.461   5.125   4.324
 7644SOL    HW330896   5.585   5.198   4.277
 7644SOL    MW430897   5.499   5.184   4.273
 7645SOL     OW30898   5.047   4.869   4.193
 7645SOL    HW230899   5.019   4.955   4.226
 7645SOL    HW330900   5.075   4.885   4.103
 7645SOL    MW430901   5.047   4.883   4.185
 7646SOL     OW30902   4.709   3.789   4.246
 7646SOL    HW230903   4.746   3.848   4.311
 7646SOL    HW330904   4.686   3.845   4.172
 7646SOL    MW430905   4.710   3.804   4.245
 7647SOL     OW30906   5.562   4.671   4.668
 7647SOL    HW230907   5.553   4.703   4.579
 7647SOL    HW330908   5.515   4.587   4.668
 7647SOL    MW430909   5.555   4.664   4.658
 7648SOL     OW30910   3.938   4.511   5.247
 7648SOL    HW230911   3.959   4.580   5.185
 7648SOL    HW330912   4.018   4.458   5.252
 7648SOL    MW430913   3.951   4.512   5.241
 7649SOL     OW30914   5.474   4.602   4.369
 7649SOL    HW230915   5.568   4.591   4.357
 7649SOL    HW330916   5.450   4.674   4.310
 7649SOL    MW430917   5.484   4.610   4.360
 7650SOL     OW30918   3.923   4.526   5.514
 7650SOL    HW230919   3.849   4.470   5.540
 7650SOL    HW330920   3.918   4.529   5.419
 7650SOL    MW430921   3.912   4.519   5.504
 7651SOL     OW30922   4.089   3.813   4.964
 7651SOL    HW230923   4.132   3.897   4.984
 7651SOL    HW330924   4.162   3.751   4.957
 7651SOL    MW430925   4.104   3.816   4.965
 7652SOL     OW30926   4.130   4.480   4.142
 7652SOL    HW230927   4.130   4.575   4.127
 7652SOL    HW330928   4.207   4.464   4.196
 7652SOL    MW430929   4.140   4.491   4.147
 7653SOL     OW30930   4.906   4.339   5.206
 7653SOL    HW230931   4.942   4.312   5.122
 7653SOL    HW330932   4.819   4.373   5.185
 7653SOL    MW430933   4.900   4.340   5.193
 7654SOL     OW30934   3.889   4.211   4.431
 7654SOL    HW230935   3.951   4.218   4.504
 7654SOL    HW330936   3.889   4.118   4.408
 7654SOL    MW430937   3.897   4.200   4.438
 7655SOL     OW30938   5.436   5.551   3.963
 7655SOL    HW230939   5.503   5.584   3.903
 7655SOL    HW330940   5.393   5.630   3.997
 7655SOL    MW430941   5.438   5.566   3.959
 7656SOL     OW30942   4.571   4.472   4.915
 7656SOL    HW230943   4.529   4.390   4.891
 7656SOL    HW330944   4.572   4.471   5.011
 7656SOL    MW430945   4.564   4.461   4.924
 7657SOL     OW30946   5.242   5.605   5.314
 7657SOL    HW230947   5.245   5.511   5.297
 7657SOL    HW330948   5.265   5.613   5.406
 7657SOL    MW430949   5.245   5.593   5.324
 7658SOL     OW30950   4.375   3.942   5.020
 7658SOL    HW230951   4.306   4.005   5.041
 7658SOL    HW330952   4.402   3.906   5.105
 7658SOL    MW430953   4.369   3.945   5.033
 7659SOL     OW30954   5.170   3.795   4.637
 7659SOL    HW230955   5.258   3.804   4.674
 7659SOL    HW330956   5.180   3.736   4.563
 7659SOL    MW430957   5.184   3.789   4.631
 7660SOL     OW30958   5.202   4.534   4.481
 7660SOL    HW230959   5.282   4.549   4.430
 7660SOL    HW330960   5.195   4.439   4.487
 7660SOL    MW430961   5.211   4.523   4.476
 7661SOL     OW30962   4.652   4.460   5.178
 7661SOL    HW230963   4.721   4.527   5.175
 7661SOL    HW330964   4.585   4.498   5.234
 7661SOL    MW430965   4.653   4.473   5.185
 7662SOL     OW30966   4.070   4.760   5.426
 7662SOL    HW230967   4.024   4.676   5.428
 7662SOL    HW330968   4.127   4.754   5.350
 7662SOL    MW430969   4.072   4.748   5.418
 7663SOL     OW30970   5.187   4.403   3.747
 7663SOL    HW230971   5.115   4.379   3.689
 7663SOL    HW330972   5.253   4.440   3.689
 7663SOL    MW430973   5.186   4.405   3.732
 7664SOL     OW30974   4.321   5.135   4.427
 7664SOL    HW230975   4.386   5.068   4.448
 7664SOL    HW330976   4.373   5.212   4.404
 7664SOL    MW430977   4.336   5.137   4.426
 7665SOL     OW30978   4.582   4.300   4.557
 7665SOL    HW230979   4.522   4.318   4.629
 7665SOL    HW330980   4.616   4.212   4.576
 7665SOL    MW430981   4.578   4.290   4.570
 7666SOL     OW30982   5.523   3.799   5.226
 7666SOL    HW230983   5.444   3.845   5.254
 7666SOL    HW330984   5.558   3.853   5.155
 7666SOL    MW430985   5.517   3.812   5.220
 7667SOL     OW30986   4.807   4.883   4.576
 7667SOL    HW230987   4.899   4.864   4.594
 7667SOL    HW330988   4.780   4.813   4.516
 7667SOL    MW430989   4.815   4.871   4.570
 7668SOL     OW30990   4.600   4.703   3.931
 7668SOL    HW230991   4.586   4.615   3.896
 7668SOL    HW330992   4.551   4.760   3.872
 7668SOL    MW430993   4.592   4.698   3.919
 7669SOL     OW30994   5.081   5.121   4.672
 7669SOL    HW230995   5.054   5.205   4.637
 7669SOL    HW330996   5.041   5.116   4.759
 7669SOL    MW430997   5.074   5.130   4.678
 7670SOL     OW30998   5.000   5.069   4.940
 7670SOL    HW230999   5.011   5.036   5.029
 7670SOL    HW331000   4.919   5.028   4.909
 7670SOL    MW431001   4.990   5.061   4.946
 7671SOL     OW31002   4.013   4.427   4.710
 7671SOL    HW231003   3.963   4.426   4.791
 7671SOL    HW331004   4.033   4.519   4.694
 7671SOL    MW431005   4.009   4.439   4.718
 7672SOL     OW31006   5.080   5.191   5.472
 7672SOL    HW231007   5.080   5.285   5.488
 7672SOL    HW331008   5.125   5.181   5.388
 7672SOL    MW431009   5.086   5.201   5.463
 7673SOL     OW31010   5.319   3.909   4.033
 7673SOL    HW231011   5.312   3.913   4.128
 7673SOL    HW331012   5.331   4.000   4.006
 7673SOL    MW431013   5.320   3.922   4.041
 7674SOL     OW31014   4.608   4.472   4.147
 7674SOL    HW231015   4.588   4.458   4.054
 7674SOL    HW331016   4.701   4.451   4.154
 7674SOL    MW431017   4.618   4.467   4.136
 7675SOL     OW31018   3.935   4.095   5.451
 7675SOL    HW231019   3.892   4.154   5.388
 7675SOL    HW331020   4.003   4.150   5.491
 7675SOL    MW431021   3.939   4.110   5.448
 7676SOL     OW31022   5.047   4.715   4.996
 7676SOL    HW231023   5.110   4.712   5.069
 7676SOL    HW331024   4.963   4.733   5.038
 7676SOL    MW431025   5.043   4.717   5.011
 7677SOL     OW31026   4.591   5.430   4.185
 7677SOL    HW231027   4.649   5.501   4.212
 7677SOL    HW331028   4.614   5.358   4.243
 7677SOL    MW431029   4.602   5.430   4.196
 7678SOL     OW31030   5.386   3.892   4.775
 7678SOL    HW231031   5.431   3.810   4.794
 7678SOL    HW331032   5.406   3.948   4.851
 7678SOL    MW431033   5.396   3.888   4.787
 7679SOL     OW31034   3.834   3.735   4.874
 7679SOL    HW231035   3.825   3.736   4.779
 7679SOL    HW331036   3.928   3.747   4.889
 7679SOL    MW431037   3.846   3.738   4.865
 7680SOL     OW31038   5.471   4.928   4.494
 7680SOL    HW231039   5.450   4.874   4.417
 7680SOL    HW331040   5.567   4.926   4.498
 7680SOL    MW431041   5.480   4.921   4.483
 7681SOL     OW31042   4.163   5.073   5.237
 7681SOL    HW231043   4.084   5.023   5.260
 7681SOL    HW331044   4.233   5.032   5.287
 7681SOL    MW431045   4.161   5.061   5.247
 7682SOL     OW31046   4.047   3.862   3.920
 7682SOL    HW231047   3.976   3.917   3.888
 7682SOL    HW331048   4.089   3.828   3.841
 7682SOL    MW431049   4.043   3.864   3.906
 7683SOL     OW31050   5.171   4.359   4.756
 7683SOL    HW231051   5.094   4.405   4.722
 7683SOL    HW331052   5.228   4.428   4.790
 7683SOL    MW431053   5.168   4.374   4.756
 7684SOL     OW31054   3.803   3.961   3.769
 7684SOL    HW231055   3.770   4.040   3.813
 7684SOL    HW331056   3.858   3.994   3.698
 7684SOL    MW431057   3.806   3.975   3.766
 7685SOL     OW31058   3.837   5.218   3.958
 7685SOL    HW231059   3.854   5.302   4.000
 7685SOL    HW331060   3.872   5.227   3.870
 7685SOL    MW431061   3.842   5.231   3.952
 7686SOL     OW31062   5.109   5.307   4.175
 7686SOL    HW231063   5.172   5.297   4.104
 7686SOL    HW331064   5.026   5.327   4.130
 7686SOL    MW431065   5.106   5.308   4.160
 7687SOL     OW31066   5.472   4.575   5.862
 7687SOL    HW231067   5.513   4.517   5.927
 7687SOL    HW331068   5.379   4.567   5.879
 7687SOL    MW431069   5.466   4.567   5.872
 7688SOL     OW31070   4.266   4.758   6.091
 7688SOL    HW231071   4.356   4.733   6.075
 7688SOL    HW331072   4.262   4.851   6.068
 7688SOL    MW431073   4.278   4.767   6.086
 7689SOL     OW31074   4.550   4.214   6.104
 7689SOL    HW231075   4.525   4.302   6.132
 7689SOL    HW331076   4.547   4.217   6.008
 7689SOL    MW431077   4.546   4.226   6.096
 7690SOL     OW31078   3.992   4.242   6.032
 7690SOL    HW231079   4.024   4.330   6.014
 7690SOL    HW331080   3.980   4.240   6.127
 7690SOL    MW431081   3.995   4.254   6.044
 7691SOL     OW31082   4.391   3.997   6.119
 7691SOL    HW231083   4.449   4.073   6.121
 7691SOL    HW331084   4.326   4.018   6.052
 7691SOL    MW431085   4.390   4.009   6.110
 7692SOL     OW31086   4.478   4.924   6.294
 7692SOL    HW231087   4.558   4.927   6.346
 7692SOL    HW331088   4.506   4.891   6.208
 7692SOL    MW431089   4.492   4.920   6.289
 7693SOL     OW31090   4.255   4.428   6.285
 7693SOL    HW231091   4.240   4.348   6.336
 7693SOL    HW331092   4.337   4.463   6.319
 7693SOL    MW431093   4.263   4.420   6.297
 7694SOL     OW31094   3.840   5.514   6.441
 7694SOL    HW231095   3.929   5.506   6.476
 7694SOL    HW331096   3.804   5.426   6.446
 7694SOL    MW431097   3.847   5.501   6.446
 7695SOL     OW31098   5.105   4.906   5.810
 7695SOL    HW231099   5.023   4.942   5.776
 7695SOL    HW331100   5.173   4.949   5.759
 7695SOL    MW431101   5.103   4.916   5.798
 7696SOL     OW31102   4.104   5.041   6.476
 7696SOL    HW231103   4.080   5.094   6.552
 7696SOL    HW331104   4.160   5.099   6.424
 7696SOL    MW431105   4.108   5.056   6.479
 7697SOL     OW31106   4.666   4.685   6.286
 7697SOL    HW231107   4.580   4.672   6.326
 7697SOL    HW331108   4.719   4.612   6.318
 7697SOL    MW431109   4.662   4.674   6.295
 7698SOL     OW31110   4.657   5.047   6.003
 7698SOL    HW231111   4.634   5.109   6.071
 7698SOL    HW331112   4.614   4.965   6.029
 7698SOL    MW431113   4.649   5.043   6.014
 7699SOL     OW31114   4.154   4.020   5.971
 7699SOL    HW231115   4.128   3.982   5.887
 7699SOL    HW331116   4.091   4.090   5.987
 7699SOL    MW431117   4.143   4.023   5.962
 7700SOL     OW31118   3.989   4.981   6.008
 7700SOL    HW231119   3.937   5.049   5.964
 7700SOL    HW331120   3.986   4.907   5.948
 7700SOL    MW431121   3.981   4.980   5.995
 7701SOL     OW31122   4.651   5.444   5.786
 7701SOL    HW231123   4.606   5.460   5.869
 7701SOL    HW331124   4.582   5.409   5.728
 7701SOL    MW431125   4.637   5.441   5.788
 7702SOL     OW31126   5.586   4.217   5.761
 7702SOL    HW231127   5.495   4.219   5.789
 7702SOL    HW331128   5.631   4.279   5.819
 7702SOL    MW431129   5.579   4.225   5.771
 7703SOL     OW31130   5.331   4.820   6.111
 7703SOL    HW231131   5.241   4.820   6.146
 7703SOL    HW331132   5.324   4.866   6.028
 7703SOL    MW431133   5.318   4.826   6.105
 7704SOL     OW31134   4.858   4.401   6.072
 7704SOL    HW231135   4.884   4.425   5.983
 7704SOL    HW331136   4.840   4.308   6.068
 7704SOL    MW431137   4.860   4.393   6.059
 7705SOL     OW31138   5.523   5.021   5.923
 7705SOL    HW231139   5.479   5.062   5.998
 7705SOL    HW331140   5.580   5.089   5.888
 7705SOL    MW431141   5.525   5.035   5.928
 7706SOL     OW31142   4.179   5.437   6.241
 7706SOL    HW231143   4.211   5.525   6.219
 7706SOL    HW331144   4.132   5.409   6.163
 7706SOL    MW431145   4.178   5.445   6.228
 7707SOL     OW31146   3.895   5.497   5.818
 7707SOL    HW231147   3.924   5.587   5.810
 7707SOL    HW331148   3.845   5.480   5.739
 7707SOL    MW431149   3.893   5.505   5.807
 7708SOL     OW31150   5.299   5.305   5.789
 7708SOL    HW231151   5.347   5.374   5.835
 7708SOL    HW331152   5.220   5.349   5.758
 7708SOL    MW431153   5.294   5.319   5.792
 7709SOL     OW31154   4.697   4.430   5.733
 7709SOL    HW231155   4.699   4.377   5.654
 7709SOL    HW331156   4.785   4.467   5.739
 7709SOL    MW431157   4.709   4.429   5.722
 7710SOL     OW31158   5.311   4.356   6.069
 7710SOL    HW231159   5.350   4.356   6.156
 7710SOL    HW331160   5.252   4.432   6.069
 7710SOL    MW431161   5.308   4.367   6.080
 7711SOL     OW31162   3.924   3.956   6.264
 7711SOL    HW231163   3.915   3.896   6.190
 7711SOL    HW331164   3.857   3.927   6.327
 7711SOL    MW431165   3.914   3.943   6.262
 7712SOL     OW31166   4.867   5.049   5.825
 7712SOL    HW231167   4.817   5.051   5.907
 7712SOL    HW331168   4.801   5.067   5.757
 7712SOL    MW431169   4.853   5.051   5.827
 7713SOL     OW31170   4.330   5.467   5.933
 7713SOL    HW231171   4.251   5.425   5.966
 7713SOL    HW331172   4.396   5.450   6.000
 7713SOL    MW431173   4.329   5.459   5.946
 7714SOL     OW31174   4.466   4.882   5.640
 7714SOL    HW231175   4.388   4.828   5.627
 7714SOL    HW331176   4.437   4.955   5.693
 7714SOL    MW431177   4.452   4.884   5.645
 7715SOL     OW31178   5.047   5.398   5.708
 7715SOL    HW231179   4.973   5.361   5.758
 7715SOL    HW331180   5.055   5.488   5.741
 7715SOL    MW431181   5.038   5.405   5.720
 7716SOL     OW31182   5.271   5.072   5.650
 7716SOL    HW231183   5.218   5.121   5.586
 7716SOL    HW331184   5.302   5.138   5.711
 7716SOL    MW431185   5.269   5.086   5.648
 7717SOL     OW31186   4.496   3.961   5.705
 7717SOL    HW231187   4.444   3.881   5.693
 7717SOL    HW331188   4.583   3.938   5.673
 7717SOL    MW431189   4.499   3.947   5.699
 7718SOL     OW31190   3.857   4.601   6.162
 7718SOL    HW231191   3.948   4.616   6.189
 7718SOL    HW331192   3.860   4.522   6.108
 7718SOL    MW431193   3.869   4.593   6.160
 7719SOL     OW31194   4.484   5.533   6.536
 7719SOL    HW231195   4.573   5.548   6.566
 7719SOL    HW331196   4.479   5.580   6.452
 7719SOL    MW431197   4.494   5.541   6.529
 7720SOL     OW31198   3.865   5.213   6.201
 7720SOL    HW231199   3.837   5.252   6.283
 7720SOL    HW331200   3.885   5.122   6.223
 7720SOL    MW431201   3.863   5.205   6.214
 7721SOL     OW31202   4.698   5.256   6.236
 7721SOL    HW231203   4.781   5.210   6.220
 7721SOL    HW331204   4.688   5.255   6.332
 7721SOL    MW431205   4.708   5.249   6.246
 7722SOL     OW31206   4.431   5.313   5.641
 7722SOL    HW231207   4.371   5.382   5.611
 7722SOL    HW331208   4.376   5.255   5.694
 7722SOL    MW431209   4.415   5.315   5.643
 7723SOL     OW31210   4.869   3.958   5.864
 7723SOL    HW231211   4.802   3.934   5.801
 7723SOL    HW331212   4.934   4.007   5.813
 7723SOL    MW431213   4.869   3.960   5.849
 7724SOL     OW31214   4.388   4.675   6.376
 7724SOL    HW231215   4.299   4.666   6.409
 7724SOL    HW331216   4.392   4.765   6.344
 7724SOL    MW431217   4.377   4.686   6.376
 7725SOL     OW31218   5.187   4.258   6.371
 7725SOL    HW231219   5.132   4.179   6.370
 7725SOL    HW331220   5.169   4.299   6.455
 7725SOL    MW431221   5.177   4.253   6.380
 7726SOL     OW31222   4.806   4.462   6.328
 7726SOL    HW231223   4.743   4.394   6.352
 7726SOL    HW331224   4.826   4.443   6.236
 7726SOL    MW431225   4.800   4.449   6.320
 7727SOL     OW31226   4.062   5.357   6.030
 7727SOL    HW231227   4.023   5.404   5.956
 7727SOL    HW331228   3.996   5.292   6.055
 7727SOL    MW431229   4.049   5.355   6.024
 7728SOL     OW31230   4.554   4.766   6.054
 7728SOL    HW231231   4.556   4.740   5.961
 7728SOL    HW331232   4.612   4.703   6.097
 7728SOL    MW431233   4.562   4.755   6.048
 7729SOL     OW31234   5.064   4.010   6.387
 7729SOL    HW231235   5.092   3.942   6.448
 7729SOL    HW331236   4.978   3.981   6.357
 7729SOL    MW431237   5.057   3.997   6.391
 7730SOL     OW31238   3.869   4.944   6.321
 7730SOL    HW231239   3.933   4.976   6.384
 7730SOL    HW331240   3.918   4.880   6.269
 7730SOL    MW431241   3.884   4.940   6.322
 7731SOL     OW31242   5.044   4.114   5.722
 7731SOL    HW231243   5.017   4.180   5.658
 7731SOL    HW331244   5.114   4.157   5.772
 7731SOL    MW431245   5.049   4.127   5.719
 7732SOL     OW31246   4.712   3.819   5.659
 7732SOL    HW231247   4.768   3.811   5.581
 7732SOL    HW331248   4.689   3.729   5.681
 7732SOL    MW431249   4.717   3.806   5.652
 7733SOL     OW31250   5.217   4.670   5.864
 7733SOL    HW231251   5.184   4.759   5.854
 7733SOL    HW331252   5.182   4.641   5.949
 7733SOL    MW431253   5.207   4.679   5.875
 7734SOL     OW31254   4.211   4.708   5.656
 7734SOL    HW231255   4.134   4.721   5.712
 7734SOL    HW331256   4.175   4.672   5.575
 7734SOL    MW431257   4.197   4.704   5.653
 7735SOL     OW31258   4.864   4.681   5.899
 7735SOL    HW231259   4.774   4.702   5.874
 7735SOL    HW331260   4.891   4.754   5.955
 7735SOL    MW431261   4.856   4.693   5.902
 7736SOL     OW31262   4.251   5.037   6.055
 7736SOL    HW231263   4.244   5.069   6.145
 7736SOL    HW331264   4.161   5.021   6.027
 7736SOL    MW431265   4.239   5.039   6.062
 7737SOL     OW31266   4.960   5.395   6.454
 7737SOL    HW231267   5.007   5.468   6.413
 7737SOL    HW331268   4.881   5.434   6.490
 7737SOL    MW431269   4.955   5.410   6.453
 7738SOL     OW31270   4.254   4.321   5.769
 7738SOL    HW231271   4.220   4.377   5.839
 7738SOL    HW331272   4.325   4.271   5.809
 7738SOL    MW431273   4.260   4.322   5.783
 7739SOL     OW31274   5.310   4.207   5.833
 7739SOL    HW231275   5.302   4.278   5.770
 7739SOL    HW331276   5.328   4.251   5.916
 7739SOL    MW431277   5.311   4.221   5.835
 7740SOL     OW31278   4.170   3.862   6.262
 7740SOL    HW231279   4.220   3.905   6.193
 7740SOL    HW331280   4.085   3.906   6.262
 7740SOL    MW431281   4.167   3.875   6.253
 7741SOL     OW31282   4.979   4.469   5.808
 7741SOL    HW231283   5.026   4.487   5.727
 7741SOL    HW331284   4.945   4.553   5.836
 7741SOL    MW431285   4.981   4.483   5.801
 7742SOL     OW31286   4.092   4.647   6.302
 7742SOL    HW231287   4.150   4.703   6.250
 7742SOL    HW331288   4.136   4.562   6.304
 7742SOL    MW431289   4.105   4.644   6.295
 7743SOL     OW31290   4.818   3.961   6.298
 7743SOL    HW231291   4.838   4.036   6.242
 7743SOL    HW331292   4.798   4.000   6.383
 7743SOL    MW431293   4.819   3.977   6.302
 7744SOL     OW31294   4.714   5.211   5.630
 7744SOL    HW231295   4.741   5.289   5.582
 7744SOL    HW331296   4.621   5.226   5.649
 7744SOL    MW431297   4.705   5.224   5.626
 7745SOL     OW31298   3.754   4.373   6.021
 7745SOL    HW231299   3.694   4.345   6.091
 7745SOL    HW331300   3.828   4.313   6.027
 7745SOL    MW431301   3.756   4.362   6.030
 7746SOL     OW31302   4.922   5.104   6.181
 7746SOL    HW231303   4.945   5.055   6.259
 7746SOL    HW331304   5.003   5.146   6.153
 7746SOL    MW431305   4.935   5.104   6.188
 7747SOL     OW31306   5.062   3.771   5.817
 7747SOL    HW231307   5.136   3.815   5.860
 7747SOL    HW331308   4.986   3.825   5.839
 7747SOL    MW431309   5.062   3.783   5.825
 7748SOL     OW31310   5.122   4.546   6.095
 7748SOL    HW231311   5.037   4.516   6.065
 7748SOL    HW331312   5.114   4.553   6.190
 7748SOL    MW431313   5.110   4.544   6.104
 7749SOL     OW31314   4.495   4.212   5.821
 7749SOL    HW231315   4.568   4.261   5.784
 7749SOL    HW331316   4.511   4.121   5.795
 7749SOL    MW431317   4.507   4.207   5.814
 7750SOL     OW31318   3.970   4.721   5.919
 7750SOL    HW231319   3.907   4.737   5.848
 7750SOL    HW331320   3.917   4.684   5.990
 7750SOL    MW431321   3.955   4.718   5.919
 7751SOL     OW31322   4.326   5.075   5.778
 7751SOL    HW231323   4.341   5.051   5.870
 7751SOL    HW331324   4.234   5.053   5.762
 7751SOL    MW431325   4.316   5.068   5.788
 7752SOL     OW31326   4.865   5.306   5.930
 7752SOL    HW231327   4.873   5.224   5.881
 7752SOL    HW331328   4.784   5.345   5.897
 7752SOL    MW431329   4.855   5.301   5.920
 7753SOL     OW31330   4.124   5.464   6.499
 7753SOL    HW231331   4.128   5.375   6.534
 7753SOL    HW331332   4.150   5.455   6.408
 7753SOL    MW431333   4.127   5.452   6.491
 7754SOL     OW31334   4.201   4.187   6.376
 7754SOL    HW231335   4.272   4.135   6.339
 7754SOL    HW331336   4.187   4.152   6.463
 7754SOL    MW431337   4.209   4.176   6.383
 7755SOL     OW31338   4.517   5.280   6.452
 7755SOL    HW231339   4.445   5.217   6.465
 7755SOL    HW331340   4.478   5.365   6.470
 7755SOL    MW431341   4.501   5.283   6.455
 7756SOL     OW31342   4.837   4.128   6.100
 7756SOL    HW231343   4.859   4.065   6.032
 7756SOL    HW331344   4.742   4.120   6.111
 7756SOL    MW431345   4.827   4.119   6.092
 7757SOL     OW31346   3.922   3.818   6.032
 7757SOL    HW231347   3.993   3.839   5.971
 7757SOL    HW331348   3.876   3.746   5.990
 7757SOL    MW431349   3.926   3.812   6.018
 7758SOL     OW31350   5.491   5.192   6.132
 7758SOL    HW231351   5.461   5.125   6.193
 7758SOL    HW331352   5.585   5.198   6.146
 7758SOL    MW431353   5.499   5.184   6.142
 7759SOL     OW31354   5.047   4.869   6.062
 7759SOL    HW231355   5.019   4.955   6.095
 7759SOL    HW331356   5.075   4.885   5.972
 7759SOL    MW431357   5.047   4.883   6.054
 7760SOL     OW31358   4.709   3.789   6.115
 7760SOL    HW231359   4.746   3.848   6.180
 7760SOL    HW331360   4.686   3.845   6.041
 7760SOL    MW431361   4.710   3.804   6.114
 7761SOL     OW31362   4.130   4.480   6.011
 7761SOL    HW231363   4.130   4.575   5.996
 7761SOL    HW331364   4.207   4.464   6.065
 7761SOL    MW431365   4.140   4.491   6.016
 7762SOL     OW31366   3.889   4.211   6.300
 7762SOL    HW231367   3.951   4.218   6.373
 7762SOL    HW331368   3.889   4.118   6.277
 7762SOL    MW431369   3.897   4.200   6.307
 7763SOL     OW31370   5.436   5.551   5.832
 7763SOL    HW231371   5.503   5.584   5.772
 7763SOL    HW331372   5.393   5.630   5.866
 7763SOL    MW431373   5.438   5.566   5.828
 7764SOL     OW31374   3.758   4.783   5.758
 7764SOL    HW231375   3.727   4.848   5.821
 7764SOL    HW331376   3.707   4.705   5.777
 7764SOL    MW431377   3.748   4.780   5.768
 7765SOL     OW31378   5.170   3.795   6.506
 7765SOL    HW231379   5.258   3.804   6.543
 7765SOL    HW331380   5.180   3.736   6.432
 7765SOL    MW431381   5.184   3.789   6.500
 7766SOL     OW31382   4.342   5.583   5.700
 7766SOL    HW231383   4.247   5.583   5.692
 7766SOL    HW331384   4.358   5.529   5.778
 7766SOL    MW431385   4.332   5.577   5.709
 7767SOL     OW31386   5.187   4.403   5.615
 7767SOL    HW231387   5.115   4.379   5.557
 7767SOL    HW331388   5.253   4.440   5.557
 7767SOL    MW431389   5.186   4.405   5.600
 7768SOL     OW31390   4.321   5.135   6.296
 7768SOL    HW231391   4.386   5.068   6.317
 7768SOL    HW331392   4.373   5.212   6.273
 7768SOL    MW431393   4.336   5.137   6.295
 7769SOL     OW31394   4.582   4.300   6.426
 7769SOL    HW231395   4.522   4.318   6.498
 7769SOL    HW331396   4.616   4.212   6.445
 7769SOL    MW431397   4.578   4.290   6.439
 7770SOL     OW31398   4.807   4.883   6.445
 7770SOL    HW231399   4.899   4.864   6.463
 7770SOL    HW331400   4.780   4.813   6.385
 7770SOL    MW431401   4.815   4.871   6.439
 7771SOL     OW31402   4.600   4.703   5.800
 7771SOL    HW231403   4.586   4.615   5.765
 7771SOL    HW331404   4.551   4.760   5.741
 7771SOL    MW431405   4.592   4.698   5.788
 7772SOL     OW31406   5.319   3.909   5.902
 7772SOL    HW231407   5.312   3.913   5.997
 7772SOL    HW331408   5.331   4.000   5.875
 7772SOL    MW431409   5.320   3.922   5.910
 7773SOL     OW31410   4.608   4.472   6.016
 7773SOL    HW231411   4.588   4.458   5.923
 7773SOL    HW331412   4.701   4.451   6.023
 7773SOL    MW431413   4.618   4.467   6.005
 7774SOL     OW31414   4.591   5.430   6.054
 7774SOL    HW231415   4.649   5.501   6.081
 7774SOL    HW331416   4.614   5.358   6.112
 7774SOL    MW431417   4.602   5.430   6.065
 7775SOL     OW31418   4.047   3.862   5.789
 7775SOL    HW231419   3.976   3.917   5.757
 7775SOL    HW331420   4.089   3.828   5.710
 7775SOL    MW431421   4.043   3.864   5.775
 7776SOL     OW31422   3.803   3.961   5.638
 7776SOL    HW231423   3.770   4.040   5.682
 7776SOL    HW331424   3.858   3.994   5.567
 7776SOL    MW431425   3.806   3.975   5.635
 7777SOL     OW31426   3.837   5.218   5.827
 7777SOL    HW231427   3.854   5.302   5.869
 7777SOL    HW331428   3.872   5.227   5.739
 7777SOL    MW431429   3.842   5.231   5.821
 7778SOL     OW31430   5.109   5.307   6.044
 7778SOL    HW231431   5.172   5.297   5.973
 7778SOL    HW331432   5.026   5.327   5.999
 7778SOL    MW431433   5.106   5.308   6.029
 7779SOL     OW31434   5.472   6.444   0.257
 7779SOL    HW231435   5.513   6.386   0.322
 7779SOL    HW331436   5.379   6.436   0.274
 7779SOL    MW431437   5.466   6.436   0.267
 7780SOL     OW31438   5.338   6.376   1.252
 7780SOL    HW231439   5.293   6.443   1.303
 7780SOL    HW331440   5.426   6.412   1.238
 7780SOL    MW431441   5.344   6.389   1.256
 7781SOL     OW31442   4.266   6.627   0.486
 7781SOL    HW231443   4.356   6.602   0.470
 7781SOL    HW331444   4.262   6.720   0.463
 7781SOL    MW431445   4.278   6.636   0.481
 7782SOL     OW31446   5.318   6.770   1.233
 7782SOL    HW231447   5.239   6.735   1.191
 7782SOL    HW331448   5.345   6.842   1.177
 7782SOL    MW431449   5.311   6.775   1.220
 7783SOL     OW31450   4.550   6.083   0.499
 7783SOL    HW231451   4.525   6.171   0.527
 7783SOL    HW331452   4.547   6.086   0.403
 7783SOL    MW431453   4.546   6.095   0.491
 7784SOL     OW31454   3.992   6.111   0.427
 7784SOL    HW231455   4.024   6.199   0.409
 7784SOL    HW331456   3.980   6.109   0.522
 7784SOL    MW431457   3.995   6.123   0.439
 7785SOL     OW31458   4.070   6.524   1.328
 7785SOL    HW231459   4.133   6.471   1.279
 7785SOL    HW331460   4.051   6.598   1.271
 7785SOL    MW431461   4.076   6.526   1.315
 7786SOL     OW31462   4.391   5.866   0.514
 7786SOL    HW231463   4.449   5.942   0.516
 7786SOL    HW331464   4.326   5.887   0.447
 7786SOL    MW431465   4.390   5.878   0.505
 7787SOL     OW31466   4.478   6.793   0.689
 7787SOL    HW231467   4.558   6.796   0.741
 7787SOL    HW331468   4.506   6.760   0.603
 7787SOL    MW431469   4.492   6.789   0.684
 7788SOL     OW31470   4.503   7.134   1.592
 7788SOL    HW231471   4.587   7.160   1.631
 7788SOL    HW331472   4.527   7.078   1.518
 7788SOL    MW431473   4.517   7.130   1.587
 7789SOL     OW31474   4.255   6.297   0.680
 7789SOL    HW231475   4.240   6.217   0.731
 7789SOL    HW331476   4.337   6.332   0.714
 7789SOL    MW431477   4.263   6.289   0.692
 7790SOL     OW31478   4.592   6.983   1.365
 7790SOL    HW231479   4.556   7.049   1.305
 7790SOL    HW331480   4.520   6.921   1.378
 7790SOL    MW431481   4.578   6.983   1.359
 7791SOL     OW31482   4.397   6.123   1.057
 7791SOL    HW231483   4.303   6.119   1.075
 7791SOL    HW331484   4.427   6.032   1.066
 7791SOL    MW431485   4.388   6.111   1.060
 7792SOL     OW31486   4.143   6.537   0.961
 7792SOL    HW231487   4.098   6.544   0.877
 7792SOL    HW331488   4.123   6.620   1.005
 7792SOL    MW431489   4.135   6.549   0.955
 7793SOL     OW31490   5.105   6.775   0.205
 7793SOL    HW231491   5.023   6.811   0.171
 7793SOL    HW331492   5.173   6.818   0.154
 7793SOL    MW431493   5.103   6.785   0.193
 7794SOL     OW31494   4.104   6.910   0.871
 7794SOL    HW231495   4.080   6.963   0.947
 7794SOL    HW331496   4.160   6.968   0.819
 7794SOL    MW431497   4.108   6.925   0.874
 7795SOL     OW31498   4.666   6.554   0.681
 7795SOL    HW231499   4.580   6.541   0.721
 7795SOL    HW331500   4.719   6.481   0.713
 7795SOL    MW431501   4.662   6.543   0.690
 7796SOL     OW31502   4.657   6.916   0.398
 7796SOL    HW231503   4.634   6.978   0.466
 7796SOL    HW331504   4.614   6.834   0.424
 7796SOL    MW431505   4.649   6.912   0.409
 7797SOL     OW31506   5.530   5.917   0.854
 7797SOL    HW231507   5.467   5.897   0.923
 7797SOL    HW331508   5.520   5.846   0.791
 7797SOL    MW431509   5.520   5.904   0.855
 7798SOL     OW31510   4.154   5.889   0.366
 7798SOL    HW231511   4.128   5.851   0.282
 7798SOL    HW331512   4.091   5.959   0.382
 7798SOL    MW431513   4.143   5.892   0.357
 7799SOL     OW31514   3.989   6.850   0.403
 7799SOL    HW231515   3.937   6.918   0.359
 7799SOL    HW331516   3.986   6.776   0.343
 7799SOL    MW431517   3.981   6.849   0.390
 7800SOL     OW31518   5.331   6.689   0.506
 7800SOL    HW231519   5.241   6.689   0.541
 7800SOL    HW331520   5.324   6.735   0.423
 7800SOL    MW431521   5.318   6.695   0.500
 7801SOL     OW31522   5.131   6.324   1.578
 7801SOL    HW231523   5.200   6.262   1.555
 7801SOL    HW331524   5.056   6.298   1.525
 7801SOL    MW431525   5.131   6.311   1.569
 7802SOL     OW31526   4.867   6.711   1.570
 7802SOL    HW231527   4.852   6.804   1.555
 7802SOL    HW331528   4.962   6.701   1.570
 7802SOL    MW431529   4.876   6.721   1.567
 7803SOL     OW31530   4.663   6.135   1.771
 7803SOL    HW231531   4.753   6.136   1.738
 7803SOL    HW331532   4.622   6.060   1.729
 7803SOL    MW431533   4.669   6.125   1.762
 7804SOL     OW31534   5.238   6.667   0.898
 7804SOL    HW231535   5.241   6.601   0.829
 7804SOL    HW331536   5.323   6.710   0.894
 7804SOL    MW431537   5.250   6.663   0.889
 7805SOL     OW31538   4.858   6.270   0.467
 7805SOL    HW231539   4.884   6.294   0.378
 7805SOL    HW331540   4.840   6.177   0.463
 7805SOL    MW431541   4.860   6.262   0.454
 7806SOL     OW31542   4.443   5.939   1.721
 7806SOL    HW231543   4.453   5.865   1.661
 7806SOL    HW331544   4.479   5.908   1.804
 7806SOL    MW431545   4.449   5.925   1.723
 7807SOL     OW31546   4.179   7.306   0.636
 7807SOL    HW231547   4.211   7.394   0.614
 7807SOL    HW331548   4.132   7.278   0.558
 7807SOL    MW431549   4.178   7.314   0.623
 7808SOL     OW31550   5.563   5.668   0.685
 7808SOL    HW231551   5.617   5.619   0.747
 7808SOL    HW331552   5.506   5.602   0.646
 7808SOL    MW431553   5.563   5.652   0.687
 7809SOL     OW31554   4.682   5.621   1.098
 7809SOL    HW231555   4.641   5.699   1.060
 7809SOL    HW331556   4.776   5.639   1.093
 7809SOL    MW431557   4.688   5.633   1.093
 7810SOL     OW31558   4.697   6.299   0.128
 7810SOL    HW231559   4.699   6.246   0.049
 7810SOL    HW331560   4.785   6.336   0.134
 7810SOL    MW431561   4.709   6.298   0.117
 7811SOL     OW31562   5.311   6.225   0.464
 7811SOL    HW231563   5.350   6.225   0.551
 7811SOL    HW331564   5.252   6.301   0.464
 7811SOL    MW431565   5.308   6.236   0.475
 7812SOL     OW31566   4.628   6.592   1.593
 7812SOL    HW231567   4.605   6.572   1.683
 7812SOL    HW331568   4.713   6.636   1.598
 7812SOL    MW431569   4.635   6.595   1.605
 7813SOL     OW31570   4.708   5.729   1.353
 7813SOL    HW231571   4.714   5.691   1.266
 7813SOL    HW331572   4.697   5.823   1.338
 7813SOL    MW431573   4.709   5.737   1.341
 7814SOL     OW31574   4.797   6.218   1.187
 7814SOL    HW231575   4.872   6.247   1.134
 7814SOL    HW331576   4.729   6.283   1.171
 7814SOL    MW431577   4.798   6.230   1.177
 7815SOL     OW31578   5.347   6.186   1.464
 7815SOL    HW231579   5.328   6.095   1.443
 7815SOL    HW331580   5.325   6.235   1.385
 7815SOL    MW431581   5.342   6.179   1.451
 7816SOL     OW31582   4.794   5.924   1.570
 7816SOL    HW231583   4.760   5.963   1.489
 7816SOL    HW331584   4.772   5.832   1.563
 7816SOL    MW431585   4.787   5.917   1.560
 7817SOL     OW31586   5.203   6.738   1.646
 7817SOL    HW231587   5.285   6.779   1.676
 7817SOL    HW331588   5.166   6.700   1.726
 7817SOL    MW431589   5.209   6.739   1.661
 7818SOL     OW31590   5.498   6.111   0.630
 7818SOL    HW231591   5.587   6.080   0.647
 7818SOL    HW331592   5.441   6.051   0.678
 7818SOL    MW431593   5.501   6.099   0.639
 7819SOL     OW31594   3.924   5.825   0.659
 7819SOL    HW231595   3.915   5.765   0.585
 7819SOL    HW331596   3.857   5.796   0.722
 7819SOL    MW431597   3.914   5.812   0.657
 7820SOL     OW31598   4.867   6.918   0.220
 7820SOL    HW231599   4.817   6.920   0.302
 7820SOL    HW331600   4.801   6.936   0.152
 7820SOL    MW431601   4.853   6.920   0.222
 7821SOL     OW31602   3.871   5.998   1.022
 7821SOL    HW231603   3.843   6.089   1.031
 7821SOL    HW331604   3.808   5.959   0.961
 7821SOL    MW431605   3.858   6.004   1.016
 7822SOL     OW31606   4.330   7.336   0.328
 7822SOL    HW231607   4.251   7.294   0.361
 7822SOL    HW331608   4.396   7.319   0.395
 7822SOL    MW431609   4.329   7.328   0.341
 7823SOL     OW31610   5.458   6.856   1.725
 7823SOL    HW231611   5.508   6.782   1.757
 7823SOL    HW331612   5.404   6.883   1.800
 7823SOL    MW431613   5.458   6.850   1.738
 7824SOL     OW31614   4.466   6.751   0.035
 7824SOL    HW231615   4.388   6.697   0.022
 7824SOL    HW331616   4.437   6.824   0.088
 7824SOL    MW431617   4.452   6.753   0.040
 7825SOL     OW31618   5.592   6.491   1.227
 7825SOL    HW231619   5.608   6.529   1.140
 7825SOL    HW331620   5.626   6.557   1.288
 7825SOL    MW431621   5.599   6.504   1.223
 7826SOL     OW31622   5.384   7.200   0.896
 7826SOL    HW231623   5.413   7.267   0.957
 7826SOL    HW331624   5.365   7.124   0.951
 7826SOL    MW431625   5.386   7.200   0.911
 7827SOL     OW31626   5.047   7.267   0.103
 7827SOL    HW231627   4.973   7.230   0.153
 7827SOL    HW331628   5.055   7.357   0.136
 7827SOL    MW431629   5.038   7.274   0.115
 7828SOL     OW31630   3.855   6.273   1.192
 7828SOL    HW231631   3.917   6.303   1.258
 7828SOL    HW331632   3.789   6.342   1.186
 7828SOL    MW431633   3.854   6.286   1.199
 7829SOL     OW31634   4.496   5.830   0.100
 7829SOL    HW231635   4.444   5.750   0.088
 7829SOL    HW331636   4.583   5.807   0.068
 7829SOL    MW431637   4.499   5.816   0.094
 7830SOL     OW31638   4.002   6.701   1.151
 7830SOL    HW231639   4.055   6.776   1.176
 7830SOL    HW331640   3.921   6.739   1.117
 7830SOL    MW431641   3.998   6.716   1.151
 7831SOL     OW31642   4.542   6.605   1.139
 7831SOL    HW231643   4.570   6.514   1.151
 7831SOL    HW331644   4.471   6.599   1.075
 7831SOL    MW431645   4.535   6.593   1.134
 7832SOL     OW31646   3.857   6.470   0.557
 7832SOL    HW231647   3.948   6.485   0.584
 7832SOL    HW331648   3.860   6.391   0.503
 7832SOL    MW431649   3.869   6.462   0.555
 7833SOL     OW31650   4.093   6.178   1.811
 7833SOL    HW231651   4.040   6.258   1.818
 7833SOL    HW331652   4.163   6.190   1.876
 7833SOL    MW431653   4.095   6.191   1.819
 7834SOL     OW31654   4.479   5.728   1.518
 7834SOL    HW231655   4.456   5.636   1.520
 7834SOL    HW331656   4.565   5.730   1.475
 7834SOL    MW431657   4.486   5.718   1.514
 7835SOL     OW31658   4.163   6.252   1.557
 7835SOL    HW231659   4.243   6.302   1.543
 7835SOL    HW331660   4.154   6.246   1.652
 7835SOL    MW431661   4.172   6.258   1.567
 7836SOL     OW31662   5.140   5.777   1.828
 7836SOL    HW231663   5.196   5.704   1.854
 7836SOL    HW331664   5.110   5.815   1.910
 7836SOL    MW431665   5.144   5.772   1.841
 7837SOL     OW31666   3.865   7.082   0.596
 7837SOL    HW231667   3.837   7.121   0.678
 7837SOL    HW331668   3.885   6.991   0.618
 7837SOL    MW431669   3.863   7.074   0.609
 7838SOL     OW31670   4.698   7.125   0.631
 7838SOL    HW231671   4.781   7.079   0.615
 7838SOL    HW331672   4.688   7.124   0.727
 7838SOL    MW431673   4.708   7.118   0.641
 7839SOL     OW31674   5.530   6.270   0.945
 7839SOL    HW231675   5.619   6.300   0.927
 7839SOL    HW331676   5.510   6.210   0.874
 7839SOL    MW431677   5.539   6.267   0.934
 7840SOL     OW31678   5.381   6.449   1.825
 7840SOL    HW231679   5.436   6.373   1.806
 7840SOL    HW331680   5.383   6.457   1.920
 7840SOL    MW431681   5.389   6.440   1.833
 7841SOL     OW31682   4.431   7.182   0.036
 7841SOL    HW231683   4.371   7.251   0.006
 7841SOL    HW331684   4.376   7.124   0.089
 7841SOL    MW431685   4.415   7.184   0.038
 7842SOL     OW31686   4.869   5.827   0.259
 7842SOL    HW231687   4.802   5.803   0.196
 7842SOL    HW331688   4.934   5.876   0.208
 7842SOL    MW431689   4.869   5.829   0.244
 7843SOL     OW31690   4.676   6.011   1.344
 7843SOL    HW231691   4.595   6.052   1.372
 7843SOL    HW331692   4.723   6.079   1.296
 7843SOL    MW431693   4.671   6.026   1.342
 7844SOL     OW31694   4.936   6.349   0.967
 7844SOL    HW231695   4.949   6.443   0.977
 7844SOL    HW331696   4.897   6.339   0.881
 7844SOL    MW431697   4.932   6.360   0.957
 7845SOL     OW31698   4.388   6.544   0.771
 7845SOL    HW231699   4.299   6.535   0.804
 7845SOL    HW331700   4.392   6.634   0.739
 7845SOL    MW431701   4.377   6.555   0.771
 7846SOL     OW31702   5.187   6.127   0.766
 7846SOL    HW231703   5.132   6.048   0.765
 7846SOL    HW331704   5.169   6.168   0.850
 7846SOL    MW431705   5.177   6.122   0.775
 7847SOL     OW31706   4.158   5.814   1.583
 7847SOL    HW231707   4.079   5.832   1.635
 7847SOL    HW331708   4.153   5.876   1.510
 7847SOL    MW431709   4.148   5.824   1.580
 7848SOL     OW31710   4.806   6.331   0.723
 7848SOL    HW231711   4.743   6.263   0.747
 7848SOL    HW331712   4.826   6.312   0.631
 7848SOL    MW431713   4.800   6.318   0.715
 7849SOL     OW31714   4.554   6.635   0.449
 7849SOL    HW231715   4.556   6.609   0.356
 7849SOL    HW331716   4.612   6.572   0.492
 7849SOL    MW431717   4.562   6.624   0.443
 7850SOL     OW31718   5.064   5.879   0.782
 7850SOL    HW231719   5.092   5.811   0.843
 7850SOL    HW331720   4.978   5.850   0.752
 7850SOL    MW431721   5.057   5.866   0.786
 7851SOL     OW31722   3.869   6.813   0.716
 7851SOL    HW231723   3.933   6.845   0.779
 7851SOL    HW331724   3.918   6.749   0.664
 7851SOL    MW431725   3.884   6.809   0.717
 7852SOL     OW31726   4.369   6.889   1.698
 7852SOL    HW231727   4.417   6.972   1.685
 7852SOL    HW331728   4.426   6.837   1.754
 7852SOL    MW431729   4.383   6.893   1.704
 7853SOL     OW31730   5.044   5.983   0.117
 7853SOL    HW231731   5.017   6.049   0.053
 7853SOL    HW331732   5.114   6.026   0.167
 7853SOL    MW431733   5.049   5.996   0.114
 7854SOL     OW31734   4.712   5.688   0.054
 7854SOL    HW231735   4.768   5.680  -0.024
 7854SOL    HW331736   4.689   5.598   0.076
 7854SOL    MW431737   4.717   5.675   0.047
 7855SOL     OW31738   4.830   6.968   1.447
 7855SOL    HW231739   4.741   6.974   1.415
 7855SOL    HW331740   4.874   7.047   1.415
 7855SOL    MW431741   4.825   6.978   1.439
 7856SOL     OW31742   4.123   5.636   1.789
 7856SOL    HW231743   4.051   5.601   1.737
 7856SOL    HW331744   4.181   5.677   1.724
 7856SOL    MW431745   4.121   5.637   1.774
 7857SOL     OW31746   5.587   6.655   1.442
 7857SOL    HW231747   5.502   6.668   1.401
 7857SOL    HW331748   5.567   6.619   1.529
 7857SOL    MW431749   5.574   6.651   1.447
 7858SOL     OW31750   4.211   6.577   0.051
 7858SOL    HW231751   4.134   6.590   0.107
 7858SOL    HW331752   4.175   6.541  -0.030
 7858SOL    MW431753   4.197   6.573   0.048
 7859SOL     OW31754   4.864   6.550   0.294
 7859SOL    HW231755   4.774   6.571   0.269
 7859SOL    HW331756   4.891   6.623   0.350
 7859SOL    MW431757   4.856   6.562   0.297
 7860SOL     OW31758   4.364   6.899   0.986
 7860SOL    HW231759   4.357   6.878   1.080
 7860SOL    HW331760   4.282   6.867   0.949
 7860SOL    MW431761   4.352   6.893   0.993
 7861SOL     OW31762   5.228   5.909   1.388
 7861SOL    HW231763   5.175   5.911   1.468
 7861SOL    HW331764   5.213   5.822   1.351
 7861SOL    MW431765   5.220   5.899   1.393
 7862SOL     OW31766   5.564   5.833   1.261
 7862SOL    HW231767   5.545   5.900   1.196
 7862SOL    HW331768   5.621   5.771   1.216
 7862SOL    MW431769   5.568   5.834   1.247
 7863SOL     OW31770   3.810   6.991   1.649
 7863SOL    HW231771   3.854   6.924   1.595
 7863SOL    HW331772   3.725   6.953   1.669
 7863SOL    MW431773   3.805   6.977   1.645
 7864SOL     OW31774   4.493   5.666   0.701
 7864SOL    HW231775   4.422   5.727   0.683
 7864SOL    HW331776   4.544   5.663   0.620
 7864SOL    MW431777   4.489   5.672   0.688
 7865SOL     OW31778   4.251   6.906   0.450
 7865SOL    HW231779   4.244   6.938   0.540
 7865SOL    HW331780   4.161   6.890   0.422
 7865SOL    MW431781   4.239   6.908   0.457
 7866SOL     OW31782   4.453   6.323   1.831
 7866SOL    HW231783   4.523   6.265   1.803
 7866SOL    HW331784   4.396   6.268   1.886
 7866SOL    MW431785   4.455   6.310   1.835
 7867SOL     OW31786   5.240   6.535   1.464
 7867SOL    HW231787   5.245   6.588   1.544
 7867SOL    HW331788   5.202   6.452   1.492
 7867SOL    MW431789   5.236   6.530   1.479
 7868SOL     OW31790   4.880   5.670   1.710
 7868SOL    HW231791   4.875   5.577   1.691
 7868SOL    HW331792   4.963   5.681   1.756
 7868SOL    MW431793   4.888   5.659   1.714
 7869SOL     OW31794   4.254   6.190   0.164
 7869SOL    HW231795   4.220   6.246   0.234
 7869SOL    HW331796   4.325   6.140   0.204
 7869SOL    MW431797   4.260   6.191   0.178
 7870SOL     OW31798   5.350   6.941   0.986
 7870SOL    HW231799   5.385   6.923   0.899
 7870SOL    HW331800   5.255   6.942   0.973
 7870SOL    MW431801   5.342   6.938   0.973
 7871SOL     OW31802   4.779   6.589   1.355
 7871SOL    HW231803   4.822   6.624   1.433
 7871SOL    HW331804   4.762   6.666   1.301
 7871SOL    MW431805   4.782   6.604   1.358
 7872SOL     OW31806   5.310   6.076   0.228
 7872SOL    HW231807   5.302   6.147   0.165
 7872SOL    HW331808   5.328   6.120   0.311
 7872SOL    MW431809   5.311   6.090   0.230
 7873SOL     OW31810   4.170   5.731   0.657
 7873SOL    HW231811   4.220   5.774   0.588
 7873SOL    HW331812   4.085   5.775   0.657
 7873SOL    MW431813   4.167   5.744   0.648
 7874SOL     OW31814   3.929   6.793   1.517
 7874SOL    HW231815   3.957   6.746   1.595
 7874SOL    HW331816   3.850   6.748   1.488
 7874SOL    MW431817   3.922   6.782   1.523
 7875SOL     OW31818   4.437   6.120   1.484
 7875SOL    HW231819   4.409   6.208   1.508
 7875SOL    HW331820   4.406   6.064   1.555
 7875SOL    MW431821   4.429   6.123   1.496
 7876SOL     OW31822   4.979   6.338   0.203
 7876SOL    HW231823   5.026   6.356   0.122
 7876SOL    HW331824   4.945   6.422   0.231
 7876SOL    MW431825   4.981   6.352   0.196
 7877SOL     OW31826   4.092   6.516   0.697
 7877SOL    HW231827   4.150   6.572   0.645
 7877SOL    HW331828   4.136   6.431   0.699
 7877SOL    MW431829   4.105   6.513   0.690
 7878SOL     OW31830   5.232   5.868   0.534
 7878SOL    HW231831   5.154   5.818   0.559
 7878SOL    HW331832   5.203   5.959   0.534
 7878SOL    MW431833   5.218   5.872   0.537
 7879SOL     OW31834   4.818   5.830   0.693
 7879SOL    HW231835   4.838   5.905   0.637
 7879SOL    HW331836   4.798   5.869   0.778
 7879SOL    MW431837   4.819   5.846   0.697
 7880SOL     OW31838   4.714   7.080   0.025
 7880SOL    HW231839   4.741   7.158  -0.023
 7880SOL    HW331840   4.621   7.095   0.044
 7880SOL    MW431841   4.705   7.093   0.021
 7881SOL     OW31842   5.578   6.603   1.712
 7881SOL    HW231843   5.491   6.583   1.748
 7881SOL    HW331844   5.632   6.529   1.737
 7881SOL    MW431845   5.573   6.592   1.720
 7882SOL     OW31846   3.799   7.116   0.869
 7882SOL    HW231847   3.831   7.120   0.960
 7882SOL    HW331848   3.704   7.124   0.877
 7882SOL    MW431849   3.791   7.119   0.882
 7883SOL     OW31850   3.754   6.242   0.416
 7883SOL    HW231851   3.694   6.214   0.486
 7883SOL    HW331852   3.828   6.182   0.422
 7883SOL    MW431853   3.756   6.231   0.425
 7884SOL     OW31854   4.922   6.973   0.576
 7884SOL    HW231855   4.945   6.924   0.654
 7884SOL    HW331856   5.003   7.015   0.548
 7884SOL    MW431857   4.935   6.973   0.583
 7885SOL     OW31858   4.180   5.981   1.305
 7885SOL    HW231859   4.213   6.062   1.345
 7885SOL    HW331860   4.153   6.007   1.217
 7885SOL    MW431861   4.179   5.995   1.299
 7886SOL     OW31862   4.134   5.948   1.041
 7886SOL    HW231863   4.164   5.862   1.012
 7886SOL    HW331864   4.039   5.941   1.044
 7886SOL    MW431865   4.126   5.937   1.039
 7887SOL     OW31866   4.963   6.157   1.732
 7887SOL    HW231867   5.015   6.092   1.685
 7887SOL    HW331868   4.921   6.208   1.662
 7887SOL    MW431869   4.964   6.154   1.715
 7888SOL     OW31870   5.062   5.952   1.593
 7888SOL    HW231871   4.969   5.936   1.580
 7888SOL    HW331872   5.088   5.890   1.661
 7888SOL    MW431873   5.052   5.942   1.600
 7889SOL     OW31874   4.277   5.726   0.932
 7889SOL    HW231875   4.287   5.635   0.958
 7889SOL    HW331876   4.233   5.722   0.847
 7889SOL    MW431877   4.273   5.714   0.924
 7890SOL     OW31878   5.428   6.048   1.103
 7890SOL    HW231879   5.361   6.081   1.163
 7890SOL    HW331880   5.471   6.126   1.069
 7890SOL    MW431881   5.426   6.063   1.107
 7891SOL     OW31882   5.606   6.768   1.073
 7891SOL    HW231883   5.599   6.708   0.998
 7891SOL    HW331884   5.532   6.828   1.062
 7891SOL    MW431885   5.596   6.768   1.062
 7892SOL     OW31886   4.988   6.630   0.991
 7892SOL    HW231887   5.002   6.602   1.082
 7892SOL    HW331888   5.074   6.661   0.963
 7892SOL    MW431889   5.001   6.631   1.000
 7893SOL     OW31890   5.071   6.125   1.270
 7893SOL    HW231891   5.092   6.126   1.177
 7893SOL    HW331892   5.116   6.047   1.303
 7893SOL    MW431893   5.078   6.115   1.262
 7894SOL     OW31894   5.564   6.256   1.812
 7894SOL    HW231895   5.601   6.201   1.881
 7894SOL    HW331896   5.589   6.213   1.730
 7894SOL    MW431897   5.571   6.244   1.811
 7895SOL     OW31898   5.111   6.554   1.863
 7895SOL    HW231899   5.177   6.502   1.817
 7895SOL    HW331900   5.131   6.541   1.956
 7895SOL    MW431901   5.122   6.545   1.870
 7896SOL     OW31902   5.062   5.640   0.212
 7896SOL    HW231903   5.136   5.684   0.255
 7896SOL    HW331904   4.986   5.694   0.234
 7896SOL    MW431905   5.062   5.652   0.220
 7897SOL     OW31906   5.122   6.415   0.490
 7897SOL    HW231907   5.037   6.385   0.460
 7897SOL    HW331908   5.114   6.422   0.585
 7897SOL    MW431909   5.110   6.413   0.499
 7898SOL     OW31910   4.198   6.878   1.221
 7898SOL    HW231911   4.210   6.905   1.312
 7898SOL    HW331912   4.179   6.959   1.174
 7898SOL    MW431913   4.197   6.893   1.226
 7899SOL     OW31914   4.482   5.858   1.044
 7899SOL    HW231915   4.455   5.860   1.135
 7899SOL    HW331916   4.412   5.810   0.999
 7899SOL    MW431917   4.470   5.854   1.051
 7900SOL     OW31918   5.238   6.935   1.438
 7900SOL    HW231919   5.223   6.864   1.501
 7900SOL    HW331920   5.284   6.893   1.366
 7900SOL    MW431921   5.244   6.919   1.438
 7901SOL     OW31922   4.312   6.666   1.555
 7901SOL    HW231923   4.349   6.671   1.467
 7901SOL    HW331924   4.351   6.739   1.602
 7901SOL    MW431925   4.322   6.676   1.550
 7902SOL     OW31926   4.492   6.709   1.367
 7902SOL    HW231927   4.551   6.655   1.420
 7902SOL    HW331928   4.507   6.681   1.277
 7902SOL    MW431929   4.502   6.698   1.363
 7903SOL     OW31930   4.495   6.081   0.216
 7903SOL    HW231931   4.568   6.130   0.179
 7903SOL    HW331932   4.511   5.990   0.190
 7903SOL    MW431933   4.507   6.076   0.209
 7904SOL     OW31934   4.963   5.677   1.130
 7904SOL    HW231935   5.018   5.686   1.052
 7904SOL    HW331936   5.018   5.711   1.201
 7904SOL    MW431937   4.977   5.682   1.129
 7905SOL     OW31938   3.970   6.590   0.314
 7905SOL    HW231939   3.907   6.606   0.243
 7905SOL    HW331940   3.917   6.553   0.385
 7905SOL    MW431941   3.955   6.587   0.314
 7906SOL     OW31942   4.326   6.944   0.173
 7906SOL    HW231943   4.341   6.920   0.265
 7906SOL    HW331944   4.234   6.922   0.157
 7906SOL    MW431945   4.316   6.937   0.183
 7907SOL     OW31946   4.741   6.811   1.137
 7907SOL    HW231947   4.673   6.745   1.153
 7907SOL    HW331948   4.759   6.805   1.044
 7907SOL    MW431949   4.734   6.802   1.128
 7908SOL     OW31950   3.830   7.086   1.388
 7908SOL    HW231951   3.820   7.044   1.474
 7908SOL    HW331952   3.751   7.139   1.378
 7908SOL    MW431953   3.819   7.087   1.399
 7909SOL     OW31954   4.734   5.950   0.958
 7909SOL    HW231955   4.664   5.902   1.003
 7909SOL    HW331956   4.766   6.013   1.022
 7909SOL    MW431957   4.729   5.952   0.972
 7910SOL     OW31958   4.385   6.386   1.578
 7910SOL    HW231959   4.378   6.481   1.566
 7910SOL    HW331960   4.394   6.375   1.673
 7910SOL    MW431961   4.386   6.398   1.588
 7911SOL     OW31962   4.106   6.901   1.836
 7911SOL    HW231963   4.178   6.903   1.773
 7911SOL    HW331964   4.076   6.810   1.835
 7911SOL    MW431965   4.111   6.890   1.828
 7912SOL     OW31966   5.190   5.664   1.303
 7912SOL    HW231967   5.261   5.610   1.267
 7912SOL    HW331968   5.189   5.643   1.396
 7912SOL    MW431969   5.199   5.655   1.311
 7913SOL     OW31970   4.201   6.056   0.771
 7913SOL    HW231971   4.272   6.004   0.734
 7913SOL    HW331972   4.187   6.021   0.858
 7913SOL    MW431973   4.209   6.045   0.778
 7914SOL     OW31974   4.837   5.997   0.495
 7914SOL    HW231975   4.859   5.934   0.427
 7914SOL    HW331976   4.742   5.989   0.506
 7914SOL    MW431977   4.827   5.988   0.487
 7915SOL     OW31978   3.922   5.687   0.427
 7915SOL    HW231979   3.993   5.708   0.366
 7915SOL    HW331980   3.876   5.615   0.385
 7915SOL    MW431981   3.926   5.681   0.413
 7916SOL     OW31982   3.753   6.154   1.570
 7916SOL    HW231983   3.817   6.220   1.545
 7916SOL    HW331984   3.672   6.181   1.527
 7916SOL    MW431985   3.751   6.166   1.562
 7917SOL     OW31986   5.491   7.061   0.527
 7917SOL    HW231987   5.461   6.994   0.588
 7917SOL    HW331988   5.585   7.067   0.541
 7917SOL    MW431989   5.499   7.053   0.537
 7918SOL     OW31990   5.047   6.738   0.457
 7918SOL    HW231991   5.019   6.824   0.490
 7918SOL    HW331992   5.075   6.754   0.367
 7918SOL    MW431993   5.047   6.752   0.449
 7919SOL     OW31994   4.709   5.658   0.510
 7919SOL    HW231995   4.746   5.717   0.575
 7919SOL    HW331996   4.686   5.714   0.436
 7919SOL    MW431997   4.710   5.673   0.509
 7920SOL     OW31998   5.562   6.540   0.932
 7920SOL    HW231999   5.553   6.572   0.843
 7920SOL    HW332000   5.515   6.456   0.932
 7920SOL    MW432001   5.555   6.533   0.922
 7921SOL     OW32002   3.938   6.380   1.511
 7921SOL    HW232003   3.959   6.449   1.449
 7921SOL    HW332004   4.018   6.327   1.516
 7921SOL    MW432005   3.951   6.381   1.505
 7922SOL     OW32006   5.474   6.471   0.633
 7922SOL    HW232007   5.568   6.460   0.621
 7922SOL    HW332008   5.450   6.543   0.574
 7922SOL    MW432009   5.484   6.479   0.624
 7923SOL     OW32010   3.923   6.395   1.778
 7923SOL    HW232011   3.849   6.339   1.804
 7923SOL    HW332012   3.918   6.398   1.683
 7923SOL    MW432013   3.912   6.388   1.768
 7924SOL     OW32014   4.089   5.682   1.228
 7924SOL    HW232015   4.132   5.766   1.248
 7924SOL    HW332016   4.162   5.620   1.221
 7924SOL    MW432017   4.104   5.685   1.229
 7925SOL     OW32018   4.130   6.349   0.406
 7925SOL    HW232019   4.130   6.444   0.391
 7925SOL    HW332020   4.207   6.333   0.460
 7925SOL    MW432021   4.140   6.360   0.411
 7926SOL     OW32022   4.906   6.208   1.470
 7926SOL    HW232023   4.942   6.181   1.386
 7926SOL    HW332024   4.819   6.242   1.449
 7926SOL    MW432025   4.900   6.209   1.457
 7927SOL     OW32026   3.889   6.080   0.695
 7927SOL    HW232027   3.951   6.087   0.768
 7927SOL    HW332028   3.889   5.987   0.672
 7927SOL    MW432029   3.897   6.069   0.702
 7928SOL     OW32030   4.571   6.341   1.179
 7928SOL    HW232031   4.529   6.259   1.155
 7928SOL    HW332032   4.572   6.340   1.275
 7928SOL    MW432033   4.564   6.330   1.188
 7929SOL     OW32034   4.375   5.811   1.284
 7929SOL    HW232035   4.306   5.874   1.305
 7929SOL    HW332036   4.402   5.775   1.369
 7929SOL    MW432037   4.369   5.814   1.297
 7930SOL     OW32038   3.758   6.652   0.153
 7930SOL    HW232039   3.727   6.717   0.216
 7930SOL    HW332040   3.707   6.574   0.172
 7930SOL    MW432041   3.748   6.649   0.163
 7931SOL     OW32042   5.170   5.664   0.901
 7931SOL    HW232043   5.258   5.673   0.938
 7931SOL    HW332044   5.180   5.605   0.827
 7931SOL    MW432045   5.184   5.658   0.895
 7932SOL     OW32046   5.202   6.403   0.745
 7932SOL    HW232047   5.282   6.418   0.694
 7932SOL    HW332048   5.195   6.308   0.751
 7932SOL    MW432049   5.211   6.392   0.740
 7933SOL     OW32050   4.652   6.329   1.442
 7933SOL    HW232051   4.721   6.396   1.439
 7933SOL    HW332052   4.585   6.367   1.498
 7933SOL    MW432053   4.653   6.342   1.449
 7934SOL     OW32054   4.070   6.629   1.690
 7934SOL    HW232055   4.024   6.545   1.692
 7934SOL    HW332056   4.127   6.623   1.614
 7934SOL    MW432057   4.072   6.617   1.682
 7935SOL     OW32058   4.582   6.169   0.821
 7935SOL    HW232059   4.522   6.187   0.893
 7935SOL    HW332060   4.616   6.081   0.840
 7935SOL    MW432061   4.578   6.159   0.834
 7936SOL     OW32062   5.523   5.668   1.490
 7936SOL    HW232063   5.444   5.714   1.518
 7936SOL    HW332064   5.558   5.722   1.419
 7936SOL    MW432065   5.517   5.681   1.484
 7937SOL     OW32066   4.807   6.752   0.840
 7937SOL    HW232067   4.899   6.733   0.858
 7937SOL    HW332068   4.780   6.682   0.780
 7937SOL    MW432069   4.815   6.740   0.834
 7938SOL     OW32070   4.600   6.572   0.195
 7938SOL    HW232071   4.586   6.484   0.160
 7938SOL    HW332072   4.551   6.629   0.136
 7938SOL    MW432073   4.592   6.567   0.183
 7939SOL     OW32074   5.081   6.990   0.936
 7939SOL    HW232075   5.054   7.074   0.901
 7939SOL    HW332076   5.041   6.985   1.023
 7939SOL    MW432077   5.074   6.999   0.942
 7940SOL     OW32078   5.000   6.938   1.204
 7940SOL    HW232079   5.011   6.905   1.293
 7940SOL    HW332080   4.919   6.897   1.173
 7940SOL    MW432081   4.990   6.930   1.210
 7941SOL     OW32082   4.013   6.296   0.974
 7941SOL    HW232083   3.963   6.295   1.055
 7941SOL    HW332084   4.033   6.388   0.958
 7941SOL    MW432085   4.009   6.308   0.982
 7942SOL     OW32086   5.080   7.060   1.736
 7942SOL    HW232087   5.080   7.154   1.752
 7942SOL    HW332088   5.125   7.050   1.652
 7942SOL    MW432089   5.086   7.070   1.727
 7943SOL     OW32090   4.608   6.341   0.411
 7943SOL    HW232091   4.588   6.327   0.318
 7943SOL    HW332092   4.701   6.320   0.418
 7943SOL    MW432093   4.618   6.336   0.400
 7944SOL     OW32094   3.935   5.964   1.715
 7944SOL    HW232095   3.892   6.023   1.652
 7944SOL    HW332096   4.003   6.019   1.755
 7944SOL    MW432097   3.939   5.979   1.712
 7945SOL     OW32098   5.047   6.584   1.260
 7945SOL    HW232099   5.110   6.581   1.333
 7945SOL    HW332100   4.963   6.602   1.302
 7945SOL    MW432101   5.043   6.586   1.275
 7946SOL     OW32102   5.386   5.761   1.039
 7946SOL    HW232103   5.431   5.679   1.058
 7946SOL    HW332104   5.406   5.817   1.115
 7946SOL    MW432105   5.396   5.757   1.051
 7947SOL     OW32106   3.834   5.604   1.138
 7947SOL    HW232107   3.825   5.605   1.043
 7947SOL    HW332108   3.928   5.616   1.153
 7947SOL    MW432109   3.846   5.607   1.129
 7948SOL     OW32110   5.471   6.797   0.758
 7948SOL    HW232111   5.450   6.743   0.681
 7948SOL    HW332112   5.567   6.795   0.762
 7948SOL    MW432113   5.480   6.790   0.747
 7949SOL     OW32114   4.163   6.942   1.501
 7949SOL    HW232115   4.084   6.892   1.524
 7949SOL    HW332116   4.233   6.901   1.551
 7949SOL    MW432117   4.161   6.930   1.511
 7950SOL     OW32118   4.047   5.731   0.184
 7950SOL    HW232119   3.976   5.786   0.152
 7950SOL    HW332120   4.089   5.697   0.105
 7950SOL    MW432121   4.043   5.733   0.170
 7951SOL     OW32122   5.171   6.228   1.020
 7951SOL    HW232123   5.094   6.274   0.986
 7951SOL    HW332124   5.228   6.297   1.054
 7951SOL    MW432125   5.168   6.243   1.020
 7952SOL     OW32126   3.803   5.830   0.033
 7952SOL    HW232127   3.770   5.909   0.077
 7952SOL    HW332128   3.858   5.863  -0.038
 7952SOL    MW432129   3.806   5.844   0.030
 7953SOL     OW32130   5.472   6.444   2.125
 7953SOL    HW232131   5.513   6.386   2.190
 7953SOL    HW332132   5.379   6.436   2.142
 7953SOL    MW432133   5.466   6.436   2.135
 7954SOL     OW32134   5.338   6.376   3.120
 7954SOL    HW232135   5.293   6.443   3.171
 7954SOL    HW332136   5.426   6.412   3.106
 7954SOL    MW432137   5.344   6.389   3.124
 7955SOL     OW32138   4.266   6.627   2.354
 7955SOL    HW232139   4.356   6.602   2.338
 7955SOL    HW332140   4.262   6.720   2.331
 7955SOL    MW432141   4.278   6.636   2.349
 7956SOL     OW32142   5.318   6.770   3.101
 7956SOL    HW232143   5.239   6.735   3.059
 7956SOL    HW332144   5.345   6.842   3.045
 7956SOL    MW432145   5.311   6.775   3.088
 7957SOL     OW32146   4.550   6.083   2.367
 7957SOL    HW232147   4.525   6.171   2.395
 7957SOL    HW332148   4.547   6.086   2.271
 7957SOL    MW432149   4.546   6.095   2.359
 7958SOL     OW32150   3.992   6.111   2.295
 7958SOL    HW232151   4.024   6.199   2.277
 7958SOL    HW332152   3.980   6.109   2.390
 7958SOL    MW432153   3.995   6.123   2.307
 7959SOL     OW32154   4.070   6.524   3.196
 7959SOL    HW232155   4.133   6.471   3.147
 7959SOL    HW332156   4.051   6.598   3.139
 7959SOL    MW432157   4.076   6.526   3.183
 7960SOL     OW32158   4.391   5.866   2.382
 7960SOL    HW232159   4.449   5.942   2.384
 7960SOL    HW332160   4.326   5.887   2.315
 7960SOL    MW432161   4.390   5.878   2.373
 7961SOL     OW32162   4.478   6.793   2.557
 7961SOL    HW232163   4.558   6.796   2.609
 7961SOL    HW332164   4.506   6.760   2.471
 7961SOL    MW432165   4.492   6.789   2.552
 7962SOL     OW32166   4.503   7.134   3.460
 7962SOL    HW232167   4.587   7.160   3.499
 7962SOL    HW332168   4.527   7.078   3.386
 7962SOL    MW432169   4.517   7.130   3.455
 7963SOL     OW32170   4.255   6.297   2.548
 7963SOL    HW232171   4.240   6.217   2.599
 7963SOL    HW332172   4.337   6.332   2.582
 7963SOL    MW432173   4.263   6.289   2.560
 7964SOL     OW32174   4.592   6.983   3.233
 7964SOL    HW232175   4.556   7.049   3.173
 7964SOL    HW332176   4.520   6.921   3.246
 7964SOL    MW432177   4.578   6.983   3.227
 7965SOL     OW32178   4.143   6.537   2.829
 7965SOL    HW232179   4.098   6.544   2.745
 7965SOL    HW332180   4.123   6.620   2.873
 7965SOL    MW432181   4.135   6.549   2.823
 7966SOL     OW32182   5.105   6.775   2.073
 7966SOL    HW232183   5.023   6.811   2.039
 7966SOL    HW332184   5.173   6.818   2.022
 7966SOL    MW432185   5.103   6.785   2.061
 7967SOL     OW32186   4.104   6.910   2.739
 7967SOL    HW232187   4.080   6.963   2.815
 7967SOL    HW332188   4.160   6.968   2.687
 7967SOL    MW432189   4.108   6.925   2.742
 7968SOL     OW32190   4.666   6.554   2.549
 7968SOL    HW232191   4.580   6.541   2.589
 7968SOL    HW332192   4.719   6.481   2.581
 7968SOL    MW432193   4.662   6.543   2.558
 7969SOL     OW32194   4.657   6.916   2.266
 7969SOL    HW232195   4.634   6.978   2.334
 7969SOL    HW332196   4.614   6.834   2.292
 7969SOL    MW432197   4.649   6.912   2.277
 7970SOL     OW32198   5.530   5.917   2.722
 7970SOL    HW232199   5.467   5.897   2.791
 7970SOL    HW332200   5.520   5.846   2.659
 7970SOL    MW432201   5.520   5.904   2.723
 7971SOL     OW32202   3.989   6.850   2.271
 7971SOL    HW232203   3.937   6.918   2.227
 7971SOL    HW332204   3.986   6.776   2.211
 7971SOL    MW432205   3.981   6.849   2.258
 7972SOL     OW32206   5.586   6.086   2.024
 7972SOL    HW232207   5.495   6.088   2.052
 7972SOL    HW332208   5.631   6.148   2.082
 7972SOL    MW432209   5.579   6.094   2.034
 7973SOL     OW32210   5.331   6.689   2.374
 7973SOL    HW232211   5.241   6.689   2.409
 7973SOL    HW332212   5.324   6.735   2.291
 7973SOL    MW432213   5.318   6.695   2.368
 7974SOL     OW32214   5.131   6.324   3.446
 7974SOL    HW232215   5.200   6.262   3.423
 7974SOL    HW332216   5.056   6.298   3.393
 7974SOL    MW432217   5.131   6.311   3.437
 7975SOL     OW32218   4.867   6.711   3.438
 7975SOL    HW232219   4.852   6.804   3.423
 7975SOL    HW332220   4.962   6.701   3.438
 7975SOL    MW432221   4.876   6.721   3.435
 7976SOL     OW32222   4.663   6.135   3.639
 7976SOL    HW232223   4.753   6.136   3.606
 7976SOL    HW332224   4.622   6.060   3.597
 7976SOL    MW432225   4.669   6.125   3.630
 7977SOL     OW32226   5.238   6.667   2.766
 7977SOL    HW232227   5.241   6.601   2.697
 7977SOL    HW332228   5.323   6.710   2.762
 7977SOL    MW432229   5.250   6.663   2.757
 7978SOL     OW32230   4.858   6.270   2.335
 7978SOL    HW232231   4.884   6.294   2.246
 7978SOL    HW332232   4.840   6.177   2.331
 7978SOL    MW432233   4.860   6.262   2.322
 7979SOL     OW32234   5.523   6.890   2.186
 7979SOL    HW232235   5.479   6.931   2.261
 7979SOL    HW332236   5.580   6.958   2.151
 7979SOL    MW432237   5.525   6.904   2.191
 7980SOL     OW32238   4.443   5.939   3.589
 7980SOL    HW232239   4.453   5.865   3.529
 7980SOL    HW332240   4.479   5.908   3.672
 7980SOL    MW432241   4.449   5.925   3.591
 7981SOL     OW32242   4.179   7.306   2.504
 7981SOL    HW232243   4.211   7.394   2.482
 7981SOL    HW332244   4.132   7.278   2.426
 7981SOL    MW432245   4.178   7.314   2.491
 7982SOL     OW32246   5.563   5.668   2.553
 7982SOL    HW232247   5.617   5.619   2.615
 7982SOL    HW332248   5.506   5.602   2.514
 7982SOL    MW432249   5.563   5.652   2.555
 7983SOL     OW32250   4.697   6.299   1.996
 7983SOL    HW232251   4.699   6.246   1.917
 7983SOL    HW332252   4.785   6.336   2.002
 7983SOL    MW432253   4.709   6.298   1.985
 7984SOL     OW32254   5.311   6.225   2.332
 7984SOL    HW232255   5.350   6.225   2.419
 7984SOL    HW332256   5.252   6.301   2.332
 7984SOL    MW432257   5.308   6.236   2.343
 7985SOL     OW32258   4.628   6.592   3.461
 7985SOL    HW232259   4.605   6.572   3.551
 7985SOL    HW332260   4.713   6.636   3.466
 7985SOL    MW432261   4.635   6.595   3.473
 7986SOL     OW32262   4.708   5.729   3.221
 7986SOL    HW232263   4.714   5.691   3.134
 7986SOL    HW332264   4.697   5.823   3.206
 7986SOL    MW432265   4.709   5.737   3.209
 7987SOL     OW32266   4.797   6.218   3.055
 7987SOL    HW232267   4.872   6.247   3.002
 7987SOL    HW332268   4.729   6.283   3.039
 7987SOL    MW432269   4.798   6.230   3.045
 7988SOL     OW32270   5.347   6.186   3.332
 7988SOL    HW232271   5.328   6.095   3.311
 7988SOL    HW332272   5.325   6.235   3.253
 7988SOL    MW432273   5.342   6.179   3.319
 7989SOL     OW32274   4.794   5.924   3.438
 7989SOL    HW232275   4.760   5.963   3.357
 7989SOL    HW332276   4.772   5.832   3.431
 7989SOL    MW432277   4.787   5.917   3.428
 7990SOL     OW32278   5.203   6.738   3.514
 7990SOL    HW232279   5.285   6.779   3.544
 7990SOL    HW332280   5.166   6.700   3.594
 7990SOL    MW432281   5.209   6.739   3.529
 7991SOL     OW32282   5.498   6.111   2.498
 7991SOL    HW232283   5.587   6.080   2.515
 7991SOL    HW332284   5.441   6.051   2.546
 7991SOL    MW432285   5.501   6.099   2.507
 7992SOL     OW32286   3.924   5.825   2.527
 7992SOL    HW232287   3.915   5.765   2.453
 7992SOL    HW332288   3.857   5.796   2.590
 7992SOL    MW432289   3.914   5.812   2.525
 7993SOL     OW32290   4.867   6.918   2.088
 7993SOL    HW232291   4.817   6.920   2.170
 7993SOL    HW332292   4.801   6.936   2.020
 7993SOL    MW432293   4.853   6.920   2.090
 7994SOL     OW32294   3.871   5.998   2.890
 7994SOL    HW232295   3.843   6.089   2.899
 7994SOL    HW332296   3.808   5.959   2.829
 7994SOL    MW432297   3.858   6.004   2.884
 7995SOL     OW32298   4.330   7.336   2.196
 7995SOL    HW232299   4.251   7.294   2.229
 7995SOL    HW332300   4.396   7.319   2.263
 7995SOL    MW432301   4.329   7.328   2.209
 7996SOL     OW32302   5.458   6.856   3.593
 7996SOL    HW232303   5.508   6.782   3.625
 7996SOL    HW332304   5.404   6.883   3.668
 7996SOL    MW432305   5.458   6.850   3.606
 7997SOL     OW32306   4.466   6.751   1.903
 7997SOL    HW232307   4.388   6.697   1.890
 7997SOL    HW332308   4.437   6.824   1.956
 7997SOL    MW432309   4.452   6.753   1.908
 7998SOL     OW32310   5.592   6.491   3.095
 7998SOL    HW232311   5.608   6.529   3.008
 7998SOL    HW332312   5.626   6.557   3.156
 7998SOL    MW432313   5.599   6.504   3.091
 7999SOL     OW32314   5.384   7.200   2.764
 7999SOL    HW232315   5.413   7.267   2.825
 7999SOL    HW332316   5.365   7.124   2.819
 7999SOL    MW432317   5.386   7.200   2.779
 8000SOL     OW32318   3.855   6.273   3.060
 8000SOL    HW232319   3.917   6.303   3.126
 8000SOL    HW332320   3.789   6.342   3.054
 8000SOL    MW432321   3.854   6.286   3.067
 8001SOL     OW32322   5.271   6.941   1.913
 8001SOL    HW232323   5.218   6.990   1.849
 8001SOL    HW332324   5.302   7.007   1.974
 8001SOL    MW432325   5.269   6.955   1.911
 8002SOL     OW32326   4.496   5.830   1.968
 8002SOL    HW232327   4.444   5.750   1.956
 8002SOL    HW332328   4.583   5.807   1.936
 8002SOL    MW432329   4.499   5.816   1.962
 8003SOL     OW32330   4.002   6.701   3.019
 8003SOL    HW232331   4.055   6.776   3.044
 8003SOL    HW332332   3.921   6.739   2.985
 8003SOL    MW432333   3.998   6.716   3.019
 8004SOL     OW32334   4.542   6.605   3.007
 8004SOL    HW232335   4.570   6.514   3.019
 8004SOL    HW332336   4.471   6.599   2.943
 8004SOL    MW432337   4.535   6.593   3.002
 8005SOL     OW32338   3.857   6.470   2.425
 8005SOL    HW232339   3.948   6.485   2.452
 8005SOL    HW332340   3.860   6.391   2.371
 8005SOL    MW432341   3.869   6.462   2.423
 8006SOL     OW32342   4.093   6.178   3.679
 8006SOL    HW232343   4.040   6.258   3.686
 8006SOL    HW332344   4.163   6.190   3.744
 8006SOL    MW432345   4.095   6.191   3.687
 8007SOL     OW32346   4.479   5.728   3.386
 8007SOL    HW232347   4.456   5.636   3.388
 8007SOL    HW332348   4.565   5.730   3.343
 8007SOL    MW432349   4.486   5.718   3.382
 8008SOL     OW32350   4.163   6.252   3.425
 8008SOL    HW232351   4.243   6.302   3.411
 8008SOL    HW332352   4.154   6.246   3.520
 8008SOL    MW432353   4.172   6.258   3.435
 8009SOL     OW32354   5.140   5.777   3.696
 8009SOL    HW232355   5.196   5.704   3.722
 8009SOL    HW332356   5.110   5.815   3.778
 8009SOL    MW432357   5.144   5.772   3.709
 8010SOL     OW32358   3.865   7.082   2.464
 8010SOL    HW232359   3.837   7.121   2.546
 8010SOL    HW332360   3.885   6.991   2.486
 8010SOL    MW432361   3.863   7.074   2.477
 8011SOL     OW32362   4.698   7.125   2.499
 8011SOL    HW232363   4.781   7.079   2.483
 8011SOL    HW332364   4.688   7.124   2.595
 8011SOL    MW432365   4.708   7.118   2.509
 8012SOL     OW32366   5.530   6.270   2.813
 8012SOL    HW232367   5.619   6.300   2.795
 8012SOL    HW332368   5.510   6.210   2.742
 8012SOL    MW432369   5.539   6.267   2.802
 8013SOL     OW32370   5.381   6.449   3.693
 8013SOL    HW232371   5.436   6.373   3.674
 8013SOL    HW332372   5.383   6.457   3.788
 8013SOL    MW432373   5.389   6.440   3.701
 8014SOL     OW32374   4.431   7.182   1.904
 8014SOL    HW232375   4.371   7.251   1.874
 8014SOL    HW332376   4.376   7.124   1.957
 8014SOL    MW432377   4.415   7.184   1.906
 8015SOL     OW32378   4.869   5.827   2.127
 8015SOL    HW232379   4.802   5.803   2.064
 8015SOL    HW332380   4.934   5.876   2.076
 8015SOL    MW432381   4.869   5.829   2.112
 8016SOL     OW32382   4.676   6.011   3.212
 8016SOL    HW232383   4.595   6.052   3.240
 8016SOL    HW332384   4.723   6.079   3.164
 8016SOL    MW432385   4.671   6.026   3.210
 8017SOL     OW32386   4.936   6.349   2.835
 8017SOL    HW232387   4.949   6.443   2.845
 8017SOL    HW332388   4.897   6.339   2.749
 8017SOL    MW432389   4.932   6.360   2.825
 8018SOL     OW32390   4.388   6.544   2.639
 8018SOL    HW232391   4.299   6.535   2.672
 8018SOL    HW332392   4.392   6.634   2.607
 8018SOL    MW432393   4.377   6.555   2.639
 8019SOL     OW32394   5.187   6.127   2.634
 8019SOL    HW232395   5.132   6.048   2.633
 8019SOL    HW332396   5.169   6.168   2.718
 8019SOL    MW432397   5.177   6.122   2.643
 8020SOL     OW32398   4.806   6.331   2.591
 8020SOL    HW232399   4.743   6.263   2.615
 8020SOL    HW332400   4.826   6.312   2.499
 8020SOL    MW432401   4.800   6.318   2.583
 8021SOL     OW32402   4.554   6.635   2.317
 8021SOL    HW232403   4.556   6.609   2.224
 8021SOL    HW332404   4.612   6.572   2.360
 8021SOL    MW432405   4.562   6.624   2.311
 8022SOL     OW32406   5.064   5.879   2.650
 8022SOL    HW232407   5.092   5.811   2.711
 8022SOL    HW332408   4.978   5.850   2.620
 8022SOL    MW432409   5.057   5.866   2.654
 8023SOL     OW32410   3.869   6.813   2.584
 8023SOL    HW232411   3.933   6.845   2.647
 8023SOL    HW332412   3.918   6.749   2.532
 8023SOL    MW432413   3.884   6.809   2.585
 8024SOL     OW32414   4.369   6.889   3.566
 8024SOL    HW232415   4.417   6.972   3.553
 8024SOL    HW332416   4.426   6.837   3.622
 8024SOL    MW432417   4.383   6.893   3.572
 8025SOL     OW32418   5.044   5.983   1.985
 8025SOL    HW232419   5.017   6.049   1.921
 8025SOL    HW332420   5.114   6.026   2.035
 8025SOL    MW432421   5.049   5.996   1.982
 8026SOL     OW32422   5.217   6.539   2.127
 8026SOL    HW232423   5.184   6.628   2.117
 8026SOL    HW332424   5.182   6.510   2.212
 8026SOL    MW432425   5.207   6.548   2.138
 8027SOL     OW32426   4.830   6.968   3.315
 8027SOL    HW232427   4.741   6.974   3.283
 8027SOL    HW332428   4.874   7.047   3.283
 8027SOL    MW432429   4.825   6.978   3.307
 8028SOL     OW32430   5.587   6.655   3.310
 8028SOL    HW232431   5.502   6.668   3.269
 8028SOL    HW332432   5.567   6.619   3.397
 8028SOL    MW432433   5.574   6.651   3.315
 8029SOL     OW32434   4.211   6.577   1.919
 8029SOL    HW232435   4.134   6.590   1.975
 8029SOL    HW332436   4.175   6.541   1.838
 8029SOL    MW432437   4.197   6.573   1.916
 8030SOL     OW32438   4.864   6.550   2.162
 8030SOL    HW232439   4.774   6.571   2.137
 8030SOL    HW332440   4.891   6.623   2.218
 8030SOL    MW432441   4.856   6.562   2.165
 8031SOL     OW32442   4.364   6.899   2.854
 8031SOL    HW232443   4.357   6.878   2.948
 8031SOL    HW332444   4.282   6.867   2.817
 8031SOL    MW432445   4.352   6.893   2.861
 8032SOL     OW32446   5.228   5.909   3.256
 8032SOL    HW232447   5.175   5.911   3.336
 8032SOL    HW332448   5.213   5.822   3.219
 8032SOL    MW432449   5.220   5.899   3.261
 8033SOL     OW32450   5.564   5.833   3.129
 8033SOL    HW232451   5.545   5.900   3.064
 8033SOL    HW332452   5.621   5.771   3.084
 8033SOL    MW432453   5.568   5.834   3.115
 8034SOL     OW32454   3.810   6.991   3.517
 8034SOL    HW232455   3.854   6.924   3.463
 8034SOL    HW332456   3.725   6.953   3.537
 8034SOL    MW432457   3.805   6.977   3.513
 8035SOL     OW32458   4.251   6.906   2.318
 8035SOL    HW232459   4.244   6.938   2.408
 8035SOL    HW332460   4.161   6.890   2.290
 8035SOL    MW432461   4.239   6.908   2.325
 8036SOL     OW32462   4.453   6.323   3.699
 8036SOL    HW232463   4.523   6.265   3.671
 8036SOL    HW332464   4.396   6.268   3.754
 8036SOL    MW432465   4.455   6.310   3.703
 8037SOL     OW32466   5.240   6.535   3.332
 8037SOL    HW232467   5.245   6.588   3.412
 8037SOL    HW332468   5.202   6.452   3.360
 8037SOL    MW432469   5.236   6.530   3.347
 8038SOL     OW32470   4.880   5.670   3.578
 8038SOL    HW232471   4.875   5.577   3.559
 8038SOL    HW332472   4.963   5.681   3.624
 8038SOL    MW432473   4.888   5.659   3.582
 8039SOL     OW32474   4.254   6.190   2.032
 8039SOL    HW232475   4.220   6.246   2.102
 8039SOL    HW332476   4.325   6.140   2.072
 8039SOL    MW432477   4.260   6.191   2.046
 8040SOL     OW32478   5.350   6.941   2.854
 8040SOL    HW232479   5.385   6.923   2.767
 8040SOL    HW332480   5.255   6.942   2.841
 8040SOL    MW432481   5.342   6.938   2.841
 8041SOL     OW32482   4.779   6.589   3.223
 8041SOL    HW232483   4.822   6.624   3.301
 8041SOL    HW332484   4.762   6.666   3.169
 8041SOL    MW432485   4.782   6.604   3.226
 8042SOL     OW32486   5.310   6.076   2.096
 8042SOL    HW232487   5.302   6.147   2.033
 8042SOL    HW332488   5.328   6.120   2.179
 8042SOL    MW432489   5.311   6.090   2.098
 8043SOL     OW32490   4.170   5.731   2.525
 8043SOL    HW232491   4.220   5.774   2.456
 8043SOL    HW332492   4.085   5.775   2.525
 8043SOL    MW432493   4.167   5.744   2.516
 8044SOL     OW32494   3.929   6.793   3.385
 8044SOL    HW232495   3.957   6.746   3.463
 8044SOL    HW332496   3.850   6.748   3.356
 8044SOL    MW432497   3.922   6.782   3.391
 8045SOL     OW32498   4.437   6.120   3.352
 8045SOL    HW232499   4.409   6.208   3.376
 8045SOL    HW332500   4.406   6.064   3.423
 8045SOL    MW432501   4.429   6.123   3.364
 8046SOL     OW32502   4.979   6.338   2.071
 8046SOL    HW232503   5.026   6.356   1.990
 8046SOL    HW332504   4.945   6.422   2.099
 8046SOL    MW432505   4.981   6.352   2.064
 8047SOL     OW32506   4.092   6.516   2.565
 8047SOL    HW232507   4.150   6.572   2.513
 8047SOL    HW332508   4.136   6.431   2.567
 8047SOL    MW432509   4.105   6.513   2.558
 8048SOL     OW32510   5.232   5.868   2.402
 8048SOL    HW232511   5.154   5.818   2.427
 8048SOL    HW332512   5.203   5.959   2.402
 8048SOL    MW432513   5.218   5.872   2.405
 8049SOL     OW32514   5.578   6.603   3.580
 8049SOL    HW232515   5.491   6.583   3.616
 8049SOL    HW332516   5.632   6.529   3.605
 8049SOL    MW432517   5.573   6.592   3.588
 8050SOL     OW32518   3.799   7.116   2.737
 8050SOL    HW232519   3.831   7.120   2.828
 8050SOL    HW332520   3.704   7.124   2.745
 8050SOL    MW432521   3.791   7.119   2.750
 8051SOL     OW32522   3.754   6.242   2.284
 8051SOL    HW232523   3.694   6.214   2.354
 8051SOL    HW332524   3.828   6.182   2.290
 8051SOL    MW432525   3.756   6.231   2.293
 8052SOL     OW32526   4.922   6.973   2.444
 8052SOL    HW232527   4.945   6.924   2.522
 8052SOL    HW332528   5.003   7.015   2.416
 8052SOL    MW432529   4.935   6.973   2.451
 8053SOL     OW32530   4.180   5.981   3.173
 8053SOL    HW232531   4.213   6.062   3.213
 8053SOL    HW332532   4.153   6.007   3.085
 8053SOL    MW432533   4.179   5.995   3.167
 8054SOL     OW32534   4.963   6.157   3.600
 8054SOL    HW232535   5.015   6.092   3.553
 8054SOL    HW332536   4.921   6.208   3.530
 8054SOL    MW432537   4.964   6.154   3.583
 8055SOL     OW32538   5.062   5.952   3.461
 8055SOL    HW232539   4.969   5.936   3.448
 8055SOL    HW332540   5.088   5.890   3.529
 8055SOL    MW432541   5.052   5.942   3.468
 8056SOL     OW32542   5.428   6.048   2.971
 8056SOL    HW232543   5.361   6.081   3.031
 8056SOL    HW332544   5.471   6.126   2.937
 8056SOL    MW432545   5.426   6.063   2.975
 8057SOL     OW32546   5.606   6.768   2.941
 8057SOL    HW232547   5.599   6.708   2.866
 8057SOL    HW332548   5.532   6.828   2.930
 8057SOL    MW432549   5.596   6.768   2.930
 8058SOL     OW32550   4.988   6.630   2.859
 8058SOL    HW232551   5.002   6.602   2.950
 8058SOL    HW332552   5.074   6.661   2.831
 8058SOL    MW432553   5.001   6.631   2.868
 8059SOL     OW32554   5.071   6.125   3.138
 8059SOL    HW232555   5.092   6.126   3.045
 8059SOL    HW332556   5.116   6.047   3.171
 8059SOL    MW432557   5.078   6.115   3.130
 8060SOL     OW32558   5.564   6.256   3.680
 8060SOL    HW232559   5.601   6.201   3.749
 8060SOL    HW332560   5.589   6.213   3.598
 8060SOL    MW432561   5.571   6.244   3.679
 8061SOL     OW32562   5.111   6.554   3.731
 8061SOL    HW232563   5.177   6.502   3.685
 8061SOL    HW332564   5.131   6.541   3.824
 8061SOL    MW432565   5.122   6.545   3.738
 8062SOL     OW32566   5.062   5.640   2.080
 8062SOL    HW232567   5.136   5.684   2.123
 8062SOL    HW332568   4.986   5.694   2.102
 8062SOL    MW432569   5.062   5.652   2.088
 8063SOL     OW32570   5.122   6.415   2.358
 8063SOL    HW232571   5.037   6.385   2.328
 8063SOL    HW332572   5.114   6.422   2.453
 8063SOL    MW432573   5.110   6.413   2.367
 8064SOL     OW32574   4.198   6.878   3.089
 8064SOL    HW232575   4.210   6.905   3.180
 8064SOL    HW332576   4.179   6.959   3.042
 8064SOL    MW432577   4.197   6.893   3.094
 8065SOL     OW32578   5.238   6.935   3.306
 8065SOL    HW232579   5.223   6.864   3.369
 8065SOL    HW332580   5.284   6.893   3.234
 8065SOL    MW432581   5.244   6.919   3.306
 8066SOL     OW32582   4.312   6.666   3.423
 8066SOL    HW232583   4.349   6.671   3.335
 8066SOL    HW332584   4.351   6.739   3.470
 8066SOL    MW432585   4.322   6.676   3.418
 8067SOL     OW32586   4.492   6.709   3.235
 8067SOL    HW232587   4.551   6.655   3.288
 8067SOL    HW332588   4.507   6.681   3.145
 8067SOL    MW432589   4.502   6.698   3.231
 8068SOL     OW32590   4.495   6.081   2.084
 8068SOL    HW232591   4.568   6.130   2.047
 8068SOL    HW332592   4.511   5.990   2.058
 8068SOL    MW432593   4.507   6.076   2.077
 8069SOL     OW32594   4.963   5.677   2.998
 8069SOL    HW232595   5.018   5.686   2.920
 8069SOL    HW332596   5.018   5.711   3.069
 8069SOL    MW432597   4.977   5.682   2.997
 8070SOL     OW32598   3.970   6.590   2.182
 8070SOL    HW232599   3.907   6.606   2.111
 8070SOL    HW332600   3.917   6.553   2.253
 8070SOL    MW432601   3.955   6.587   2.182
 8071SOL     OW32602   4.326   6.944   2.041
 8071SOL    HW232603   4.341   6.920   2.133
 8071SOL    HW332604   4.234   6.922   2.025
 8071SOL    MW432605   4.316   6.937   2.051
 8072SOL     OW32606   4.741   6.811   3.005
 8072SOL    HW232607   4.673   6.745   3.021
 8072SOL    HW332608   4.759   6.805   2.912
 8072SOL    MW432609   4.734   6.802   2.996
 8073SOL     OW32610   3.830   7.086   3.256
 8073SOL    HW232611   3.820   7.044   3.342
 8073SOL    HW332612   3.751   7.139   3.246
 8073SOL    MW432613   3.819   7.087   3.267
 8074SOL     OW32614   4.734   5.950   2.826
 8074SOL    HW232615   4.664   5.902   2.871
 8074SOL    HW332616   4.766   6.013   2.890
 8074SOL    MW432617   4.729   5.952   2.840
 8075SOL     OW32618   4.385   6.386   3.446
 8075SOL    HW232619   4.378   6.481   3.434
 8075SOL    HW332620   4.394   6.375   3.541
 8075SOL    MW432621   4.386   6.398   3.456
 8076SOL     OW32622   4.106   6.901   3.704
 8076SOL    HW232623   4.178   6.903   3.641
 8076SOL    HW332624   4.076   6.810   3.703
 8076SOL    MW432625   4.111   6.890   3.696
 8077SOL     OW32626   5.190   5.664   3.171
 8077SOL    HW232627   5.261   5.610   3.135
 8077SOL    HW332628   5.189   5.643   3.264
 8077SOL    MW432629   5.199   5.655   3.179
 8078SOL     OW32630   4.201   6.056   2.639
 8078SOL    HW232631   4.272   6.004   2.602
 8078SOL    HW332632   4.187   6.021   2.726
 8078SOL    MW432633   4.209   6.045   2.646
 8079SOL     OW32634   4.837   5.997   2.363
 8079SOL    HW232635   4.859   5.934   2.295
 8079SOL    HW332636   4.742   5.989   2.374
 8079SOL    MW432637   4.827   5.988   2.355
 8080SOL     OW32638   5.491   7.061   2.395
 8080SOL    HW232639   5.461   6.994   2.456
 8080SOL    HW332640   5.585   7.067   2.409
 8080SOL    MW432641   5.499   7.053   2.405
 8081SOL     OW32642   5.047   6.738   2.325
 8081SOL    HW232643   5.019   6.824   2.358
 8081SOL    HW332644   5.075   6.754   2.235
 8081SOL    MW432645   5.047   6.752   2.317
 8082SOL     OW32646   5.562   6.540   2.800
 8082SOL    HW232647   5.553   6.572   2.711
 8082SOL    HW332648   5.515   6.456   2.800
 8082SOL    MW432649   5.555   6.533   2.790
 8083SOL     OW32650   3.938   6.380   3.379
 8083SOL    HW232651   3.959   6.449   3.317
 8083SOL    HW332652   4.018   6.327   3.384
 8083SOL    MW432653   3.951   6.381   3.373
 8084SOL     OW32654   5.474   6.471   2.501
 8084SOL    HW232655   5.568   6.460   2.489
 8084SOL    HW332656   5.450   6.543   2.442
 8084SOL    MW432657   5.484   6.479   2.492
 8085SOL     OW32658   3.923   6.395   3.646
 8085SOL    HW232659   3.849   6.339   3.672
 8085SOL    HW332660   3.918   6.398   3.551
 8085SOL    MW432661   3.912   6.388   3.636
 8086SOL     OW32662   4.130   6.349   2.274
 8086SOL    HW232663   4.130   6.444   2.259
 8086SOL    HW332664   4.207   6.333   2.328
 8086SOL    MW432665   4.140   6.360   2.279
 8087SOL     OW32666   4.906   6.208   3.338
 8087SOL    HW232667   4.942   6.181   3.254
 8087SOL    HW332668   4.819   6.242   3.317
 8087SOL    MW432669   4.900   6.209   3.325
 8088SOL     OW32670   3.889   6.080   2.563
 8088SOL    HW232671   3.951   6.087   2.636
 8088SOL    HW332672   3.889   5.987   2.540
 8088SOL    MW432673   3.897   6.069   2.570
 8089SOL     OW32674   4.571   6.341   3.047
 8089SOL    HW232675   4.529   6.259   3.023
 8089SOL    HW332676   4.572   6.340   3.143
 8089SOL    MW432677   4.564   6.330   3.056
 8090SOL     OW32678   4.375   5.811   3.152
 8090SOL    HW232679   4.306   5.874   3.173
 8090SOL    HW332680   4.402   5.775   3.237
 8090SOL    MW432681   4.369   5.814   3.165
 8091SOL     OW32682   3.758   6.652   2.021
 8091SOL    HW232683   3.727   6.717   2.084
 8091SOL    HW332684   3.707   6.574   2.040
 8091SOL    MW432685   3.748   6.649   2.031
 8092SOL     OW32686   5.170   5.664   2.769
 8092SOL    HW232687   5.258   5.673   2.806
 8092SOL    HW332688   5.180   5.605   2.695
 8092SOL    MW432689   5.184   5.658   2.763
 8093SOL     OW32690   5.202   6.403   2.613
 8093SOL    HW232691   5.282   6.418   2.562
 8093SOL    HW332692   5.195   6.308   2.619
 8093SOL    MW432693   5.211   6.392   2.608
 8094SOL     OW32694   4.652   6.329   3.310
 8094SOL    HW232695   4.721   6.396   3.307
 8094SOL    HW332696   4.585   6.367   3.366
 8094SOL    MW432697   4.653   6.342   3.317
 8095SOL     OW32698   4.070   6.629   3.558
 8095SOL    HW232699   4.024   6.545   3.560
 8095SOL    HW332700   4.127   6.623   3.482
 8095SOL    MW432701   4.072   6.617   3.550
 8096SOL     OW32702   5.187   6.272   1.879
 8096SOL    HW232703   5.115   6.248   1.821
 8096SOL    HW332704   5.253   6.309   1.821
 8096SOL    MW432705   5.186   6.274   1.864
 8097SOL     OW32706   4.582   6.169   2.689
 8097SOL    HW232707   4.522   6.187   2.761
 8097SOL    HW332708   4.616   6.081   2.708
 8097SOL    MW432709   4.578   6.159   2.702
 8098SOL     OW32710   5.523   5.668   3.358
 8098SOL    HW232711   5.444   5.714   3.386
 8098SOL    HW332712   5.558   5.722   3.287
 8098SOL    MW432713   5.517   5.681   3.352
 8099SOL     OW32714   4.807   6.752   2.708
 8099SOL    HW232715   4.899   6.733   2.726
 8099SOL    HW332716   4.780   6.682   2.648
 8099SOL    MW432717   4.815   6.740   2.702
 8100SOL     OW32718   4.600   6.572   2.063
 8100SOL    HW232719   4.586   6.484   2.028
 8100SOL    HW332720   4.551   6.629   2.004
 8100SOL    MW432721   4.592   6.567   2.051
 8101SOL     OW32722   5.081   6.990   2.804
 8101SOL    HW232723   5.054   7.074   2.769
 8101SOL    HW332724   5.041   6.985   2.891
 8101SOL    MW432725   5.074   6.999   2.810
 8102SOL     OW32726   5.000   6.938   3.072
 8102SOL    HW232727   5.011   6.905   3.161
 8102SOL    HW332728   4.919   6.897   3.041
 8102SOL    MW432729   4.990   6.930   3.078
 8103SOL     OW32730   4.013   6.296   2.842
 8103SOL    HW232731   3.963   6.295   2.923
 8103SOL    HW332732   4.033   6.388   2.826
 8103SOL    MW432733   4.009   6.308   2.850
 8104SOL     OW32734   5.080   7.060   3.604
 8104SOL    HW232735   5.080   7.154   3.620
 8104SOL    HW332736   5.125   7.050   3.520
 8104SOL    MW432737   5.086   7.070   3.595
 8105SOL     OW32738   5.319   5.778   2.165
 8105SOL    HW232739   5.312   5.782   2.260
 8105SOL    HW332740   5.331   5.869   2.138
 8105SOL    MW432741   5.320   5.791   2.173
 8106SOL     OW32742   4.608   6.341   2.279
 8106SOL    HW232743   4.588   6.327   2.186
 8106SOL    HW332744   4.701   6.320   2.286
 8106SOL    MW432745   4.618   6.336   2.268
 8107SOL     OW32746   3.935   5.964   3.583
 8107SOL    HW232747   3.892   6.023   3.520
 8107SOL    HW332748   4.003   6.019   3.623
 8107SOL    MW432749   3.939   5.979   3.580
 8108SOL     OW32750   5.047   6.584   3.128
 8108SOL    HW232751   5.110   6.581   3.201
 8108SOL    HW332752   4.963   6.602   3.170
 8108SOL    MW432753   5.043   6.586   3.143
 8109SOL     OW32754   5.386   5.761   2.907
 8109SOL    HW232755   5.431   5.679   2.926
 8109SOL    HW332756   5.406   5.817   2.983
 8109SOL    MW432757   5.396   5.757   2.919
 8110SOL     OW32758   5.471   6.797   2.626
 8110SOL    HW232759   5.450   6.743   2.549
 8110SOL    HW332760   5.567   6.795   2.630
 8110SOL    MW432761   5.480   6.790   2.615
 8111SOL     OW32762   4.163   6.942   3.369
 8111SOL    HW232763   4.084   6.892   3.392
 8111SOL    HW332764   4.233   6.901   3.419
 8111SOL    MW432765   4.161   6.930   3.379
 8112SOL     OW32766   5.171   6.228   2.888
 8112SOL    HW232767   5.094   6.274   2.854
 8112SOL    HW332768   5.228   6.297   2.922
 8112SOL    MW432769   5.168   6.243   2.888
 8113SOL     OW32770   3.803   5.830   1.901
 8113SOL    HW232771   3.770   5.909   1.945
 8113SOL    HW332772   3.858   5.863   1.830
 8113SOL    MW432773   3.806   5.844   1.898
 8114SOL     OW32774   5.109   7.176   2.307
 8114SOL    HW232775   5.172   7.166   2.236
 8114SOL    HW332776   5.026   7.196   2.262
 8114SOL    MW432777   5.106   7.177   2.292
 8115SOL     OW32778   5.472   6.444   3.993
 8115SOL    HW232779   5.513   6.386   4.058
 8115SOL    HW332780   5.379   6.436   4.010
 8115SOL    MW432781   5.466   6.436   4.003
 8116SOL     OW32782   5.338   6.376   4.988
 8116SOL    HW232783   5.293   6.443   5.039
 8116SOL    HW332784   5.426   6.412   4.974
 8116SOL    MW432785   5.344   6.389   4.992
 8117SOL     OW32786   4.266   6.627   4.222
 8117SOL    HW232787   4.356   6.602   4.206
 8117SOL    HW332788   4.262   6.720   4.199
 8117SOL    MW432789   4.278   6.636   4.217
 8118SOL     OW32790   5.318   6.770   4.969
 8118SOL    HW232791   5.239   6.735   4.927
 8118SOL    HW332792   5.345   6.842   4.913
 8118SOL    MW432793   5.311   6.775   4.956
 8119SOL     OW32794   4.550   6.083   4.235
 8119SOL    HW232795   4.525   6.171   4.263
 8119SOL    HW332796   4.547   6.086   4.139
 8119SOL    MW432797   4.546   6.095   4.227
 8120SOL     OW32798   3.992   6.111   4.163
 8120SOL    HW232799   4.024   6.199   4.145
 8120SOL    HW332800   3.980   6.109   4.258
 8120SOL    MW432801   3.995   6.123   4.175
 8121SOL     OW32802   4.070   6.524   5.064
 8121SOL    HW232803   4.133   6.471   5.015
 8121SOL    HW332804   4.051   6.598   5.007
 8121SOL    MW432805   4.076   6.526   5.051
 8122SOL     OW32806   4.391   5.866   4.250
 8122SOL    HW232807   4.449   5.942   4.252
 8122SOL    HW332808   4.326   5.887   4.183
 8122SOL    MW432809   4.390   5.878   4.241
 8123SOL     OW32810   4.478   6.793   4.425
 8123SOL    HW232811   4.558   6.796   4.477
 8123SOL    HW332812   4.506   6.760   4.339
 8123SOL    MW432813   4.492   6.789   4.420
 8124SOL     OW32814   4.503   7.134   5.328
 8124SOL    HW232815   4.587   7.160   5.367
 8124SOL    HW332816   4.527   7.078   5.254
 8124SOL    MW432817   4.517   7.130   5.323
 8125SOL     OW32818   4.255   6.297   4.416
 8125SOL    HW232819   4.240   6.217   4.467
 8125SOL    HW332820   4.337   6.332   4.450
 8125SOL    MW432821   4.263   6.289   4.428
 8126SOL     OW32822   4.592   6.983   5.101
 8126SOL    HW232823   4.556   7.049   5.041
 8126SOL    HW332824   4.520   6.921   5.114
 8126SOL    MW432825   4.578   6.983   5.095
 8127SOL     OW32826   4.397   6.123   4.793
 8127SOL    HW232827   4.303   6.119   4.811
 8127SOL    HW332828   4.427   6.032   4.802
 8127SOL    MW432829   4.388   6.111   4.796
 8128SOL     OW32830   4.143   6.537   4.697
 8128SOL    HW232831   4.098   6.544   4.613
 8128SOL    HW332832   4.123   6.620   4.741
 8128SOL    MW432833   4.135   6.549   4.691
 8129SOL     OW32834   5.105   6.775   3.941
 8129SOL    HW232835   5.023   6.811   3.907
 8129SOL    HW332836   5.173   6.818   3.890
 8129SOL    MW432837   5.103   6.785   3.929
 8130SOL     OW32838   4.104   6.910   4.607
 8130SOL    HW232839   4.080   6.963   4.683
 8130SOL    HW332840   4.160   6.968   4.555
 8130SOL    MW432841   4.108   6.925   4.610
 8131SOL     OW32842   4.666   6.554   4.417
 8131SOL    HW232843   4.580   6.541   4.457
 8131SOL    HW332844   4.719   6.481   4.449
 8131SOL    MW432845   4.662   6.543   4.426
 8132SOL     OW32846   4.657   6.916   4.134
 8132SOL    HW232847   4.634   6.978   4.202
 8132SOL    HW332848   4.614   6.834   4.160
 8132SOL    MW432849   4.649   6.912   4.145
 8133SOL     OW32850   5.530   5.917   4.590
 8133SOL    HW232851   5.467   5.897   4.659
 8133SOL    HW332852   5.520   5.846   4.527
 8133SOL    MW432853   5.520   5.904   4.591
 8134SOL     OW32854   4.154   5.889   4.102
 8134SOL    HW232855   4.128   5.851   4.018
 8134SOL    HW332856   4.091   5.959   4.118
 8134SOL    MW432857   4.143   5.892   4.093
 8135SOL     OW32858   3.989   6.850   4.139
 8135SOL    HW232859   3.937   6.918   4.095
 8135SOL    HW332860   3.986   6.776   4.079
 8135SOL    MW432861   3.981   6.849   4.126
 8136SOL     OW32862   5.586   6.086   3.892
 8136SOL    HW232863   5.495   6.088   3.920
 8136SOL    HW332864   5.631   6.148   3.950
 8136SOL    MW432865   5.579   6.094   3.902
 8137SOL     OW32866   5.331   6.689   4.242
 8137SOL    HW232867   5.241   6.689   4.277
 8137SOL    HW332868   5.324   6.735   4.159
 8137SOL    MW432869   5.318   6.695   4.236
 8138SOL     OW32870   5.131   6.324   5.314
 8138SOL    HW232871   5.200   6.262   5.291
 8138SOL    HW332872   5.056   6.298   5.261
 8138SOL    MW432873   5.131   6.311   5.305
 8139SOL     OW32874   4.867   6.711   5.306
 8139SOL    HW232875   4.852   6.804   5.291
 8139SOL    HW332876   4.962   6.701   5.306
 8139SOL    MW432877   4.876   6.721   5.303
 8140SOL     OW32878   4.663   6.135   5.507
 8140SOL    HW232879   4.753   6.136   5.474
 8140SOL    HW332880   4.622   6.060   5.465
 8140SOL    MW432881   4.669   6.125   5.498
 8141SOL     OW32882   5.238   6.667   4.634
 8141SOL    HW232883   5.241   6.601   4.565
 8141SOL    HW332884   5.323   6.710   4.630
 8141SOL    MW432885   5.250   6.663   4.625
 8142SOL     OW32886   4.858   6.270   4.203
 8142SOL    HW232887   4.884   6.294   4.114
 8142SOL    HW332888   4.840   6.177   4.199
 8142SOL    MW432889   4.860   6.262   4.190
 8143SOL     OW32890   5.523   6.890   4.054
 8143SOL    HW232891   5.479   6.931   4.129
 8143SOL    HW332892   5.580   6.958   4.019
 8143SOL    MW432893   5.525   6.904   4.059
 8144SOL     OW32894   4.443   5.939   5.457
 8144SOL    HW232895   4.453   5.865   5.397
 8144SOL    HW332896   4.479   5.908   5.540
 8144SOL    MW432897   4.449   5.925   5.459
 8145SOL     OW32898   4.179   7.306   4.372
 8145SOL    HW232899   4.211   7.394   4.350
 8145SOL    HW332900   4.132   7.278   4.294
 8145SOL    MW432901   4.178   7.314   4.359
 8146SOL     OW32902   5.563   5.668   4.421
 8146SOL    HW232903   5.617   5.619   4.483
 8146SOL    HW332904   5.506   5.602   4.382
 8146SOL    MW432905   5.563   5.652   4.423
 8147SOL     OW32906   4.682   5.621   4.834
 8147SOL    HW232907   4.641   5.699   4.796
 8147SOL    HW332908   4.776   5.639   4.829
 8147SOL    MW432909   4.688   5.633   4.829
 8148SOL     OW32910   4.697   6.299   3.864
 8148SOL    HW232911   4.699   6.246   3.785
 8148SOL    HW332912   4.785   6.336   3.870
 8148SOL    MW432913   4.709   6.298   3.853
 8149SOL     OW32914   5.311   6.225   4.200
 8149SOL    HW232915   5.350   6.225   4.287
 8149SOL    HW332916   5.252   6.301   4.200
 8149SOL    MW432917   5.308   6.236   4.211
 8150SOL     OW32918   4.628   6.592   5.329
 8150SOL    HW232919   4.605   6.572   5.419
 8150SOL    HW332920   4.713   6.636   5.334
 8150SOL    MW432921   4.635   6.595   5.341
 8151SOL     OW32922   4.708   5.729   5.089
 8151SOL    HW232923   4.714   5.691   5.002
 8151SOL    HW332924   4.697   5.823   5.074
 8151SOL    MW432925   4.709   5.737   5.077
 8152SOL     OW32926   4.797   6.218   4.923
 8152SOL    HW232927   4.872   6.247   4.870
 8152SOL    HW332928   4.729   6.283   4.907
 8152SOL    MW432929   4.798   6.230   4.913
 8153SOL     OW32930   5.347   6.186   5.200
 8153SOL    HW232931   5.328   6.095   5.179
 8153SOL    HW332932   5.325   6.235   5.121
 8153SOL    MW432933   5.342   6.179   5.187
 8154SOL     OW32934   4.794   5.924   5.306
 8154SOL    HW232935   4.760   5.963   5.225
 8154SOL    HW332936   4.772   5.832   5.299
 8154SOL    MW432937   4.787   5.917   5.296
 8155SOL     OW32938   5.203   6.738   5.382
 8155SOL    HW232939   5.285   6.779   5.412
 8155SOL    HW332940   5.166   6.700   5.462
 8155SOL    MW432941   5.209   6.739   5.397
 8156SOL     OW32942   5.498   6.111   4.366
 8156SOL    HW232943   5.587   6.080   4.383
 8156SOL    HW332944   5.441   6.051   4.414
 8156SOL    MW432945   5.501   6.099   4.375
 8157SOL     OW32946   3.924   5.825   4.395
 8157SOL    HW232947   3.915   5.765   4.321
 8157SOL    HW332948   3.857   5.796   4.458
 8157SOL    MW432949   3.914   5.812   4.393
 8158SOL     OW32950   4.867   6.918   3.956
 8158SOL    HW232951   4.817   6.920   4.038
 8158SOL    HW332952   4.801   6.936   3.888
 8158SOL    MW432953   4.853   6.920   3.958
 8159SOL     OW32954   3.871   5.998   4.758
 8159SOL    HW232955   3.843   6.089   4.767
 8159SOL    HW332956   3.808   5.959   4.697
 8159SOL    MW432957   3.858   6.004   4.752
 8160SOL     OW32958   4.330   7.336   4.064
 8160SOL    HW232959   4.251   7.294   4.097
 8160SOL    HW332960   4.396   7.319   4.131
 8160SOL    MW432961   4.329   7.328   4.077
 8161SOL     OW32962   5.458   6.856   5.461
 8161SOL    HW232963   5.508   6.782   5.493
 8161SOL    HW332964   5.404   6.883   5.536
 8161SOL    MW432965   5.458   6.850   5.474
 8162SOL     OW32966   4.466   6.751   3.771
 8162SOL    HW232967   4.388   6.697   3.758
 8162SOL    HW332968   4.437   6.824   3.824
 8162SOL    MW432969   4.452   6.753   3.776
 8163SOL     OW32970   5.592   6.491   4.963
 8163SOL    HW232971   5.608   6.529   4.876
 8163SOL    HW332972   5.626   6.557   5.024
 8163SOL    MW432973   5.599   6.504   4.959
 8164SOL     OW32974   5.384   7.200   4.632
 8164SOL    HW232975   5.413   7.267   4.693
 8164SOL    HW332976   5.365   7.124   4.687
 8164SOL    MW432977   5.386   7.200   4.647
 8165SOL     OW32978   3.855   6.273   4.928
 8165SOL    HW232979   3.917   6.303   4.994
 8165SOL    HW332980   3.789   6.342   4.922
 8165SOL    MW432981   3.854   6.286   4.935
 8166SOL     OW32982   5.271   6.941   3.781
 8166SOL    HW232983   5.218   6.990   3.717
 8166SOL    HW332984   5.302   7.007   3.842
 8166SOL    MW432985   5.269   6.955   3.779
 8167SOL     OW32986   4.496   5.830   3.836
 8167SOL    HW232987   4.444   5.750   3.824
 8167SOL    HW332988   4.583   5.807   3.804
 8167SOL    MW432989   4.499   5.816   3.830
 8168SOL     OW32990   4.002   6.701   4.887
 8168SOL    HW232991   4.055   6.776   4.912
 8168SOL    HW332992   3.921   6.739   4.853
 8168SOL    MW432993   3.998   6.716   4.887
 8169SOL     OW32994   4.542   6.605   4.875
 8169SOL    HW232995   4.570   6.514   4.887
 8169SOL    HW332996   4.471   6.599   4.811
 8169SOL    MW432997   4.535   6.593   4.870
 8170SOL     OW32998   3.857   6.470   4.293
 8170SOL    HW232999   3.948   6.485   4.320
 8170SOL    HW333000   3.860   6.391   4.239
 8170SOL    MW433001   3.869   6.462   4.291
 8171SOL     OW33002   4.093   6.178   5.547
 8171SOL    HW233003   4.040   6.258   5.554
 8171SOL    HW333004   4.163   6.190   5.612
 8171SOL    MW433005   4.095   6.191   5.555
 8172SOL     OW33006   4.479   5.728   5.254
 8172SOL    HW233007   4.456   5.636   5.256
 8172SOL    HW333008   4.565   5.730   5.211
 8172SOL    MW433009   4.486   5.718   5.250
 8173SOL     OW33010   4.163   6.252   5.293
 8173SOL    HW233011   4.243   6.302   5.279
 8173SOL    HW333012   4.154   6.246   5.388
 8173SOL    MW433013   4.172   6.258   5.303
 8174SOL     OW33014   5.140   5.777   5.564
 8174SOL    HW233015   5.196   5.704   5.590
 8174SOL    HW333016   5.110   5.815   5.646
 8174SOL    MW433017   5.144   5.772   5.577
 8175SOL     OW33018   3.865   7.082   4.332
 8175SOL    HW233019   3.837   7.121   4.414
 8175SOL    HW333020   3.885   6.991   4.354
 8175SOL    MW433021   3.863   7.074   4.345
 8176SOL     OW33022   4.698   7.125   4.367
 8176SOL    HW233023   4.781   7.079   4.351
 8176SOL    HW333024   4.688   7.124   4.463
 8176SOL    MW433025   4.708   7.118   4.377
 8177SOL     OW33026   5.530   6.270   4.681
 8177SOL    HW233027   5.619   6.300   4.663
 8177SOL    HW333028   5.510   6.210   4.610
 8177SOL    MW433029   5.539   6.267   4.670
 8178SOL     OW33030   5.381   6.449   5.561
 8178SOL    HW233031   5.436   6.373   5.542
 8178SOL    HW333032   5.383   6.457   5.656
 8178SOL    MW433033   5.389   6.440   5.569
 8179SOL     OW33034   4.431   7.182   3.772
 8179SOL    HW233035   4.371   7.251   3.742
 8179SOL    HW333036   4.376   7.124   3.825
 8179SOL    MW433037   4.415   7.184   3.774
 8180SOL     OW33038   4.869   5.827   3.995
 8180SOL    HW233039   4.802   5.803   3.932
 8180SOL    HW333040   4.934   5.876   3.944
 8180SOL    MW433041   4.869   5.829   3.980
 8181SOL     OW33042   4.676   6.011   5.080
 8181SOL    HW233043   4.595   6.052   5.108
 8181SOL    HW333044   4.723   6.079   5.032
 8181SOL    MW433045   4.671   6.026   5.078
 8182SOL     OW33046   4.936   6.349   4.703
 8182SOL    HW233047   4.949   6.443   4.713
 8182SOL    HW333048   4.897   6.339   4.617
 8182SOL    MW433049   4.932   6.360   4.693
 8183SOL     OW33050   4.388   6.544   4.507
 8183SOL    HW233051   4.299   6.535   4.540
 8183SOL    HW333052   4.392   6.634   4.475
 8183SOL    MW433053   4.377   6.555   4.507
 8184SOL     OW33054   5.187   6.127   4.502
 8184SOL    HW233055   5.132   6.048   4.501
 8184SOL    HW333056   5.169   6.168   4.586
 8184SOL    MW433057   5.177   6.122   4.511
 8185SOL     OW33058   4.158   5.814   5.319
 8185SOL    HW233059   4.079   5.832   5.371
 8185SOL    HW333060   4.153   5.876   5.246
 8185SOL    MW433061   4.148   5.824   5.316
 8186SOL     OW33062   4.806   6.331   4.459
 8186SOL    HW233063   4.743   6.263   4.483
 8186SOL    HW333064   4.826   6.312   4.367
 8186SOL    MW433065   4.800   6.318   4.451
 8187SOL     OW33066   4.554   6.635   4.185
 8187SOL    HW233067   4.556   6.609   4.092
 8187SOL    HW333068   4.612   6.572   4.228
 8187SOL    MW433069   4.562   6.624   4.179
 8188SOL     OW33070   5.064   5.879   4.518
 8188SOL    HW233071   5.092   5.811   4.579
 8188SOL    HW333072   4.978   5.850   4.488
 8188SOL    MW433073   5.057   5.866   4.522
 8189SOL     OW33074   3.869   6.813   4.452
 8189SOL    HW233075   3.933   6.845   4.515
 8189SOL    HW333076   3.918   6.749   4.400
 8189SOL    MW433077   3.884   6.809   4.453
 8190SOL     OW33078   4.369   6.889   5.434
 8190SOL    HW233079   4.417   6.972   5.421
 8190SOL    HW333080   4.426   6.837   5.490
 8190SOL    MW433081   4.383   6.893   5.440
 8191SOL     OW33082   5.044   5.983   3.853
 8191SOL    HW233083   5.017   6.049   3.789
 8191SOL    HW333084   5.114   6.026   3.903
 8191SOL    MW433085   5.049   5.996   3.850
 8192SOL     OW33086   4.712   5.688   3.790
 8192SOL    HW233087   4.768   5.680   3.712
 8192SOL    HW333088   4.689   5.598   3.812
 8192SOL    MW433089   4.717   5.675   3.783
 8193SOL     OW33090   5.217   6.539   3.995
 8193SOL    HW233091   5.184   6.628   3.985
 8193SOL    HW333092   5.182   6.510   4.080
 8193SOL    MW433093   5.207   6.548   4.006
 8194SOL     OW33094   4.830   6.968   5.183
 8194SOL    HW233095   4.741   6.974   5.151
 8194SOL    HW333096   4.874   7.047   5.151
 8194SOL    MW433097   4.825   6.978   5.175
 8195SOL     OW33098   4.123   5.636   5.525
 8195SOL    HW233099   4.051   5.601   5.473
 8195SOL    HW333100   4.181   5.677   5.460
 8195SOL    MW433101   4.121   5.637   5.510
 8196SOL     OW33102   5.587   6.655   5.178
 8196SOL    HW233103   5.502   6.668   5.137
 8196SOL    HW333104   5.567   6.619   5.265
 8196SOL    MW433105   5.574   6.651   5.183
 8197SOL     OW33106   4.211   6.577   3.787
 8197SOL    HW233107   4.134   6.590   3.843
 8197SOL    HW333108   4.175   6.541   3.706
 8197SOL    MW433109   4.197   6.573   3.784
 8198SOL     OW33110   4.864   6.550   4.030
 8198SOL    HW233111   4.774   6.571   4.005
 8198SOL    HW333112   4.891   6.623   4.086
 8198SOL    MW433113   4.856   6.562   4.033
 8199SOL     OW33114   4.364   6.899   4.722
 8199SOL    HW233115   4.357   6.878   4.816
 8199SOL    HW333116   4.282   6.867   4.685
 8199SOL    MW433117   4.352   6.893   4.729
 8200SOL     OW33118   5.228   5.909   5.124
 8200SOL    HW233119   5.175   5.911   5.204
 8200SOL    HW333120   5.213   5.822   5.087
 8200SOL    MW433121   5.220   5.899   5.129
 8201SOL     OW33122   5.564   5.833   4.997
 8201SOL    HW233123   5.545   5.900   4.932
 8201SOL    HW333124   5.621   5.771   4.952
 8201SOL    MW433125   5.568   5.834   4.983
 8202SOL     OW33126   3.810   6.991   5.385
 8202SOL    HW233127   3.854   6.924   5.331
 8202SOL    HW333128   3.725   6.953   5.405
 8202SOL    MW433129   3.805   6.977   5.381
 8203SOL     OW33130   4.493   5.666   4.437
 8203SOL    HW233131   4.422   5.727   4.419
 8203SOL    HW333132   4.544   5.663   4.356
 8203SOL    MW433133   4.489   5.672   4.424
 8204SOL     OW33134   4.251   6.906   4.186
 8204SOL    HW233135   4.244   6.938   4.276
 8204SOL    HW333136   4.161   6.890   4.158
 8204SOL    MW433137   4.239   6.908   4.193
 8205SOL     OW33138   4.453   6.323   5.567
 8205SOL    HW233139   4.523   6.265   5.539
 8205SOL    HW333140   4.396   6.268   5.622
 8205SOL    MW433141   4.455   6.310   5.571
 8206SOL     OW33142   5.240   6.535   5.200
 8206SOL    HW233143   5.245   6.588   5.280
 8206SOL    HW333144   5.202   6.452   5.228
 8206SOL    MW433145   5.236   6.530   5.215
 8207SOL     OW33146   4.880   5.670   5.446
 8207SOL    HW233147   4.875   5.577   5.427
 8207SOL    HW333148   4.963   5.681   5.492
 8207SOL    MW433149   4.888   5.659   5.450
 8208SOL     OW33150   4.254   6.190   3.900
 8208SOL    HW233151   4.220   6.246   3.970
 8208SOL    HW333152   4.325   6.140   3.940
 8208SOL    MW433153   4.260   6.191   3.914
 8209SOL     OW33154   5.350   6.941   4.722
 8209SOL    HW233155   5.385   6.923   4.635
 8209SOL    HW333156   5.255   6.942   4.709
 8209SOL    MW433157   5.342   6.938   4.709
 8210SOL     OW33158   4.779   6.589   5.091
 8210SOL    HW233159   4.822   6.624   5.169
 8210SOL    HW333160   4.762   6.666   5.037
 8210SOL    MW433161   4.782   6.604   5.094
 8211SOL     OW33162   5.310   6.076   3.964
 8211SOL    HW233163   5.302   6.147   3.901
 8211SOL    HW333164   5.328   6.120   4.047
 8211SOL    MW433165   5.311   6.090   3.966
 8212SOL     OW33166   4.170   5.731   4.393
 8212SOL    HW233167   4.220   5.774   4.324
 8212SOL    HW333168   4.085   5.775   4.393
 8212SOL    MW433169   4.167   5.744   4.384
 8213SOL     OW33170   3.929   6.793   5.253
 8213SOL    HW233171   3.957   6.746   5.331
 8213SOL    HW333172   3.850   6.748   5.224
 8213SOL    MW433173   3.922   6.782   5.259
 8214SOL     OW33174   4.437   6.120   5.220
 8214SOL    HW233175   4.409   6.208   5.244
 8214SOL    HW333176   4.406   6.064   5.291
 8214SOL    MW433177   4.429   6.123   5.232
 8215SOL     OW33178   4.979   6.338   3.939
 8215SOL    HW233179   5.026   6.356   3.858
 8215SOL    HW333180   4.945   6.422   3.967
 8215SOL    MW433181   4.981   6.352   3.932
 8216SOL     OW33182   4.092   6.516   4.433
 8216SOL    HW233183   4.150   6.572   4.381
 8216SOL    HW333184   4.136   6.431   4.435
 8216SOL    MW433185   4.105   6.513   4.426
 8217SOL     OW33186   5.232   5.868   4.270
 8217SOL    HW233187   5.154   5.818   4.295
 8217SOL    HW333188   5.203   5.959   4.270
 8217SOL    MW433189   5.218   5.872   4.273
 8218SOL     OW33190   4.818   5.830   4.429
 8218SOL    HW233191   4.838   5.905   4.373
 8218SOL    HW333192   4.798   5.869   4.514
 8218SOL    MW433193   4.819   5.846   4.433
 8219SOL     OW33194   5.578   6.603   5.448
 8219SOL    HW233195   5.491   6.583   5.484
 8219SOL    HW333196   5.632   6.529   5.473
 8219SOL    MW433197   5.573   6.592   5.456
 8220SOL     OW33198   3.799   7.116   4.605
 8220SOL    HW233199   3.831   7.120   4.696
 8220SOL    HW333200   3.704   7.124   4.613
 8220SOL    MW433201   3.791   7.119   4.618
 8221SOL     OW33202   3.754   6.242   4.152
 8221SOL    HW233203   3.694   6.214   4.222
 8221SOL    HW333204   3.828   6.182   4.158
 8221SOL    MW433205   3.756   6.231   4.161
 8222SOL     OW33206   4.922   6.973   4.312
 8222SOL    HW233207   4.945   6.924   4.390
 8222SOL    HW333208   5.003   7.015   4.284
 8222SOL    MW433209   4.935   6.973   4.319
 8223SOL     OW33210   4.180   5.981   5.041
 8223SOL    HW233211   4.213   6.062   5.081
 8223SOL    HW333212   4.153   6.007   4.953
 8223SOL    MW433213   4.179   5.995   5.035
 8224SOL     OW33214   4.134   5.948   4.777
 8224SOL    HW233215   4.164   5.862   4.748
 8224SOL    HW333216   4.039   5.941   4.780
 8224SOL    MW433217   4.126   5.937   4.775
 8225SOL     OW33218   4.963   6.157   5.468
 8225SOL    HW233219   5.015   6.092   5.421
 8225SOL    HW333220   4.921   6.208   5.398
 8225SOL    MW433221   4.964   6.154   5.451
 8226SOL     OW33222   5.062   5.952   5.329
 8226SOL    HW233223   4.969   5.936   5.316
 8226SOL    HW333224   5.088   5.890   5.397
 8226SOL    MW433225   5.052   5.942   5.336
 8227SOL     OW33226   4.277   5.726   4.668
 8227SOL    HW233227   4.287   5.635   4.694
 8227SOL    HW333228   4.233   5.722   4.583
 8227SOL    MW433229   4.273   5.714   4.660
 8228SOL     OW33230   5.428   6.048   4.839
 8228SOL    HW233231   5.361   6.081   4.899
 8228SOL    HW333232   5.471   6.126   4.805
 8228SOL    MW433233   5.426   6.063   4.843
 8229SOL     OW33234   5.606   6.768   4.809
 8229SOL    HW233235   5.599   6.708   4.734
 8229SOL    HW333236   5.532   6.828   4.798
 8229SOL    MW433237   5.596   6.768   4.798
 8230SOL     OW33238   4.988   6.630   4.727
 8230SOL    HW233239   5.002   6.602   4.818
 8230SOL    HW333240   5.074   6.661   4.699
 8230SOL    MW433241   5.001   6.631   4.736
 8231SOL     OW33242   5.071   6.125   5.006
 8231SOL    HW233243   5.092   6.126   4.913
 8231SOL    HW333244   5.116   6.047   5.039
 8231SOL    MW433245   5.078   6.115   4.998
 8232SOL     OW33246   5.564   6.256   5.548
 8232SOL    HW233247   5.601   6.201   5.617
 8232SOL    HW333248   5.589   6.213   5.466
 8232SOL    MW433249   5.571   6.244   5.547
 8233SOL     OW33250   5.111   6.554   5.600
 8233SOL    HW233251   5.177   6.502   5.554
 8233SOL    HW333252   5.131   6.541   5.693
 8233SOL    MW433253   5.122   6.545   5.607
 8234SOL     OW33254   5.062   5.640   3.948
 8234SOL    HW233255   5.136   5.684   3.991
 8234SOL    HW333256   4.986   5.694   3.970
 8234SOL    MW433257   5.062   5.652   3.956
 8235SOL     OW33258   5.122   6.415   4.226
 8235SOL    HW233259   5.037   6.385   4.196
 8235SOL    HW333260   5.114   6.422   4.321
 8235SOL    MW433261   5.110   6.413   4.235
 8236SOL     OW33262   4.198   6.878   4.957
 8236SOL    HW233263   4.210   6.905   5.048
 8236SOL    HW333264   4.179   6.959   4.910
 8236SOL    MW433265   4.197   6.893   4.962
 8237SOL     OW33266   4.482   5.858   4.780
 8237SOL    HW233267   4.455   5.860   4.871
 8237SOL    HW333268   4.412   5.810   4.735
 8237SOL    MW433269   4.470   5.854   4.787
 8238SOL     OW33270   5.238   6.935   5.174
 8238SOL    HW233271   5.223   6.864   5.237
 8238SOL    HW333272   5.284   6.893   5.102
 8238SOL    MW433273   5.244   6.919   5.174
 8239SOL     OW33274   4.312   6.666   5.291
 8239SOL    HW233275   4.349   6.671   5.203
 8239SOL    HW333276   4.351   6.739   5.338
 8239SOL    MW433277   4.322   6.676   5.286
 8240SOL     OW33278   4.492   6.709   5.103
 8240SOL    HW233279   4.551   6.655   5.156
 8240SOL    HW333280   4.507   6.681   5.013
 8240SOL    MW433281   4.502   6.698   5.099
 8241SOL     OW33282   4.495   6.081   3.952
 8241SOL    HW233283   4.568   6.130   3.915
 8241SOL    HW333284   4.511   5.990   3.926
 8241SOL    MW433285   4.507   6.076   3.945
 8242SOL     OW33286   4.963   5.677   4.866
 8242SOL    HW233287   5.018   5.686   4.788
 8242SOL    HW333288   5.018   5.711   4.937
 8242SOL    MW433289   4.977   5.682   4.865
 8243SOL     OW33290   3.970   6.590   4.050
 8243SOL    HW233291   3.907   6.606   3.979
 8243SOL    HW333292   3.917   6.553   4.121
 8243SOL    MW433293   3.955   6.587   4.050
 8244SOL     OW33294   4.326   6.944   3.909
 8244SOL    HW233295   4.341   6.920   4.001
 8244SOL    HW333296   4.234   6.922   3.893
 8244SOL    MW433297   4.316   6.937   3.919
 8245SOL     OW33298   4.741   6.811   4.873
 8245SOL    HW233299   4.673   6.745   4.889
 8245SOL    HW333300   4.759   6.805   4.780
 8245SOL    MW433301   4.734   6.802   4.864
 8246SOL     OW33302   3.830   7.086   5.124
 8246SOL    HW233303   3.820   7.044   5.210
 8246SOL    HW333304   3.751   7.139   5.114
 8246SOL    MW433305   3.819   7.087   5.135
 8247SOL     OW33306   4.734   5.950   4.694
 8247SOL    HW233307   4.664   5.902   4.739
 8247SOL    HW333308   4.766   6.013   4.758
 8247SOL    MW433309   4.729   5.952   4.708
 8248SOL     OW33310   4.385   6.386   5.314
 8248SOL    HW233311   4.378   6.481   5.302
 8248SOL    HW333312   4.394   6.375   5.409
 8248SOL    MW433313   4.386   6.398   5.324
 8249SOL     OW33314   4.106   6.901   5.572
 8249SOL    HW233315   4.178   6.903   5.509
 8249SOL    HW333316   4.076   6.810   5.571
 8249SOL    MW433317   4.111   6.890   5.564
 8250SOL     OW33318   5.190   5.664   5.039
 8250SOL    HW233319   5.261   5.610   5.003
 8250SOL    HW333320   5.189   5.643   5.132
 8250SOL    MW433321   5.199   5.655   5.047
 8251SOL     OW33322   4.201   6.056   4.507
 8251SOL    HW233323   4.272   6.004   4.470
 8251SOL    HW333324   4.187   6.021   4.594
 8251SOL    MW433325   4.209   6.045   4.514
 8252SOL     OW33326   4.837   5.997   4.231
 8252SOL    HW233327   4.859   5.934   4.163
 8252SOL    HW333328   4.742   5.989   4.242
 8252SOL    MW433329   4.827   5.988   4.223
 8253SOL     OW33330   3.753   6.154   5.306
 8253SOL    HW233331   3.817   6.220   5.281
 8253SOL    HW333332   3.672   6.181   5.263
 8253SOL    MW433333   3.751   6.166   5.298
 8254SOL     OW33334   5.491   7.061   4.263
 8254SOL    HW233335   5.461   6.994   4.324
 8254SOL    HW333336   5.585   7.067   4.277
 8254SOL    MW433337   5.499   7.053   4.273
 8255SOL     OW33338   5.047   6.738   4.193
 8255SOL    HW233339   5.019   6.824   4.226
 8255SOL    HW333340   5.075   6.754   4.103
 8255SOL    MW433341   5.047   6.752   4.185
 8256SOL     OW33342   4.709   5.658   4.246
 8256SOL    HW233343   4.746   5.717   4.311
 8256SOL    HW333344   4.686   5.714   4.172
 8256SOL    MW433345   4.710   5.673   4.245
 8257SOL     OW33346   5.562   6.540   4.668
 8257SOL    HW233347   5.553   6.572   4.579
 8257SOL    HW333348   5.515   6.456   4.668
 8257SOL    MW433349   5.555   6.533   4.658
 8258SOL     OW33350   3.938   6.380   5.247
 8258SOL    HW233351   3.959   6.449   5.185
 8258SOL    HW333352   4.018   6.327   5.252
 8258SOL    MW433353   3.951   6.381   5.241
 8259SOL     OW33354   5.474   6.471   4.369
 8259SOL    HW233355   5.568   6.460   4.357
 8259SOL    HW333356   5.450   6.543   4.310
 8259SOL    MW433357   5.484   6.479   4.360
 8260SOL     OW33358   3.923   6.395   5.514
 8260SOL    HW233359   3.849   6.339   5.540
 8260SOL    HW333360   3.918   6.398   5.419
 8260SOL    MW433361   3.912   6.388   5.504
 8261SOL     OW33362   4.089   5.682   4.964
 8261SOL    HW233363   4.132   5.766   4.984
 8261SOL    HW333364   4.162   5.620   4.957
 8261SOL    MW433365   4.104   5.685   4.965
 8262SOL     OW33366   4.130   6.349   4.142
 8262SOL    HW233367   4.130   6.444   4.127
 8262SOL    HW333368   4.207   6.333   4.196
 8262SOL    MW433369   4.140   6.360   4.147
 8263SOL     OW33370   4.906   6.208   5.206
 8263SOL    HW233371   4.942   6.181   5.122
 8263SOL    HW333372   4.819   6.242   5.185
 8263SOL    MW433373   4.900   6.209   5.193
 8264SOL     OW33374   3.889   6.080   4.431
 8264SOL    HW233375   3.951   6.087   4.504
 8264SOL    HW333376   3.889   5.987   4.408
 8264SOL    MW433377   3.897   6.069   4.438
 8265SOL     OW33378   4.571   6.341   4.915
 8265SOL    HW233379   4.529   6.259   4.891
 8265SOL    HW333380   4.572   6.340   5.011
 8265SOL    MW433381   4.564   6.330   4.924
 8266SOL     OW33382   4.375   5.811   5.020
 8266SOL    HW233383   4.306   5.874   5.041
 8266SOL    HW333384   4.402   5.775   5.105
 8266SOL    MW433385   4.369   5.814   5.033
 8267SOL     OW33386   3.758   6.652   3.889
 8267SOL    HW233387   3.727   6.717   3.952
 8267SOL    HW333388   3.707   6.574   3.908
 8267SOL    MW433389   3.748   6.649   3.899
 8268SOL     OW33390   5.170   5.664   4.637
 8268SOL    HW233391   5.258   5.673   4.674
 8268SOL    HW333392   5.180   5.605   4.563
 8268SOL    MW433393   5.184   5.658   4.631
 8269SOL     OW33394   5.202   6.403   4.481
 8269SOL    HW233395   5.282   6.418   4.430
 8269SOL    HW333396   5.195   6.308   4.487
 8269SOL    MW433397   5.211   6.392   4.476
 8270SOL     OW33398   4.652   6.329   5.178
 8270SOL    HW233399   4.721   6.396   5.175
 8270SOL    HW333400   4.585   6.367   5.234
 8270SOL    MW433401   4.653   6.342   5.185
 8271SOL     OW33402   4.070   6.629   5.426
 8271SOL    HW233403   4.024   6.545   5.428
 8271SOL    HW333404   4.127   6.623   5.350
 8271SOL    MW433405   4.072   6.617   5.418
 8272SOL     OW33406   5.187   6.272   3.747
 8272SOL    HW233407   5.115   6.248   3.689
 8272SOL    HW333408   5.253   6.309   3.689
 8272SOL    MW433409   5.186   6.274   3.732
 8273SOL     OW33410   4.582   6.169   4.557
 8273SOL    HW233411   4.522   6.187   4.629
 8273SOL    HW333412   4.616   6.081   4.576
 8273SOL    MW433413   4.578   6.159   4.570
 8274SOL     OW33414   5.523   5.668   5.226
 8274SOL    HW233415   5.444   5.714   5.254
 8274SOL    HW333416   5.558   5.722   5.155
 8274SOL    MW433417   5.517   5.681   5.220
 8275SOL     OW33418   4.807   6.752   4.576
 8275SOL    HW233419   4.899   6.733   4.594
 8275SOL    HW333420   4.780   6.682   4.516
 8275SOL    MW433421   4.815   6.740   4.570
 8276SOL     OW33422   4.600   6.572   3.931
 8276SOL    HW233423   4.586   6.484   3.896
 8276SOL    HW333424   4.551   6.629   3.872
 8276SOL    MW433425   4.592   6.567   3.919
 8277SOL     OW33426   5.081   6.990   4.672
 8277SOL    HW233427   5.054   7.074   4.637
 8277SOL    HW333428   5.041   6.985   4.759
 8277SOL    MW433429   5.074   6.999   4.678
 8278SOL     OW33430   5.000   6.938   4.940
 8278SOL    HW233431   5.011   6.905   5.029
 8278SOL    HW333432   4.919   6.897   4.909
 8278SOL    MW433433   4.990   6.930   4.946
 8279SOL     OW33434   4.013   6.296   4.710
 8279SOL    HW233435   3.963   6.295   4.791
 8279SOL    HW333436   4.033   6.388   4.694
 8279SOL    MW433437   4.009   6.308   4.718
 8280SOL     OW33438   5.080   7.060   5.472
 8280SOL    HW233439   5.080   7.154   5.488
 8280SOL    HW333440   5.125   7.050   5.388
 8280SOL    MW433441   5.086   7.070   5.463
 8281SOL     OW33442   5.319   5.778   4.033
 8281SOL    HW233443   5.312   5.782   4.128
 8281SOL    HW333444   5.331   5.869   4.006
 8281SOL    MW433445   5.320   5.791   4.041
 8282SOL     OW33446   4.608   6.341   4.147
 8282SOL    HW233447   4.588   6.327   4.054
 8282SOL    HW333448   4.701   6.320   4.154
 8282SOL    MW433449   4.618   6.336   4.136
 8283SOL     OW33450   3.935   5.964   5.451
 8283SOL    HW233451   3.892   6.023   5.388
 8283SOL    HW333452   4.003   6.019   5.491
 8283SOL    MW433453   3.939   5.979   5.448
 8284SOL     OW33454   5.047   6.584   4.996
 8284SOL    HW233455   5.110   6.581   5.069
 8284SOL    HW333456   4.963   6.602   5.038
 8284SOL    MW433457   5.043   6.586   5.011
 8285SOL     OW33458   5.386   5.761   4.775
 8285SOL    HW233459   5.431   5.679   4.794
 8285SOL    HW333460   5.406   5.817   4.851
 8285SOL    MW433461   5.396   5.757   4.787
 8286SOL     OW33462   3.834   5.604   4.874
 8286SOL    HW233463   3.825   5.605   4.779
 8286SOL    HW333464   3.928   5.616   4.889
 8286SOL    MW433465   3.846   5.607   4.865
 8287SOL     OW33466   5.471   6.797   4.494
 8287SOL    HW233467   5.450   6.743   4.417
 8287SOL    HW333468   5.567   6.795   4.498
 8287SOL    MW433469   5.480   6.790   4.483
 8288SOL     OW33470   4.163   6.942   5.237
 8288SOL    HW233471   4.084   6.892   5.260
 8288SOL    HW333472   4.233   6.901   5.287
 8288SOL    MW433473   4.161   6.930   5.247
 8289SOL     OW33474   5.171   6.228   4.756
 8289SOL    HW233475   5.094   6.274   4.722
 8289SOL    HW333476   5.228   6.297   4.790
 8289SOL    MW433477   5.168   6.243   4.756
 8290SOL     OW33478   3.803   5.830   3.769
 8290SOL    HW233479   3.770   5.909   3.813
 8290SOL    HW333480   3.858   5.863   3.698
 8290SOL    MW433481   3.806   5.844   3.766
 8291SOL     OW33482   5.109   7.176   4.175
 8291SOL    HW233483   5.172   7.166   4.104
 8291SOL    HW333484   5.026   7.196   4.130
 8291SOL    MW433485   5.106   7.177   4.160
 8292SOL     OW33486   5.472   6.444   5.862
 8292SOL    HW233487   5.513   6.386   5.927
 8292SOL    HW333488   5.379   6.436   5.879
 8292SOL    MW433489   5.466   6.436   5.872
 8293SOL     OW33490   4.266   6.627   6.091
 8293SOL    HW233491   4.356   6.602   6.075
 8293SOL    HW333492   4.262   6.720   6.068
 8293SOL    MW433493   4.278   6.636   6.086
 8294SOL     OW33494   4.550   6.083   6.104
 8294SOL    HW233495   4.525   6.171   6.132
 8294SOL    HW333496   4.547   6.086   6.008
 8294SOL    MW433497   4.546   6.095   6.096
 8295SOL     OW33498   3.992   6.111   6.032
 8295SOL    HW233499   4.024   6.199   6.014
 8295SOL    HW333500   3.980   6.109   6.127
 8295SOL    MW433501   3.995   6.123   6.044
 8296SOL     OW33502   4.391   5.866   6.119
 8296SOL    HW233503   4.449   5.942   6.121
 8296SOL    HW333504   4.326   5.887   6.052
 8296SOL    MW433505   4.390   5.878   6.110
 8297SOL     OW33506   4.478   6.793   6.294
 8297SOL    HW233507   4.558   6.796   6.346
 8297SOL    HW333508   4.506   6.760   6.208
 8297SOL    MW433509   4.492   6.789   6.289
 8298SOL     OW33510   4.255   6.297   6.285
 8298SOL    HW233511   4.240   6.217   6.336
 8298SOL    HW333512   4.337   6.332   6.319
 8298SOL    MW433513   4.263   6.289   6.297
 8299SOL     OW33514   5.105   6.775   5.810
 8299SOL    HW233515   5.023   6.811   5.776
 8299SOL    HW333516   5.173   6.818   5.759
 8299SOL    MW433517   5.103   6.785   5.798
 8300SOL     OW33518   4.104   6.910   6.476
 8300SOL    HW233519   4.080   6.963   6.552
 8300SOL    HW333520   4.160   6.968   6.424
 8300SOL    MW433521   4.108   6.925   6.479
 8301SOL     OW33522   4.666   6.554   6.286
 8301SOL    HW233523   4.580   6.541   6.326
 8301SOL    HW333524   4.719   6.481   6.318
 8301SOL    MW433525   4.662   6.543   6.295
 8302SOL     OW33526   4.657   6.916   6.003
 8302SOL    HW233527   4.634   6.978   6.071
 8302SOL    HW333528   4.614   6.834   6.029
 8302SOL    MW433529   4.649   6.912   6.014
 8303SOL     OW33530   4.154   5.889   5.971
 8303SOL    HW233531   4.128   5.851   5.887
 8303SOL    HW333532   4.091   5.959   5.987
 8303SOL    MW433533   4.143   5.892   5.962
 8304SOL     OW33534   3.989   6.850   6.008
 8304SOL    HW233535   3.937   6.918   5.964
 8304SOL    HW333536   3.986   6.776   5.948
 8304SOL    MW433537   3.981   6.849   5.995
 8305SOL     OW33538   5.586   6.086   5.761
 8305SOL    HW233539   5.495   6.088   5.789
 8305SOL    HW333540   5.631   6.148   5.819
 8305SOL    MW433541   5.579   6.094   5.771
 8306SOL     OW33542   5.331   6.689   6.111
 8306SOL    HW233543   5.241   6.689   6.146
 8306SOL    HW333544   5.324   6.735   6.028
 8306SOL    MW433545   5.318   6.695   6.105
 8307SOL     OW33546   4.858   6.270   6.072
 8307SOL    HW233547   4.884   6.294   5.983
 8307SOL    HW333548   4.840   6.177   6.068
 8307SOL    MW433549   4.860   6.262   6.059
 8308SOL     OW33550   5.523   6.890   5.923
 8308SOL    HW233551   5.479   6.931   5.998
 8308SOL    HW333552   5.580   6.958   5.888
 8308SOL    MW433553   5.525   6.904   5.928
 8309SOL     OW33554   4.179   7.306   6.241
 8309SOL    HW233555   4.211   7.394   6.219
 8309SOL    HW333556   4.132   7.278   6.163
 8309SOL    MW433557   4.178   7.314   6.228
 8310SOL     OW33558   4.697   6.299   5.733
 8310SOL    HW233559   4.699   6.246   5.654
 8310SOL    HW333560   4.785   6.336   5.739
 8310SOL    MW433561   4.709   6.298   5.722
 8311SOL     OW33562   5.311   6.225   6.069
 8311SOL    HW233563   5.350   6.225   6.156
 8311SOL    HW333564   5.252   6.301   6.069
 8311SOL    MW433565   5.308   6.236   6.080
 8312SOL     OW33566   3.924   5.825   6.264
 8312SOL    HW233567   3.915   5.765   6.190
 8312SOL    HW333568   3.857   5.796   6.327
 8312SOL    MW433569   3.914   5.812   6.262
 8313SOL     OW33570   4.867   6.918   5.825
 8313SOL    HW233571   4.817   6.920   5.907
 8313SOL    HW333572   4.801   6.936   5.757
 8313SOL    MW433573   4.853   6.920   5.827
 8314SOL     OW33574   4.330   7.336   5.933
 8314SOL    HW233575   4.251   7.294   5.966
 8314SOL    HW333576   4.396   7.319   6.000
 8314SOL    MW433577   4.329   7.328   5.946
 8315SOL     OW33578   4.466   6.751   5.640
 8315SOL    HW233579   4.388   6.697   5.627
 8315SOL    HW333580   4.437   6.824   5.693
 8315SOL    MW433581   4.452   6.753   5.645
 8316SOL     OW33582   5.271   6.941   5.650
 8316SOL    HW233583   5.218   6.990   5.586
 8316SOL    HW333584   5.302   7.007   5.711
 8316SOL    MW433585   5.269   6.955   5.648
 8317SOL     OW33586   4.496   5.830   5.705
 8317SOL    HW233587   4.444   5.750   5.693
 8317SOL    HW333588   4.583   5.807   5.673
 8317SOL    MW433589   4.499   5.816   5.699
 8318SOL     OW33590   3.857   6.470   6.162
 8318SOL    HW233591   3.948   6.485   6.189
 8318SOL    HW333592   3.860   6.391   6.108
 8318SOL    MW433593   3.869   6.462   6.160
 8319SOL     OW33594   3.865   7.082   6.201
 8319SOL    HW233595   3.837   7.121   6.283
 8319SOL    HW333596   3.885   6.991   6.223
 8319SOL    MW433597   3.863   7.074   6.214
 8320SOL     OW33598   4.698   7.125   6.236
 8320SOL    HW233599   4.781   7.079   6.220
 8320SOL    HW333600   4.688   7.124   6.332
 8320SOL    MW433601   4.708   7.118   6.246
 8321SOL     OW33602   4.431   7.182   5.641
 8321SOL    HW233603   4.371   7.251   5.611
 8321SOL    HW333604   4.376   7.124   5.694
 8321SOL    MW433605   4.415   7.184   5.643
 8322SOL     OW33606   4.869   5.827   5.864
 8322SOL    HW233607   4.802   5.803   5.801
 8322SOL    HW333608   4.934   5.876   5.813
 8322SOL    MW433609   4.869   5.829   5.849
 8323SOL     OW33610   4.388   6.544   6.376
 8323SOL    HW233611   4.299   6.535   6.409
 8323SOL    HW333612   4.392   6.634   6.344
 8323SOL    MW433613   4.377   6.555   6.376
 8324SOL     OW33614   5.187   6.127   6.371
 8324SOL    HW233615   5.132   6.048   6.370
 8324SOL    HW333616   5.169   6.168   6.455
 8324SOL    MW433617   5.177   6.122   6.380
 8325SOL     OW33618   4.806   6.331   6.328
 8325SOL    HW233619   4.743   6.263   6.352
 8325SOL    HW333620   4.826   6.312   6.236
 8325SOL    MW433621   4.800   6.318   6.320
 8326SOL     OW33622   4.554   6.635   6.054
 8326SOL    HW233623   4.556   6.609   5.961
 8326SOL    HW333624   4.612   6.572   6.097
 8326SOL    MW433625   4.562   6.624   6.048
 8327SOL     OW33626   5.064   5.879   6.387
 8327SOL    HW233627   5.092   5.811   6.448
 8327SOL    HW333628   4.978   5.850   6.357
 8327SOL    MW433629   5.057   5.866   6.391
 8328SOL     OW33630   3.869   6.813   6.321
 8328SOL    HW233631   3.933   6.845   6.384
 8328SOL    HW333632   3.918   6.749   6.269
 8328SOL    MW433633   3.884   6.809   6.322
 8329SOL     OW33634   5.044   5.983   5.722
 8329SOL    HW233635   5.017   6.049   5.658
 8329SOL    HW333636   5.114   6.026   5.772
 8329SOL    MW433637   5.049   5.996   5.719
 8330SOL     OW33638   4.712   5.688   5.659
 8330SOL    HW233639   4.768   5.680   5.581
 8330SOL    HW333640   4.689   5.598   5.681
 8330SOL    MW433641   4.717   5.675   5.652
 8331SOL     OW33642   5.217   6.539   5.864
 8331SOL    HW233643   5.184   6.628   5.854
 8331SOL    HW333644   5.182   6.510   5.949
 8331SOL    MW433645   5.207   6.548   5.875
 8332SOL     OW33646   4.211   6.577   5.656
 8332SOL    HW233647   4.134   6.590   5.712
 8332SOL    HW333648   4.175   6.541   5.575
 8332SOL    MW433649   4.197   6.573   5.653
 8333SOL     OW33650   4.864   6.550   5.899
 8333SOL    HW233651   4.774   6.571   5.874
 8333SOL    HW333652   4.891   6.623   5.955
 8333SOL    MW433653   4.856   6.562   5.902
 8334SOL     OW33654   4.493   5.666   6.306
 8334SOL    HW233655   4.422   5.727   6.288
 8334SOL    HW333656   4.544   5.663   6.225
 8334SOL    MW433657   4.489   5.672   6.293
 8335SOL     OW33658   4.251   6.906   6.055
 8335SOL    HW233659   4.244   6.938   6.145
 8335SOL    HW333660   4.161   6.890   6.027
 8335SOL    MW433661   4.239   6.908   6.062
 8336SOL     OW33662   4.254   6.190   5.769
 8336SOL    HW233663   4.220   6.246   5.839
 8336SOL    HW333664   4.325   6.140   5.809
 8336SOL    MW433665   4.260   6.191   5.783
 8337SOL     OW33666   5.310   6.076   5.833
 8337SOL    HW233667   5.302   6.147   5.770
 8337SOL    HW333668   5.328   6.120   5.916
 8337SOL    MW433669   5.311   6.090   5.835
 8338SOL     OW33670   4.170   5.731   6.262
 8338SOL    HW233671   4.220   5.774   6.193
 8338SOL    HW333672   4.085   5.775   6.262
 8338SOL    MW433673   4.167   5.744   6.253
 8339SOL     OW33674   4.979   6.338   5.808
 8339SOL    HW233675   5.026   6.356   5.727
 8339SOL    HW333676   4.945   6.422   5.836
 8339SOL    MW433677   4.981   6.352   5.801
 8340SOL     OW33678   4.092   6.516   6.302
 8340SOL    HW233679   4.150   6.572   6.250
 8340SOL    HW333680   4.136   6.431   6.304
 8340SOL    MW433681   4.105   6.513   6.295
 8341SOL     OW33682   4.818   5.830   6.298
 8341SOL    HW233683   4.838   5.905   6.242
 8341SOL    HW333684   4.798   5.869   6.383
 8341SOL    MW433685   4.819   5.846   6.302
 8342SOL     OW33686   3.754   6.242   6.021
 8342SOL    HW233687   3.694   6.214   6.091
 8342SOL    HW333688   3.828   6.182   6.027
 8342SOL    MW433689   3.756   6.231   6.030
 8343SOL     OW33690   4.922   6.973   6.181
 8343SOL    HW233691   4.945   6.924   6.259
 8343SOL    HW333692   5.003   7.015   6.153
 8343SOL    MW433693   4.935   6.973   6.188
 8344SOL     OW33694   4.277   5.726   6.537
 8344SOL    HW233695   4.287   5.635   6.563
 8344SOL    HW333696   4.233   5.722   6.452
 8344SOL    MW433697   4.273   5.714   6.529
 8345SOL     OW33698   5.062   5.640   5.817
 8345SOL    HW233699   5.136   5.684   5.860
 8345SOL    HW333700   4.986   5.694   5.839
 8345SOL    MW433701   5.062   5.652   5.825
 8346SOL     OW33702   5.122   6.415   6.095
 8346SOL    HW233703   5.037   6.385   6.065
 8346SOL    HW333704   5.114   6.422   6.190
 8346SOL    MW433705   5.110   6.413   6.104
 8347SOL     OW33706   4.495   6.081   5.821
 8347SOL    HW233707   4.568   6.130   5.784
 8347SOL    HW333708   4.511   5.990   5.795
 8347SOL    MW433709   4.507   6.076   5.814
 8348SOL     OW33710   3.970   6.590   5.919
 8348SOL    HW233711   3.907   6.606   5.848
 8348SOL    HW333712   3.917   6.553   5.990
 8348SOL    MW433713   3.955   6.587   5.919
 8349SOL     OW33714   4.326   6.944   5.778
 8349SOL    HW233715   4.341   6.920   5.870
 8349SOL    HW333716   4.234   6.922   5.762
 8349SOL    MW433717   4.316   6.937   5.788
 8350SOL     OW33718   4.201   6.056   6.376
 8350SOL    HW233719   4.272   6.004   6.339
 8350SOL    HW333720   4.187   6.021   6.463
 8350SOL    MW433721   4.209   6.045   6.383
 8351SOL     OW33722   4.837   5.997   6.100
 8351SOL    HW233723   4.859   5.934   6.032
 8351SOL    HW333724   4.742   5.989   6.111
 8351SOL    MW433725   4.827   5.988   6.092
 8352SOL     OW33726   3.922   5.687   6.032
 8352SOL    HW233727   3.993   5.708   5.971
 8352SOL    HW333728   3.876   5.615   5.990
 8352SOL    MW433729   3.926   5.681   6.018
 8353SOL     OW33730   5.491   7.061   6.132
 8353SOL    HW233731   5.461   6.994   6.193
 8353SOL    HW333732   5.585   7.067   6.146
 8353SOL    MW433733   5.499   7.053   6.142
 8354SOL     OW33734   5.047   6.738   6.062
 8354SOL    HW233735   5.019   6.824   6.095
 8354SOL    HW333736   5.075   6.754   5.972
 8354SOL    MW433737   5.047   6.752   6.054
 8355SOL     OW33738   4.709   5.658   6.115
 8355SOL    HW233739   4.746   5.717   6.180
 8355SOL    HW333740   4.686   5.714   6.041
 8355SOL    MW433741   4.710   5.673   6.114
 8356SOL     OW33742   4.130   6.349   6.011
 8356SOL    HW233743   4.130   6.444   5.996
 8356SOL    HW333744   4.207   6.333   6.065
 8356SOL    MW433745   4.140   6.360   6.016
 8357SOL     OW33746   3.889   6.080   6.300
 8357SOL    HW233747   3.951   6.087   6.373
 8357SOL    HW333748   3.889   5.987   6.277
 8357SOL    MW433749   3.897   6.069   6.307
 8358SOL     OW33750   3.758   6.652   5.758
 8358SOL    HW233751   3.727   6.717   5.821
 8358SOL    HW333752   3.707   6.574   5.777
 8358SOL    MW433753   3.748   6.649   5.768
 8359SOL     OW33754   5.170   5.664   6.506
 8359SOL    HW233755   5.258   5.673   6.543
 8359SOL    HW333756   5.180   5.605   6.432
 8359SOL    MW433757   5.184   5.658   6.500
 8360SOL     OW33758   5.187   6.272   5.615
 8360SOL    HW233759   5.115   6.248   5.557
 8360SOL    HW333760   5.253   6.309   5.557
 8360SOL    MW433761   5.186   6.274   5.600
 8361SOL     OW33762   4.582   6.169   6.426
 8361SOL    HW233763   4.522   6.187   6.498
 8361SOL    HW333764   4.616   6.081   6.445
 8361SOL    MW433765   4.578   6.159   6.439
 8362SOL     OW33766   4.807   6.752   6.445
 8362SOL    HW233767   4.899   6.733   6.463
 8362SOL    HW333768   4.780   6.682   6.385
 8362SOL    MW433769   4.815   6.740   6.439
 8363SOL     OW33770   4.600   6.572   5.800
 8363SOL    HW233771   4.586   6.484   5.765
 8363SOL    HW333772   4.551   6.629   5.741
 8363SOL    MW433773   4.592   6.567   5.788
 8364SOL     OW33774   5.319   5.778   5.902
 8364SOL    HW233775   5.312   5.782   5.997
 8364SOL    HW333776   5.331   5.869   5.875
 8364SOL    MW433777   5.320   5.791   5.910
 8365SOL     OW33778   4.608   6.341   6.016
 8365SOL    HW233779   4.588   6.327   5.923
 8365SOL    HW333780   4.701   6.320   6.023
 8365SOL    MW433781   4.618   6.336   6.005
 8366SOL     OW33782   4.047   5.731   5.789
 8366SOL    HW233783   3.976   5.786   5.757
 8366SOL    HW333784   4.089   5.697   5.710
 8366SOL    MW433785   4.043   5.733   5.775
 8367SOL     OW33786   3.803   5.830   5.638
 8367SOL    HW233787   3.770   5.909   5.682
 8367SOL    HW333788   3.858   5.863   5.567
 8367SOL    MW433789   3.806   5.844   5.635
 8368SOL     OW33790   5.109   7.176   6.044
 8368SOL    HW233791   5.172   7.166   5.973
 8368SOL    HW333792   5.026   7.196   5.999
 8368SOL    MW433793   5.106   7.177   6.029
 8369SOL     OW33794   7.207   0.771   1.252
 8369SOL    HW233795   7.162   0.838   1.303
 8369SOL    HW333796   7.295   0.807   1.238
 8369SOL    MW433797   7.213   0.784   1.256
 8370SOL     OW33798   6.135   1.022   0.486
 8370SOL    HW233799   6.225   0.997   0.470
 8370SOL    HW333800   6.131   1.115   0.463
 8370SOL    MW433801   6.147   1.031   0.481
 8371SOL     OW33802   7.251   1.725   0.628
 8371SOL    HW233803   7.263   1.671   0.706
 8371SOL    HW333804   7.288   1.673   0.557
 8371SOL    MW433805   7.257   1.710   0.629
 8372SOL     OW33806   6.630   1.610   1.629
 8372SOL    HW233807   6.671   1.646   1.550
 8372SOL    HW333808   6.665   1.521   1.636
 8372SOL    MW433809   6.641   1.603   1.620
 8373SOL     OW33810   7.187   1.165   1.233
 8373SOL    HW233811   7.108   1.130   1.191
 8373SOL    HW333812   7.214   1.237   1.177
 8373SOL    MW433813   7.180   1.170   1.220
 8374SOL     OW33814   6.419   0.478   0.499
 8374SOL    HW233815   6.394   0.566   0.527
 8374SOL    HW333816   6.416   0.481   0.403
 8374SOL    MW433817   6.415   0.490   0.491
 8375SOL     OW33818   5.861   0.506   0.427
 8375SOL    HW233819   5.893   0.594   0.409
 8375SOL    HW333820   5.849   0.504   0.522
 8375SOL    MW433821   5.864   0.518   0.439
 8376SOL     OW33822   5.939   0.919   1.328
 8376SOL    HW233823   6.002   0.866   1.279
 8376SOL    HW333824   5.920   0.993   1.271
 8376SOL    MW433825   5.945   0.921   1.315
 8377SOL     OW33826   6.260   0.261   0.514
 8377SOL    HW233827   6.318   0.337   0.516
 8377SOL    HW333828   6.195   0.282   0.447
 8377SOL    MW433829   6.259   0.273   0.505
 8378SOL     OW33830   6.347   1.188   0.689
 8378SOL    HW233831   6.427   1.191   0.741
 8378SOL    HW333832   6.375   1.155   0.603
 8378SOL    MW433833   6.361   1.184   0.684
 8379SOL     OW33834   6.372   1.529   1.592
 8379SOL    HW233835   6.456   1.555   1.631
 8379SOL    HW333836   6.396   1.473   1.518
 8379SOL    MW433837   6.386   1.525   1.587
 8380SOL     OW33838   6.124   0.692   0.680
 8380SOL    HW233839   6.109   0.612   0.731
 8380SOL    HW333840   6.206   0.727   0.714
 8380SOL    MW433841   6.132   0.684   0.692
 8381SOL     OW33842   6.461   1.378   1.365
 8381SOL    HW233843   6.425   1.444   1.305
 8381SOL    HW333844   6.389   1.316   1.378
 8381SOL    MW433845   6.447   1.378   1.359
 8382SOL     OW33846   6.266   0.518   1.057
 8382SOL    HW233847   6.172   0.514   1.075
 8382SOL    HW333848   6.296   0.427   1.066
 8382SOL    MW433849   6.257   0.506   1.060
 8383SOL     OW33850   6.012   0.932   0.961
 8383SOL    HW233851   5.967   0.939   0.877
 8383SOL    HW333852   5.992   1.015   1.005
 8383SOL    MW433853   6.004   0.944   0.955
 8384SOL     OW33854   5.709   1.778   0.836
 8384SOL    HW233855   5.798   1.770   0.871
 8384SOL    HW333856   5.673   1.690   0.841
 8384SOL    MW433857   5.716   1.765   0.841
 8385SOL     OW33858   5.973   1.305   0.871
 8385SOL    HW233859   5.949   1.358   0.947
 8385SOL    HW333860   6.029   1.363   0.819
 8385SOL    MW433861   5.977   1.320   0.874
 8386SOL     OW33862   6.535   0.949   0.681
 8386SOL    HW233863   6.449   0.936   0.721
 8386SOL    HW333864   6.588   0.876   0.713
 8386SOL    MW433865   6.531   0.938   0.690
 8387SOL     OW33866   5.943   1.601   1.466
 8387SOL    HW233867   5.851   1.577   1.451
 8387SOL    HW333868   5.987   1.518   1.483
 8387SOL    MW433869   5.937   1.586   1.465
 8388SOL     OW33870   6.526   1.311   0.398
 8388SOL    HW233871   6.503   1.373   0.466
 8388SOL    HW333872   6.483   1.229   0.424
 8388SOL    MW433873   6.518   1.307   0.409
 8389SOL     OW33874   7.200   1.084   0.506
 8389SOL    HW233875   7.110   1.084   0.541
 8389SOL    HW333876   7.193   1.130   0.423
 8389SOL    MW433877   7.187   1.090   0.500
 8390SOL     OW33878   7.000   0.719   1.578
 8390SOL    HW233879   7.069   0.657   1.555
 8390SOL    HW333880   6.925   0.693   1.525
 8390SOL    MW433881   7.000   0.706   1.569
 8391SOL     OW33882   5.741   1.599   1.130
 8391SOL    HW233883   5.724   1.545   1.207
 8391SOL    HW333884   5.729   1.689   1.160
 8391SOL    MW433885   5.738   1.603   1.144
 8392SOL     OW33886   6.736   1.106   1.570
 8392SOL    HW233887   6.721   1.199   1.555
 8392SOL    HW333888   6.831   1.096   1.570
 8392SOL    MW433889   6.745   1.116   1.567
 8393SOL     OW33890   6.532   0.530   1.771
 8393SOL    HW233891   6.622   0.531   1.738
 8393SOL    HW333892   6.491   0.455   1.729
 8393SOL    MW433893   6.538   0.520   1.762
 8394SOL     OW33894   7.107   1.062   0.898
 8394SOL    HW233895   7.110   0.996   0.829
 8394SOL    HW333896   7.192   1.105   0.894
 8394SOL    MW433897   7.119   1.058   0.889
 8395SOL     OW33898   6.727   0.665   0.467
 8395SOL    HW233899   6.753   0.689   0.378
 8395SOL    HW333900   6.709   0.572   0.463
 8395SOL    MW433901   6.729   0.657   0.454
 8396SOL     OW33902   6.312   0.334   1.721
 8396SOL    HW233903   6.322   0.260   1.661
 8396SOL    HW333904   6.348   0.303   1.804
 8396SOL    MW433905   6.318   0.320   1.723
 8397SOL     OW33906   6.048   1.701   0.636
 8397SOL    HW233907   6.080   1.789   0.614
 8397SOL    HW333908   6.001   1.673   0.558
 8397SOL    MW433909   6.047   1.709   0.623
 8398SOL     OW33910   7.180   0.620   0.464
 8398SOL    HW233911   7.219   0.620   0.551
 8398SOL    HW333912   7.121   0.696   0.464
 8398SOL    MW433913   7.177   0.631   0.475
 8399SOL     OW33914   6.497   0.987   1.593
 8399SOL    HW233915   6.474   0.967   1.683
 8399SOL    HW333916   6.582   1.031   1.598
 8399SOL    MW433917   6.504   0.990   1.605
 8400SOL     OW33918   6.577   0.124   1.353
 8400SOL    HW233919   6.583   0.086   1.266
 8400SOL    HW333920   6.566   0.218   1.338
 8400SOL    MW433921   6.578   0.132   1.341
 8401SOL     OW33922   6.666   0.613   1.187
 8401SOL    HW233923   6.741   0.642   1.134
 8401SOL    HW333924   6.598   0.678   1.171
 8401SOL    MW433925   6.667   0.625   1.177
 8402SOL     OW33926   7.216   0.581   1.464
 8402SOL    HW233927   7.197   0.490   1.443
 8402SOL    HW333928   7.194   0.630   1.385
 8402SOL    MW433929   7.211   0.574   1.451
 8403SOL     OW33930   7.358   1.675   1.368
 8403SOL    HW233931   7.286   1.637   1.419
 8403SOL    HW333932   7.375   1.760   1.409
 8403SOL    MW433933   7.352   1.680   1.380
 8404SOL     OW33934   7.072   1.133   1.646
 8404SOL    HW233935   7.154   1.174   1.676
 8404SOL    HW333936   7.035   1.095   1.726
 8404SOL    MW433937   7.078   1.134   1.661
 8405SOL     OW33938   7.367   0.506   0.630
 8405SOL    HW233939   7.456   0.475   0.647
 8405SOL    HW333940   7.310   0.446   0.678
 8405SOL    MW433941   7.370   0.494   0.639
 8406SOL     OW33942   5.793   0.220   0.659
 8406SOL    HW233943   5.784   0.160   0.585
 8406SOL    HW333944   5.726   0.191   0.722
 8406SOL    MW433945   5.783   0.207   0.657
 8407SOL     OW33946   5.740   0.393   1.022
 8407SOL    HW233947   5.712   0.484   1.031
 8407SOL    HW333948   5.677   0.354   0.961
 8407SOL    MW433949   5.727   0.399   1.016
 8408SOL     OW33950   6.199   1.731   0.328
 8408SOL    HW233951   6.120   1.689   0.361
 8408SOL    HW333952   6.265   1.714   0.395
 8408SOL    MW433953   6.198   1.723   0.341
 8409SOL     OW33954   7.327   1.251   1.725
 8409SOL    HW233955   7.377   1.177   1.757
 8409SOL    HW333956   7.273   1.278   1.800
 8409SOL    MW433957   7.327   1.245   1.738
 8410SOL     OW33958   7.461   0.886   1.227
 8410SOL    HW233959   7.477   0.924   1.140
 8410SOL    HW333960   7.495   0.952   1.288
 8410SOL    MW433961   7.468   0.899   1.223
 8411SOL     OW33962   7.253   1.595   0.896
 8411SOL    HW233963   7.282   1.662   0.957
 8411SOL    HW333964   7.234   1.519   0.951
 8411SOL    MW433965   7.255   1.595   0.911
 8412SOL     OW33966   5.724   0.668   1.192
 8412SOL    HW233967   5.786   0.698   1.258
 8412SOL    HW333968   5.658   0.737   1.186
 8412SOL    MW433969   5.723   0.681   1.199
 8413SOL     OW33970   5.819   1.777   1.644
 8413SOL    HW233971   5.793   1.845   1.582
 8413SOL    HW333972   5.867   1.714   1.592
 8413SOL    MW433973   5.821   1.777   1.630
 8414SOL     OW33974   5.871   1.096   1.151
 8414SOL    HW233975   5.924   1.171   1.176
 8414SOL    HW333976   5.790   1.134   1.117
 8414SOL    MW433977   5.867   1.111   1.151
 8415SOL     OW33978   6.411   1.000   1.139
 8415SOL    HW233979   6.439   0.909   1.151
 8415SOL    HW333980   6.340   0.994   1.075
 8415SOL    MW433981   6.404   0.988   1.134
 8416SOL     OW33982   5.726   0.865   0.557
 8416SOL    HW233983   5.817   0.880   0.584
 8416SOL    HW333984   5.729   0.786   0.503
 8416SOL    MW433985   5.738   0.857   0.555
 8417SOL     OW33986   5.962   0.573   1.811
 8417SOL    HW233987   5.909   0.653   1.818
 8417SOL    HW333988   6.032   0.585   1.876
 8417SOL    MW433989   5.964   0.586   1.819
 8418SOL     OW33990   6.348   0.123   1.518
 8418SOL    HW233991   6.325   0.031   1.520
 8418SOL    HW333992   6.434   0.125   1.475
 8418SOL    MW433993   6.355   0.113   1.514
 8419SOL     OW33994   6.032   0.647   1.557
 8419SOL    HW233995   6.112   0.697   1.543
 8419SOL    HW333996   6.023   0.641   1.652
 8419SOL    MW433997   6.041   0.653   1.567
 8420SOL     OW33998   6.353   1.797   0.931
 8420SOL    HW233999   6.442   1.812   0.961
 8420SOL    HW334000   6.348   1.844   0.847
 8420SOL    MW434001   6.363   1.805   0.924
 8421SOL     OW34002   5.734   1.477   0.596
 8421SOL    HW234003   5.706   1.516   0.678
 8421SOL    HW334004   5.754   1.386   0.618
 8421SOL    MW434005   5.732   1.469   0.609
 8422SOL     OW34006   6.567   1.520   0.631
 8422SOL    HW234007   6.650   1.474   0.615
 8422SOL    HW334008   6.557   1.519   0.727
 8422SOL    MW434009   6.577   1.513   0.641
 8423SOL     OW34010   7.399   0.665   0.945
 8423SOL    HW234011   7.488   0.695   0.927
 8423SOL    HW334012   7.379   0.605   0.874
 8423SOL    MW434013   7.408   0.662   0.934
 8424SOL     OW34014   7.250   0.844   1.825
 8424SOL    HW234015   7.305   0.768   1.806
 8424SOL    HW334016   7.252   0.852   1.920
 8424SOL    MW434017   7.258   0.835   1.833
 8425SOL     OW34018   6.545   0.406   1.344
 8425SOL    HW234019   6.464   0.447   1.372
 8425SOL    HW334020   6.592   0.474   1.296
 8425SOL    MW434021   6.540   0.421   1.342
 8426SOL     OW34022   6.805   0.744   0.967
 8426SOL    HW234023   6.818   0.838   0.977
 8426SOL    HW334024   6.766   0.734   0.881
 8426SOL    MW434025   6.801   0.755   0.957
 8427SOL     OW34026   6.257   0.939   0.771
 8427SOL    HW234027   6.168   0.930   0.804
 8427SOL    HW334028   6.261   1.029   0.739
 8427SOL    MW434029   6.246   0.950   0.771
 8428SOL     OW34030   7.056   0.522   0.766
 8428SOL    HW234031   7.001   0.443   0.765
 8428SOL    HW334032   7.038   0.563   0.850
 8428SOL    MW434033   7.046   0.517   0.775
 8429SOL     OW34034   6.027   0.209   1.583
 8429SOL    HW234035   5.948   0.227   1.635
 8429SOL    HW334036   6.022   0.271   1.510
 8429SOL    MW434037   6.017   0.219   1.580
 8430SOL     OW34038   6.675   0.726   0.723
 8430SOL    HW234039   6.612   0.658   0.747
 8430SOL    HW334040   6.695   0.707   0.631
 8430SOL    MW434041   6.669   0.713   0.715
 8431SOL     OW34042   5.931   1.621   0.425
 8431SOL    HW234043   5.892   1.668   0.351
 8431SOL    HW334044   5.865   1.556   0.450
 8431SOL    MW434045   5.918   1.619   0.419
 8432SOL     OW34046   6.423   1.030   0.449
 8432SOL    HW234047   6.425   1.004   0.356
 8432SOL    HW334048   6.481   0.967   0.492
 8432SOL    MW434049   6.431   1.019   0.443
 8433SOL     OW34050   6.976   1.590   1.221
 8433SOL    HW234051   6.901   1.636   1.259
 8433SOL    HW334052   6.958   1.497   1.238
 8433SOL    MW434053   6.965   1.584   1.229
 8434SOL     OW34054   6.980   1.798   0.651
 8434SOL    HW234055   6.923   1.751   0.590
 8434SOL    HW334056   7.066   1.759   0.638
 8434SOL    MW434057   6.983   1.789   0.641
 8435SOL     OW34058   5.738   1.208   0.716
 8435SOL    HW234059   5.802   1.240   0.779
 8435SOL    HW334060   5.787   1.144   0.664
 8435SOL    MW434061   5.753   1.204   0.717
 8436SOL     OW34062   6.238   1.284   1.698
 8436SOL    HW234063   6.286   1.367   1.685
 8436SOL    HW334064   6.295   1.232   1.754
 8436SOL    MW434065   6.252   1.288   1.704
 8437SOL     OW34066   5.814   1.526   1.838
 8437SOL    HW234067   5.870   1.450   1.853
 8437SOL    HW334068   5.763   1.504   1.760
 8437SOL    MW434069   5.814   1.513   1.829
 8438SOL     OW34070   7.086   0.934   0.259
 8438SOL    HW234071   7.053   1.023   0.249
 8438SOL    HW334072   7.051   0.905   0.344
 8438SOL    MW434073   7.076   0.943   0.270
 8439SOL     OW34074   6.699   1.363   1.447
 8439SOL    HW234075   6.610   1.369   1.415
 8439SOL    HW334076   6.743   1.442   1.415
 8439SOL    MW434077   6.694   1.373   1.439
 8440SOL     OW34078   6.016   1.521   1.088
 8440SOL    HW234079   6.061   1.583   1.145
 8440SOL    HW334080   5.923   1.540   1.101
 8440SOL    MW434081   6.009   1.531   1.095
 8441SOL     OW34082   7.456   1.050   1.442
 8441SOL    HW234083   7.371   1.063   1.401
 8441SOL    HW334084   7.436   1.014   1.529
 8441SOL    MW434085   7.443   1.046   1.447
 8442SOL     OW34086   6.438   1.589   1.196
 8442SOL    HW234087   6.462   1.578   1.105
 8442SOL    HW334088   6.361   1.646   1.194
 8442SOL    MW434089   6.430   1.594   1.185
 8443SOL     OW34090   6.733   0.945   0.294
 8443SOL    HW234091   6.643   0.966   0.269
 8443SOL    HW334092   6.760   1.018   0.350
 8443SOL    MW434093   6.725   0.957   0.297
 8444SOL     OW34094   6.233   1.294   0.986
 8444SOL    HW234095   6.226   1.273   1.080
 8444SOL    HW334096   6.151   1.262   0.949
 8444SOL    MW434097   6.221   1.288   0.993
 8445SOL     OW34098   7.097   0.304   1.388
 8445SOL    HW234099   7.044   0.306   1.468
 8445SOL    HW334100   7.082   0.217   1.351
 8445SOL    MW434101   7.089   0.294   1.393
 8446SOL     OW34102   5.679   1.386   1.649
 8446SOL    HW234103   5.723   1.319   1.595
 8446SOL    HW334104   5.594   1.348   1.669
 8446SOL    MW434105   5.674   1.372   1.645
 8447SOL     OW34106   6.120   1.301   0.450
 8447SOL    HW234107   6.113   1.333   0.540
 8447SOL    HW334108   6.030   1.285   0.422
 8447SOL    MW434109   6.108   1.303   0.457
 8448SOL     OW34110   6.715   1.694   1.359
 8448SOL    HW234111   6.635   1.679   1.309
 8448SOL    HW334112   6.722   1.789   1.366
 8448SOL    MW434113   6.706   1.705   1.353
 8449SOL     OW34114   6.829   1.659   0.849
 8449SOL    HW234115   6.876   1.732   0.808
 8449SOL    HW334116   6.750   1.698   0.885
 8449SOL    MW434117   6.824   1.674   0.848
 8450SOL     OW34118   7.237   1.754   1.124
 8450SOL    HW234119   7.280   1.724   1.204
 8450SOL    HW334120   7.156   1.702   1.121
 8450SOL    MW434121   7.232   1.743   1.134
 8451SOL     OW34122   6.322   0.718   1.831
 8451SOL    HW234123   6.392   0.660   1.803
 8451SOL    HW334124   6.265   0.663   1.886
 8451SOL    MW434125   6.324   0.705   1.835
 8452SOL     OW34126   7.109   0.930   1.464
 8452SOL    HW234127   7.114   0.983   1.544
 8452SOL    HW334128   7.071   0.847   1.492
 8452SOL    MW434129   7.105   0.925   1.479
 8453SOL     OW34130   7.219   1.336   0.986
 8453SOL    HW234131   7.254   1.318   0.899
 8453SOL    HW334132   7.124   1.337   0.973
 8453SOL    MW434133   7.211   1.333   0.973
 8454SOL     OW34134   6.648   0.984   1.355
 8454SOL    HW234135   6.691   1.019   1.433
 8454SOL    HW334136   6.631   1.061   1.301
 8454SOL    MW434137   6.651   0.999   1.358
 8455SOL     OW34138   6.039   0.126   0.657
 8455SOL    HW234139   6.089   0.169   0.588
 8455SOL    HW334140   5.954   0.170   0.657
 8455SOL    MW434141   6.036   0.139   0.648
 8456SOL     OW34142   5.798   1.188   1.517
 8456SOL    HW234143   5.826   1.141   1.595
 8456SOL    HW334144   5.719   1.143   1.488
 8456SOL    MW434145   5.791   1.177   1.523
 8457SOL     OW34146   6.306   0.515   1.484
 8457SOL    HW234147   6.278   0.603   1.508
 8457SOL    HW334148   6.275   0.459   1.555
 8457SOL    MW434149   6.298   0.518   1.496
 8458SOL     OW34150   5.961   0.911   0.697
 8458SOL    HW234151   6.019   0.967   0.645
 8458SOL    HW334152   6.005   0.826   0.699
 8458SOL    MW434153   5.974   0.908   0.690
 8459SOL     OW34154   7.101   0.263   0.534
 8459SOL    HW234155   7.023   0.213   0.559
 8459SOL    HW334156   7.072   0.354   0.534
 8459SOL    MW434157   7.087   0.267   0.537
 8460SOL     OW34158   7.447   0.998   1.712
 8460SOL    HW234159   7.360   0.978   1.748
 8460SOL    HW334160   7.501   0.924   1.737
 8460SOL    MW434161   7.442   0.987   1.720
 8461SOL     OW34162   5.668   1.511   0.869
 8461SOL    HW234163   5.700   1.515   0.960
 8461SOL    HW334164   5.573   1.519   0.877
 8461SOL    MW434165   5.660   1.514   0.882
 8462SOL     OW34166   5.623   0.637   0.416
 8462SOL    HW234167   5.563   0.609   0.486
 8462SOL    HW334168   5.697   0.577   0.422
 8462SOL    MW434169   5.625   0.626   0.425
 8463SOL     OW34170   7.191   1.849   1.850
 8463SOL    HW234171   7.236   1.773   1.815
 8463SOL    HW334172   7.229   1.862   1.937
 8463SOL    MW434173   7.201   1.842   1.856
 8464SOL     OW34174   6.791   1.368   0.576
 8464SOL    HW234175   6.814   1.319   0.654
 8464SOL    HW334176   6.872   1.410   0.548
 8464SOL    MW434177   6.804   1.368   0.583
 8465SOL     OW34178   6.049   0.376   1.305
 8465SOL    HW234179   6.082   0.457   1.345
 8465SOL    HW334180   6.022   0.402   1.217
 8465SOL    MW434181   6.048   0.390   1.299
 8466SOL     OW34182   6.832   0.552   1.732
 8466SOL    HW234183   6.884   0.487   1.685
 8466SOL    HW334184   6.790   0.603   1.662
 8466SOL    MW434185   6.833   0.549   1.715
 8467SOL     OW34186   6.931   0.347   1.593
 8467SOL    HW234187   6.838   0.331   1.580
 8467SOL    HW334188   6.957   0.285   1.661
 8467SOL    MW434189   6.921   0.337   1.600
 8468SOL     OW34190   6.240   1.736   1.478
 8468SOL    HW234191   6.157   1.721   1.523
 8468SOL    HW334192   6.299   1.669   1.513
 8468SOL    MW434193   6.238   1.726   1.488
 8469SOL     OW34194   7.297   0.443   1.103
 8469SOL    HW234195   7.230   0.476   1.163
 8469SOL    HW334196   7.340   0.521   1.069
 8469SOL    MW434197   7.295   0.458   1.107
 8470SOL     OW34198   7.475   1.163   1.073
 8470SOL    HW234199   7.468   1.103   0.998
 8470SOL    HW334200   7.401   1.223   1.062
 8470SOL    MW434201   7.465   1.163   1.062
 8471SOL     OW34202   6.857   1.025   0.991
 8471SOL    HW234203   6.871   0.997   1.082
 8471SOL    HW334204   6.943   1.056   0.963
 8471SOL    MW434205   6.870   1.026   1.000
 8472SOL     OW34206   6.940   0.520   1.270
 8472SOL    HW234207   6.961   0.521   1.177
 8472SOL    HW334208   6.985   0.442   1.303
 8472SOL    MW434209   6.947   0.510   1.262
 8473SOL     OW34210   7.433   0.651   1.812
 8473SOL    HW234211   7.470   0.596   1.881
 8473SOL    HW334212   7.458   0.608   1.730
 8473SOL    MW434213   7.440   0.639   1.811
 8474SOL     OW34214   6.980   0.949   1.863
 8474SOL    HW234215   7.046   0.897   1.817
 8474SOL    HW334216   7.000   0.936   1.956
 8474SOL    MW434217   6.991   0.940   1.870
 8475SOL     OW34218   6.991   0.810   0.490
 8475SOL    HW234219   6.906   0.780   0.460
 8475SOL    HW334220   6.983   0.817   0.585
 8475SOL    MW434221   6.979   0.808   0.499
 8476SOL     OW34222   6.067   1.273   1.221
 8476SOL    HW234223   6.079   1.300   1.312
 8476SOL    HW334224   6.048   1.354   1.174
 8476SOL    MW434225   6.066   1.288   1.226
 8477SOL     OW34226   6.351   0.253   1.044
 8477SOL    HW234227   6.324   0.255   1.135
 8477SOL    HW334228   6.281   0.205   0.999
 8477SOL    MW434229   6.339   0.249   1.051
 8478SOL     OW34230   6.205   1.745   1.206
 8478SOL    HW234231   6.257   1.822   1.183
 8478SOL    HW334232   6.214   1.737   1.301
 8478SOL    MW434233   6.214   1.752   1.217
 8479SOL     OW34234   7.107   1.330   1.438
 8479SOL    HW234235   7.092   1.259   1.501
 8479SOL    HW334236   7.153   1.288   1.366
 8479SOL    MW434237   7.113   1.314   1.438
 8480SOL     OW34238   6.181   1.061   1.555
 8480SOL    HW234239   6.218   1.066   1.467
 8480SOL    HW334240   6.220   1.134   1.602
 8480SOL    MW434241   6.191   1.071   1.550
 8481SOL     OW34242   6.361   1.104   1.367
 8481SOL    HW234243   6.420   1.050   1.420
 8481SOL    HW334244   6.376   1.076   1.277
 8481SOL    MW434245   6.371   1.093   1.363
 8482SOL     OW34246   7.172   1.593   1.539
 8482SOL    HW234247   7.214   1.578   1.624
 8482SOL    HW334248   7.163   1.506   1.501
 8482SOL    MW434249   7.176   1.581   1.546
 8483SOL     OW34250   5.993   1.728   0.894
 8483SOL    HW234251   5.997   1.639   0.929
 8483SOL    HW334252   6.019   1.719   0.803
 8483SOL    MW434253   5.996   1.716   0.886
 8484SOL     OW34254   6.610   1.206   1.137
 8484SOL    HW234255   6.542   1.140   1.153
 8484SOL    HW334256   6.628   1.200   1.044
 8484SOL    MW434257   6.603   1.197   1.128
 8485SOL     OW34258   5.699   1.481   1.388
 8485SOL    HW234259   5.689   1.439   1.474
 8485SOL    HW334260   5.620   1.534   1.378
 8485SOL    MW434261   5.688   1.482   1.399
 8486SOL     OW34262   6.603   0.345   0.958
 8486SOL    HW234263   6.533   0.297   1.003
 8486SOL    HW334264   6.635   0.408   1.022
 8486SOL    MW434265   6.598   0.347   0.972
 8487SOL     OW34266   6.254   0.781   1.578
 8487SOL    HW234267   6.247   0.876   1.566
 8487SOL    HW334268   6.263   0.770   1.673
 8487SOL    MW434269   6.255   0.793   1.588
 8488SOL     OW34270   5.975   1.296   1.836
 8488SOL    HW234271   6.047   1.298   1.773
 8488SOL    HW334272   5.945   1.205   1.835
 8488SOL    MW434273   5.980   1.285   1.828
 8489SOL     OW34274   7.259   1.589   1.787
 8489SOL    HW234275   7.232   1.586   1.878
 8489SOL    HW334276   7.355   1.593   1.790
 8489SOL    MW434277   7.269   1.589   1.799
 8490SOL     OW34278   6.070   0.451   0.771
 8490SOL    HW234279   6.141   0.399   0.734
 8490SOL    HW334280   6.056   0.416   0.858
 8490SOL    MW434281   6.078   0.440   0.778
 8491SOL     OW34282   5.625   1.786   1.843
 8491SOL    HW234283   5.675   1.764   1.765
 8491SOL    HW334284   5.633   1.881   1.851
 8491SOL    MW434285   5.633   1.795   1.834
 8492SOL     OW34286   6.386   1.544   0.847
 8492SOL    HW234287   6.314   1.481   0.860
 8492SOL    HW334288   6.347   1.629   0.865
 8492SOL    MW434289   6.370   1.547   0.850
 8493SOL     OW34290   6.706   0.392   0.495
 8493SOL    HW234291   6.728   0.329   0.427
 8493SOL    HW334292   6.611   0.384   0.506
 8493SOL    MW434293   6.696   0.383   0.487
 8494SOL     OW34294   5.622   0.549   1.570
 8494SOL    HW234295   5.686   0.615   1.545
 8494SOL    HW334296   5.541   0.576   1.527
 8494SOL    MW434297   5.620   0.561   1.562
 8495SOL     OW34298   7.360   1.456   0.527
 8495SOL    HW234299   7.330   1.389   0.588
 8495SOL    HW334300   7.454   1.462   0.541
 8495SOL    MW434301   7.368   1.448   0.537
 8496SOL     OW34302   6.916   1.133   0.457
 8496SOL    HW234303   6.888   1.219   0.490
 8496SOL    HW334304   6.944   1.149   0.367
 8496SOL    MW434305   6.916   1.147   0.449
 8497SOL     OW34306   7.431   0.935   0.932
 8497SOL    HW234307   7.422   0.967   0.843
 8497SOL    HW334308   7.384   0.851   0.932
 8497SOL    MW434309   7.424   0.928   0.922
 8498SOL     OW34310   5.807   0.775   1.511
 8498SOL    HW234311   5.828   0.844   1.449
 8498SOL    HW334312   5.887   0.722   1.516
 8498SOL    MW434313   5.820   0.776   1.505
 8499SOL     OW34314   7.343   0.866   0.633
 8499SOL    HW234315   7.437   0.855   0.621
 8499SOL    HW334316   7.319   0.938   0.574
 8499SOL    MW434317   7.353   0.874   0.624
 8500SOL     OW34318   5.792   0.790   1.778
 8500SOL    HW234319   5.718   0.734   1.804
 8500SOL    HW334320   5.787   0.793   1.683
 8500SOL    MW434321   5.781   0.783   1.768
 8501SOL     OW34322   5.999   0.744   0.406
 8501SOL    HW234323   5.999   0.839   0.391
 8501SOL    HW334324   6.076   0.728   0.460
 8501SOL    MW434325   6.009   0.755   0.411
 8502SOL     OW34326   6.775   0.603   1.470
 8502SOL    HW234327   6.811   0.576   1.386
 8502SOL    HW334328   6.688   0.637   1.449
 8502SOL    MW434329   6.769   0.604   1.457
 8503SOL     OW34330   5.758   0.475   0.695
 8503SOL    HW234331   5.820   0.482   0.768
 8503SOL    HW334332   5.758   0.382   0.672
 8503SOL    MW434333   5.766   0.464   0.702
 8504SOL     OW34334   6.440   0.736   1.179
 8504SOL    HW234335   6.398   0.654   1.155
 8504SOL    HW334336   6.441   0.735   1.275
 8504SOL    MW434337   6.433   0.725   1.188
 8505SOL     OW34338   7.111   1.869   1.578
 8505SOL    HW234339   7.114   1.775   1.561
 8505SOL    HW334340   7.134   1.877   1.670
 8505SOL    MW434341   7.114   1.857   1.588
 8506SOL     OW34342   7.071   0.798   0.745
 8506SOL    HW234343   7.151   0.813   0.694
 8506SOL    HW334344   7.064   0.703   0.751
 8506SOL    MW434345   7.080   0.787   0.740
 8507SOL     OW34346   6.521   0.724   1.442
 8507SOL    HW234347   6.590   0.791   1.439
 8507SOL    HW334348   6.454   0.762   1.498
 8507SOL    MW434349   6.522   0.737   1.449
 8508SOL     OW34350   5.939   1.024   1.690
 8508SOL    HW234351   5.893   0.940   1.692
 8508SOL    HW334352   5.996   1.018   1.614
 8508SOL    MW434353   5.941   1.012   1.682
 8509SOL     OW34354   6.190   1.399   0.691
 8509SOL    HW234355   6.255   1.332   0.712
 8509SOL    HW334356   6.242   1.476   0.668
 8509SOL    MW434357   6.205   1.401   0.690
 8510SOL     OW34358   6.451   0.564   0.821
 8510SOL    HW234359   6.391   0.582   0.893
 8510SOL    HW334360   6.485   0.476   0.840
 8510SOL    MW434361   6.447   0.554   0.834
 8511SOL     OW34362   6.676   1.147   0.840
 8511SOL    HW234363   6.768   1.128   0.858
 8511SOL    HW334364   6.649   1.077   0.780
 8511SOL    MW434365   6.684   1.135   0.834
 8512SOL     OW34366   6.469   0.967   0.195
 8512SOL    HW234367   6.455   0.879   0.160
 8512SOL    HW334368   6.420   1.024   0.136
 8512SOL    MW434369   6.461   0.962   0.183
 8513SOL     OW34370   6.950   1.385   0.936
 8513SOL    HW234371   6.923   1.469   0.901
 8513SOL    HW334372   6.910   1.380   1.023
 8513SOL    MW434373   6.943   1.394   0.942
 8514SOL     OW34374   6.869   1.333   1.204
 8514SOL    HW234375   6.880   1.300   1.293
 8514SOL    HW334376   6.788   1.292   1.173
 8514SOL    MW434377   6.859   1.325   1.210
 8515SOL     OW34378   5.882   0.691   0.974
 8515SOL    HW234379   5.832   0.690   1.055
 8515SOL    HW334380   5.902   0.783   0.958
 8515SOL    MW434381   5.878   0.703   0.982
 8516SOL     OW34382   6.949   1.455   1.736
 8516SOL    HW234383   6.949   1.549   1.752
 8516SOL    HW334384   6.994   1.445   1.652
 8516SOL    MW434385   6.955   1.465   1.727
 8517SOL     OW34386   6.477   0.736   0.411
 8517SOL    HW234387   6.457   0.722   0.318
 8517SOL    HW334388   6.570   0.715   0.418
 8517SOL    MW434389   6.487   0.731   0.400
 8518SOL     OW34390   5.804   0.359   1.715
 8518SOL    HW234391   5.761   0.418   1.652
 8518SOL    HW334392   5.872   0.414   1.755
 8518SOL    MW434393   5.808   0.374   1.712
 8519SOL     OW34394   6.916   0.979   1.260
 8519SOL    HW234395   6.979   0.976   1.333
 8519SOL    HW334396   6.832   0.997   1.302
 8519SOL    MW434397   6.912   0.981   1.275
 8520SOL     OW34398   6.460   1.694   0.449
 8520SOL    HW234399   6.518   1.765   0.476
 8520SOL    HW334400   6.483   1.622   0.507
 8520SOL    MW434401   6.471   1.694   0.460
 8521SOL     OW34402   7.340   1.192   0.758
 8521SOL    HW234403   7.319   1.138   0.681
 8521SOL    HW334404   7.436   1.190   0.762
 8521SOL    MW434405   7.349   1.185   0.747
 8522SOL     OW34406   6.032   1.337   1.501
 8522SOL    HW234407   5.953   1.287   1.524
 8522SOL    HW334408   6.102   1.296   1.551
 8522SOL    MW434409   6.030   1.325   1.511
 8523SOL     OW34410   7.040   0.623   1.020
 8523SOL    HW234411   6.963   0.669   0.986
 8523SOL    HW334412   7.097   0.692   1.054
 8523SOL    MW434413   7.037   0.638   1.020
 8524SOL     OW34414   5.706   1.482   0.222
 8524SOL    HW234415   5.723   1.566   0.264
 8524SOL    HW334416   5.741   1.491   0.134
 8524SOL    MW434417   5.711   1.495   0.216
 8525SOL     OW34418   6.978   1.571   0.439
 8525SOL    HW234419   7.041   1.561   0.368
 8525SOL    HW334420   6.895   1.591   0.394
 8525SOL    MW434421   6.975   1.572   0.424
 8526SOL     OW34422   7.341   0.839   2.125
 8526SOL    HW234423   7.382   0.781   2.190
 8526SOL    HW334424   7.248   0.831   2.142
 8526SOL    MW434425   7.335   0.831   2.135
 8527SOL     OW34426   7.207   0.771   3.120
 8527SOL    HW234427   7.162   0.838   3.171
 8527SOL    HW334428   7.295   0.807   3.106
 8527SOL    MW434429   7.213   0.784   3.124
 8528SOL     OW34430   6.135   1.022   2.354
 8528SOL    HW234431   6.225   0.997   2.338
 8528SOL    HW334432   6.131   1.115   2.331
 8528SOL    MW434433   6.147   1.031   2.349
 8529SOL     OW34434   7.251   1.725   2.496
 8529SOL    HW234435   7.263   1.671   2.574
 8529SOL    HW334436   7.288   1.673   2.425
 8529SOL    MW434437   7.257   1.710   2.497
 8530SOL     OW34438   6.630   1.610   3.497
 8530SOL    HW234439   6.671   1.646   3.418
 8530SOL    HW334440   6.665   1.521   3.504
 8530SOL    MW434441   6.641   1.603   3.488
 8531SOL     OW34442   7.187   1.165   3.101
 8531SOL    HW234443   7.108   1.130   3.059
 8531SOL    HW334444   7.214   1.237   3.045
 8531SOL    MW434445   7.180   1.170   3.088
 8532SOL     OW34446   6.419   0.478   2.367
 8532SOL    HW234447   6.394   0.566   2.395
 8532SOL    HW334448   6.416   0.481   2.271
 8532SOL    MW434449   6.415   0.490   2.359
 8533SOL     OW34450   5.861   0.506   2.295
 8533SOL    HW234451   5.893   0.594   2.277
 8533SOL    HW334452   5.849   0.504   2.390
 8533SOL    MW434453   5.864   0.518   2.307
 8534SOL     OW34454   5.939   0.919   3.196
 8534SOL    HW234455   6.002   0.866   3.147
 8534SOL    HW334456   5.920   0.993   3.139
 8534SOL    MW434457   5.945   0.921   3.183
 8535SOL     OW34458   6.260   0.261   2.382
 8535SOL    HW234459   6.318   0.337   2.384
 8535SOL    HW334460   6.195   0.282   2.315
 8535SOL    MW434461   6.259   0.273   2.373
 8536SOL     OW34462   6.347   1.188   2.557
 8536SOL    HW234463   6.427   1.191   2.609
 8536SOL    HW334464   6.375   1.155   2.471
 8536SOL    MW434465   6.361   1.184   2.552
 8537SOL     OW34466   6.372   1.529   3.460
 8537SOL    HW234467   6.456   1.555   3.499
 8537SOL    HW334468   6.396   1.473   3.386
 8537SOL    MW434469   6.386   1.525   3.455
 8538SOL     OW34470   6.124   0.692   2.548
 8538SOL    HW234471   6.109   0.612   2.599
 8538SOL    HW334472   6.206   0.727   2.582
 8538SOL    MW434473   6.132   0.684   2.560
 8539SOL     OW34474   6.461   1.378   3.233
 8539SOL    HW234475   6.425   1.444   3.173
 8539SOL    HW334476   6.389   1.316   3.246
 8539SOL    MW434477   6.447   1.378   3.227
 8540SOL     OW34478   6.266   0.518   2.925
 8540SOL    HW234479   6.172   0.514   2.943
 8540SOL    HW334480   6.296   0.427   2.934
 8540SOL    MW434481   6.257   0.506   2.928
 8541SOL     OW34482   6.012   0.932   2.829
 8541SOL    HW234483   5.967   0.939   2.745
 8541SOL    HW334484   5.992   1.015   2.873
 8541SOL    MW434485   6.004   0.944   2.823
 8542SOL     OW34486   5.709   1.778   2.704
 8542SOL    HW234487   5.798   1.770   2.739
 8542SOL    HW334488   5.673   1.690   2.709
 8542SOL    MW434489   5.716   1.765   2.709
 8543SOL     OW34490   6.974   1.170   2.073
 8543SOL    HW234491   6.892   1.206   2.039
 8543SOL    HW334492   7.042   1.213   2.022
 8543SOL    MW434493   6.972   1.180   2.061
 8544SOL     OW34494   5.973   1.305   2.739
 8544SOL    HW234495   5.949   1.358   2.815
 8544SOL    HW334496   6.029   1.363   2.687
 8544SOL    MW434497   5.977   1.320   2.742
 8545SOL     OW34498   6.535   0.949   2.549
 8545SOL    HW234499   6.449   0.936   2.589
 8545SOL    HW334500   6.588   0.876   2.581
 8545SOL    MW434501   6.531   0.938   2.558
 8546SOL     OW34502   5.943   1.601   3.334
 8546SOL    HW234503   5.851   1.577   3.319
 8546SOL    HW334504   5.987   1.518   3.351
 8546SOL    MW434505   5.937   1.586   3.333
 8547SOL     OW34506   6.526   1.311   2.266
 8547SOL    HW234507   6.503   1.373   2.334
 8547SOL    HW334508   6.483   1.229   2.292
 8547SOL    MW434509   6.518   1.307   2.277
 8548SOL     OW34510   5.858   1.245   2.271
 8548SOL    HW234511   5.806   1.313   2.227
 8548SOL    HW334512   5.855   1.171   2.211
 8548SOL    MW434513   5.850   1.244   2.258
 8549SOL     OW34514   6.520   1.708   2.049
 8549SOL    HW234515   6.475   1.724   2.132
 8549SOL    HW334516   6.451   1.673   1.991
 8549SOL    MW434517   6.506   1.705   2.051
 8550SOL     OW34518   7.455   0.481   2.024
 8550SOL    HW234519   7.364   0.483   2.052
 8550SOL    HW334520   7.500   0.543   2.082
 8550SOL    MW434521   7.448   0.489   2.034
 8551SOL     OW34522   7.200   1.084   2.374
 8551SOL    HW234523   7.110   1.084   2.409
 8551SOL    HW334524   7.193   1.130   2.291
 8551SOL    MW434525   7.187   1.090   2.368
 8552SOL     OW34526   7.000   0.719   3.446
 8552SOL    HW234527   7.069   0.657   3.423
 8552SOL    HW334528   6.925   0.693   3.393
 8552SOL    MW434529   7.000   0.706   3.437
 8553SOL     OW34530   5.741   1.599   2.998
 8553SOL    HW234531   5.724   1.545   3.075
 8553SOL    HW334532   5.729   1.689   3.028
 8553SOL    MW434533   5.738   1.603   3.012
 8554SOL     OW34534   6.736   1.106   3.438
 8554SOL    HW234535   6.721   1.199   3.423
 8554SOL    HW334536   6.831   1.096   3.438
 8554SOL    MW434537   6.745   1.116   3.435
 8555SOL     OW34538   6.532   0.530   3.639
 8555SOL    HW234539   6.622   0.531   3.606
 8555SOL    HW334540   6.491   0.455   3.597
 8555SOL    MW434541   6.538   0.520   3.630
 8556SOL     OW34542   7.107   1.062   2.766
 8556SOL    HW234543   7.110   0.996   2.697
 8556SOL    HW334544   7.192   1.105   2.762
 8556SOL    MW434545   7.119   1.058   2.757
 8557SOL     OW34546   6.727   0.665   2.335
 8557SOL    HW234547   6.753   0.689   2.246
 8557SOL    HW334548   6.709   0.572   2.331
 8557SOL    MW434549   6.729   0.657   2.322
 8558SOL     OW34550   7.392   1.285   2.186
 8558SOL    HW234551   7.348   1.326   2.261
 8558SOL    HW334552   7.449   1.353   2.151
 8558SOL    MW434553   7.394   1.299   2.191
 8559SOL     OW34554   6.312   0.334   3.589
 8559SOL    HW234555   6.322   0.260   3.529
 8559SOL    HW334556   6.348   0.303   3.672
 8559SOL    MW434557   6.318   0.320   3.591
 8560SOL     OW34558   6.048   1.701   2.504
 8560SOL    HW234559   6.080   1.789   2.482
 8560SOL    HW334560   6.001   1.673   2.426
 8560SOL    MW434561   6.047   1.709   2.491
 8561SOL     OW34562   5.764   1.761   2.081
 8561SOL    HW234563   5.793   1.851   2.073
 8561SOL    HW334564   5.714   1.744   2.002
 8561SOL    MW434565   5.762   1.769   2.070
 8562SOL     OW34566   7.168   1.569   2.052
 8562SOL    HW234567   7.216   1.638   2.098
 8562SOL    HW334568   7.089   1.613   2.021
 8562SOL    MW434569   7.163   1.583   2.055
 8563SOL     OW34570   6.566   0.694   1.996
 8563SOL    HW234571   6.568   0.641   1.917
 8563SOL    HW334572   6.654   0.731   2.002
 8563SOL    MW434573   6.578   0.693   1.985
 8564SOL     OW34574   7.180   0.620   2.332
 8564SOL    HW234575   7.219   0.620   2.419
 8564SOL    HW334576   7.121   0.696   2.332
 8564SOL    MW434577   7.177   0.631   2.343
 8565SOL     OW34578   6.497   0.987   3.461
 8565SOL    HW234579   6.474   0.967   3.551
 8565SOL    HW334580   6.582   1.031   3.466
 8565SOL    MW434581   6.504   0.990   3.473
 8566SOL     OW34582   6.577   0.124   3.221
 8566SOL    HW234583   6.583   0.086   3.134
 8566SOL    HW334584   6.566   0.218   3.206
 8566SOL    MW434585   6.578   0.132   3.209
 8567SOL     OW34586   6.666   0.613   3.055
 8567SOL    HW234587   6.741   0.642   3.002
 8567SOL    HW334588   6.598   0.678   3.039
 8567SOL    MW434589   6.667   0.625   3.045
 8568SOL     OW34590   7.216   0.581   3.332
 8568SOL    HW234591   7.197   0.490   3.311
 8568SOL    HW334592   7.194   0.630   3.253
 8568SOL    MW434593   7.211   0.574   3.319
 8569SOL     OW34594   7.358   1.675   3.236
 8569SOL    HW234595   7.286   1.637   3.287
 8569SOL    HW334596   7.375   1.760   3.277
 8569SOL    MW434597   7.352   1.680   3.248
 8570SOL     OW34598   7.072   1.133   3.514
 8570SOL    HW234599   7.154   1.174   3.544
 8570SOL    HW334600   7.035   1.095   3.594
 8570SOL    MW434601   7.078   1.134   3.529
 8571SOL     OW34602   7.367   0.506   2.498
 8571SOL    HW234603   7.456   0.475   2.515
 8571SOL    HW334604   7.310   0.446   2.546
 8571SOL    MW434605   7.370   0.494   2.507
 8572SOL     OW34606   5.793   0.220   2.527
 8572SOL    HW234607   5.784   0.160   2.453
 8572SOL    HW334608   5.726   0.191   2.590
 8572SOL    MW434609   5.783   0.207   2.525
 8573SOL     OW34610   6.736   1.313   2.088
 8573SOL    HW234611   6.686   1.315   2.170
 8573SOL    HW334612   6.670   1.331   2.020
 8573SOL    MW434613   6.722   1.315   2.090
 8574SOL     OW34614   5.740   0.393   2.890
 8574SOL    HW234615   5.712   0.484   2.899
 8574SOL    HW334616   5.677   0.354   2.829
 8574SOL    MW434617   5.727   0.399   2.884
 8575SOL     OW34618   6.199   1.731   2.196
 8575SOL    HW234619   6.120   1.689   2.229
 8575SOL    HW334620   6.265   1.714   2.263
 8575SOL    MW434621   6.198   1.723   2.209
 8576SOL     OW34622   7.327   1.251   3.593
 8576SOL    HW234623   7.377   1.177   3.625
 8576SOL    HW334624   7.273   1.278   3.668
 8576SOL    MW434625   7.327   1.245   3.606
 8577SOL     OW34626   6.335   1.146   1.903
 8577SOL    HW234627   6.257   1.092   1.890
 8577SOL    HW334628   6.306   1.219   1.956
 8577SOL    MW434629   6.321   1.148   1.908
 8578SOL     OW34630   7.461   0.886   3.095
 8578SOL    HW234631   7.477   0.924   3.008
 8578SOL    HW334632   7.495   0.952   3.156
 8578SOL    MW434633   7.468   0.899   3.091
 8579SOL     OW34634   7.253   1.595   2.764
 8579SOL    HW234635   7.282   1.662   2.825
 8579SOL    HW334636   7.234   1.519   2.819
 8579SOL    MW434637   7.255   1.595   2.779
 8580SOL     OW34638   6.916   1.662   1.971
 8580SOL    HW234639   6.842   1.625   2.021
 8580SOL    HW334640   6.924   1.752   2.004
 8580SOL    MW434641   6.907   1.669   1.983
 8581SOL     OW34642   5.724   0.668   3.060
 8581SOL    HW234643   5.786   0.698   3.126
 8581SOL    HW334644   5.658   0.737   3.054
 8581SOL    MW434645   5.723   0.681   3.067
 8582SOL     OW34646   7.140   1.336   1.913
 8582SOL    HW234647   7.087   1.385   1.849
 8582SOL    HW334648   7.171   1.402   1.974
 8582SOL    MW434649   7.138   1.350   1.911
 8583SOL     OW34650   5.819   1.777   3.512
 8583SOL    HW234651   5.793   1.845   3.450
 8583SOL    HW334652   5.867   1.714   3.460
 8583SOL    MW434653   5.821   1.777   3.498
 8584SOL     OW34654   5.871   1.096   3.019
 8584SOL    HW234655   5.924   1.171   3.044
 8584SOL    HW334656   5.790   1.134   2.985
 8584SOL    MW434657   5.867   1.111   3.019
 8585SOL     OW34658   6.411   1.000   3.007
 8585SOL    HW234659   6.439   0.909   3.019
 8585SOL    HW334660   6.340   0.994   2.943
 8585SOL    MW434661   6.404   0.988   3.002
 8586SOL     OW34662   5.726   0.865   2.425
 8586SOL    HW234663   5.817   0.880   2.452
 8586SOL    HW334664   5.729   0.786   2.371
 8586SOL    MW434665   5.738   0.857   2.423
 8587SOL     OW34666   5.962   0.573   3.679
 8587SOL    HW234667   5.909   0.653   3.686
 8587SOL    HW334668   6.032   0.585   3.744
 8587SOL    MW434669   5.964   0.586   3.687
 8588SOL     OW34670   6.348   0.123   3.386
 8588SOL    HW234671   6.325   0.031   3.388
 8588SOL    HW334672   6.434   0.125   3.343
 8588SOL    MW434673   6.355   0.113   3.382
 8589SOL     OW34674   6.032   0.647   3.425
 8589SOL    HW234675   6.112   0.697   3.411
 8589SOL    HW334676   6.023   0.641   3.520
 8589SOL    MW434677   6.041   0.653   3.435
 8590SOL     OW34678   6.353   1.797   2.799
 8590SOL    HW234679   6.442   1.812   2.829
 8590SOL    HW334680   6.348   1.844   2.715
 8590SOL    MW434681   6.363   1.805   2.792
 8591SOL     OW34682   5.734   1.477   2.464
 8591SOL    HW234683   5.706   1.516   2.546
 8591SOL    HW334684   5.754   1.386   2.486
 8591SOL    MW434685   5.732   1.469   2.477
 8592SOL     OW34686   6.567   1.520   2.499
 8592SOL    HW234687   6.650   1.474   2.483
 8592SOL    HW334688   6.557   1.519   2.595
 8592SOL    MW434689   6.577   1.513   2.509
 8593SOL     OW34690   7.399   0.665   2.813
 8593SOL    HW234691   7.488   0.695   2.795
 8593SOL    HW334692   7.379   0.605   2.742
 8593SOL    MW434693   7.408   0.662   2.802
 8594SOL     OW34694   7.250   0.844   3.693
 8594SOL    HW234695   7.305   0.768   3.674
 8594SOL    HW334696   7.252   0.852   3.788
 8594SOL    MW434697   7.258   0.835   3.701
 8595SOL     OW34698   6.300   1.577   1.904
 8595SOL    HW234699   6.240   1.646   1.874
 8595SOL    HW334700   6.245   1.519   1.957
 8595SOL    MW434701   6.284   1.579   1.906
 8596SOL     OW34702   6.545   0.406   3.212
 8596SOL    HW234703   6.464   0.447   3.240
 8596SOL    HW334704   6.592   0.474   3.164
 8596SOL    MW434705   6.540   0.421   3.210
 8597SOL     OW34706   6.805   0.744   2.835
 8597SOL    HW234707   6.818   0.838   2.845
 8597SOL    HW334708   6.766   0.734   2.749
 8597SOL    MW434709   6.801   0.755   2.825
 8598SOL     OW34710   6.257   0.939   2.639
 8598SOL    HW234711   6.168   0.930   2.672
 8598SOL    HW334712   6.261   1.029   2.607
 8598SOL    MW434713   6.246   0.950   2.639
 8599SOL     OW34714   7.056   0.522   2.634
 8599SOL    HW234715   7.001   0.443   2.633
 8599SOL    HW334716   7.038   0.563   2.718
 8599SOL    MW434717   7.046   0.517   2.643
 8600SOL     OW34718   6.027   0.209   3.451
 8600SOL    HW234719   5.948   0.227   3.503
 8600SOL    HW334720   6.022   0.271   3.378
 8600SOL    MW434721   6.017   0.219   3.448
 8601SOL     OW34722   6.675   0.726   2.591
 8601SOL    HW234723   6.612   0.658   2.615
 8601SOL    HW334724   6.695   0.707   2.499
 8601SOL    MW434725   6.669   0.713   2.583
 8602SOL     OW34726   5.931   1.621   2.293
 8602SOL    HW234727   5.892   1.668   2.219
 8602SOL    HW334728   5.865   1.556   2.318
 8602SOL    MW434729   5.918   1.619   2.287
 8603SOL     OW34730   6.423   1.030   2.317
 8603SOL    HW234731   6.425   1.004   2.224
 8603SOL    HW334732   6.481   0.967   2.360
 8603SOL    MW434733   6.431   1.019   2.311
 8604SOL     OW34734   6.976   1.590   3.089
 8604SOL    HW234735   6.901   1.636   3.127
 8604SOL    HW334736   6.958   1.497   3.106
 8604SOL    MW434737   6.965   1.584   3.097
 8605SOL     OW34738   6.980   1.798   2.519
 8605SOL    HW234739   6.923   1.751   2.458
 8605SOL    HW334740   7.066   1.759   2.506
 8605SOL    MW434741   6.983   1.789   2.509
 8606SOL     OW34742   5.738   1.208   2.584
 8606SOL    HW234743   5.802   1.240   2.647
 8606SOL    HW334744   5.787   1.144   2.532
 8606SOL    MW434745   5.753   1.204   2.585
 8607SOL     OW34746   6.238   1.284   3.566
 8607SOL    HW234747   6.286   1.367   3.553
 8607SOL    HW334748   6.295   1.232   3.622
 8607SOL    MW434749   6.252   1.288   3.572
 8608SOL     OW34750   5.814   1.526   3.706
 8608SOL    HW234751   5.870   1.450   3.721
 8608SOL    HW334752   5.763   1.504   3.628
 8608SOL    MW434753   5.814   1.513   3.697
 8609SOL     OW34754   7.086   0.934   2.127
 8609SOL    HW234755   7.053   1.023   2.117
 8609SOL    HW334756   7.051   0.905   2.212
 8609SOL    MW434757   7.076   0.943   2.138
 8610SOL     OW34758   6.699   1.363   3.315
 8610SOL    HW234759   6.610   1.369   3.283
 8610SOL    HW334760   6.743   1.442   3.283
 8610SOL    MW434761   6.694   1.373   3.307
 8611SOL     OW34762   6.016   1.521   2.956
 8611SOL    HW234763   6.061   1.583   3.013
 8611SOL    HW334764   5.923   1.540   2.969
 8611SOL    MW434765   6.009   1.531   2.963
 8612SOL     OW34766   7.456   1.050   3.310
 8612SOL    HW234767   7.371   1.063   3.269
 8612SOL    HW334768   7.436   1.014   3.397
 8612SOL    MW434769   7.443   1.046   3.315
 8613SOL     OW34770   6.438   1.589   3.064
 8613SOL    HW234771   6.462   1.578   2.973
 8613SOL    HW334772   6.361   1.646   3.062
 8613SOL    MW434773   6.430   1.594   3.053
 8614SOL     OW34774   6.080   0.972   1.919
 8614SOL    HW234775   6.003   0.985   1.975
 8614SOL    HW334776   6.044   0.936   1.838
 8614SOL    MW434777   6.066   0.968   1.916
 8615SOL     OW34778   6.733   0.945   2.162
 8615SOL    HW234779   6.643   0.966   2.137
 8615SOL    HW334780   6.760   1.018   2.218
 8615SOL    MW434781   6.725   0.957   2.165
 8616SOL     OW34782   6.233   1.294   2.854
 8616SOL    HW234783   6.226   1.273   2.948
 8616SOL    HW334784   6.151   1.262   2.817
 8616SOL    MW434785   6.221   1.288   2.861
 8617SOL     OW34786   7.097   0.304   3.256
 8617SOL    HW234787   7.044   0.306   3.336
 8617SOL    HW334788   7.082   0.217   3.219
 8617SOL    MW434789   7.089   0.294   3.261
 8618SOL     OW34790   5.679   1.386   3.517
 8618SOL    HW234791   5.723   1.319   3.463
 8618SOL    HW334792   5.594   1.348   3.537
 8618SOL    MW434793   5.674   1.372   3.513
 8619SOL     OW34794   6.120   1.301   2.318
 8619SOL    HW234795   6.113   1.333   2.408
 8619SOL    HW334796   6.030   1.285   2.290
 8619SOL    MW434797   6.108   1.303   2.325
 8620SOL     OW34798   6.715   1.694   3.227
 8620SOL    HW234799   6.635   1.679   3.177
 8620SOL    HW334800   6.722   1.789   3.234
 8620SOL    MW434801   6.706   1.705   3.221
 8621SOL     OW34802   6.829   1.659   2.717
 8621SOL    HW234803   6.876   1.732   2.676
 8621SOL    HW334804   6.750   1.698   2.753
 8621SOL    MW434805   6.824   1.674   2.716
 8622SOL     OW34806   7.237   1.754   2.992
 8622SOL    HW234807   7.280   1.724   3.072
 8622SOL    HW334808   7.156   1.702   2.989
 8622SOL    MW434809   7.232   1.743   3.002
 8623SOL     OW34810   6.322   0.718   3.699
 8623SOL    HW234811   6.392   0.660   3.671
 8623SOL    HW334812   6.265   0.663   3.754
 8623SOL    MW434813   6.324   0.705   3.703
 8624SOL     OW34814   7.109   0.930   3.332
 8624SOL    HW234815   7.114   0.983   3.412
 8624SOL    HW334816   7.071   0.847   3.360
 8624SOL    MW434817   7.105   0.925   3.347
 8625SOL     OW34818   6.123   0.585   2.032
 8625SOL    HW234819   6.089   0.641   2.102
 8625SOL    HW334820   6.194   0.535   2.072
 8625SOL    MW434821   6.129   0.586   2.046
 8626SOL     OW34822   7.219   1.336   2.854
 8626SOL    HW234823   7.254   1.318   2.767
 8626SOL    HW334824   7.124   1.337   2.841
 8626SOL    MW434825   7.211   1.333   2.841
 8627SOL     OW34826   6.648   0.984   3.223
 8627SOL    HW234827   6.691   1.019   3.301
 8627SOL    HW334828   6.631   1.061   3.169
 8627SOL    MW434829   6.651   0.999   3.226
 8628SOL     OW34830   7.179   0.471   2.096
 8628SOL    HW234831   7.171   0.542   2.033
 8628SOL    HW334832   7.197   0.515   2.179
 8628SOL    MW434833   7.180   0.485   2.098
 8629SOL     OW34834   6.039   0.126   2.525
 8629SOL    HW234835   6.089   0.169   2.456
 8629SOL    HW334836   5.954   0.170   2.525
 8629SOL    MW434837   6.036   0.139   2.516
 8630SOL     OW34838   5.798   1.188   3.385
 8630SOL    HW234839   5.826   1.141   3.463
 8630SOL    HW334840   5.719   1.143   3.356
 8630SOL    MW434841   5.791   1.177   3.391
 8631SOL     OW34842   6.306   0.515   3.352
 8631SOL    HW234843   6.278   0.603   3.376
 8631SOL    HW334844   6.275   0.459   3.423
 8631SOL    MW434845   6.298   0.518   3.364
 8632SOL     OW34846   6.848   0.733   2.071
 8632SOL    HW234847   6.895   0.751   1.990
 8632SOL    HW334848   6.814   0.817   2.099
 8632SOL    MW434849   6.850   0.747   2.064
 8633SOL     OW34850   5.961   0.911   2.565
 8633SOL    HW234851   6.019   0.967   2.513
 8633SOL    HW334852   6.005   0.826   2.567
 8633SOL    MW434853   5.974   0.908   2.558
 8634SOL     OW34854   7.101   0.263   2.402
 8634SOL    HW234855   7.023   0.213   2.427
 8634SOL    HW334856   7.072   0.354   2.402
 8634SOL    MW434857   7.087   0.267   2.405
 8635SOL     OW34858   6.583   1.475   1.893
 8635SOL    HW234859   6.610   1.553   1.845
 8635SOL    HW334860   6.490   1.490   1.912
 8635SOL    MW434861   6.574   1.488   1.889
 8636SOL     OW34862   7.447   0.998   3.580
 8636SOL    HW234863   7.360   0.978   3.616
 8636SOL    HW334864   7.501   0.924   3.605
 8636SOL    MW434865   7.442   0.987   3.588
 8637SOL     OW34866   5.668   1.511   2.737
 8637SOL    HW234867   5.700   1.515   2.828
 8637SOL    HW334868   5.573   1.519   2.745
 8637SOL    MW434869   5.660   1.514   2.750
 8638SOL     OW34870   5.623   0.637   2.284
 8638SOL    HW234871   5.563   0.609   2.354
 8638SOL    HW334872   5.697   0.577   2.290
 8638SOL    MW434873   5.625   0.626   2.293
 8639SOL     OW34874   7.191   1.849   3.718
 8639SOL    HW234875   7.236   1.773   3.683
 8639SOL    HW334876   7.229   1.862   3.805
 8639SOL    MW434877   7.201   1.842   3.724
 8640SOL     OW34878   6.791   1.368   2.444
 8640SOL    HW234879   6.814   1.319   2.522
 8640SOL    HW334880   6.872   1.410   2.416
 8640SOL    MW434881   6.804   1.368   2.451
 8641SOL     OW34882   6.049   0.376   3.173
 8641SOL    HW234883   6.082   0.457   3.213
 8641SOL    HW334884   6.022   0.402   3.085
 8641SOL    MW434885   6.048   0.390   3.167
 8642SOL     OW34886   6.832   0.552   3.600
 8642SOL    HW234887   6.884   0.487   3.553
 8642SOL    HW334888   6.790   0.603   3.530
 8642SOL    MW434889   6.833   0.549   3.583
 8643SOL     OW34890   6.931   0.347   3.461
 8643SOL    HW234891   6.838   0.331   3.448
 8643SOL    HW334892   6.957   0.285   3.529
 8643SOL    MW434893   6.921   0.337   3.468
 8644SOL     OW34894   6.240   1.736   3.346
 8644SOL    HW234895   6.157   1.721   3.391
 8644SOL    HW334896   6.299   1.669   3.381
 8644SOL    MW434897   6.238   1.726   3.356
 8645SOL     OW34898   7.297   0.443   2.971
 8645SOL    HW234899   7.230   0.476   3.031
 8645SOL    HW334900   7.340   0.521   2.937
 8645SOL    MW434901   7.295   0.458   2.975
 8646SOL     OW34902   7.475   1.163   2.941
 8646SOL    HW234903   7.468   1.103   2.866
 8646SOL    HW334904   7.401   1.223   2.930
 8646SOL    MW434905   7.465   1.163   2.930
 8647SOL     OW34906   6.857   1.025   2.859
 8647SOL    HW234907   6.871   0.997   2.950
 8647SOL    HW334908   6.943   1.056   2.831
 8647SOL    MW434909   6.870   1.026   2.868
 8648SOL     OW34910   6.940   0.520   3.138
 8648SOL    HW234911   6.961   0.521   3.045
 8648SOL    HW334912   6.985   0.442   3.171
 8648SOL    MW434913   6.947   0.510   3.130
 8649SOL     OW34914   7.433   0.651   3.680
 8649SOL    HW234915   7.470   0.596   3.749
 8649SOL    HW334916   7.458   0.608   3.598
 8649SOL    MW434917   7.440   0.639   3.679
 8650SOL     OW34918   6.980   0.949   3.731
 8650SOL    HW234919   7.046   0.897   3.685
 8650SOL    HW334920   7.000   0.936   3.824
 8650SOL    MW434921   6.991   0.940   3.738
 8651SOL     OW34922   6.991   0.810   2.358
 8651SOL    HW234923   6.906   0.780   2.328
 8651SOL    HW334924   6.983   0.817   2.453
 8651SOL    MW434925   6.979   0.808   2.367
 8652SOL     OW34926   6.067   1.273   3.089
 8652SOL    HW234927   6.079   1.300   3.180
 8652SOL    HW334928   6.048   1.354   3.042
 8652SOL    MW434929   6.066   1.288   3.094
 8653SOL     OW34930   6.351   0.253   2.912
 8653SOL    HW234931   6.324   0.255   3.003
 8653SOL    HW334932   6.281   0.205   2.867
 8653SOL    MW434933   6.339   0.249   2.919
 8654SOL     OW34934   6.205   1.745   3.074
 8654SOL    HW234935   6.257   1.822   3.051
 8654SOL    HW334936   6.214   1.737   3.169
 8654SOL    MW434937   6.214   1.752   3.085
 8655SOL     OW34938   7.107   1.330   3.306
 8655SOL    HW234939   7.092   1.259   3.369
 8655SOL    HW334940   7.153   1.288   3.234
 8655SOL    MW434941   7.113   1.314   3.306
 8656SOL     OW34942   6.181   1.061   3.423
 8656SOL    HW234943   6.218   1.066   3.335
 8656SOL    HW334944   6.220   1.134   3.470
 8656SOL    MW434945   6.191   1.071   3.418
 8657SOL     OW34946   6.361   1.104   3.235
 8657SOL    HW234947   6.420   1.050   3.288
 8657SOL    HW334948   6.376   1.076   3.145
 8657SOL    MW434949   6.371   1.093   3.231
 8658SOL     OW34950   6.364   0.476   2.084
 8658SOL    HW234951   6.437   0.525   2.047
 8658SOL    HW334952   6.380   0.385   2.058
 8658SOL    MW434953   6.376   0.471   2.077
 8659SOL     OW34954   7.172   1.593   3.407
 8659SOL    HW234955   7.214   1.578   3.492
 8659SOL    HW334956   7.163   1.506   3.369
 8659SOL    MW434957   7.176   1.581   3.414
 8660SOL     OW34958   5.839   0.985   2.182
 8660SOL    HW234959   5.776   1.001   2.111
 8660SOL    HW334960   5.786   0.948   2.253
 8660SOL    MW434961   5.824   0.982   2.182
 8661SOL     OW34962   6.195   1.339   2.041
 8661SOL    HW234963   6.210   1.315   2.133
 8661SOL    HW334964   6.103   1.317   2.025
 8661SOL    MW434965   6.185   1.332   2.051
 8662SOL     OW34966   6.734   1.570   2.193
 8662SOL    HW234967   6.742   1.488   2.144
 8662SOL    HW334968   6.653   1.609   2.160
 8662SOL    MW434969   6.724   1.565   2.183
 8663SOL     OW34970   5.993   1.728   2.762
 8663SOL    HW234971   5.997   1.639   2.797
 8663SOL    HW334972   6.019   1.719   2.671
 8663SOL    MW434973   5.996   1.716   2.754
 8664SOL     OW34974   6.610   1.206   3.005
 8664SOL    HW234975   6.542   1.140   3.021
 8664SOL    HW334976   6.628   1.200   2.912
 8664SOL    MW434977   6.603   1.197   2.996
 8665SOL     OW34978   5.699   1.481   3.256
 8665SOL    HW234979   5.689   1.439   3.342
 8665SOL    HW334980   5.620   1.534   3.246
 8665SOL    MW434981   5.688   1.482   3.267
 8666SOL     OW34982   6.603   0.345   2.826
 8666SOL    HW234983   6.533   0.297   2.871
 8666SOL    HW334984   6.635   0.408   2.890
 8666SOL    MW434985   6.598   0.347   2.840
 8667SOL     OW34986   6.254   0.781   3.446
 8667SOL    HW234987   6.247   0.876   3.434
 8667SOL    HW334988   6.263   0.770   3.541
 8667SOL    MW434989   6.255   0.793   3.456
 8668SOL     OW34990   5.975   1.296   3.704
 8668SOL    HW234991   6.047   1.298   3.641
 8668SOL    HW334992   5.945   1.205   3.703
 8668SOL    MW434993   5.980   1.285   3.696
 8669SOL     OW34994   7.259   1.589   3.655
 8669SOL    HW234995   7.232   1.586   3.746
 8669SOL    HW334996   7.355   1.593   3.658
 8669SOL    MW434997   7.269   1.589   3.667
 8670SOL     OW34998   6.070   0.451   2.639
 8670SOL    HW234999   6.141   0.399   2.602
 8670SOL    HW335000   6.056   0.416   2.726
 8670SOL    MW435001   6.078   0.440   2.646
 8671SOL     OW35002   5.625   1.786   3.711
 8671SOL    HW235003   5.675   1.764   3.633
 8671SOL    HW335004   5.633   1.881   3.719
 8671SOL    MW435005   5.633   1.795   3.702
 8672SOL     OW35006   6.386   1.544   2.715
 8672SOL    HW235007   6.314   1.481   2.728
 8672SOL    HW335008   6.347   1.629   2.733
 8672SOL    MW435009   6.370   1.547   2.718
 8673SOL     OW35010   6.706   0.392   2.363
 8673SOL    HW235011   6.728   0.329   2.295
 8673SOL    HW335012   6.611   0.384   2.374
 8673SOL    MW435013   6.696   0.383   2.355
 8674SOL     OW35014   5.622   0.549   3.438
 8674SOL    HW235015   5.686   0.615   3.413
 8674SOL    HW335016   5.541   0.576   3.395
 8674SOL    MW435017   5.620   0.561   3.430
 8675SOL     OW35018   7.360   1.456   2.395
 8675SOL    HW235019   7.330   1.389   2.456
 8675SOL    HW335020   7.454   1.462   2.409
 8675SOL    MW435021   7.368   1.448   2.405
 8676SOL     OW35022   6.916   1.133   2.325
 8676SOL    HW235023   6.888   1.219   2.358
 8676SOL    HW335024   6.944   1.149   2.235
 8676SOL    MW435025   6.916   1.147   2.317
 8677SOL     OW35026   7.431   0.935   2.800
 8677SOL    HW235027   7.422   0.967   2.711
 8677SOL    HW335028   7.384   0.851   2.800
 8677SOL    MW435029   7.424   0.928   2.790
 8678SOL     OW35030   5.807   0.775   3.379
 8678SOL    HW235031   5.828   0.844   3.317
 8678SOL    HW335032   5.887   0.722   3.384
 8678SOL    MW435033   5.820   0.776   3.373
 8679SOL     OW35034   7.343   0.866   2.501
 8679SOL    HW235035   7.437   0.855   2.489
 8679SOL    HW335036   7.319   0.938   2.442
 8679SOL    MW435037   7.353   0.874   2.492
 8680SOL     OW35038   5.792   0.790   3.646
 8680SOL    HW235039   5.718   0.734   3.672
 8680SOL    HW335040   5.787   0.793   3.551
 8680SOL    MW435041   5.781   0.783   3.636
 8681SOL     OW35042   5.999   0.744   2.274
 8681SOL    HW235043   5.999   0.839   2.259
 8681SOL    HW335044   6.076   0.728   2.328
 8681SOL    MW435045   6.009   0.755   2.279
 8682SOL     OW35046   6.775   0.603   3.338
 8682SOL    HW235047   6.811   0.576   3.254
 8682SOL    HW335048   6.688   0.637   3.317
 8682SOL    MW435049   6.769   0.604   3.325
 8683SOL     OW35050   5.758   0.475   2.563
 8683SOL    HW235051   5.820   0.482   2.636
 8683SOL    HW335052   5.758   0.382   2.540
 8683SOL    MW435053   5.766   0.464   2.570
 8684SOL     OW35054   7.305   1.815   2.095
 8684SOL    HW235055   7.372   1.848   2.035
 8684SOL    HW335056   7.262   1.894   2.129
 8684SOL    MW435057   7.307   1.830   2.091
 8685SOL     OW35058   6.440   0.736   3.047
 8685SOL    HW235059   6.398   0.654   3.023
 8685SOL    HW335060   6.441   0.735   3.143
 8685SOL    MW435061   6.433   0.725   3.056
 8686SOL     OW35062   7.111   1.869   3.446
 8686SOL    HW235063   7.114   1.775   3.429
 8686SOL    HW335064   7.134   1.877   3.538
 8686SOL    MW435065   7.114   1.857   3.456
 8687SOL     OW35066   5.627   1.047   2.021
 8687SOL    HW235067   5.596   1.112   2.084
 8687SOL    HW335068   5.576   0.969   2.040
 8687SOL    MW435069   5.617   1.044   2.031
 8688SOL     OW35070   7.071   0.798   2.613
 8688SOL    HW235071   7.151   0.813   2.562
 8688SOL    HW335072   7.064   0.703   2.619
 8688SOL    MW435073   7.080   0.787   2.608
 8689SOL     OW35074   6.211   1.847   1.963
 8689SOL    HW235075   6.116   1.847   1.955
 8689SOL    HW335076   6.227   1.793   2.041
 8689SOL    MW435077   6.201   1.841   1.972
 8690SOL     OW35078   6.521   0.724   3.310
 8690SOL    HW235079   6.590   0.791   3.307
 8690SOL    HW335080   6.454   0.762   3.366
 8690SOL    MW435081   6.522   0.737   3.317
 8691SOL     OW35082   5.939   1.024   3.558
 8691SOL    HW235083   5.893   0.940   3.560
 8691SOL    HW335084   5.996   1.018   3.482
 8691SOL    MW435085   5.941   1.012   3.550
 8692SOL     OW35086   7.056   0.667   1.879
 8692SOL    HW235087   6.984   0.643   1.821
 8692SOL    HW335088   7.122   0.704   1.821
 8692SOL    MW435089   7.055   0.669   1.864
 8693SOL     OW35090   6.190   1.399   2.559
 8693SOL    HW235091   6.255   1.332   2.580
 8693SOL    HW335092   6.242   1.476   2.536
 8693SOL    MW435093   6.205   1.401   2.558
 8694SOL     OW35094   6.451   0.564   2.689
 8694SOL    HW235095   6.391   0.582   2.761
 8694SOL    HW335096   6.485   0.476   2.708
 8694SOL    MW435097   6.447   0.554   2.702
 8695SOL     OW35098   6.676   1.147   2.708
 8695SOL    HW235099   6.768   1.128   2.726
 8695SOL    HW335100   6.649   1.077   2.648
 8695SOL    MW435101   6.684   1.135   2.702
 8696SOL     OW35102   6.469   0.967   2.063
 8696SOL    HW235103   6.455   0.879   2.028
 8696SOL    HW335104   6.420   1.024   2.004
 8696SOL    MW435105   6.461   0.962   2.051
 8697SOL     OW35106   6.950   1.385   2.804
 8697SOL    HW235107   6.923   1.469   2.769
 8697SOL    HW335108   6.910   1.380   2.891
 8697SOL    MW435109   6.943   1.394   2.810
 8698SOL     OW35110   6.869   1.333   3.072
 8698SOL    HW235111   6.880   1.300   3.161
 8698SOL    HW335112   6.788   1.292   3.041
 8698SOL    MW435113   6.859   1.325   3.078
 8699SOL     OW35114   5.882   0.691   2.842
 8699SOL    HW235115   5.832   0.690   2.923
 8699SOL    HW335116   5.902   0.783   2.826
 8699SOL    MW435117   5.878   0.703   2.850
 8700SOL     OW35118   6.949   1.455   3.604
 8700SOL    HW235119   6.949   1.549   3.620
 8700SOL    HW335120   6.994   1.445   3.520
 8700SOL    MW435121   6.955   1.465   3.595
 8701SOL     OW35122   6.477   0.736   2.279
 8701SOL    HW235123   6.457   0.722   2.186
 8701SOL    HW335124   6.570   0.715   2.286
 8701SOL    MW435125   6.487   0.731   2.268
 8702SOL     OW35126   5.804   0.359   3.583
 8702SOL    HW235127   5.761   0.418   3.520
 8702SOL    HW335128   5.872   0.414   3.623
 8702SOL    MW435129   5.808   0.374   3.580
 8703SOL     OW35130   6.916   0.979   3.128
 8703SOL    HW235131   6.979   0.976   3.201
 8703SOL    HW335132   6.832   0.997   3.170
 8703SOL    MW435133   6.912   0.981   3.143
 8704SOL     OW35134   6.460   1.694   2.317
 8704SOL    HW235135   6.518   1.765   2.344
 8704SOL    HW335136   6.483   1.622   2.375
 8704SOL    MW435137   6.471   1.694   2.328
 8705SOL     OW35138   7.340   1.192   2.626
 8705SOL    HW235139   7.319   1.138   2.549
 8705SOL    HW335140   7.436   1.190   2.630
 8705SOL    MW435141   7.349   1.185   2.615
 8706SOL     OW35142   6.032   1.337   3.369
 8706SOL    HW235143   5.953   1.287   3.392
 8706SOL    HW335144   6.102   1.296   3.419
 8706SOL    MW435145   6.030   1.325   3.379
 8707SOL     OW35146   7.040   0.623   2.888
 8707SOL    HW235147   6.963   0.669   2.854
 8707SOL    HW335148   7.097   0.692   2.922
 8707SOL    MW435149   7.037   0.638   2.888
 8708SOL     OW35150   5.706   1.482   2.090
 8708SOL    HW235151   5.723   1.566   2.132
 8708SOL    HW335152   5.741   1.491   2.002
 8708SOL    MW435153   5.711   1.495   2.084
 8709SOL     OW35154   6.978   1.571   2.307
 8709SOL    HW235155   7.041   1.561   2.236
 8709SOL    HW335156   6.895   1.591   2.262
 8709SOL    MW435157   6.975   1.572   2.292
 8710SOL     OW35158   7.341   0.839   3.993
 8710SOL    HW235159   7.382   0.781   4.058
 8710SOL    HW335160   7.248   0.831   4.010
 8710SOL    MW435161   7.335   0.831   4.003
 8711SOL     OW35162   7.207   0.771   4.988
 8711SOL    HW235163   7.162   0.838   5.039
 8711SOL    HW335164   7.295   0.807   4.974
 8711SOL    MW435165   7.213   0.784   4.992
 8712SOL     OW35166   6.135   1.022   4.222
 8712SOL    HW235167   6.225   0.997   4.206
 8712SOL    HW335168   6.131   1.115   4.199
 8712SOL    MW435169   6.147   1.031   4.217
 8713SOL     OW35170   7.251   1.725   4.364
 8713SOL    HW235171   7.263   1.671   4.442
 8713SOL    HW335172   7.288   1.673   4.293
 8713SOL    MW435173   7.257   1.710   4.365
 8714SOL     OW35174   6.630   1.610   5.365
 8714SOL    HW235175   6.671   1.646   5.286
 8714SOL    HW335176   6.665   1.521   5.372
 8714SOL    MW435177   6.641   1.603   5.356
 8715SOL     OW35178   7.187   1.165   4.969
 8715SOL    HW235179   7.108   1.130   4.927
 8715SOL    HW335180   7.214   1.237   4.913
 8715SOL    MW435181   7.180   1.170   4.956
 8716SOL     OW35182   6.419   0.478   4.235
 8716SOL    HW235183   6.394   0.566   4.263
 8716SOL    HW335184   6.416   0.481   4.139
 8716SOL    MW435185   6.415   0.490   4.227
 8717SOL     OW35186   5.861   0.506   4.163
 8717SOL    HW235187   5.893   0.594   4.145
 8717SOL    HW335188   5.849   0.504   4.258
 8717SOL    MW435189   5.864   0.518   4.175
 8718SOL     OW35190   5.939   0.919   5.064
 8718SOL    HW235191   6.002   0.866   5.015
 8718SOL    HW335192   5.920   0.993   5.007
 8718SOL    MW435193   5.945   0.921   5.051
 8719SOL     OW35194   6.260   0.261   4.250
 8719SOL    HW235195   6.318   0.337   4.252
 8719SOL    HW335196   6.195   0.282   4.183
 8719SOL    MW435197   6.259   0.273   4.241
 8720SOL     OW35198   6.347   1.188   4.425
 8720SOL    HW235199   6.427   1.191   4.477
 8720SOL    HW335200   6.375   1.155   4.339
 8720SOL    MW435201   6.361   1.184   4.420
 8721SOL     OW35202   6.372   1.529   5.328
 8721SOL    HW235203   6.456   1.555   5.367
 8721SOL    HW335204   6.396   1.473   5.254
 8721SOL    MW435205   6.386   1.525   5.323
 8722SOL     OW35206   6.124   0.692   4.416
 8722SOL    HW235207   6.109   0.612   4.467
 8722SOL    HW335208   6.206   0.727   4.450
 8722SOL    MW435209   6.132   0.684   4.428
 8723SOL     OW35210   6.461   1.378   5.101
 8723SOL    HW235211   6.425   1.444   5.041
 8723SOL    HW335212   6.389   1.316   5.114
 8723SOL    MW435213   6.447   1.378   5.095
 8724SOL     OW35214   6.266   0.518   4.793
 8724SOL    HW235215   6.172   0.514   4.811
 8724SOL    HW335216   6.296   0.427   4.802
 8724SOL    MW435217   6.257   0.506   4.796
 8725SOL     OW35218   6.012   0.932   4.697
 8725SOL    HW235219   5.967   0.939   4.613
 8725SOL    HW335220   5.992   1.015   4.741
 8725SOL    MW435221   6.004   0.944   4.691
 8726SOL     OW35222   5.709   1.778   4.572
 8726SOL    HW235223   5.798   1.770   4.607
 8726SOL    HW335224   5.673   1.690   4.577
 8726SOL    MW435225   5.716   1.765   4.577
 8727SOL     OW35226   6.974   1.170   3.941
 8727SOL    HW235227   6.892   1.206   3.907
 8727SOL    HW335228   7.042   1.213   3.890
 8727SOL    MW435229   6.972   1.180   3.929
 8728SOL     OW35230   5.973   1.305   4.607
 8728SOL    HW235231   5.949   1.358   4.683
 8728SOL    HW335232   6.029   1.363   4.555
 8728SOL    MW435233   5.977   1.320   4.610
 8729SOL     OW35234   6.535   0.949   4.417
 8729SOL    HW235235   6.449   0.936   4.457
 8729SOL    HW335236   6.588   0.876   4.449
 8729SOL    MW435237   6.531   0.938   4.426
 8730SOL     OW35238   5.943   1.601   5.202
 8730SOL    HW235239   5.851   1.577   5.187
 8730SOL    HW335240   5.987   1.518   5.219
 8730SOL    MW435241   5.937   1.586   5.201
 8731SOL     OW35242   6.526   1.311   4.134
 8731SOL    HW235243   6.503   1.373   4.202
 8731SOL    HW335244   6.483   1.229   4.160
 8731SOL    MW435245   6.518   1.307   4.145
 8732SOL     OW35246   5.858   1.245   4.139
 8732SOL    HW235247   5.806   1.313   4.095
 8732SOL    HW335248   5.855   1.171   4.079
 8732SOL    MW435249   5.850   1.244   4.126
 8733SOL     OW35250   6.520   1.708   3.917
 8733SOL    HW235251   6.475   1.724   4.000
 8733SOL    HW335252   6.451   1.673   3.859
 8733SOL    MW435253   6.506   1.705   3.919
 8734SOL     OW35254   7.455   0.481   3.892
 8734SOL    HW235255   7.364   0.483   3.920
 8734SOL    HW335256   7.500   0.543   3.950
 8734SOL    MW435257   7.448   0.489   3.902
 8735SOL     OW35258   7.200   1.084   4.242
 8735SOL    HW235259   7.110   1.084   4.277
 8735SOL    HW335260   7.193   1.130   4.159
 8735SOL    MW435261   7.187   1.090   4.236
 8736SOL     OW35262   7.000   0.719   5.314
 8736SOL    HW235263   7.069   0.657   5.291
 8736SOL    HW335264   6.925   0.693   5.261
 8736SOL    MW435265   7.000   0.706   5.305
 8737SOL     OW35266   5.741   1.599   4.866
 8737SOL    HW235267   5.724   1.545   4.943
 8737SOL    HW335268   5.729   1.689   4.896
 8737SOL    MW435269   5.738   1.603   4.880
 8738SOL     OW35270   6.736   1.106   5.306
 8738SOL    HW235271   6.721   1.199   5.291
 8738SOL    HW335272   6.831   1.096   5.306
 8738SOL    MW435273   6.745   1.116   5.303
 8739SOL     OW35274   6.532   0.530   5.507
 8739SOL    HW235275   6.622   0.531   5.474
 8739SOL    HW335276   6.491   0.455   5.465
 8739SOL    MW435277   6.538   0.520   5.498
 8740SOL     OW35278   7.107   1.062   4.634
 8740SOL    HW235279   7.110   0.996   4.565
 8740SOL    HW335280   7.192   1.105   4.630
 8740SOL    MW435281   7.119   1.058   4.625
 8741SOL     OW35282   6.727   0.665   4.203
 8741SOL    HW235283   6.753   0.689   4.114
 8741SOL    HW335284   6.709   0.572   4.199
 8741SOL    MW435285   6.729   0.657   4.190
 8742SOL     OW35286   7.392   1.285   4.054
 8742SOL    HW235287   7.348   1.326   4.129
 8742SOL    HW335288   7.449   1.353   4.019
 8742SOL    MW435289   7.394   1.299   4.059
 8743SOL     OW35290   6.312   0.334   5.457
 8743SOL    HW235291   6.322   0.260   5.397
 8743SOL    HW335292   6.348   0.303   5.540
 8743SOL    MW435293   6.318   0.320   5.459
 8744SOL     OW35294   6.048   1.701   4.372
 8744SOL    HW235295   6.080   1.789   4.350
 8744SOL    HW335296   6.001   1.673   4.294
 8744SOL    MW435297   6.047   1.709   4.359
 8745SOL     OW35298   5.764   1.761   3.949
 8745SOL    HW235299   5.793   1.851   3.941
 8745SOL    HW335300   5.714   1.744   3.870
 8745SOL    MW435301   5.762   1.769   3.938
 8746SOL     OW35302   7.168   1.569   3.920
 8746SOL    HW235303   7.216   1.638   3.966
 8746SOL    HW335304   7.089   1.613   3.889
 8746SOL    MW435305   7.163   1.583   3.923
 8747SOL     OW35306   6.566   0.694   3.864
 8747SOL    HW235307   6.568   0.641   3.785
 8747SOL    HW335308   6.654   0.731   3.870
 8747SOL    MW435309   6.578   0.693   3.853
 8748SOL     OW35310   7.180   0.620   4.200
 8748SOL    HW235311   7.219   0.620   4.287
 8748SOL    HW335312   7.121   0.696   4.200
 8748SOL    MW435313   7.177   0.631   4.211
 8749SOL     OW35314   6.497   0.987   5.329
 8749SOL    HW235315   6.474   0.967   5.419
 8749SOL    HW335316   6.582   1.031   5.334
 8749SOL    MW435317   6.504   0.990   5.341
 8750SOL     OW35318   6.577   0.124   5.089
 8750SOL    HW235319   6.583   0.086   5.002
 8750SOL    HW335320   6.566   0.218   5.074
 8750SOL    MW435321   6.578   0.132   5.077
 8751SOL     OW35322   6.666   0.613   4.923
 8751SOL    HW235323   6.741   0.642   4.870
 8751SOL    HW335324   6.598   0.678   4.907
 8751SOL    MW435325   6.667   0.625   4.913
 8752SOL     OW35326   7.216   0.581   5.200
 8752SOL    HW235327   7.197   0.490   5.179
 8752SOL    HW335328   7.194   0.630   5.121
 8752SOL    MW435329   7.211   0.574   5.187
 8753SOL     OW35330   7.358   1.675   5.104
 8753SOL    HW235331   7.286   1.637   5.155
 8753SOL    HW335332   7.375   1.760   5.145
 8753SOL    MW435333   7.352   1.680   5.116
 8754SOL     OW35334   7.072   1.133   5.382
 8754SOL    HW235335   7.154   1.174   5.412
 8754SOL    HW335336   7.035   1.095   5.462
 8754SOL    MW435337   7.078   1.134   5.397
 8755SOL     OW35338   7.367   0.506   4.366
 8755SOL    HW235339   7.456   0.475   4.383
 8755SOL    HW335340   7.310   0.446   4.414
 8755SOL    MW435341   7.370   0.494   4.375
 8756SOL     OW35342   5.793   0.220   4.395
 8756SOL    HW235343   5.784   0.160   4.321
 8756SOL    HW335344   5.726   0.191   4.458
 8756SOL    MW435345   5.783   0.207   4.393
 8757SOL     OW35346   6.736   1.313   3.956
 8757SOL    HW235347   6.686   1.315   4.038
 8757SOL    HW335348   6.670   1.331   3.888
 8757SOL    MW435349   6.722   1.315   3.958
 8758SOL     OW35350   5.740   0.393   4.758
 8758SOL    HW235351   5.712   0.484   4.767
 8758SOL    HW335352   5.677   0.354   4.697
 8758SOL    MW435353   5.727   0.399   4.752
 8759SOL     OW35354   6.199   1.731   4.064
 8759SOL    HW235355   6.120   1.689   4.097
 8759SOL    HW335356   6.265   1.714   4.131
 8759SOL    MW435357   6.198   1.723   4.077
 8760SOL     OW35358   7.327   1.251   5.461
 8760SOL    HW235359   7.377   1.177   5.493
 8760SOL    HW335360   7.273   1.278   5.536
 8760SOL    MW435361   7.327   1.245   5.474
 8761SOL     OW35362   6.335   1.146   3.771
 8761SOL    HW235363   6.257   1.092   3.758
 8761SOL    HW335364   6.306   1.219   3.824
 8761SOL    MW435365   6.321   1.148   3.776
 8762SOL     OW35366   7.461   0.886   4.963
 8762SOL    HW235367   7.477   0.924   4.876
 8762SOL    HW335368   7.495   0.952   5.024
 8762SOL    MW435369   7.468   0.899   4.959
 8763SOL     OW35370   7.253   1.595   4.632
 8763SOL    HW235371   7.282   1.662   4.693
 8763SOL    HW335372   7.234   1.519   4.687
 8763SOL    MW435373   7.255   1.595   4.647
 8764SOL     OW35374   6.916   1.662   3.839
 8764SOL    HW235375   6.842   1.625   3.889
 8764SOL    HW335376   6.924   1.752   3.872
 8764SOL    MW435377   6.907   1.669   3.851
 8765SOL     OW35378   5.724   0.668   4.928
 8765SOL    HW235379   5.786   0.698   4.994
 8765SOL    HW335380   5.658   0.737   4.922
 8765SOL    MW435381   5.723   0.681   4.935
 8766SOL     OW35382   7.140   1.336   3.781
 8766SOL    HW235383   7.087   1.385   3.717
 8766SOL    HW335384   7.171   1.402   3.842
 8766SOL    MW435385   7.138   1.350   3.779
 8767SOL     OW35386   5.819   1.777   5.380
 8767SOL    HW235387   5.793   1.845   5.318
 8767SOL    HW335388   5.867   1.714   5.328
 8767SOL    MW435389   5.821   1.777   5.366
 8768SOL     OW35390   5.871   1.096   4.887
 8768SOL    HW235391   5.924   1.171   4.912
 8768SOL    HW335392   5.790   1.134   4.853
 8768SOL    MW435393   5.867   1.111   4.887
 8769SOL     OW35394   6.411   1.000   4.875
 8769SOL    HW235395   6.439   0.909   4.887
 8769SOL    HW335396   6.340   0.994   4.811
 8769SOL    MW435397   6.404   0.988   4.870
 8770SOL     OW35398   5.726   0.865   4.293
 8770SOL    HW235399   5.817   0.880   4.320
 8770SOL    HW335400   5.729   0.786   4.239
 8770SOL    MW435401   5.738   0.857   4.291
 8771SOL     OW35402   5.962   0.573   5.547
 8771SOL    HW235403   5.909   0.653   5.554
 8771SOL    HW335404   6.032   0.585   5.612
 8771SOL    MW435405   5.964   0.586   5.555
 8772SOL     OW35406   6.348   0.123   5.254
 8772SOL    HW235407   6.325   0.031   5.256
 8772SOL    HW335408   6.434   0.125   5.211
 8772SOL    MW435409   6.355   0.113   5.250
 8773SOL     OW35410   6.032   0.647   5.293
 8773SOL    HW235411   6.112   0.697   5.279
 8773SOL    HW335412   6.023   0.641   5.388
 8773SOL    MW435413   6.041   0.653   5.303
 8774SOL     OW35414   6.353   1.797   4.667
 8774SOL    HW235415   6.442   1.812   4.697
 8774SOL    HW335416   6.348   1.844   4.583
 8774SOL    MW435417   6.363   1.805   4.660
 8775SOL     OW35418   5.734   1.477   4.332
 8775SOL    HW235419   5.706   1.516   4.414
 8775SOL    HW335420   5.754   1.386   4.354
 8775SOL    MW435421   5.732   1.469   4.345
 8776SOL     OW35422   6.567   1.520   4.367
 8776SOL    HW235423   6.650   1.474   4.351
 8776SOL    HW335424   6.557   1.519   4.463
 8776SOL    MW435425   6.577   1.513   4.377
 8777SOL     OW35426   7.399   0.665   4.681
 8777SOL    HW235427   7.488   0.695   4.663
 8777SOL    HW335428   7.379   0.605   4.610
 8777SOL    MW435429   7.408   0.662   4.670
 8778SOL     OW35430   7.250   0.844   5.561
 8778SOL    HW235431   7.305   0.768   5.542
 8778SOL    HW335432   7.252   0.852   5.656
 8778SOL    MW435433   7.258   0.835   5.569
 8779SOL     OW35434   6.300   1.577   3.772
 8779SOL    HW235435   6.240   1.646   3.742
 8779SOL    HW335436   6.245   1.519   3.825
 8779SOL    MW435437   6.284   1.579   3.774
 8780SOL     OW35438   6.545   0.406   5.080
 8780SOL    HW235439   6.464   0.447   5.108
 8780SOL    HW335440   6.592   0.474   5.032
 8780SOL    MW435441   6.540   0.421   5.078
 8781SOL     OW35442   6.805   0.744   4.703
 8781SOL    HW235443   6.818   0.838   4.713
 8781SOL    HW335444   6.766   0.734   4.617
 8781SOL    MW435445   6.801   0.755   4.693
 8782SOL     OW35446   6.257   0.939   4.507
 8782SOL    HW235447   6.168   0.930   4.540
 8782SOL    HW335448   6.261   1.029   4.475
 8782SOL    MW435449   6.246   0.950   4.507
 8783SOL     OW35450   7.056   0.522   4.502
 8783SOL    HW235451   7.001   0.443   4.501
 8783SOL    HW335452   7.038   0.563   4.586
 8783SOL    MW435453   7.046   0.517   4.511
 8784SOL     OW35454   6.027   0.209   5.319
 8784SOL    HW235455   5.948   0.227   5.371
 8784SOL    HW335456   6.022   0.271   5.246
 8784SOL    MW435457   6.017   0.219   5.316
 8785SOL     OW35458   6.675   0.726   4.459
 8785SOL    HW235459   6.612   0.658   4.483
 8785SOL    HW335460   6.695   0.707   4.367
 8785SOL    MW435461   6.669   0.713   4.451
 8786SOL     OW35462   5.931   1.621   4.161
 8786SOL    HW235463   5.892   1.668   4.087
 8786SOL    HW335464   5.865   1.556   4.186
 8786SOL    MW435465   5.918   1.619   4.155
 8787SOL     OW35466   6.423   1.030   4.185
 8787SOL    HW235467   6.425   1.004   4.092
 8787SOL    HW335468   6.481   0.967   4.228
 8787SOL    MW435469   6.431   1.019   4.179
 8788SOL     OW35470   6.976   1.590   4.957
 8788SOL    HW235471   6.901   1.636   4.995
 8788SOL    HW335472   6.958   1.497   4.974
 8788SOL    MW435473   6.965   1.584   4.965
 8789SOL     OW35474   6.980   1.798   4.387
 8789SOL    HW235475   6.923   1.751   4.326
 8789SOL    HW335476   7.066   1.759   4.374
 8789SOL    MW435477   6.983   1.789   4.377
 8790SOL     OW35478   5.738   1.208   4.452
 8790SOL    HW235479   5.802   1.240   4.515
 8790SOL    HW335480   5.787   1.144   4.400
 8790SOL    MW435481   5.753   1.204   4.453
 8791SOL     OW35482   6.238   1.284   5.434
 8791SOL    HW235483   6.286   1.367   5.421
 8791SOL    HW335484   6.295   1.232   5.490
 8791SOL    MW435485   6.252   1.288   5.440
 8792SOL     OW35486   5.814   1.526   5.574
 8792SOL    HW235487   5.870   1.450   5.589
 8792SOL    HW335488   5.763   1.504   5.496
 8792SOL    MW435489   5.814   1.513   5.565
 8793SOL     OW35490   7.086   0.934   3.995
 8793SOL    HW235491   7.053   1.023   3.985
 8793SOL    HW335492   7.051   0.905   4.080
 8793SOL    MW435493   7.076   0.943   4.006
 8794SOL     OW35494   6.699   1.363   5.183
 8794SOL    HW235495   6.610   1.369   5.151
 8794SOL    HW335496   6.743   1.442   5.151
 8794SOL    MW435497   6.694   1.373   5.175
 8795SOL     OW35498   6.016   1.521   4.824
 8795SOL    HW235499   6.061   1.583   4.881
 8795SOL    HW335500   5.923   1.540   4.837
 8795SOL    MW435501   6.009   1.531   4.831
 8796SOL     OW35502   7.456   1.050   5.178
 8796SOL    HW235503   7.371   1.063   5.137
 8796SOL    HW335504   7.436   1.014   5.265
 8796SOL    MW435505   7.443   1.046   5.183
 8797SOL     OW35506   6.438   1.589   4.932
 8797SOL    HW235507   6.462   1.578   4.841
 8797SOL    HW335508   6.361   1.646   4.930
 8797SOL    MW435509   6.430   1.594   4.921
 8798SOL     OW35510   6.080   0.972   3.787
 8798SOL    HW235511   6.003   0.985   3.843
 8798SOL    HW335512   6.044   0.936   3.706
 8798SOL    MW435513   6.066   0.968   3.784
 8799SOL     OW35514   6.733   0.945   4.030
 8799SOL    HW235515   6.643   0.966   4.005
 8799SOL    HW335516   6.760   1.018   4.086
 8799SOL    MW435517   6.725   0.957   4.033
 8800SOL     OW35518   6.233   1.294   4.722
 8800SOL    HW235519   6.226   1.273   4.816
 8800SOL    HW335520   6.151   1.262   4.685
 8800SOL    MW435521   6.221   1.288   4.729
 8801SOL     OW35522   7.097   0.304   5.124
 8801SOL    HW235523   7.044   0.306   5.204
 8801SOL    HW335524   7.082   0.217   5.087
 8801SOL    MW435525   7.089   0.294   5.129
 8802SOL     OW35526   5.679   1.386   5.385
 8802SOL    HW235527   5.723   1.319   5.331
 8802SOL    HW335528   5.594   1.348   5.405
 8802SOL    MW435529   5.674   1.372   5.381
 8803SOL     OW35530   6.120   1.301   4.186
 8803SOL    HW235531   6.113   1.333   4.276
 8803SOL    HW335532   6.030   1.285   4.158
 8803SOL    MW435533   6.108   1.303   4.193
 8804SOL     OW35534   6.715   1.694   5.095
 8804SOL    HW235535   6.635   1.679   5.045
 8804SOL    HW335536   6.722   1.789   5.102
 8804SOL    MW435537   6.706   1.705   5.089
 8805SOL     OW35538   6.829   1.659   4.585
 8805SOL    HW235539   6.876   1.732   4.544
 8805SOL    HW335540   6.750   1.698   4.621
 8805SOL    MW435541   6.824   1.674   4.584
 8806SOL     OW35542   7.237   1.754   4.860
 8806SOL    HW235543   7.280   1.724   4.940
 8806SOL    HW335544   7.156   1.702   4.857
 8806SOL    MW435545   7.232   1.743   4.870
 8807SOL     OW35546   6.322   0.718   5.567
 8807SOL    HW235547   6.392   0.660   5.539
 8807SOL    HW335548   6.265   0.663   5.622
 8807SOL    MW435549   6.324   0.705   5.571
 8808SOL     OW35550   7.109   0.930   5.200
 8808SOL    HW235551   7.114   0.983   5.280
 8808SOL    HW335552   7.071   0.847   5.228
 8808SOL    MW435553   7.105   0.925   5.215
 8809SOL     OW35554   6.123   0.585   3.900
 8809SOL    HW235555   6.089   0.641   3.970
 8809SOL    HW335556   6.194   0.535   3.940
 8809SOL    MW435557   6.129   0.586   3.914
 8810SOL     OW35558   7.219   1.336   4.722
 8810SOL    HW235559   7.254   1.318   4.635
 8810SOL    HW335560   7.124   1.337   4.709
 8810SOL    MW435561   7.211   1.333   4.709
 8811SOL     OW35562   6.648   0.984   5.091
 8811SOL    HW235563   6.691   1.019   5.169
 8811SOL    HW335564   6.631   1.061   5.037
 8811SOL    MW435565   6.651   0.999   5.094
 8812SOL     OW35566   7.179   0.471   3.964
 8812SOL    HW235567   7.171   0.542   3.901
 8812SOL    HW335568   7.197   0.515   4.047
 8812SOL    MW435569   7.180   0.485   3.966
 8813SOL     OW35570   6.039   0.126   4.393
 8813SOL    HW235571   6.089   0.169   4.324
 8813SOL    HW335572   5.954   0.170   4.393
 8813SOL    MW435573   6.036   0.139   4.384
 8814SOL     OW35574   5.798   1.188   5.253
 8814SOL    HW235575   5.826   1.141   5.331
 8814SOL    HW335576   5.719   1.143   5.224
 8814SOL    MW435577   5.791   1.177   5.259
 8815SOL     OW35578   6.306   0.515   5.220
 8815SOL    HW235579   6.278   0.603   5.244
 8815SOL    HW335580   6.275   0.459   5.291
 8815SOL    MW435581   6.298   0.518   5.232
 8816SOL     OW35582   6.848   0.733   3.939
 8816SOL    HW235583   6.895   0.751   3.858
 8816SOL    HW335584   6.814   0.817   3.967
 8816SOL    MW435585   6.850   0.747   3.932
 8817SOL     OW35586   5.961   0.911   4.433
 8817SOL    HW235587   6.019   0.967   4.381
 8817SOL    HW335588   6.005   0.826   4.435
 8817SOL    MW435589   5.974   0.908   4.426
 8818SOL     OW35590   7.101   0.263   4.270
 8818SOL    HW235591   7.023   0.213   4.295
 8818SOL    HW335592   7.072   0.354   4.270
 8818SOL    MW435593   7.087   0.267   4.273
 8819SOL     OW35594   6.583   1.475   3.761
 8819SOL    HW235595   6.610   1.553   3.713
 8819SOL    HW335596   6.490   1.490   3.780
 8819SOL    MW435597   6.574   1.488   3.757
 8820SOL     OW35598   7.447   0.998   5.448
 8820SOL    HW235599   7.360   0.978   5.484
 8820SOL    HW335600   7.501   0.924   5.473
 8820SOL    MW435601   7.442   0.987   5.456
 8821SOL     OW35602   5.668   1.511   4.605
 8821SOL    HW235603   5.700   1.515   4.696
 8821SOL    HW335604   5.573   1.519   4.613
 8821SOL    MW435605   5.660   1.514   4.618
 8822SOL     OW35606   5.623   0.637   4.152
 8822SOL    HW235607   5.563   0.609   4.222
 8822SOL    HW335608   5.697   0.577   4.158
 8822SOL    MW435609   5.625   0.626   4.161
 8823SOL     OW35610   7.191   1.849   5.586
 8823SOL    HW235611   7.236   1.773   5.551
 8823SOL    HW335612   7.229   1.862   5.673
 8823SOL    MW435613   7.201   1.842   5.592
 8824SOL     OW35614   6.791   1.368   4.312
 8824SOL    HW235615   6.814   1.319   4.390
 8824SOL    HW335616   6.872   1.410   4.284
 8824SOL    MW435617   6.804   1.368   4.319
 8825SOL     OW35618   6.049   0.376   5.041
 8825SOL    HW235619   6.082   0.457   5.081
 8825SOL    HW335620   6.022   0.402   4.953
 8825SOL    MW435621   6.048   0.390   5.035
 8826SOL     OW35622   6.832   0.552   5.468
 8826SOL    HW235623   6.884   0.487   5.421
 8826SOL    HW335624   6.790   0.603   5.398
 8826SOL    MW435625   6.833   0.549   5.451
 8827SOL     OW35626   6.931   0.347   5.329
 8827SOL    HW235627   6.838   0.331   5.316
 8827SOL    HW335628   6.957   0.285   5.397
 8827SOL    MW435629   6.921   0.337   5.336
 8828SOL     OW35630   6.240   1.736   5.214
 8828SOL    HW235631   6.157   1.721   5.259
 8828SOL    HW335632   6.299   1.669   5.249
 8828SOL    MW435633   6.238   1.726   5.224
 8829SOL     OW35634   7.297   0.443   4.839
 8829SOL    HW235635   7.230   0.476   4.899
 8829SOL    HW335636   7.340   0.521   4.805
 8829SOL    MW435637   7.295   0.458   4.843
 8830SOL     OW35638   7.475   1.163   4.809
 8830SOL    HW235639   7.468   1.103   4.734
 8830SOL    HW335640   7.401   1.223   4.798
 8830SOL    MW435641   7.465   1.163   4.798
 8831SOL     OW35642   6.857   1.025   4.727
 8831SOL    HW235643   6.871   0.997   4.818
 8831SOL    HW335644   6.943   1.056   4.699
 8831SOL    MW435645   6.870   1.026   4.736
 8832SOL     OW35646   6.940   0.520   5.006
 8832SOL    HW235647   6.961   0.521   4.913
 8832SOL    HW335648   6.985   0.442   5.039
 8832SOL    MW435649   6.947   0.510   4.998
 8833SOL     OW35650   7.433   0.651   5.548
 8833SOL    HW235651   7.470   0.596   5.617
 8833SOL    HW335652   7.458   0.608   5.466
 8833SOL    MW435653   7.440   0.639   5.547
 8834SOL     OW35654   6.980   0.949   5.600
 8834SOL    HW235655   7.046   0.897   5.554
 8834SOL    HW335656   7.000   0.936   5.693
 8834SOL    MW435657   6.991   0.940   5.607
 8835SOL     OW35658   6.991   0.810   4.226
 8835SOL    HW235659   6.906   0.780   4.196
 8835SOL    HW335660   6.983   0.817   4.321
 8835SOL    MW435661   6.979   0.808   4.235
 8836SOL     OW35662   6.067   1.273   4.957
 8836SOL    HW235663   6.079   1.300   5.048
 8836SOL    HW335664   6.048   1.354   4.910
 8836SOL    MW435665   6.066   1.288   4.962
 8837SOL     OW35666   6.351   0.253   4.780
 8837SOL    HW235667   6.324   0.255   4.871
 8837SOL    HW335668   6.281   0.205   4.735
 8837SOL    MW435669   6.339   0.249   4.787
 8838SOL     OW35670   6.205   1.745   4.942
 8838SOL    HW235671   6.257   1.822   4.919
 8838SOL    HW335672   6.214   1.737   5.037
 8838SOL    MW435673   6.214   1.752   4.953
 8839SOL     OW35674   7.107   1.330   5.174
 8839SOL    HW235675   7.092   1.259   5.237
 8839SOL    HW335676   7.153   1.288   5.102
 8839SOL    MW435677   7.113   1.314   5.174
 8840SOL     OW35678   6.181   1.061   5.291
 8840SOL    HW235679   6.218   1.066   5.203
 8840SOL    HW335680   6.220   1.134   5.338
 8840SOL    MW435681   6.191   1.071   5.286
 8841SOL     OW35682   6.361   1.104   5.103
 8841SOL    HW235683   6.420   1.050   5.156
 8841SOL    HW335684   6.376   1.076   5.013
 8841SOL    MW435685   6.371   1.093   5.099
 8842SOL     OW35686   6.364   0.476   3.952
 8842SOL    HW235687   6.437   0.525   3.915
 8842SOL    HW335688   6.380   0.385   3.926
 8842SOL    MW435689   6.376   0.471   3.945
 8843SOL     OW35690   7.172   1.593   5.275
 8843SOL    HW235691   7.214   1.578   5.360
 8843SOL    HW335692   7.163   1.506   5.237
 8843SOL    MW435693   7.176   1.581   5.282
 8844SOL     OW35694   5.839   0.985   4.050
 8844SOL    HW235695   5.776   1.001   3.979
 8844SOL    HW335696   5.786   0.948   4.121
 8844SOL    MW435697   5.824   0.982   4.050
 8845SOL     OW35698   6.195   1.339   3.909
 8845SOL    HW235699   6.210   1.315   4.001
 8845SOL    HW335700   6.103   1.317   3.893
 8845SOL    MW435701   6.185   1.332   3.919
 8846SOL     OW35702   6.734   1.570   4.061
 8846SOL    HW235703   6.742   1.488   4.012
 8846SOL    HW335704   6.653   1.609   4.028
 8846SOL    MW435705   6.724   1.565   4.051
 8847SOL     OW35706   5.993   1.728   4.630
 8847SOL    HW235707   5.997   1.639   4.665
 8847SOL    HW335708   6.019   1.719   4.539
 8847SOL    MW435709   5.996   1.716   4.622
 8848SOL     OW35710   6.610   1.206   4.873
 8848SOL    HW235711   6.542   1.140   4.889
 8848SOL    HW335712   6.628   1.200   4.780
 8848SOL    MW435713   6.603   1.197   4.864
 8849SOL     OW35714   5.699   1.481   5.124
 8849SOL    HW235715   5.689   1.439   5.210
 8849SOL    HW335716   5.620   1.534   5.114
 8849SOL    MW435717   5.688   1.482   5.135
 8850SOL     OW35718   6.603   0.345   4.694
 8850SOL    HW235719   6.533   0.297   4.739
 8850SOL    HW335720   6.635   0.408   4.758
 8850SOL    MW435721   6.598   0.347   4.708
 8851SOL     OW35722   6.254   0.781   5.314
 8851SOL    HW235723   6.247   0.876   5.302
 8851SOL    HW335724   6.263   0.770   5.409
 8851SOL    MW435725   6.255   0.793   5.324
 8852SOL     OW35726   5.975   1.296   5.572
 8852SOL    HW235727   6.047   1.298   5.509
 8852SOL    HW335728   5.945   1.205   5.571
 8852SOL    MW435729   5.980   1.285   5.564
 8853SOL     OW35730   7.259   1.589   5.523
 8853SOL    HW235731   7.232   1.586   5.614
 8853SOL    HW335732   7.355   1.593   5.526
 8853SOL    MW435733   7.269   1.589   5.535
 8854SOL     OW35734   6.070   0.451   4.507
 8854SOL    HW235735   6.141   0.399   4.470
 8854SOL    HW335736   6.056   0.416   4.594
 8854SOL    MW435737   6.078   0.440   4.514
 8855SOL     OW35738   5.625   1.786   5.579
 8855SOL    HW235739   5.675   1.764   5.501
 8855SOL    HW335740   5.633   1.881   5.587
 8855SOL    MW435741   5.633   1.795   5.570
 8856SOL     OW35742   6.386   1.544   4.583
 8856SOL    HW235743   6.314   1.481   4.596
 8856SOL    HW335744   6.347   1.629   4.601
 8856SOL    MW435745   6.370   1.547   4.586
 8857SOL     OW35746   6.706   0.392   4.231
 8857SOL    HW235747   6.728   0.329   4.163
 8857SOL    HW335748   6.611   0.384   4.242
 8857SOL    MW435749   6.696   0.383   4.223
 8858SOL     OW35750   5.622   0.549   5.306
 8858SOL    HW235751   5.686   0.615   5.281
 8858SOL    HW335752   5.541   0.576   5.263
 8858SOL    MW435753   5.620   0.561   5.298
 8859SOL     OW35754   7.360   1.456   4.263
 8859SOL    HW235755   7.330   1.389   4.324
 8859SOL    HW335756   7.454   1.462   4.277
 8859SOL    MW435757   7.368   1.448   4.273
 8860SOL     OW35758   6.916   1.133   4.193
 8860SOL    HW235759   6.888   1.219   4.226
 8860SOL    HW335760   6.944   1.149   4.103
 8860SOL    MW435761   6.916   1.147   4.185
 8861SOL     OW35762   7.431   0.935   4.668
 8861SOL    HW235763   7.422   0.967   4.579
 8861SOL    HW335764   7.384   0.851   4.668
 8861SOL    MW435765   7.424   0.928   4.658
 8862SOL     OW35766   5.807   0.775   5.247
 8862SOL    HW235767   5.828   0.844   5.185
 8862SOL    HW335768   5.887   0.722   5.252
 8862SOL    MW435769   5.820   0.776   5.241
 8863SOL     OW35770   7.343   0.866   4.369
 8863SOL    HW235771   7.437   0.855   4.357
 8863SOL    HW335772   7.319   0.938   4.310
 8863SOL    MW435773   7.353   0.874   4.360
 8864SOL     OW35774   5.792   0.790   5.514
 8864SOL    HW235775   5.718   0.734   5.540
 8864SOL    HW335776   5.787   0.793   5.419
 8864SOL    MW435777   5.781   0.783   5.504
 8865SOL     OW35778   5.999   0.744   4.142
 8865SOL    HW235779   5.999   0.839   4.127
 8865SOL    HW335780   6.076   0.728   4.196
 8865SOL    MW435781   6.009   0.755   4.147
 8866SOL     OW35782   6.775   0.603   5.206
 8866SOL    HW235783   6.811   0.576   5.122
 8866SOL    HW335784   6.688   0.637   5.185
 8866SOL    MW435785   6.769   0.604   5.193
 8867SOL     OW35786   5.758   0.475   4.431
 8867SOL    HW235787   5.820   0.482   4.504
 8867SOL    HW335788   5.758   0.382   4.408
 8867SOL    MW435789   5.766   0.464   4.438
 8868SOL     OW35790   7.305   1.815   3.963
 8868SOL    HW235791   7.372   1.848   3.903
 8868SOL    HW335792   7.262   1.894   3.997
 8868SOL    MW435793   7.307   1.830   3.959
 8869SOL     OW35794   6.440   0.736   4.915
 8869SOL    HW235795   6.398   0.654   4.891
 8869SOL    HW335796   6.441   0.735   5.011
 8869SOL    MW435797   6.433   0.725   4.924
 8870SOL     OW35798   7.111   1.869   5.314
 8870SOL    HW235799   7.114   1.775   5.297
 8870SOL    HW335800   7.134   1.877   5.406
 8870SOL    MW435801   7.114   1.857   5.324
 8871SOL     OW35802   5.627   1.047   3.889
 8871SOL    HW235803   5.596   1.112   3.952
 8871SOL    HW335804   5.576   0.969   3.908
 8871SOL    MW435805   5.617   1.044   3.899
 8872SOL     OW35806   7.071   0.798   4.481
 8872SOL    HW235807   7.151   0.813   4.430
 8872SOL    HW335808   7.064   0.703   4.487
 8872SOL    MW435809   7.080   0.787   4.476
 8873SOL     OW35810   6.211   1.847   3.831
 8873SOL    HW235811   6.116   1.847   3.823
 8873SOL    HW335812   6.227   1.793   3.909
 8873SOL    MW435813   6.201   1.841   3.840
 8874SOL     OW35814   6.521   0.724   5.178
 8874SOL    HW235815   6.590   0.791   5.175
 8874SOL    HW335816   6.454   0.762   5.234
 8874SOL    MW435817   6.522   0.737   5.185
 8875SOL     OW35818   5.939   1.024   5.426
 8875SOL    HW235819   5.893   0.940   5.428
 8875SOL    HW335820   5.996   1.018   5.350
 8875SOL    MW435821   5.941   1.012   5.418
 8876SOL     OW35822   7.056   0.667   3.747
 8876SOL    HW235823   6.984   0.643   3.689
 8876SOL    HW335824   7.122   0.704   3.689
 8876SOL    MW435825   7.055   0.669   3.732
 8877SOL     OW35826   6.190   1.399   4.427
 8877SOL    HW235827   6.255   1.332   4.448
 8877SOL    HW335828   6.242   1.476   4.404
 8877SOL    MW435829   6.205   1.401   4.426
 8878SOL     OW35830   6.451   0.564   4.557
 8878SOL    HW235831   6.391   0.582   4.629
 8878SOL    HW335832   6.485   0.476   4.576
 8878SOL    MW435833   6.447   0.554   4.570
 8879SOL     OW35834   6.676   1.147   4.576
 8879SOL    HW235835   6.768   1.128   4.594
 8879SOL    HW335836   6.649   1.077   4.516
 8879SOL    MW435837   6.684   1.135   4.570
 8880SOL     OW35838   6.469   0.967   3.931
 8880SOL    HW235839   6.455   0.879   3.896
 8880SOL    HW335840   6.420   1.024   3.872
 8880SOL    MW435841   6.461   0.962   3.919
 8881SOL     OW35842   6.950   1.385   4.672
 8881SOL    HW235843   6.923   1.469   4.637
 8881SOL    HW335844   6.910   1.380   4.759
 8881SOL    MW435845   6.943   1.394   4.678
 8882SOL     OW35846   6.869   1.333   4.940
 8882SOL    HW235847   6.880   1.300   5.029
 8882SOL    HW335848   6.788   1.292   4.909
 8882SOL    MW435849   6.859   1.325   4.946
 8883SOL     OW35850   5.882   0.691   4.710
 8883SOL    HW235851   5.832   0.690   4.791
 8883SOL    HW335852   5.902   0.783   4.694
 8883SOL    MW435853   5.878   0.703   4.718
 8884SOL     OW35854   6.949   1.455   5.472
 8884SOL    HW235855   6.949   1.549   5.488
 8884SOL    HW335856   6.994   1.445   5.388
 8884SOL    MW435857   6.955   1.465   5.463
 8885SOL     OW35858   6.477   0.736   4.147
 8885SOL    HW235859   6.457   0.722   4.054
 8885SOL    HW335860   6.570   0.715   4.154
 8885SOL    MW435861   6.487   0.731   4.136
 8886SOL     OW35862   5.804   0.359   5.451
 8886SOL    HW235863   5.761   0.418   5.388
 8886SOL    HW335864   5.872   0.414   5.491
 8886SOL    MW435865   5.808   0.374   5.448
 8887SOL     OW35866   6.916   0.979   4.996
 8887SOL    HW235867   6.979   0.976   5.069
 8887SOL    HW335868   6.832   0.997   5.038
 8887SOL    MW435869   6.912   0.981   5.011
 8888SOL     OW35870   6.460   1.694   4.185
 8888SOL    HW235871   6.518   1.765   4.212
 8888SOL    HW335872   6.483   1.622   4.243
 8888SOL    MW435873   6.471   1.694   4.196
 8889SOL     OW35874   7.340   1.192   4.494
 8889SOL    HW235875   7.319   1.138   4.417
 8889SOL    HW335876   7.436   1.190   4.498
 8889SOL    MW435877   7.349   1.185   4.483
 8890SOL     OW35878   6.032   1.337   5.237
 8890SOL    HW235879   5.953   1.287   5.260
 8890SOL    HW335880   6.102   1.296   5.287
 8890SOL    MW435881   6.030   1.325   5.247
 8891SOL     OW35882   7.040   0.623   4.756
 8891SOL    HW235883   6.963   0.669   4.722
 8891SOL    HW335884   7.097   0.692   4.790
 8891SOL    MW435885   7.037   0.638   4.756
 8892SOL     OW35886   5.706   1.482   3.958
 8892SOL    HW235887   5.723   1.566   4.000
 8892SOL    HW335888   5.741   1.491   3.870
 8892SOL    MW435889   5.711   1.495   3.952
 8893SOL     OW35890   6.978   1.571   4.175
 8893SOL    HW235891   7.041   1.561   4.104
 8893SOL    HW335892   6.895   1.591   4.130
 8893SOL    MW435893   6.975   1.572   4.160
 8894SOL     OW35894   7.341   0.839   5.862
 8894SOL    HW235895   7.382   0.781   5.927
 8894SOL    HW335896   7.248   0.831   5.879
 8894SOL    MW435897   7.335   0.831   5.872
 8895SOL     OW35898   6.135   1.022   6.091
 8895SOL    HW235899   6.225   0.997   6.075
 8895SOL    HW335900   6.131   1.115   6.068
 8895SOL    MW435901   6.147   1.031   6.086
 8896SOL     OW35902   5.861   0.506   6.032
 8896SOL    HW235903   5.893   0.594   6.014
 8896SOL    HW335904   5.849   0.504   6.127
 8896SOL    MW435905   5.864   0.518   6.044
 8897SOL     OW35906   6.974   1.170   5.810
 8897SOL    HW235907   6.892   1.206   5.776
 8897SOL    HW335908   7.042   1.213   5.759
 8897SOL    MW435909   6.972   1.180   5.798
 8898SOL     OW35910   6.535   0.949   6.286
 8898SOL    HW235911   6.449   0.936   6.326
 8898SOL    HW335912   6.588   0.876   6.318
 8898SOL    MW435913   6.531   0.938   6.295
 8899SOL     OW35914   6.526   1.311   6.003
 8899SOL    HW235915   6.503   1.373   6.071
 8899SOL    HW335916   6.483   1.229   6.029
 8899SOL    MW435917   6.518   1.307   6.014
 8900SOL     OW35918   5.858   1.245   6.008
 8900SOL    HW235919   5.806   1.313   5.964
 8900SOL    HW335920   5.855   1.171   5.948
 8900SOL    MW435921   5.850   1.244   5.995
 8901SOL     OW35922   6.520   1.708   5.786
 8901SOL    HW235923   6.475   1.724   5.869
 8901SOL    HW335924   6.451   1.673   5.728
 8901SOL    MW435925   6.506   1.705   5.788
 8902SOL     OW35926   7.455   0.481   5.761
 8902SOL    HW235927   7.364   0.483   5.789
 8902SOL    HW335928   7.500   0.543   5.819
 8902SOL    MW435929   7.448   0.489   5.771
 8903SOL     OW35930   7.200   1.084   6.111
 8903SOL    HW235931   7.110   1.084   6.146
 8903SOL    HW335932   7.193   1.130   6.028
 8903SOL    MW435933   7.187   1.090   6.105
 8904SOL     OW35934   6.727   0.665   6.072
 8904SOL    HW235935   6.753   0.689   5.983
 8904SOL    HW335936   6.709   0.572   6.068
 8904SOL    MW435937   6.729   0.657   6.059
 8905SOL     OW35938   7.392   1.285   5.923
 8905SOL    HW235939   7.348   1.326   5.998
 8905SOL    HW335940   7.449   1.353   5.888
 8905SOL    MW435941   7.394   1.299   5.928
 8906SOL     OW35942   6.048   1.701   6.241
 8906SOL    HW235943   6.080   1.789   6.219
 8906SOL    HW335944   6.001   1.673   6.163
 8906SOL    MW435945   6.047   1.709   6.228
 8907SOL     OW35946   5.764   1.761   5.818
 8907SOL    HW235947   5.793   1.851   5.810
 8907SOL    HW335948   5.714   1.744   5.739
 8907SOL    MW435949   5.762   1.769   5.807
 8908SOL     OW35950   7.168   1.569   5.789
 8908SOL    HW235951   7.216   1.638   5.835
 8908SOL    HW335952   7.089   1.613   5.758
 8908SOL    MW435953   7.163   1.583   5.792
 8909SOL     OW35954   6.566   0.694   5.733
 8909SOL    HW235955   6.568   0.641   5.654
 8909SOL    HW335956   6.654   0.731   5.739
 8909SOL    MW435957   6.578   0.693   5.722
 8910SOL     OW35958   7.180   0.620   6.069
 8910SOL    HW235959   7.219   0.620   6.156
 8910SOL    HW335960   7.121   0.696   6.069
 8910SOL    MW435961   7.177   0.631   6.080
 8911SOL     OW35962   6.736   1.313   5.825
 8911SOL    HW235963   6.686   1.315   5.907
 8911SOL    HW335964   6.670   1.331   5.757
 8911SOL    MW435965   6.722   1.315   5.827
 8912SOL     OW35966   6.199   1.731   5.933
 8912SOL    HW235967   6.120   1.689   5.966
 8912SOL    HW335968   6.265   1.714   6.000
 8912SOL    MW435969   6.198   1.723   5.946
 8913SOL     OW35970   6.335   1.146   5.640
 8913SOL    HW235971   6.257   1.092   5.627
 8913SOL    HW335972   6.306   1.219   5.693
 8913SOL    MW435973   6.321   1.148   5.645
 8914SOL     OW35974   6.916   1.662   5.708
 8914SOL    HW235975   6.842   1.625   5.758
 8914SOL    HW335976   6.924   1.752   5.741
 8914SOL    MW435977   6.907   1.669   5.720
 8915SOL     OW35978   7.140   1.336   5.650
 8915SOL    HW235979   7.087   1.385   5.586
 8915SOL    HW335980   7.171   1.402   5.711
 8915SOL    MW435981   7.138   1.350   5.648
 8916SOL     OW35982   5.734   1.477   6.201
 8916SOL    HW235983   5.706   1.516   6.283
 8916SOL    HW335984   5.754   1.386   6.223
 8916SOL    MW435985   5.732   1.469   6.214
 8917SOL     OW35986   6.567   1.520   6.236
 8917SOL    HW235987   6.650   1.474   6.220
 8917SOL    HW335988   6.557   1.519   6.332
 8917SOL    MW435989   6.577   1.513   6.246
 8918SOL     OW35990   6.300   1.577   5.641
 8918SOL    HW235991   6.240   1.646   5.611
 8918SOL    HW335992   6.245   1.519   5.694
 8918SOL    MW435993   6.284   1.579   5.643
 8919SOL     OW35994   5.931   1.621   6.030
 8919SOL    HW235995   5.892   1.668   5.956
 8919SOL    HW335996   5.865   1.556   6.055
 8919SOL    MW435997   5.918   1.619   6.024
 8920SOL     OW35998   6.423   1.030   6.054
 8920SOL    HW235999   6.425   1.004   5.961
 8920SOL    HW336000   6.481   0.967   6.097
 8920SOL    MW436001   6.431   1.019   6.048
 8921SOL     OW36002   7.086   0.934   5.864
 8921SOL    HW236003   7.053   1.023   5.854
 8921SOL    HW336004   7.051   0.905   5.949
 8921SOL    MW436005   7.076   0.943   5.875
 8922SOL     OW36006   6.080   0.972   5.656
 8922SOL    HW236007   6.003   0.985   5.712
 8922SOL    HW336008   6.044   0.936   5.575
 8922SOL    MW436009   6.066   0.968   5.653
 8923SOL     OW36010   6.733   0.945   5.899
 8923SOL    HW236011   6.643   0.966   5.874
 8923SOL    HW336012   6.760   1.018   5.955
 8923SOL    MW436013   6.725   0.957   5.902
 8924SOL     OW36014   6.120   1.301   6.055
 8924SOL    HW236015   6.113   1.333   6.145
 8924SOL    HW336016   6.030   1.285   6.027
 8924SOL    MW436017   6.108   1.303   6.062
 8925SOL     OW36018   6.123   0.585   5.769
 8925SOL    HW236019   6.089   0.641   5.839
 8925SOL    HW336020   6.194   0.535   5.809
 8925SOL    MW436021   6.129   0.586   5.783
 8926SOL     OW36022   7.179   0.471   5.833
 8926SOL    HW236023   7.171   0.542   5.770
 8926SOL    HW336024   7.197   0.515   5.916
 8926SOL    MW436025   7.180   0.485   5.835
 8927SOL     OW36026   6.039   0.126   6.262
 8927SOL    HW236027   6.089   0.169   6.193
 8927SOL    HW336028   5.954   0.170   6.262
 8927SOL    MW436029   6.036   0.139   6.253
 8928SOL     OW36030   6.848   0.733   5.808
 8928SOL    HW236031   6.895   0.751   5.727
 8928SOL    HW336032   6.814   0.817   5.836
 8928SOL    MW436033   6.850   0.747   5.801
 8929SOL     OW36034   7.101   0.263   6.139
 8929SOL    HW236035   7.023   0.213   6.164
 8929SOL    HW336036   7.072   0.354   6.139
 8929SOL    MW436037   7.087   0.267   6.142
 8930SOL     OW36038   6.583   1.475   5.630
 8930SOL    HW236039   6.610   1.553   5.582
 8930SOL    HW336040   6.490   1.490   5.649
 8930SOL    MW436041   6.574   1.488   5.626
 8931SOL     OW36042   5.623   0.637   6.021
 8931SOL    HW236043   5.563   0.609   6.091
 8931SOL    HW336044   5.697   0.577   6.027
 8931SOL    MW436045   5.625   0.626   6.030
 8932SOL     OW36046   6.991   0.810   6.095
 8932SOL    HW236047   6.906   0.780   6.065
 8932SOL    HW336048   6.983   0.817   6.190
 8932SOL    MW436049   6.979   0.808   6.104
 8933SOL     OW36050   6.364   0.476   5.821
 8933SOL    HW236051   6.437   0.525   5.784
 8933SOL    HW336052   6.380   0.385   5.795
 8933SOL    MW436053   6.376   0.471   5.814
 8934SOL     OW36054   5.839   0.985   5.919
 8934SOL    HW236055   5.776   1.001   5.848
 8934SOL    HW336056   5.786   0.948   5.990
 8934SOL    MW436057   5.824   0.982   5.919
 8935SOL     OW36058   6.195   1.339   5.778
 8935SOL    HW236059   6.210   1.315   5.870
 8935SOL    HW336060   6.103   1.317   5.762
 8935SOL    MW436061   6.185   1.332   5.788
 8936SOL     OW36062   6.734   1.570   5.930
 8936SOL    HW236063   6.742   1.488   5.881
 8936SOL    HW336064   6.653   1.609   5.897
 8936SOL    MW436065   6.724   1.565   5.920
 8937SOL     OW36066   6.706   0.392   6.100
 8937SOL    HW236067   6.728   0.329   6.032
 8937SOL    HW336068   6.611   0.384   6.111
 8937SOL    MW436069   6.696   0.383   6.092
 8938SOL     OW36070   7.360   1.456   6.132
 8938SOL    HW236071   7.330   1.389   6.193
 8938SOL    HW336072   7.454   1.462   6.146
 8938SOL    MW436073   7.368   1.448   6.142
 8939SOL     OW36074   6.916   1.133   6.062
 8939SOL    HW236075   6.888   1.219   6.095
 8939SOL    HW336076   6.944   1.149   5.972
 8939SOL    MW436077   6.916   1.147   6.054
 8940SOL     OW36078   5.999   0.744   6.011
 8940SOL    HW236079   5.999   0.839   5.996
 8940SOL    HW336080   6.076   0.728   6.065
 8940SOL    MW436081   6.009   0.755   6.016
 8941SOL     OW36082   7.305   1.815   5.832
 8941SOL    HW236083   7.372   1.848   5.772
 8941SOL    HW336084   7.262   1.894   5.866
 8941SOL    MW436085   7.307   1.830   5.828
 8942SOL     OW36086   5.627   1.047   5.758
 8942SOL    HW236087   5.596   1.112   5.821
 8942SOL    HW336088   5.576   0.969   5.777
 8942SOL    MW436089   5.617   1.044   5.768
 8943SOL     OW36090   6.211   1.847   5.700
 8943SOL    HW236091   6.116   1.847   5.692
 8943SOL    HW336092   6.227   1.793   5.778
 8943SOL    MW436093   6.201   1.841   5.709
 8944SOL     OW36094   7.056   0.667   5.615
 8944SOL    HW236095   6.984   0.643   5.557
 8944SOL    HW336096   7.122   0.704   5.557
 8944SOL    MW436097   7.055   0.669   5.600
 8945SOL     OW36098   6.451   0.564   6.426
 8945SOL    HW236099   6.391   0.582   6.498
 8945SOL    HW336100   6.485   0.476   6.445
 8945SOL    MW436101   6.447   0.554   6.439
 8946SOL     OW36102   6.469   0.967   5.800
 8946SOL    HW236103   6.455   0.879   5.765
 8946SOL    HW336104   6.420   1.024   5.741
 8946SOL    MW436105   6.461   0.962   5.788
 8947SOL     OW36106   6.477   0.736   6.016
 8947SOL    HW236107   6.457   0.722   5.923
 8947SOL    HW336108   6.570   0.715   6.023
 8947SOL    MW436109   6.487   0.731   6.005
 8948SOL     OW36110   6.460   1.694   6.054
 8948SOL    HW236111   6.518   1.765   6.081
 8948SOL    HW336112   6.483   1.622   6.112
 8948SOL    MW436113   6.471   1.694   6.065
 8949SOL     OW36114   5.706   1.482   5.827
 8949SOL    HW236115   5.723   1.566   5.869
 8949SOL    HW336116   5.741   1.491   5.739
 8949SOL    MW436117   5.711   1.495   5.821
 8950SOL     OW36118   6.978   1.571   6.044
 8950SOL    HW236119   7.041   1.561   5.973
 8950SOL    HW336120   6.895   1.591   5.999
 8950SOL    MW436121   6.975   1.572   6.029
 8951SOL     OW36122   7.207   2.639   1.252
 8951SOL    HW236123   7.162   2.706   1.303
 8951SOL    HW336124   7.295   2.675   1.238
 8951SOL    MW436125   7.213   2.652   1.256
 8952SOL     OW36126   6.135   2.890   0.486
 8952SOL    HW236127   6.225   2.865   0.470
 8952SOL    HW336128   6.131   2.983   0.463
 8952SOL    MW436129   6.147   2.899   0.481
 8953SOL     OW36130   7.251   3.593   0.628
 8953SOL    HW236131   7.263   3.539   0.706
 8953SOL    HW336132   7.288   3.541   0.557
 8953SOL    MW436133   7.257   3.578   0.629
 8954SOL     OW36134   6.630   3.478   1.629
 8954SOL    HW236135   6.671   3.514   1.550
 8954SOL    HW336136   6.665   3.389   1.636
 8954SOL    MW436137   6.641   3.471   1.620
 8955SOL     OW36138   7.187   3.033   1.233
 8955SOL    HW236139   7.108   2.998   1.191
 8955SOL    HW336140   7.214   3.105   1.177
 8955SOL    MW436141   7.180   3.038   1.220
 8956SOL     OW36142   6.419   2.346   0.499
 8956SOL    HW236143   6.394   2.434   0.527
 8956SOL    HW336144   6.416   2.349   0.403
 8956SOL    MW436145   6.415   2.358   0.491
 8957SOL     OW36146   5.861   2.374   0.427
 8957SOL    HW236147   5.893   2.462   0.409
 8957SOL    HW336148   5.849   2.372   0.522
 8957SOL    MW436149   5.864   2.386   0.439
 8958SOL     OW36150   5.939   2.787   1.328
 8958SOL    HW236151   6.002   2.734   1.279
 8958SOL    HW336152   5.920   2.861   1.271
 8958SOL    MW436153   5.945   2.789   1.315
 8959SOL     OW36154   6.260   2.129   0.514
 8959SOL    HW236155   6.318   2.205   0.516
 8959SOL    HW336156   6.195   2.150   0.447
 8959SOL    MW436157   6.259   2.141   0.505
 8960SOL     OW36158   6.347   3.056   0.689
 8960SOL    HW236159   6.427   3.059   0.741
 8960SOL    HW336160   6.375   3.023   0.603
 8960SOL    MW436161   6.361   3.052   0.684
 8961SOL     OW36162   6.372   3.397   1.592
 8961SOL    HW236163   6.456   3.423   1.631
 8961SOL    HW336164   6.396   3.341   1.518
 8961SOL    MW436165   6.386   3.393   1.587
 8962SOL     OW36166   6.124   2.560   0.680
 8962SOL    HW236167   6.109   2.480   0.731
 8962SOL    HW336168   6.206   2.595   0.714
 8962SOL    MW436169   6.132   2.552   0.692
 8963SOL     OW36170   6.461   3.246   1.365
 8963SOL    HW236171   6.425   3.312   1.305
 8963SOL    HW336172   6.389   3.184   1.378
 8963SOL    MW436173   6.447   3.246   1.359
 8964SOL     OW36174   6.266   2.386   1.057
 8964SOL    HW236175   6.172   2.382   1.075
 8964SOL    HW336176   6.296   2.295   1.066
 8964SOL    MW436177   6.257   2.374   1.060
 8965SOL     OW36178   6.012   2.800   0.961
 8965SOL    HW236179   5.967   2.807   0.877
 8965SOL    HW336180   5.992   2.883   1.005
 8965SOL    MW436181   6.004   2.812   0.955
 8966SOL     OW36182   5.709   3.646   0.836
 8966SOL    HW236183   5.798   3.638   0.871
 8966SOL    HW336184   5.673   3.558   0.841
 8966SOL    MW436185   5.716   3.633   0.841
 8967SOL     OW36186   5.973   3.173   0.871
 8967SOL    HW236187   5.949   3.226   0.947
 8967SOL    HW336188   6.029   3.231   0.819
 8967SOL    MW436189   5.977   3.188   0.874
 8968SOL     OW36190   6.535   2.817   0.681
 8968SOL    HW236191   6.449   2.804   0.721
 8968SOL    HW336192   6.588   2.744   0.713
 8968SOL    MW436193   6.531   2.806   0.690
 8969SOL     OW36194   5.943   3.469   1.466
 8969SOL    HW236195   5.851   3.445   1.451
 8969SOL    HW336196   5.987   3.386   1.483
 8969SOL    MW436197   5.937   3.454   1.465
 8970SOL     OW36198   6.526   3.179   0.398
 8970SOL    HW236199   6.503   3.241   0.466
 8970SOL    HW336200   6.483   3.097   0.424
 8970SOL    MW436201   6.518   3.175   0.409
 8971SOL     OW36202   7.399   2.180   0.854
 8971SOL    HW236203   7.336   2.160   0.923
 8971SOL    HW336204   7.389   2.109   0.791
 8971SOL    MW436205   7.389   2.167   0.855
 8972SOL     OW36206   7.200   2.952   0.506
 8972SOL    HW236207   7.110   2.952   0.541
 8972SOL    HW336208   7.193   2.998   0.423
 8972SOL    MW436209   7.187   2.958   0.500
 8973SOL     OW36210   7.000   2.587   1.578
 8973SOL    HW236211   7.069   2.525   1.555
 8973SOL    HW336212   6.925   2.561   1.525
 8973SOL    MW436213   7.000   2.574   1.569
 8974SOL     OW36214   5.741   3.467   1.130
 8974SOL    HW236215   5.724   3.413   1.207
 8974SOL    HW336216   5.729   3.557   1.160
 8974SOL    MW436217   5.738   3.471   1.144
 8975SOL     OW36218   6.736   2.974   1.570
 8975SOL    HW236219   6.721   3.067   1.555
 8975SOL    HW336220   6.831   2.964   1.570
 8975SOL    MW436221   6.745   2.984   1.567
 8976SOL     OW36222   6.532   2.398   1.771
 8976SOL    HW236223   6.622   2.399   1.738
 8976SOL    HW336224   6.491   2.323   1.729
 8976SOL    MW436225   6.538   2.388   1.762
 8977SOL     OW36226   7.107   2.930   0.898
 8977SOL    HW236227   7.110   2.864   0.829
 8977SOL    HW336228   7.192   2.973   0.894
 8977SOL    MW436229   7.119   2.926   0.889
 8978SOL     OW36230   6.727   2.533   0.467
 8978SOL    HW236231   6.753   2.557   0.378
 8978SOL    HW336232   6.709   2.440   0.463
 8978SOL    MW436233   6.729   2.525   0.454
 8979SOL     OW36234   6.312   2.202   1.721
 8979SOL    HW236235   6.322   2.128   1.661
 8979SOL    HW336236   6.348   2.171   1.804
 8979SOL    MW436237   6.318   2.188   1.723
 8980SOL     OW36238   6.048   3.569   0.636
 8980SOL    HW236239   6.080   3.657   0.614
 8980SOL    HW336240   6.001   3.541   0.558
 8980SOL    MW436241   6.047   3.577   0.623
 8981SOL     OW36242   7.432   1.931   0.685
 8981SOL    HW236243   7.486   1.882   0.747
 8981SOL    HW336244   7.375   1.865   0.646
 8981SOL    MW436245   7.432   1.915   0.687
 8982SOL     OW36246   6.551   1.884   1.098
 8982SOL    HW236247   6.510   1.962   1.060
 8982SOL    HW336248   6.645   1.902   1.093
 8982SOL    MW436249   6.557   1.896   1.093
 8983SOL     OW36250   7.180   2.488   0.464
 8983SOL    HW236251   7.219   2.488   0.551
 8983SOL    HW336252   7.121   2.564   0.464
 8983SOL    MW436253   7.177   2.499   0.475
 8984SOL     OW36254   6.497   2.855   1.593
 8984SOL    HW236255   6.474   2.835   1.683
 8984SOL    HW336256   6.582   2.899   1.598
 8984SOL    MW436257   6.504   2.858   1.605
 8985SOL     OW36258   6.577   1.992   1.353
 8985SOL    HW236259   6.583   1.954   1.266
 8985SOL    HW336260   6.566   2.086   1.338
 8985SOL    MW436261   6.578   2.000   1.341
 8986SOL     OW36262   6.666   2.481   1.187
 8986SOL    HW236263   6.741   2.510   1.134
 8986SOL    HW336264   6.598   2.546   1.171
 8986SOL    MW436265   6.667   2.493   1.177
 8987SOL     OW36266   7.216   2.449   1.464
 8987SOL    HW236267   7.197   2.358   1.443
 8987SOL    HW336268   7.194   2.498   1.385
 8987SOL    MW436269   7.211   2.442   1.451
 8988SOL     OW36270   7.358   3.543   1.368
 8988SOL    HW236271   7.286   3.505   1.419
 8988SOL    HW336272   7.375   3.628   1.409
 8988SOL    MW436273   7.352   3.548   1.380
 8989SOL     OW36274   6.663   2.187   1.570
 8989SOL    HW236275   6.629   2.226   1.489
 8989SOL    HW336276   6.641   2.095   1.563
 8989SOL    MW436277   6.656   2.180   1.560
 8990SOL     OW36278   7.072   3.001   1.646
 8990SOL    HW236279   7.154   3.042   1.676
 8990SOL    HW336280   7.035   2.963   1.726
 8990SOL    MW436281   7.078   3.002   1.661
 8991SOL     OW36282   7.367   2.374   0.630
 8991SOL    HW236283   7.456   2.343   0.647
 8991SOL    HW336284   7.310   2.314   0.678
 8991SOL    MW436285   7.370   2.362   0.639
 8992SOL     OW36286   5.793   2.088   0.659
 8992SOL    HW236287   5.784   2.028   0.585
 8992SOL    HW336288   5.726   2.059   0.722
 8992SOL    MW436289   5.783   2.075   0.657
 8993SOL     OW36290   5.740   2.261   1.022
 8993SOL    HW236291   5.712   2.352   1.031
 8993SOL    HW336292   5.677   2.222   0.961
 8993SOL    MW436293   5.727   2.267   1.016
 8994SOL     OW36294   6.199   3.599   0.328
 8994SOL    HW236295   6.120   3.557   0.361
 8994SOL    HW336296   6.265   3.582   0.395
 8994SOL    MW436297   6.198   3.591   0.341
 8995SOL     OW36298   7.327   3.119   1.725
 8995SOL    HW236299   7.377   3.045   1.757
 8995SOL    HW336300   7.273   3.146   1.800
 8995SOL    MW436301   7.327   3.113   1.738
 8996SOL     OW36302   7.461   2.754   1.227
 8996SOL    HW236303   7.477   2.792   1.140
 8996SOL    HW336304   7.495   2.820   1.288
 8996SOL    MW436305   7.468   2.767   1.223
 8997SOL     OW36306   7.253   3.463   0.896
 8997SOL    HW236307   7.282   3.530   0.957
 8997SOL    HW336308   7.234   3.387   0.951
 8997SOL    MW436309   7.255   3.463   0.911
 8998SOL     OW36310   5.724   2.536   1.192
 8998SOL    HW236311   5.786   2.566   1.258
 8998SOL    HW336312   5.658   2.605   1.186
 8998SOL    MW436313   5.723   2.549   1.199
 8999SOL     OW36314   5.819   3.645   1.644
 8999SOL    HW236315   5.793   3.713   1.582
 8999SOL    HW336316   5.867   3.582   1.592
 8999SOL    MW436317   5.821   3.645   1.630
 9000SOL     OW36318   5.871   2.964   1.151
 9000SOL    HW236319   5.924   3.039   1.176
 9000SOL    HW336320   5.790   3.002   1.117
 9000SOL    MW436321   5.867   2.979   1.151
 9001SOL     OW36322   6.411   2.868   1.139
 9001SOL    HW236323   6.439   2.777   1.151
 9001SOL    HW336324   6.340   2.862   1.075
 9001SOL    MW436325   6.404   2.856   1.134
 9002SOL     OW36326   5.726   2.733   0.557
 9002SOL    HW236327   5.817   2.748   0.584
 9002SOL    HW336328   5.729   2.654   0.503
 9002SOL    MW436329   5.738   2.725   0.555
 9003SOL     OW36330   5.962   2.441   1.811
 9003SOL    HW236331   5.909   2.521   1.818
 9003SOL    HW336332   6.032   2.453   1.876
 9003SOL    MW436333   5.964   2.454   1.819
 9004SOL     OW36334   6.348   1.991   1.518
 9004SOL    HW236335   6.325   1.899   1.520
 9004SOL    HW336336   6.434   1.993   1.475
 9004SOL    MW436337   6.355   1.981   1.514
 9005SOL     OW36338   6.032   2.515   1.557
 9005SOL    HW236339   6.112   2.565   1.543
 9005SOL    HW336340   6.023   2.509   1.652
 9005SOL    MW436341   6.041   2.521   1.567
 9006SOL     OW36342   6.353   3.665   0.931
 9006SOL    HW236343   6.442   3.680   0.961
 9006SOL    HW336344   6.348   3.712   0.847
 9006SOL    MW436345   6.363   3.673   0.924
 9007SOL     OW36346   7.009   2.040   1.828
 9007SOL    HW236347   7.065   1.967   1.854
 9007SOL    HW336348   6.979   2.078   1.910
 9007SOL    MW436349   7.013   2.035   1.841
 9008SOL     OW36350   5.734   3.345   0.596
 9008SOL    HW236351   5.706   3.384   0.678
 9008SOL    HW336352   5.754   3.254   0.618
 9008SOL    MW436353   5.732   3.337   0.609
 9009SOL     OW36354   6.567   3.388   0.631
 9009SOL    HW236355   6.650   3.342   0.615
 9009SOL    HW336356   6.557   3.387   0.727
 9009SOL    MW436357   6.577   3.381   0.641
 9010SOL     OW36358   7.399   2.533   0.945
 9010SOL    HW236359   7.488   2.563   0.927
 9010SOL    HW336360   7.379   2.473   0.874
 9010SOL    MW436361   7.408   2.530   0.934
 9011SOL     OW36362   7.250   2.712   1.825
 9011SOL    HW236363   7.305   2.636   1.806
 9011SOL    HW336364   7.252   2.720   1.920
 9011SOL    MW436365   7.258   2.703   1.833
 9012SOL     OW36366   6.545   2.274   1.344
 9012SOL    HW236367   6.464   2.315   1.372
 9012SOL    HW336368   6.592   2.342   1.296
 9012SOL    MW436369   6.540   2.289   1.342
 9013SOL     OW36370   6.805   2.612   0.967
 9013SOL    HW236371   6.818   2.706   0.977
 9013SOL    HW336372   6.766   2.602   0.881
 9013SOL    MW436373   6.801   2.623   0.957
 9014SOL     OW36374   6.257   2.807   0.771
 9014SOL    HW236375   6.168   2.798   0.804
 9014SOL    HW336376   6.261   2.897   0.739
 9014SOL    MW436377   6.246   2.818   0.771
 9015SOL     OW36378   7.056   2.390   0.766
 9015SOL    HW236379   7.001   2.311   0.765
 9015SOL    HW336380   7.038   2.431   0.850
 9015SOL    MW436381   7.046   2.385   0.775
 9016SOL     OW36382   6.027   2.077   1.583
 9016SOL    HW236383   5.948   2.095   1.635
 9016SOL    HW336384   6.022   2.139   1.510
 9016SOL    MW436385   6.017   2.087   1.580
 9017SOL     OW36386   6.675   2.594   0.723
 9017SOL    HW236387   6.612   2.526   0.747
 9017SOL    HW336388   6.695   2.575   0.631
 9017SOL    MW436389   6.669   2.581   0.715
 9018SOL     OW36390   5.931   3.489   0.425
 9018SOL    HW236391   5.892   3.536   0.351
 9018SOL    HW336392   5.865   3.424   0.450
 9018SOL    MW436393   5.918   3.487   0.419
 9019SOL     OW36394   6.423   2.898   0.449
 9019SOL    HW236395   6.425   2.872   0.356
 9019SOL    HW336396   6.481   2.835   0.492
 9019SOL    MW436397   6.431   2.887   0.443
 9020SOL     OW36398   6.976   3.458   1.221
 9020SOL    HW236399   6.901   3.504   1.259
 9020SOL    HW336400   6.958   3.365   1.238
 9020SOL    MW436401   6.965   3.452   1.229
 9021SOL     OW36402   6.980   3.666   0.651
 9021SOL    HW236403   6.923   3.619   0.590
 9021SOL    HW336404   7.066   3.627   0.638
 9021SOL    MW436405   6.983   3.657   0.641
 9022SOL     OW36406   6.933   2.142   0.782
 9022SOL    HW236407   6.961   2.074   0.843
 9022SOL    HW336408   6.847   2.113   0.752
 9022SOL    MW436409   6.926   2.129   0.786
 9023SOL     OW36410   5.738   3.076   0.716
 9023SOL    HW236411   5.802   3.108   0.779
 9023SOL    HW336412   5.787   3.012   0.664
 9023SOL    MW436413   5.753   3.072   0.717
 9024SOL     OW36414   6.238   3.152   1.698
 9024SOL    HW236415   6.286   3.235   1.685
 9024SOL    HW336416   6.295   3.100   1.754
 9024SOL    MW436417   6.252   3.156   1.704
 9025SOL     OW36418   5.814   3.394   1.838
 9025SOL    HW236419   5.870   3.318   1.853
 9025SOL    HW336420   5.763   3.372   1.760
 9025SOL    MW436421   5.814   3.381   1.829
 9026SOL     OW36422   7.086   2.802   0.259
 9026SOL    HW236423   7.053   2.891   0.249
 9026SOL    HW336424   7.051   2.773   0.344
 9026SOL    MW436425   7.076   2.811   0.270
 9027SOL     OW36426   6.699   3.231   1.447
 9027SOL    HW236427   6.610   3.237   1.415
 9027SOL    HW336428   6.743   3.310   1.415
 9027SOL    MW436429   6.694   3.241   1.439
 9028SOL     OW36430   5.992   1.899   1.789
 9028SOL    HW236431   5.920   1.864   1.737
 9028SOL    HW336432   6.050   1.940   1.724
 9028SOL    MW436433   5.990   1.900   1.774
 9029SOL     OW36434   6.016   3.389   1.088
 9029SOL    HW236435   6.061   3.451   1.145
 9029SOL    HW336436   5.923   3.408   1.101
 9029SOL    MW436437   6.009   3.399   1.095
 9030SOL     OW36438   7.456   2.918   1.442
 9030SOL    HW236439   7.371   2.931   1.401
 9030SOL    HW336440   7.436   2.882   1.529
 9030SOL    MW436441   7.443   2.914   1.447
 9031SOL     OW36442   6.438   3.457   1.196
 9031SOL    HW236443   6.462   3.446   1.105
 9031SOL    HW336444   6.361   3.514   1.194
 9031SOL    MW436445   6.430   3.462   1.185
 9032SOL     OW36446   6.733   2.813   0.294
 9032SOL    HW236447   6.643   2.834   0.269
 9032SOL    HW336448   6.760   2.886   0.350
 9032SOL    MW436449   6.725   2.825   0.297
 9033SOL     OW36450   6.233   3.162   0.986
 9033SOL    HW236451   6.226   3.141   1.080
 9033SOL    HW336452   6.151   3.130   0.949
 9033SOL    MW436453   6.221   3.156   0.993
 9034SOL     OW36454   7.097   2.172   1.388
 9034SOL    HW236455   7.044   2.174   1.468
 9034SOL    HW336456   7.082   2.085   1.351
 9034SOL    MW436457   7.089   2.162   1.393
 9035SOL     OW36458   7.433   2.096   1.261
 9035SOL    HW236459   7.414   2.163   1.196
 9035SOL    HW336460   7.490   2.034   1.216
 9035SOL    MW436461   7.437   2.097   1.247
 9036SOL     OW36462   5.679   3.254   1.649
 9036SOL    HW236463   5.723   3.187   1.595
 9036SOL    HW336464   5.594   3.216   1.669
 9036SOL    MW436465   5.674   3.240   1.645
 9037SOL     OW36466   6.362   1.929   0.701
 9037SOL    HW236467   6.291   1.990   0.683
 9037SOL    HW336468   6.413   1.926   0.620
 9037SOL    MW436469   6.358   1.935   0.688
 9038SOL     OW36470   6.120   3.169   0.450
 9038SOL    HW236471   6.113   3.201   0.540
 9038SOL    HW336472   6.030   3.153   0.422
 9038SOL    MW436473   6.108   3.171   0.457
 9039SOL     OW36474   6.715   3.562   1.359
 9039SOL    HW236475   6.635   3.547   1.309
 9039SOL    HW336476   6.722   3.657   1.366
 9039SOL    MW436477   6.706   3.573   1.353
 9040SOL     OW36478   6.829   3.527   0.849
 9040SOL    HW236479   6.876   3.600   0.808
 9040SOL    HW336480   6.750   3.566   0.885
 9040SOL    MW436481   6.824   3.542   0.848
 9041SOL     OW36482   7.237   3.622   1.124
 9041SOL    HW236483   7.280   3.592   1.204
 9041SOL    HW336484   7.156   3.570   1.121
 9041SOL    MW436485   7.232   3.611   1.134
 9042SOL     OW36486   6.322   2.586   1.831
 9042SOL    HW236487   6.392   2.528   1.803
 9042SOL    HW336488   6.265   2.531   1.886
 9042SOL    MW436489   6.324   2.573   1.835
 9043SOL     OW36490   7.109   2.798   1.464
 9043SOL    HW236491   7.114   2.851   1.544
 9043SOL    HW336492   7.071   2.715   1.492
 9043SOL    MW436493   7.105   2.793   1.479
 9044SOL     OW36494   6.749   1.933   1.710
 9044SOL    HW236495   6.744   1.840   1.691
 9044SOL    HW336496   6.832   1.944   1.756
 9044SOL    MW436497   6.757   1.922   1.714
 9045SOL     OW36498   7.219   3.204   0.986
 9045SOL    HW236499   7.254   3.186   0.899
 9045SOL    HW336500   7.124   3.205   0.973
 9045SOL    MW436501   7.211   3.201   0.973
 9046SOL     OW36502   6.648   2.852   1.355
 9046SOL    HW236503   6.691   2.887   1.433
 9046SOL    HW336504   6.631   2.929   1.301
 9046SOL    MW436505   6.651   2.867   1.358
 9047SOL     OW36506   6.039   1.994   0.657
 9047SOL    HW236507   6.089   2.037   0.588
 9047SOL    HW336508   5.954   2.038   0.657
 9047SOL    MW436509   6.036   2.007   0.648
 9048SOL     OW36510   5.798   3.056   1.517
 9048SOL    HW236511   5.826   3.009   1.595
 9048SOL    HW336512   5.719   3.011   1.488
 9048SOL    MW436513   5.791   3.045   1.523
 9049SOL     OW36514   6.306   2.383   1.484
 9049SOL    HW236515   6.278   2.471   1.508
 9049SOL    HW336516   6.275   2.327   1.555
 9049SOL    MW436517   6.298   2.386   1.496
 9050SOL     OW36518   5.961   2.779   0.697
 9050SOL    HW236519   6.019   2.835   0.645
 9050SOL    HW336520   6.005   2.694   0.699
 9050SOL    MW436521   5.974   2.776   0.690
 9051SOL     OW36522   7.101   2.131   0.534
 9051SOL    HW236523   7.023   2.081   0.559
 9051SOL    HW336524   7.072   2.222   0.534
 9051SOL    MW436525   7.087   2.135   0.537
 9052SOL     OW36526   6.687   2.093   0.693
 9052SOL    HW236527   6.707   2.168   0.637
 9052SOL    HW336528   6.667   2.132   0.778
 9052SOL    MW436529   6.688   2.109   0.697
 9053SOL     OW36530   7.447   2.866   1.712
 9053SOL    HW236531   7.360   2.846   1.748
 9053SOL    HW336532   7.501   2.792   1.737
 9053SOL    MW436533   7.442   2.855   1.720
 9054SOL     OW36534   5.668   3.379   0.869
 9054SOL    HW236535   5.700   3.383   0.960
 9054SOL    HW336536   5.573   3.387   0.877
 9054SOL    MW436537   5.660   3.382   0.882
 9055SOL     OW36538   5.623   2.505   0.416
 9055SOL    HW236539   5.563   2.477   0.486
 9055SOL    HW336540   5.697   2.445   0.422
 9055SOL    MW436541   5.625   2.494   0.425
 9056SOL     OW36542   7.191   3.717   1.850
 9056SOL    HW236543   7.236   3.641   1.815
 9056SOL    HW336544   7.229   3.730   1.937
 9056SOL    MW436545   7.201   3.710   1.856
 9057SOL     OW36546   6.791   3.236   0.576
 9057SOL    HW236547   6.814   3.187   0.654
 9057SOL    HW336548   6.872   3.278   0.548
 9057SOL    MW436549   6.804   3.236   0.583
 9058SOL     OW36550   6.049   2.244   1.305
 9058SOL    HW236551   6.082   2.325   1.345
 9058SOL    HW336552   6.022   2.270   1.217
 9058SOL    MW436553   6.048   2.258   1.299
 9059SOL     OW36554   6.003   2.211   1.041
 9059SOL    HW236555   6.033   2.125   1.012
 9059SOL    HW336556   5.908   2.204   1.044
 9059SOL    MW436557   5.995   2.200   1.039
 9060SOL     OW36558   6.832   2.420   1.732
 9060SOL    HW236559   6.884   2.355   1.685
 9060SOL    HW336560   6.790   2.471   1.662
 9060SOL    MW436561   6.833   2.417   1.715
 9061SOL     OW36562   6.931   2.215   1.593
 9061SOL    HW236563   6.838   2.199   1.580
 9061SOL    HW336564   6.957   2.153   1.661
 9061SOL    MW436565   6.921   2.205   1.600
 9062SOL     OW36566   6.146   1.989   0.932
 9062SOL    HW236567   6.156   1.898   0.958
 9062SOL    HW336568   6.102   1.985   0.847
 9062SOL    MW436569   6.142   1.977   0.924
 9063SOL     OW36570   6.240   3.604   1.478
 9063SOL    HW236571   6.157   3.589   1.523
 9063SOL    HW336572   6.299   3.537   1.513
 9063SOL    MW436573   6.238   3.594   1.488
 9064SOL     OW36574   7.297   2.311   1.103
 9064SOL    HW236575   7.230   2.344   1.163
 9064SOL    HW336576   7.340   2.389   1.069
 9064SOL    MW436577   7.295   2.326   1.107
 9065SOL     OW36578   7.475   3.031   1.073
 9065SOL    HW236579   7.468   2.971   0.998
 9065SOL    HW336580   7.401   3.091   1.062
 9065SOL    MW436581   7.465   3.031   1.062
 9066SOL     OW36582   6.857   2.893   0.991
 9066SOL    HW236583   6.871   2.865   1.082
 9066SOL    HW336584   6.943   2.924   0.963
 9066SOL    MW436585   6.870   2.894   1.000
 9067SOL     OW36586   6.940   2.388   1.270
 9067SOL    HW236587   6.961   2.389   1.177
 9067SOL    HW336588   6.985   2.310   1.303
 9067SOL    MW436589   6.947   2.378   1.262
 9068SOL     OW36590   7.433   2.519   1.812
 9068SOL    HW236591   7.470   2.464   1.881
 9068SOL    HW336592   7.458   2.476   1.730
 9068SOL    MW436593   7.440   2.507   1.811
 9069SOL     OW36594   6.980   2.817   1.863
 9069SOL    HW236595   7.046   2.765   1.817
 9069SOL    HW336596   7.000   2.804   1.956
 9069SOL    MW436597   6.991   2.808   1.870
 9070SOL     OW36598   6.991   2.678   0.490
 9070SOL    HW236599   6.906   2.648   0.460
 9070SOL    HW336600   6.983   2.685   0.585
 9070SOL    MW436601   6.979   2.676   0.499
 9071SOL     OW36602   6.067   3.141   1.221
 9071SOL    HW236603   6.079   3.168   1.312
 9071SOL    HW336604   6.048   3.222   1.174
 9071SOL    MW436605   6.066   3.156   1.226
 9072SOL     OW36606   6.351   2.121   1.044
 9072SOL    HW236607   6.324   2.123   1.135
 9072SOL    HW336608   6.281   2.073   0.999
 9072SOL    MW436609   6.339   2.117   1.051
 9073SOL     OW36610   6.205   3.613   1.206
 9073SOL    HW236611   6.257   3.690   1.183
 9073SOL    HW336612   6.214   3.605   1.301
 9073SOL    MW436613   6.214   3.620   1.217
 9074SOL     OW36614   7.107   3.198   1.438
 9074SOL    HW236615   7.092   3.127   1.501
 9074SOL    HW336616   7.153   3.156   1.366
 9074SOL    MW436617   7.113   3.182   1.438
 9075SOL     OW36618   6.181   2.929   1.555
 9075SOL    HW236619   6.218   2.934   1.467
 9075SOL    HW336620   6.220   3.002   1.602
 9075SOL    MW436621   6.191   2.939   1.550
 9076SOL     OW36622   6.361   2.972   1.367
 9076SOL    HW236623   6.420   2.918   1.420
 9076SOL    HW336624   6.376   2.944   1.277
 9076SOL    MW436625   6.371   2.961   1.363
 9077SOL     OW36626   7.172   3.461   1.539
 9077SOL    HW236627   7.214   3.446   1.624
 9077SOL    HW336628   7.163   3.374   1.501
 9077SOL    MW436629   7.176   3.449   1.546
 9078SOL     OW36630   6.832   1.940   1.130
 9078SOL    HW236631   6.887   1.949   1.052
 9078SOL    HW336632   6.887   1.974   1.201
 9078SOL    MW436633   6.846   1.945   1.129
 9079SOL     OW36634   5.993   3.596   0.894
 9079SOL    HW236635   5.997   3.507   0.929
 9079SOL    HW336636   6.019   3.587   0.803
 9079SOL    MW436637   5.996   3.584   0.886
 9080SOL     OW36638   6.610   3.074   1.137
 9080SOL    HW236639   6.542   3.008   1.153
 9080SOL    HW336640   6.628   3.068   1.044
 9080SOL    MW436641   6.603   3.065   1.128
 9081SOL     OW36642   5.699   3.349   1.388
 9081SOL    HW236643   5.689   3.307   1.474
 9081SOL    HW336644   5.620   3.402   1.378
 9081SOL    MW436645   5.688   3.350   1.399
 9082SOL     OW36646   6.603   2.213   0.958
 9082SOL    HW236647   6.533   2.165   1.003
 9082SOL    HW336648   6.635   2.276   1.022
 9082SOL    MW436649   6.598   2.215   0.972
 9083SOL     OW36650   6.254   2.649   1.578
 9083SOL    HW236651   6.247   2.744   1.566
 9083SOL    HW336652   6.263   2.638   1.673
 9083SOL    MW436653   6.255   2.661   1.588
 9084SOL     OW36654   5.975   3.164   1.836
 9084SOL    HW236655   6.047   3.166   1.773
 9084SOL    HW336656   5.945   3.073   1.835
 9084SOL    MW436657   5.980   3.153   1.828
 9085SOL     OW36658   7.059   1.927   1.303
 9085SOL    HW236659   7.130   1.873   1.267
 9085SOL    HW336660   7.058   1.906   1.396
 9085SOL    MW436661   7.068   1.918   1.311
 9086SOL     OW36662   7.259   3.457   1.787
 9086SOL    HW236663   7.232   3.454   1.878
 9086SOL    HW336664   7.355   3.461   1.790
 9086SOL    MW436665   7.269   3.457   1.799
 9087SOL     OW36666   6.070   2.319   0.771
 9087SOL    HW236667   6.141   2.267   0.734
 9087SOL    HW336668   6.056   2.284   0.858
 9087SOL    MW436669   6.078   2.308   0.778
 9088SOL     OW36670   5.625   3.654   1.843
 9088SOL    HW236671   5.675   3.632   1.765
 9088SOL    HW336672   5.633   3.749   1.851
 9088SOL    MW436673   5.633   3.663   1.834
 9089SOL     OW36674   6.386   3.412   0.847
 9089SOL    HW236675   6.314   3.349   0.860
 9089SOL    HW336676   6.347   3.497   0.865
 9089SOL    MW436677   6.370   3.415   0.850
 9090SOL     OW36678   5.622   2.417   1.570
 9090SOL    HW236679   5.686   2.483   1.545
 9090SOL    HW336680   5.541   2.444   1.527
 9090SOL    MW436681   5.620   2.429   1.562
 9091SOL     OW36682   7.360   3.324   0.527
 9091SOL    HW236683   7.330   3.257   0.588
 9091SOL    HW336684   7.454   3.330   0.541
 9091SOL    MW436685   7.368   3.316   0.537
 9092SOL     OW36686   6.916   3.001   0.457
 9092SOL    HW236687   6.888   3.087   0.490
 9092SOL    HW336688   6.944   3.017   0.367
 9092SOL    MW436689   6.916   3.015   0.449
 9093SOL     OW36690   6.578   1.921   0.510
 9093SOL    HW236691   6.615   1.980   0.575
 9093SOL    HW336692   6.555   1.977   0.436
 9093SOL    MW436693   6.579   1.936   0.509
 9094SOL     OW36694   7.431   2.803   0.932
 9094SOL    HW236695   7.422   2.835   0.843
 9094SOL    HW336696   7.384   2.719   0.932
 9094SOL    MW436697   7.424   2.796   0.922
 9095SOL     OW36698   5.807   2.643   1.511
 9095SOL    HW236699   5.828   2.712   1.449
 9095SOL    HW336700   5.887   2.590   1.516
 9095SOL    MW436701   5.820   2.644   1.505
 9096SOL     OW36702   7.343   2.734   0.633
 9096SOL    HW236703   7.437   2.723   0.621
 9096SOL    HW336704   7.319   2.806   0.574
 9096SOL    MW436705   7.353   2.742   0.624
 9097SOL     OW36706   5.792   2.658   1.778
 9097SOL    HW236707   5.718   2.602   1.804
 9097SOL    HW336708   5.787   2.661   1.683
 9097SOL    MW436709   5.781   2.651   1.768
 9098SOL     OW36710   5.958   1.945   1.228
 9098SOL    HW236711   6.001   2.029   1.248
 9098SOL    HW336712   6.031   1.883   1.221
 9098SOL    MW436713   5.973   1.948   1.229
 9099SOL     OW36714   5.999   2.612   0.406
 9099SOL    HW236715   5.999   2.707   0.391
 9099SOL    HW336716   6.076   2.596   0.460
 9099SOL    MW436717   6.009   2.623   0.411
 9100SOL     OW36718   6.775   2.471   1.470
 9100SOL    HW236719   6.811   2.444   1.386
 9100SOL    HW336720   6.688   2.505   1.449
 9100SOL    MW436721   6.769   2.472   1.457
 9101SOL     OW36722   5.758   2.343   0.695
 9101SOL    HW236723   5.820   2.350   0.768
 9101SOL    HW336724   5.758   2.250   0.672
 9101SOL    MW436725   5.766   2.332   0.702
 9102SOL     OW36726   6.440   2.604   1.179
 9102SOL    HW236727   6.398   2.522   1.155
 9102SOL    HW336728   6.441   2.603   1.275
 9102SOL    MW436729   6.433   2.593   1.188
 9103SOL     OW36730   7.111   3.737   1.578
 9103SOL    HW236731   7.114   3.643   1.561
 9103SOL    HW336732   7.134   3.745   1.670
 9103SOL    MW436733   7.114   3.725   1.588
 9104SOL     OW36734   6.244   2.074   1.284
 9104SOL    HW236735   6.175   2.137   1.305
 9104SOL    HW336736   6.271   2.038   1.369
 9104SOL    MW436737   6.238   2.077   1.297
 9105SOL     OW36738   7.039   1.927   0.901
 9105SOL    HW236739   7.127   1.936   0.938
 9105SOL    HW336740   7.049   1.868   0.827
 9105SOL    MW436741   7.053   1.921   0.895
 9106SOL     OW36742   7.071   2.666   0.745
 9106SOL    HW236743   7.151   2.681   0.694
 9106SOL    HW336744   7.064   2.571   0.751
 9106SOL    MW436745   7.080   2.655   0.740
 9107SOL     OW36746   6.521   2.592   1.442
 9107SOL    HW236747   6.590   2.659   1.439
 9107SOL    HW336748   6.454   2.630   1.498
 9107SOL    MW436749   6.522   2.605   1.449
 9108SOL     OW36750   5.939   2.892   1.690
 9108SOL    HW236751   5.893   2.808   1.692
 9108SOL    HW336752   5.996   2.886   1.614
 9108SOL    MW436753   5.941   2.880   1.682
 9109SOL     OW36754   6.190   3.267   0.691
 9109SOL    HW236755   6.255   3.200   0.712
 9109SOL    HW336756   6.242   3.344   0.668
 9109SOL    MW436757   6.205   3.269   0.690
 9110SOL     OW36758   6.451   2.432   0.821
 9110SOL    HW236759   6.391   2.450   0.893
 9110SOL    HW336760   6.485   2.344   0.840
 9110SOL    MW436761   6.447   2.422   0.834
 9111SOL     OW36762   7.392   1.931   1.490
 9111SOL    HW236763   7.313   1.977   1.518
 9111SOL    HW336764   7.427   1.985   1.419
 9111SOL    MW436765   7.386   1.944   1.484
 9112SOL     OW36766   6.676   3.015   0.840
 9112SOL    HW236767   6.768   2.996   0.858
 9112SOL    HW336768   6.649   2.945   0.780
 9112SOL    MW436769   6.684   3.003   0.834
 9113SOL     OW36770   6.469   2.835   0.195
 9113SOL    HW236771   6.455   2.747   0.160
 9113SOL    HW336772   6.420   2.892   0.136
 9113SOL    MW436773   6.461   2.830   0.183
 9114SOL     OW36774   6.950   3.253   0.936
 9114SOL    HW236775   6.923   3.337   0.901
 9114SOL    HW336776   6.910   3.248   1.023
 9114SOL    MW436777   6.943   3.262   0.942
 9115SOL     OW36778   6.869   3.201   1.204
 9115SOL    HW236779   6.880   3.168   1.293
 9115SOL    HW336780   6.788   3.160   1.173
 9115SOL    MW436781   6.859   3.193   1.210
 9116SOL     OW36782   5.882   2.559   0.974
 9116SOL    HW236783   5.832   2.558   1.055
 9116SOL    HW336784   5.902   2.651   0.958
 9116SOL    MW436785   5.878   2.571   0.982
 9117SOL     OW36786   6.949   3.323   1.736
 9117SOL    HW236787   6.949   3.417   1.752
 9117SOL    HW336788   6.994   3.313   1.652
 9117SOL    MW436789   6.955   3.333   1.727
 9118SOL     OW36790   6.477   2.604   0.411
 9118SOL    HW236791   6.457   2.590   0.318
 9118SOL    HW336792   6.570   2.583   0.418
 9118SOL    MW436793   6.487   2.599   0.400
 9119SOL     OW36794   5.804   2.227   1.715
 9119SOL    HW236795   5.761   2.286   1.652
 9119SOL    HW336796   5.872   2.282   1.755
 9119SOL    MW436797   5.808   2.242   1.712
 9120SOL     OW36798   6.916   2.847   1.260
 9120SOL    HW236799   6.979   2.844   1.333
 9120SOL    HW336800   6.832   2.865   1.302
 9120SOL    MW436801   6.912   2.849   1.275
 9121SOL     OW36802   6.460   3.562   0.449
 9121SOL    HW236803   6.518   3.633   0.476
 9121SOL    HW336804   6.483   3.490   0.507
 9121SOL    MW436805   6.471   3.562   0.460
 9122SOL     OW36806   7.255   2.024   1.039
 9122SOL    HW236807   7.300   1.942   1.058
 9122SOL    HW336808   7.275   2.080   1.115
 9122SOL    MW436809   7.265   2.020   1.051
 9123SOL     OW36810   5.703   1.867   1.138
 9123SOL    HW236811   5.694   1.868   1.043
 9123SOL    HW336812   5.797   1.879   1.153
 9123SOL    MW436813   5.715   1.870   1.129
 9124SOL     OW36814   7.340   3.060   0.758
 9124SOL    HW236815   7.319   3.006   0.681
 9124SOL    HW336816   7.436   3.058   0.762
 9124SOL    MW436817   7.349   3.053   0.747
 9125SOL     OW36818   6.032   3.205   1.501
 9125SOL    HW236819   5.953   3.155   1.524
 9125SOL    HW336820   6.102   3.164   1.551
 9125SOL    MW436821   6.030   3.193   1.511
 9126SOL     OW36822   7.040   2.491   1.020
 9126SOL    HW236823   6.963   2.537   0.986
 9126SOL    HW336824   7.097   2.560   1.054
 9126SOL    MW436825   7.037   2.506   1.020
 9127SOL     OW36826   5.706   3.350   0.222
 9127SOL    HW236827   5.723   3.434   0.264
 9127SOL    HW336828   5.741   3.359   0.134
 9127SOL    MW436829   5.711   3.363   0.216
 9128SOL     OW36830   6.978   3.439   0.439
 9128SOL    HW236831   7.041   3.429   0.368
 9128SOL    HW336832   6.895   3.459   0.394
 9128SOL    MW436833   6.975   3.440   0.424
 9129SOL     OW36834   7.341   2.707   2.125
 9129SOL    HW236835   7.382   2.649   2.190
 9129SOL    HW336836   7.248   2.699   2.142
 9129SOL    MW436837   7.335   2.699   2.135
 9130SOL     OW36838   7.207   2.639   3.120
 9130SOL    HW236839   7.162   2.706   3.171
 9130SOL    HW336840   7.295   2.675   3.106
 9130SOL    MW436841   7.213   2.652   3.124
 9131SOL     OW36842   6.135   2.890   2.354
 9131SOL    HW236843   6.225   2.865   2.338
 9131SOL    HW336844   6.131   2.983   2.331
 9131SOL    MW436845   6.147   2.899   2.349
 9132SOL     OW36846   7.251   3.593   2.496
 9132SOL    HW236847   7.263   3.539   2.574
 9132SOL    HW336848   7.288   3.541   2.425
 9132SOL    MW436849   7.257   3.578   2.497
 9133SOL     OW36850   6.630   3.478   3.497
 9133SOL    HW236851   6.671   3.514   3.418
 9133SOL    HW336852   6.665   3.389   3.504
 9133SOL    MW436853   6.641   3.471   3.488
 9134SOL     OW36854   7.187   3.033   3.101
 9134SOL    HW236855   7.108   2.998   3.059
 9134SOL    HW336856   7.214   3.105   3.045
 9134SOL    MW436857   7.180   3.038   3.088
 9135SOL     OW36858   6.419   2.346   2.367
 9135SOL    HW236859   6.394   2.434   2.395
 9135SOL    HW336860   6.416   2.349   2.271
 9135SOL    MW436861   6.415   2.358   2.359
 9136SOL     OW36862   5.861   2.374   2.295
 9136SOL    HW236863   5.893   2.462   2.277
 9136SOL    HW336864   5.849   2.372   2.390
 9136SOL    MW436865   5.864   2.386   2.307
 9137SOL     OW36866   5.939   2.787   3.196
 9137SOL    HW236867   6.002   2.734   3.147
 9137SOL    HW336868   5.920   2.861   3.139
 9137SOL    MW436869   5.945   2.789   3.183
 9138SOL     OW36870   6.260   2.129   2.382
 9138SOL    HW236871   6.318   2.205   2.384
 9138SOL    HW336872   6.195   2.150   2.315
 9138SOL    MW436873   6.259   2.141   2.373
 9139SOL     OW36874   6.347   3.056   2.557
 9139SOL    HW236875   6.427   3.059   2.609
 9139SOL    HW336876   6.375   3.023   2.471
 9139SOL    MW436877   6.361   3.052   2.552
 9140SOL     OW36878   6.372   3.397   3.460
 9140SOL    HW236879   6.456   3.423   3.499
 9140SOL    HW336880   6.396   3.341   3.386
 9140SOL    MW436881   6.386   3.393   3.455
 9141SOL     OW36882   6.124   2.560   2.548
 9141SOL    HW236883   6.109   2.480   2.599
 9141SOL    HW336884   6.206   2.595   2.582
 9141SOL    MW436885   6.132   2.552   2.560
 9142SOL     OW36886   6.461   3.246   3.233
 9142SOL    HW236887   6.425   3.312   3.173
 9142SOL    HW336888   6.389   3.184   3.246
 9142SOL    MW436889   6.447   3.246   3.227
 9143SOL     OW36890   6.266   2.386   2.925
 9143SOL    HW236891   6.172   2.382   2.943
 9143SOL    HW336892   6.296   2.295   2.934
 9143SOL    MW436893   6.257   2.374   2.928
 9144SOL     OW36894   6.012   2.800   2.829
 9144SOL    HW236895   5.967   2.807   2.745
 9144SOL    HW336896   5.992   2.883   2.873
 9144SOL    MW436897   6.004   2.812   2.823
 9145SOL     OW36898   5.709   3.646   2.704
 9145SOL    HW236899   5.798   3.638   2.739
 9145SOL    HW336900   5.673   3.558   2.709
 9145SOL    MW436901   5.716   3.633   2.709
 9146SOL     OW36902   6.974   3.038   2.073
 9146SOL    HW236903   6.892   3.074   2.039
 9146SOL    HW336904   7.042   3.081   2.022
 9146SOL    MW436905   6.972   3.048   2.061
 9147SOL     OW36906   5.973   3.173   2.739
 9147SOL    HW236907   5.949   3.226   2.815
 9147SOL    HW336908   6.029   3.231   2.687
 9147SOL    MW436909   5.977   3.188   2.742
 9148SOL     OW36910   6.535   2.817   2.549
 9148SOL    HW236911   6.449   2.804   2.589
 9148SOL    HW336912   6.588   2.744   2.581
 9148SOL    MW436913   6.531   2.806   2.558
 9149SOL     OW36914   5.943   3.469   3.334
 9149SOL    HW236915   5.851   3.445   3.319
 9149SOL    HW336916   5.987   3.386   3.351
 9149SOL    MW436917   5.937   3.454   3.333
 9150SOL     OW36918   6.526   3.179   2.266
 9150SOL    HW236919   6.503   3.241   2.334
 9150SOL    HW336920   6.483   3.097   2.292
 9150SOL    MW436921   6.518   3.175   2.277
 9151SOL     OW36922   7.399   2.180   2.722
 9151SOL    HW236923   7.336   2.160   2.791
 9151SOL    HW336924   7.389   2.109   2.659
 9151SOL    MW436925   7.389   2.167   2.723
 9152SOL     OW36926   6.023   2.152   2.234
 9152SOL    HW236927   5.997   2.114   2.150
 9152SOL    HW336928   5.960   2.222   2.250
 9152SOL    MW436929   6.012   2.155   2.225
 9153SOL     OW36930   5.858   3.113   2.271
 9153SOL    HW236931   5.806   3.181   2.227
 9153SOL    HW336932   5.855   3.039   2.211
 9153SOL    MW436933   5.850   3.112   2.258
 9154SOL     OW36934   6.520   3.576   2.049
 9154SOL    HW236935   6.475   3.592   2.132
 9154SOL    HW336936   6.451   3.541   1.991
 9154SOL    MW436937   6.506   3.573   2.051
 9155SOL     OW36938   7.455   2.349   2.024
 9155SOL    HW236939   7.364   2.351   2.052
 9155SOL    HW336940   7.500   2.411   2.082
 9155SOL    MW436941   7.448   2.357   2.034
 9156SOL     OW36942   7.200   2.952   2.374
 9156SOL    HW236943   7.110   2.952   2.409
 9156SOL    HW336944   7.193   2.998   2.291
 9156SOL    MW436945   7.187   2.958   2.368
 9157SOL     OW36946   7.000   2.587   3.446
 9157SOL    HW236947   7.069   2.525   3.423
 9157SOL    HW336948   6.925   2.561   3.393
 9157SOL    MW436949   7.000   2.574   3.437
 9158SOL     OW36950   5.741   3.467   2.998
 9158SOL    HW236951   5.724   3.413   3.075
 9158SOL    HW336952   5.729   3.557   3.028
 9158SOL    MW436953   5.738   3.471   3.012
 9159SOL     OW36954   6.736   2.974   3.438
 9159SOL    HW236955   6.721   3.067   3.423
 9159SOL    HW336956   6.831   2.964   3.438
 9159SOL    MW436957   6.745   2.984   3.435
 9160SOL     OW36958   6.532   2.398   3.639
 9160SOL    HW236959   6.622   2.399   3.606
 9160SOL    HW336960   6.491   2.323   3.597
 9160SOL    MW436961   6.538   2.388   3.630
 9161SOL     OW36962   7.107   2.930   2.766
 9161SOL    HW236963   7.110   2.864   2.697
 9161SOL    HW336964   7.192   2.973   2.762
 9161SOL    MW436965   7.119   2.926   2.757
 9162SOL     OW36966   6.727   2.533   2.335
 9162SOL    HW236967   6.753   2.557   2.246
 9162SOL    HW336968   6.709   2.440   2.331
 9162SOL    MW436969   6.729   2.525   2.322
 9163SOL     OW36970   7.392   3.153   2.186
 9163SOL    HW236971   7.348   3.194   2.261
 9163SOL    HW336972   7.449   3.221   2.151
 9163SOL    MW436973   7.394   3.167   2.191
 9164SOL     OW36974   6.312   2.202   3.589
 9164SOL    HW236975   6.322   2.128   3.529
 9164SOL    HW336976   6.348   2.171   3.672
 9164SOL    MW436977   6.318   2.188   3.591
 9165SOL     OW36978   6.048   3.569   2.504
 9165SOL    HW236979   6.080   3.657   2.482
 9165SOL    HW336980   6.001   3.541   2.426
 9165SOL    MW436981   6.047   3.577   2.491
 9166SOL     OW36982   7.432   1.931   2.553
 9166SOL    HW236983   7.486   1.882   2.615
 9166SOL    HW336984   7.375   1.865   2.514
 9166SOL    MW436985   7.432   1.915   2.555
 9167SOL     OW36986   5.764   3.629   2.081
 9167SOL    HW236987   5.793   3.719   2.073
 9167SOL    HW336988   5.714   3.612   2.002
 9167SOL    MW436989   5.762   3.637   2.070
 9168SOL     OW36990   6.551   1.884   2.966
 9168SOL    HW236991   6.510   1.962   2.928
 9168SOL    HW336992   6.645   1.902   2.961
 9168SOL    MW436993   6.557   1.896   2.961
 9169SOL     OW36994   7.168   3.437   2.052
 9169SOL    HW236995   7.216   3.506   2.098
 9169SOL    HW336996   7.089   3.481   2.021
 9169SOL    MW436997   7.163   3.451   2.055
 9170SOL     OW36998   6.566   2.562   1.996
 9170SOL    HW236999   6.568   2.509   1.917
 9170SOL    HW337000   6.654   2.599   2.002
 9170SOL    MW437001   6.578   2.561   1.985
 9171SOL     OW37002   7.180   2.488   2.332
 9171SOL    HW237003   7.219   2.488   2.419
 9171SOL    HW337004   7.121   2.564   2.332
 9171SOL    MW437005   7.177   2.499   2.343
 9172SOL     OW37006   6.497   2.855   3.461
 9172SOL    HW237007   6.474   2.835   3.551
 9172SOL    HW337008   6.582   2.899   3.466
 9172SOL    MW437009   6.504   2.858   3.473
 9173SOL     OW37010   6.577   1.992   3.221
 9173SOL    HW237011   6.583   1.954   3.134
 9173SOL    HW337012   6.566   2.086   3.206
 9173SOL    MW437013   6.578   2.000   3.209
 9174SOL     OW37014   6.666   2.481   3.055
 9174SOL    HW237015   6.741   2.510   3.002
 9174SOL    HW337016   6.598   2.546   3.039
 9174SOL    MW437017   6.667   2.493   3.045
 9175SOL     OW37018   7.216   2.449   3.332
 9175SOL    HW237019   7.197   2.358   3.311
 9175SOL    HW337020   7.194   2.498   3.253
 9175SOL    MW437021   7.211   2.442   3.319
 9176SOL     OW37022   7.358   3.543   3.236
 9176SOL    HW237023   7.286   3.505   3.287
 9176SOL    HW337024   7.375   3.628   3.277
 9176SOL    MW437025   7.352   3.548   3.248
 9177SOL     OW37026   6.663   2.187   3.438
 9177SOL    HW237027   6.629   2.226   3.357
 9177SOL    HW337028   6.641   2.095   3.431
 9177SOL    MW437029   6.656   2.180   3.428
 9178SOL     OW37030   7.072   3.001   3.514
 9178SOL    HW237031   7.154   3.042   3.544
 9178SOL    HW337032   7.035   2.963   3.594
 9178SOL    MW437033   7.078   3.002   3.529
 9179SOL     OW37034   7.367   2.374   2.498
 9179SOL    HW237035   7.456   2.343   2.515
 9179SOL    HW337036   7.310   2.314   2.546
 9179SOL    MW437037   7.370   2.362   2.507
 9180SOL     OW37038   5.793   2.088   2.527
 9180SOL    HW237039   5.784   2.028   2.453
 9180SOL    HW337040   5.726   2.059   2.590
 9180SOL    MW437041   5.783   2.075   2.525
 9181SOL     OW37042   6.736   3.181   2.088
 9181SOL    HW237043   6.686   3.183   2.170
 9181SOL    HW337044   6.670   3.199   2.020
 9181SOL    MW437045   6.722   3.183   2.090
 9182SOL     OW37046   5.740   2.261   2.890
 9182SOL    HW237047   5.712   2.352   2.899
 9182SOL    HW337048   5.677   2.222   2.829
 9182SOL    MW437049   5.727   2.267   2.884
 9183SOL     OW37050   6.199   3.599   2.196
 9183SOL    HW237051   6.120   3.557   2.229
 9183SOL    HW337052   6.265   3.582   2.263
 9183SOL    MW437053   6.198   3.591   2.209
 9184SOL     OW37054   7.327   3.119   3.593
 9184SOL    HW237055   7.377   3.045   3.625
 9184SOL    HW337056   7.273   3.146   3.668
 9184SOL    MW437057   7.327   3.113   3.606
 9185SOL     OW37058   6.335   3.014   1.903
 9185SOL    HW237059   6.257   2.960   1.890
 9185SOL    HW337060   6.306   3.087   1.956
 9185SOL    MW437061   6.321   3.016   1.908
 9186SOL     OW37062   7.461   2.754   3.095
 9186SOL    HW237063   7.477   2.792   3.008
 9186SOL    HW337064   7.495   2.820   3.156
 9186SOL    MW437065   7.468   2.767   3.091
 9187SOL     OW37066   7.253   3.463   2.764
 9187SOL    HW237067   7.282   3.530   2.825
 9187SOL    HW337068   7.234   3.387   2.819
 9187SOL    MW437069   7.255   3.463   2.779
 9188SOL     OW37070   6.916   3.530   1.971
 9188SOL    HW237071   6.842   3.493   2.021
 9188SOL    HW337072   6.924   3.620   2.004
 9188SOL    MW437073   6.907   3.537   1.983
 9189SOL     OW37074   5.724   2.536   3.060
 9189SOL    HW237075   5.786   2.566   3.126
 9189SOL    HW337076   5.658   2.605   3.054
 9189SOL    MW437077   5.723   2.549   3.067
 9190SOL     OW37078   7.140   3.204   1.913
 9190SOL    HW237079   7.087   3.253   1.849
 9190SOL    HW337080   7.171   3.270   1.974
 9190SOL    MW437081   7.138   3.218   1.911
 9191SOL     OW37082   6.365   2.093   1.968
 9191SOL    HW237083   6.313   2.013   1.956
 9191SOL    HW337084   6.452   2.070   1.936
 9191SOL    MW437085   6.368   2.079   1.962
 9192SOL     OW37086   5.819   3.645   3.512
 9192SOL    HW237087   5.793   3.713   3.450
 9192SOL    HW337088   5.867   3.582   3.460
 9192SOL    MW437089   5.821   3.645   3.498
 9193SOL     OW37090   5.871   2.964   3.019
 9193SOL    HW237091   5.924   3.039   3.044
 9193SOL    HW337092   5.790   3.002   2.985
 9193SOL    MW437093   5.867   2.979   3.019
 9194SOL     OW37094   6.411   2.868   3.007
 9194SOL    HW237095   6.439   2.777   3.019
 9194SOL    HW337096   6.340   2.862   2.943
 9194SOL    MW437097   6.404   2.856   3.002
 9195SOL     OW37098   5.726   2.733   2.425
 9195SOL    HW237099   5.817   2.748   2.452
 9195SOL    HW337100   5.729   2.654   2.371
 9195SOL    MW437101   5.738   2.725   2.423
 9196SOL     OW37102   5.962   2.441   3.679
 9196SOL    HW237103   5.909   2.521   3.686
 9196SOL    HW337104   6.032   2.453   3.744
 9196SOL    MW437105   5.964   2.454   3.687
 9197SOL     OW37106   6.348   1.991   3.386
 9197SOL    HW237107   6.325   1.899   3.388
 9197SOL    HW337108   6.434   1.993   3.343
 9197SOL    MW437109   6.355   1.981   3.382
 9198SOL     OW37110   6.032   2.515   3.425
 9198SOL    HW237111   6.112   2.565   3.411
 9198SOL    HW337112   6.023   2.509   3.520
 9198SOL    MW437113   6.041   2.521   3.435
 9199SOL     OW37114   6.353   3.665   2.799
 9199SOL    HW237115   6.442   3.680   2.829
 9199SOL    HW337116   6.348   3.712   2.715
 9199SOL    MW437117   6.363   3.673   2.792
 9200SOL     OW37118   7.009   2.040   3.696
 9200SOL    HW237119   7.065   1.967   3.722
 9200SOL    HW337120   6.979   2.078   3.778
 9200SOL    MW437121   7.013   2.035   3.709
 9201SOL     OW37122   5.734   3.345   2.464
 9201SOL    HW237123   5.706   3.384   2.546
 9201SOL    HW337124   5.754   3.254   2.486
 9201SOL    MW437125   5.732   3.337   2.477
 9202SOL     OW37126   6.567   3.388   2.499
 9202SOL    HW237127   6.650   3.342   2.483
 9202SOL    HW337128   6.557   3.387   2.595
 9202SOL    MW437129   6.577   3.381   2.509
 9203SOL     OW37130   7.399   2.533   2.813
 9203SOL    HW237131   7.488   2.563   2.795
 9203SOL    HW337132   7.379   2.473   2.742
 9203SOL    MW437133   7.408   2.530   2.802
 9204SOL     OW37134   7.250   2.712   3.693
 9204SOL    HW237135   7.305   2.636   3.674
 9204SOL    HW337136   7.252   2.720   3.788
 9204SOL    MW437137   7.258   2.703   3.701
 9205SOL     OW37138   6.300   3.445   1.904
 9205SOL    HW237139   6.240   3.514   1.874
 9205SOL    HW337140   6.245   3.387   1.957
 9205SOL    MW437141   6.284   3.447   1.906
 9206SOL     OW37142   6.738   2.090   2.127
 9206SOL    HW237143   6.671   2.066   2.064
 9206SOL    HW337144   6.803   2.139   2.076
 9206SOL    MW437145   6.738   2.092   2.112
 9207SOL     OW37146   6.545   2.274   3.212
 9207SOL    HW237147   6.464   2.315   3.240
 9207SOL    HW337148   6.592   2.342   3.164
 9207SOL    MW437149   6.540   2.289   3.210
 9208SOL     OW37150   6.805   2.612   2.835
 9208SOL    HW237151   6.818   2.706   2.845
 9208SOL    HW337152   6.766   2.602   2.749
 9208SOL    MW437153   6.801   2.623   2.825
 9209SOL     OW37154   6.257   2.807   2.639
 9209SOL    HW237155   6.168   2.798   2.672
 9209SOL    HW337156   6.261   2.897   2.607
 9209SOL    MW437157   6.246   2.818   2.639
 9210SOL     OW37158   7.056   2.390   2.634
 9210SOL    HW237159   7.001   2.311   2.633
 9210SOL    HW337160   7.038   2.431   2.718
 9210SOL    MW437161   7.046   2.385   2.643
 9211SOL     OW37162   6.027   2.077   3.451
 9211SOL    HW237163   5.948   2.095   3.503
 9211SOL    HW337164   6.022   2.139   3.378
 9211SOL    MW437165   6.017   2.087   3.448
 9212SOL     OW37166   6.675   2.594   2.591
 9212SOL    HW237167   6.612   2.526   2.615
 9212SOL    HW337168   6.695   2.575   2.499
 9212SOL    MW437169   6.669   2.581   2.583
 9213SOL     OW37170   5.931   3.489   2.293
 9213SOL    HW237171   5.892   3.536   2.219
 9213SOL    HW337172   5.865   3.424   2.318
 9213SOL    MW437173   5.918   3.487   2.287
 9214SOL     OW37174   6.423   2.898   2.317
 9214SOL    HW237175   6.425   2.872   2.224
 9214SOL    HW337176   6.481   2.835   2.360
 9214SOL    MW437177   6.431   2.887   2.311
 9215SOL     OW37178   6.976   3.458   3.089
 9215SOL    HW237179   6.901   3.504   3.127
 9215SOL    HW337180   6.958   3.365   3.106
 9215SOL    MW437181   6.965   3.452   3.097
 9216SOL     OW37182   6.980   3.666   2.519
 9216SOL    HW237183   6.923   3.619   2.458
 9216SOL    HW337184   7.066   3.627   2.506
 9216SOL    MW437185   6.983   3.657   2.509
 9217SOL     OW37186   6.933   2.142   2.650
 9217SOL    HW237187   6.961   2.074   2.711
 9217SOL    HW337188   6.847   2.113   2.620
 9217SOL    MW437189   6.926   2.129   2.654
 9218SOL     OW37190   5.738   3.076   2.584
 9218SOL    HW237191   5.802   3.108   2.647
 9218SOL    HW337192   5.787   3.012   2.532
 9218SOL    MW437193   5.753   3.072   2.585
 9219SOL     OW37194   6.238   3.152   3.566
 9219SOL    HW237195   6.286   3.235   3.553
 9219SOL    HW337196   6.295   3.100   3.622
 9219SOL    MW437197   6.252   3.156   3.572
 9220SOL     OW37198   5.814   3.394   3.706
 9220SOL    HW237199   5.870   3.318   3.721
 9220SOL    HW337200   5.763   3.372   3.628
 9220SOL    MW437201   5.814   3.381   3.697
 9221SOL     OW37202   6.913   2.246   1.985
 9221SOL    HW237203   6.886   2.312   1.921
 9221SOL    HW337204   6.983   2.289   2.035
 9221SOL    MW437205   6.918   2.259   1.982
 9222SOL     OW37206   6.581   1.951   1.922
 9222SOL    HW237207   6.637   1.943   1.844
 9222SOL    HW337208   6.558   1.861   1.944
 9222SOL    MW437209   6.586   1.938   1.915
 9223SOL     OW37210   7.086   2.802   2.127
 9223SOL    HW237211   7.053   2.891   2.117
 9223SOL    HW337212   7.051   2.773   2.212
 9223SOL    MW437213   7.076   2.811   2.138
 9224SOL     OW37214   6.699   3.231   3.315
 9224SOL    HW237215   6.610   3.237   3.283
 9224SOL    HW337216   6.743   3.310   3.283
 9224SOL    MW437217   6.694   3.241   3.307
 9225SOL     OW37218   5.992   1.899   3.657
 9225SOL    HW237219   5.920   1.864   3.605
 9225SOL    HW337220   6.050   1.940   3.592
 9225SOL    MW437221   5.990   1.900   3.642
 9226SOL     OW37222   6.016   3.389   2.956
 9226SOL    HW237223   6.061   3.451   3.013
 9226SOL    HW337224   5.923   3.408   2.969
 9226SOL    MW437225   6.009   3.399   2.963
 9227SOL     OW37226   7.456   2.918   3.310
 9227SOL    HW237227   7.371   2.931   3.269
 9227SOL    HW337228   7.436   2.882   3.397
 9227SOL    MW437229   7.443   2.914   3.315
 9228SOL     OW37230   6.438   3.457   3.064
 9228SOL    HW237231   6.462   3.446   2.973
 9228SOL    HW337232   6.361   3.514   3.062
 9228SOL    MW437233   6.430   3.462   3.053
 9229SOL     OW37234   6.080   2.840   1.919
 9229SOL    HW237235   6.003   2.853   1.975
 9229SOL    HW337236   6.044   2.804   1.838
 9229SOL    MW437237   6.066   2.836   1.916
 9230SOL     OW37238   6.733   2.813   2.162
 9230SOL    HW237239   6.643   2.834   2.137
 9230SOL    HW337240   6.760   2.886   2.218
 9230SOL    MW437241   6.725   2.825   2.165
 9231SOL     OW37242   6.233   3.162   2.854
 9231SOL    HW237243   6.226   3.141   2.948
 9231SOL    HW337244   6.151   3.130   2.817
 9231SOL    MW437245   6.221   3.156   2.861
 9232SOL     OW37246   7.097   2.172   3.256
 9232SOL    HW237247   7.044   2.174   3.336
 9232SOL    HW337248   7.082   2.085   3.219
 9232SOL    MW437249   7.089   2.162   3.261
 9233SOL     OW37250   7.433   2.096   3.129
 9233SOL    HW237251   7.414   2.163   3.064
 9233SOL    HW337252   7.490   2.034   3.084
 9233SOL    MW437253   7.437   2.097   3.115
 9234SOL     OW37254   5.679   3.254   3.517
 9234SOL    HW237255   5.723   3.187   3.463
 9234SOL    HW337256   5.594   3.216   3.537
 9234SOL    MW437257   5.674   3.240   3.513
 9235SOL     OW37258   6.362   1.929   2.569
 9235SOL    HW237259   6.291   1.990   2.551
 9235SOL    HW337260   6.413   1.926   2.488
 9235SOL    MW437261   6.358   1.935   2.556
 9236SOL     OW37262   6.120   3.169   2.318
 9236SOL    HW237263   6.113   3.201   2.408
 9236SOL    HW337264   6.030   3.153   2.290
 9236SOL    MW437265   6.108   3.171   2.325
 9237SOL     OW37266   6.715   3.562   3.227
 9237SOL    HW237267   6.635   3.547   3.177
 9237SOL    HW337268   6.722   3.657   3.234
 9237SOL    MW437269   6.706   3.573   3.221
 9238SOL     OW37270   6.829   3.527   2.717
 9238SOL    HW237271   6.876   3.600   2.676
 9238SOL    HW337272   6.750   3.566   2.753
 9238SOL    MW437273   6.824   3.542   2.716
 9239SOL     OW37274   7.237   3.622   2.992
 9239SOL    HW237275   7.280   3.592   3.072
 9239SOL    HW337276   7.156   3.570   2.989
 9239SOL    MW437277   7.232   3.611   3.002
 9240SOL     OW37278   6.322   2.586   3.699
 9240SOL    HW237279   6.392   2.528   3.671
 9240SOL    HW337280   6.265   2.531   3.754
 9240SOL    MW437281   6.324   2.573   3.703
 9241SOL     OW37282   7.109   2.798   3.332
 9241SOL    HW237283   7.114   2.851   3.412
 9241SOL    HW337284   7.071   2.715   3.360
 9241SOL    MW437285   7.105   2.793   3.347
 9242SOL     OW37286   6.749   1.933   3.578
 9242SOL    HW237287   6.744   1.840   3.559
 9242SOL    HW337288   6.832   1.944   3.624
 9242SOL    MW437289   6.757   1.922   3.582
 9243SOL     OW37290   6.123   2.453   2.032
 9243SOL    HW237291   6.089   2.509   2.102
 9243SOL    HW337292   6.194   2.403   2.072
 9243SOL    MW437293   6.129   2.454   2.046
 9244SOL     OW37294   7.219   3.204   2.854
 9244SOL    HW237295   7.254   3.186   2.767
 9244SOL    HW337296   7.124   3.205   2.841
 9244SOL    MW437297   7.211   3.201   2.841
 9245SOL     OW37298   6.648   2.852   3.223
 9245SOL    HW237299   6.691   2.887   3.301
 9245SOL    HW337300   6.631   2.929   3.169
 9245SOL    MW437301   6.651   2.867   3.226
 9246SOL     OW37302   7.179   2.339   2.096
 9246SOL    HW237303   7.171   2.410   2.033
 9246SOL    HW337304   7.197   2.383   2.179
 9246SOL    MW437305   7.180   2.353   2.098
 9247SOL     OW37306   6.039   1.994   2.525
 9247SOL    HW237307   6.089   2.037   2.456
 9247SOL    HW337308   5.954   2.038   2.525
 9247SOL    MW437309   6.036   2.007   2.516
 9248SOL     OW37310   5.798   3.056   3.385
 9248SOL    HW237311   5.826   3.009   3.463
 9248SOL    HW337312   5.719   3.011   3.356
 9248SOL    MW437313   5.791   3.045   3.391
 9249SOL     OW37314   6.306   2.383   3.352
 9249SOL    HW237315   6.278   2.471   3.376
 9249SOL    HW337316   6.275   2.327   3.423
 9249SOL    MW437317   6.298   2.386   3.364
 9250SOL     OW37318   6.848   2.601   2.071
 9250SOL    HW237319   6.895   2.619   1.990
 9250SOL    HW337320   6.814   2.685   2.099
 9250SOL    MW437321   6.850   2.615   2.064
 9251SOL     OW37322   5.961   2.779   2.565
 9251SOL    HW237323   6.019   2.835   2.513
 9251SOL    HW337324   6.005   2.694   2.567
 9251SOL    MW437325   5.974   2.776   2.558
 9252SOL     OW37326   7.101   2.131   2.402
 9252SOL    HW237327   7.023   2.081   2.427
 9252SOL    HW337328   7.072   2.222   2.402
 9252SOL    MW437329   7.087   2.135   2.405
 9253SOL     OW37330   6.687   2.093   2.561
 9253SOL    HW237331   6.707   2.168   2.505
 9253SOL    HW337332   6.667   2.132   2.646
 9253SOL    MW437333   6.688   2.109   2.565
 9254SOL     OW37334   6.583   3.343   1.893
 9254SOL    HW237335   6.610   3.421   1.845
 9254SOL    HW337336   6.490   3.358   1.912
 9254SOL    MW437337   6.574   3.356   1.889
 9255SOL     OW37338   7.447   2.866   3.580
 9255SOL    HW237339   7.360   2.846   3.616
 9255SOL    HW337340   7.501   2.792   3.605
 9255SOL    MW437341   7.442   2.855   3.588
 9256SOL     OW37342   5.668   3.379   2.737
 9256SOL    HW237343   5.700   3.383   2.828
 9256SOL    HW337344   5.573   3.387   2.745
 9256SOL    MW437345   5.660   3.382   2.750
 9257SOL     OW37346   5.623   2.505   2.284
 9257SOL    HW237347   5.563   2.477   2.354
 9257SOL    HW337348   5.697   2.445   2.290
 9257SOL    MW437349   5.625   2.494   2.293
 9258SOL     OW37350   7.191   3.717   3.718
 9258SOL    HW237351   7.236   3.641   3.683
 9258SOL    HW337352   7.229   3.730   3.805
 9258SOL    MW437353   7.201   3.710   3.724
 9259SOL     OW37354   6.791   3.236   2.444
 9259SOL    HW237355   6.814   3.187   2.522
 9259SOL    HW337356   6.872   3.278   2.416
 9259SOL    MW437357   6.804   3.236   2.451
 9260SOL     OW37358   6.049   2.244   3.173
 9260SOL    HW237359   6.082   2.325   3.213
 9260SOL    HW337360   6.022   2.270   3.085
 9260SOL    MW437361   6.048   2.258   3.167
 9261SOL     OW37362   6.003   2.211   2.909
 9261SOL    HW237363   6.033   2.125   2.880
 9261SOL    HW337364   5.908   2.204   2.912
 9261SOL    MW437365   5.995   2.200   2.907
 9262SOL     OW37366   6.832   2.420   3.600
 9262SOL    HW237367   6.884   2.355   3.553
 9262SOL    HW337368   6.790   2.471   3.530
 9262SOL    MW437369   6.833   2.417   3.583
 9263SOL     OW37370   6.931   2.215   3.461
 9263SOL    HW237371   6.838   2.199   3.448
 9263SOL    HW337372   6.957   2.153   3.529
 9263SOL    MW437373   6.921   2.205   3.468
 9264SOL     OW37374   6.146   1.989   2.800
 9264SOL    HW237375   6.156   1.898   2.826
 9264SOL    HW337376   6.102   1.985   2.715
 9264SOL    MW437377   6.142   1.977   2.792
 9265SOL     OW37378   6.240   3.604   3.346
 9265SOL    HW237379   6.157   3.589   3.391
 9265SOL    HW337380   6.299   3.537   3.381
 9265SOL    MW437381   6.238   3.594   3.356
 9266SOL     OW37382   7.297   2.311   2.971
 9266SOL    HW237383   7.230   2.344   3.031
 9266SOL    HW337384   7.340   2.389   2.937
 9266SOL    MW437385   7.295   2.326   2.975
 9267SOL     OW37386   7.475   3.031   2.941
 9267SOL    HW237387   7.468   2.971   2.866
 9267SOL    HW337388   7.401   3.091   2.930
 9267SOL    MW437389   7.465   3.031   2.930
 9268SOL     OW37390   6.857   2.893   2.859
 9268SOL    HW237391   6.871   2.865   2.950
 9268SOL    HW337392   6.943   2.924   2.831
 9268SOL    MW437393   6.870   2.894   2.868
 9269SOL     OW37394   6.940   2.388   3.138
 9269SOL    HW237395   6.961   2.389   3.045
 9269SOL    HW337396   6.985   2.310   3.171
 9269SOL    MW437397   6.947   2.378   3.130
 9270SOL     OW37398   7.433   2.519   3.680
 9270SOL    HW237399   7.470   2.464   3.749
 9270SOL    HW337400   7.458   2.476   3.598
 9270SOL    MW437401   7.440   2.507   3.679
 9271SOL     OW37402   6.980   2.817   3.731
 9271SOL    HW237403   7.046   2.765   3.685
 9271SOL    HW337404   7.000   2.804   3.824
 9271SOL    MW437405   6.991   2.808   3.738
 9272SOL     OW37406   6.931   1.903   2.080
 9272SOL    HW237407   7.005   1.947   2.123
 9272SOL    HW337408   6.855   1.957   2.102
 9272SOL    MW437409   6.931   1.915   2.088
 9273SOL     OW37410   6.991   2.678   2.358
 9273SOL    HW237411   6.906   2.648   2.328
 9273SOL    HW337412   6.983   2.685   2.453
 9273SOL    MW437413   6.979   2.676   2.367
 9274SOL     OW37414   6.067   3.141   3.089
 9274SOL    HW237415   6.079   3.168   3.180
 9274SOL    HW337416   6.048   3.222   3.042
 9274SOL    MW437417   6.066   3.156   3.094
 9275SOL     OW37418   6.351   2.121   2.912
 9275SOL    HW237419   6.324   2.123   3.003
 9275SOL    HW337420   6.281   2.073   2.867
 9275SOL    MW437421   6.339   2.117   2.919
 9276SOL     OW37422   6.205   3.613   3.074
 9276SOL    HW237423   6.257   3.690   3.051
 9276SOL    HW337424   6.214   3.605   3.169
 9276SOL    MW437425   6.214   3.620   3.085
 9277SOL     OW37426   7.107   3.198   3.306
 9277SOL    HW237427   7.092   3.127   3.369
 9277SOL    HW337428   7.153   3.156   3.234
 9277SOL    MW437429   7.113   3.182   3.306
 9278SOL     OW37430   6.181   2.929   3.423
 9278SOL    HW237431   6.218   2.934   3.335
 9278SOL    HW337432   6.220   3.002   3.470
 9278SOL    MW437433   6.191   2.939   3.418
 9279SOL     OW37434   6.361   2.972   3.235
 9279SOL    HW237435   6.420   2.918   3.288
 9279SOL    HW337436   6.376   2.944   3.145
 9279SOL    MW437437   6.371   2.961   3.231
 9280SOL     OW37438   6.364   2.344   2.084
 9280SOL    HW237439   6.437   2.393   2.047
 9280SOL    HW337440   6.380   2.253   2.058
 9280SOL    MW437441   6.376   2.339   2.077
 9281SOL     OW37442   7.172   3.461   3.407
 9281SOL    HW237443   7.214   3.446   3.492
 9281SOL    HW337444   7.163   3.374   3.369
 9281SOL    MW437445   7.176   3.449   3.414
 9282SOL     OW37446   6.832   1.940   2.998
 9282SOL    HW237447   6.887   1.949   2.920
 9282SOL    HW337448   6.887   1.974   3.069
 9282SOL    MW437449   6.846   1.945   2.997
 9283SOL     OW37450   5.839   2.853   2.182
 9283SOL    HW237451   5.776   2.869   2.111
 9283SOL    HW337452   5.786   2.816   2.253
 9283SOL    MW437453   5.824   2.850   2.182
 9284SOL     OW37454   6.195   3.207   2.041
 9284SOL    HW237455   6.210   3.183   2.133
 9284SOL    HW337456   6.103   3.185   2.025
 9284SOL    MW437457   6.185   3.200   2.051
 9285SOL     OW37458   6.734   3.438   2.193
 9285SOL    HW237459   6.742   3.356   2.144
 9285SOL    HW337460   6.653   3.477   2.160
 9285SOL    MW437461   6.724   3.433   2.183
 9286SOL     OW37462   5.993   3.596   2.762
 9286SOL    HW237463   5.997   3.507   2.797
 9286SOL    HW337464   6.019   3.587   2.671
 9286SOL    MW437465   5.996   3.584   2.754
 9287SOL     OW37466   6.610   3.074   3.005
 9287SOL    HW237467   6.542   3.008   3.021
 9287SOL    HW337468   6.628   3.068   2.912
 9287SOL    MW437469   6.603   3.065   2.996
 9288SOL     OW37470   5.699   3.349   3.256
 9288SOL    HW237471   5.689   3.307   3.342
 9288SOL    HW337472   5.620   3.402   3.246
 9288SOL    MW437473   5.688   3.350   3.267
 9289SOL     OW37474   6.603   2.213   2.826
 9289SOL    HW237475   6.533   2.165   2.871
 9289SOL    HW337476   6.635   2.276   2.890
 9289SOL    MW437477   6.598   2.215   2.840
 9290SOL     OW37478   6.254   2.649   3.446
 9290SOL    HW237479   6.247   2.744   3.434
 9290SOL    HW337480   6.263   2.638   3.541
 9290SOL    MW437481   6.255   2.661   3.456
 9291SOL     OW37482   5.975   3.164   3.704
 9291SOL    HW237483   6.047   3.166   3.641
 9291SOL    HW337484   5.945   3.073   3.703
 9291SOL    MW437485   5.980   3.153   3.696
 9292SOL     OW37486   7.059   1.927   3.171
 9292SOL    HW237487   7.130   1.873   3.135
 9292SOL    HW337488   7.058   1.906   3.264
 9292SOL    MW437489   7.068   1.918   3.179
 9293SOL     OW37490   7.259   3.457   3.655
 9293SOL    HW237491   7.232   3.454   3.746
 9293SOL    HW337492   7.355   3.461   3.658
 9293SOL    MW437493   7.269   3.457   3.667
 9294SOL     OW37494   6.070   2.319   2.639
 9294SOL    HW237495   6.141   2.267   2.602
 9294SOL    HW337496   6.056   2.284   2.726
 9294SOL    MW437497   6.078   2.308   2.646
 9295SOL     OW37498   5.625   3.654   3.711
 9295SOL    HW237499   5.675   3.632   3.633
 9295SOL    HW337500   5.633   3.749   3.719
 9295SOL    MW437501   5.633   3.663   3.702
 9296SOL     OW37502   6.386   3.412   2.715
 9296SOL    HW237503   6.314   3.349   2.728
 9296SOL    HW337504   6.347   3.497   2.733
 9296SOL    MW437505   6.370   3.415   2.718
 9297SOL     OW37506   6.706   2.260   2.363
 9297SOL    HW237507   6.728   2.197   2.295
 9297SOL    HW337508   6.611   2.252   2.374
 9297SOL    MW437509   6.696   2.251   2.355
 9298SOL     OW37510   5.791   1.950   2.295
 9298SOL    HW237511   5.862   1.971   2.234
 9298SOL    HW337512   5.745   1.878   2.253
 9298SOL    MW437513   5.795   1.944   2.281
 9299SOL     OW37514   5.622   2.417   3.438
 9299SOL    HW237515   5.686   2.483   3.413
 9299SOL    HW337516   5.541   2.444   3.395
 9299SOL    MW437517   5.620   2.429   3.430
 9300SOL     OW37518   7.360   3.324   2.395
 9300SOL    HW237519   7.330   3.257   2.456
 9300SOL    HW337520   7.454   3.330   2.409
 9300SOL    MW437521   7.368   3.316   2.405
 9301SOL     OW37522   6.916   3.001   2.325
 9301SOL    HW237523   6.888   3.087   2.358
 9301SOL    HW337524   6.944   3.017   2.235
 9301SOL    MW437525   6.916   3.015   2.317
 9302SOL     OW37526   6.578   1.921   2.378
 9302SOL    HW237527   6.615   1.980   2.443
 9302SOL    HW337528   6.555   1.977   2.304
 9302SOL    MW437529   6.579   1.936   2.377
 9303SOL     OW37530   7.431   2.803   2.800
 9303SOL    HW237531   7.422   2.835   2.711
 9303SOL    HW337532   7.384   2.719   2.800
 9303SOL    MW437533   7.424   2.796   2.790
 9304SOL     OW37534   5.807   2.643   3.379
 9304SOL    HW237535   5.828   2.712   3.317
 9304SOL    HW337536   5.887   2.590   3.384
 9304SOL    MW437537   5.820   2.644   3.373
 9305SOL     OW37538   7.343   2.734   2.501
 9305SOL    HW237539   7.437   2.723   2.489
 9305SOL    HW337540   7.319   2.806   2.442
 9305SOL    MW437541   7.353   2.742   2.492
 9306SOL     OW37542   5.792   2.658   3.646
 9306SOL    HW237543   5.718   2.602   3.672
 9306SOL    HW337544   5.787   2.661   3.551
 9306SOL    MW437545   5.781   2.651   3.636
 9307SOL     OW37546   5.958   1.945   3.096
 9307SOL    HW237547   6.001   2.029   3.116
 9307SOL    HW337548   6.031   1.883   3.089
 9307SOL    MW437549   5.973   1.948   3.097
 9308SOL     OW37550   5.999   2.612   2.274
 9308SOL    HW237551   5.999   2.707   2.259
 9308SOL    HW337552   6.076   2.596   2.328
 9308SOL    MW437553   6.009   2.623   2.279
 9309SOL     OW37554   6.775   2.471   3.338
 9309SOL    HW237555   6.811   2.444   3.254
 9309SOL    HW337556   6.688   2.505   3.317
 9309SOL    MW437557   6.769   2.472   3.325
 9310SOL     OW37558   5.758   2.343   2.563
 9310SOL    HW237559   5.820   2.350   2.636
 9310SOL    HW337560   5.758   2.250   2.540
 9310SOL    MW437561   5.766   2.332   2.570
 9311SOL     OW37562   7.305   3.683   2.095
 9311SOL    HW237563   7.372   3.716   2.035
 9311SOL    HW337564   7.262   3.762   2.129
 9311SOL    MW437565   7.307   3.698   2.091
 9312SOL     OW37566   6.440   2.604   3.047
 9312SOL    HW237567   6.398   2.522   3.023
 9312SOL    HW337568   6.441   2.603   3.143
 9312SOL    MW437569   6.433   2.593   3.056
 9313SOL     OW37570   7.111   3.737   3.446
 9313SOL    HW237571   7.114   3.643   3.429
 9313SOL    HW337572   7.134   3.745   3.538
 9313SOL    MW437573   7.114   3.725   3.456
 9314SOL     OW37574   6.244   2.074   3.152
 9314SOL    HW237575   6.175   2.137   3.173
 9314SOL    HW337576   6.271   2.038   3.237
 9314SOL    MW437577   6.238   2.077   3.165
 9315SOL     OW37578   5.627   2.915   2.021
 9315SOL    HW237579   5.596   2.980   2.084
 9315SOL    HW337580   5.576   2.837   2.040
 9315SOL    MW437581   5.617   2.912   2.031
 9316SOL     OW37582   7.039   1.927   2.769
 9316SOL    HW237583   7.127   1.936   2.806
 9316SOL    HW337584   7.049   1.868   2.695
 9316SOL    MW437585   7.053   1.921   2.763
 9317SOL     OW37586   7.071   2.666   2.613
 9317SOL    HW237587   7.151   2.681   2.562
 9317SOL    HW337588   7.064   2.571   2.619
 9317SOL    MW437589   7.080   2.655   2.608
 9318SOL     OW37590   6.211   3.715   1.963
 9318SOL    HW237591   6.116   3.715   1.955
 9318SOL    HW337592   6.227   3.661   2.041
 9318SOL    MW437593   6.201   3.709   1.972
 9319SOL     OW37594   6.521   2.592   3.310
 9319SOL    HW237595   6.590   2.659   3.307
 9319SOL    HW337596   6.454   2.630   3.366
 9319SOL    MW437597   6.522   2.605   3.317
 9320SOL     OW37598   5.939   2.892   3.558
 9320SOL    HW237599   5.893   2.808   3.560
 9320SOL    HW337600   5.996   2.886   3.482
 9320SOL    MW437601   5.941   2.880   3.550
 9321SOL     OW37602   7.056   2.535   1.879
 9321SOL    HW237603   6.984   2.511   1.821
 9321SOL    HW337604   7.122   2.572   1.821
 9321SOL    MW437605   7.055   2.537   1.864
 9322SOL     OW37606   6.190   3.267   2.559
 9322SOL    HW237607   6.255   3.200   2.580
 9322SOL    HW337608   6.242   3.344   2.536
 9322SOL    MW437609   6.205   3.269   2.558
 9323SOL     OW37610   6.451   2.432   2.689
 9323SOL    HW237611   6.391   2.450   2.761
 9323SOL    HW337612   6.485   2.344   2.708
 9323SOL    MW437613   6.447   2.422   2.702
 9324SOL     OW37614   7.392   1.931   3.358
 9324SOL    HW237615   7.313   1.977   3.386
 9324SOL    HW337616   7.427   1.985   3.287
 9324SOL    MW437617   7.386   1.944   3.352
 9325SOL     OW37618   6.676   3.015   2.708
 9325SOL    HW237619   6.768   2.996   2.726
 9325SOL    HW337620   6.649   2.945   2.648
 9325SOL    MW437621   6.684   3.003   2.702
 9326SOL     OW37622   6.469   2.835   2.063
 9326SOL    HW237623   6.455   2.747   2.028
 9326SOL    HW337624   6.420   2.892   2.004
 9326SOL    MW437625   6.461   2.830   2.051
 9327SOL     OW37626   6.950   3.253   2.804
 9327SOL    HW237627   6.923   3.337   2.769
 9327SOL    HW337628   6.910   3.248   2.891
 9327SOL    MW437629   6.943   3.262   2.810
 9328SOL     OW37630   6.869   3.201   3.072
 9328SOL    HW237631   6.880   3.168   3.161
 9328SOL    HW337632   6.788   3.160   3.041
 9328SOL    MW437633   6.859   3.193   3.078
 9329SOL     OW37634   5.882   2.559   2.842
 9329SOL    HW237635   5.832   2.558   2.923
 9329SOL    HW337636   5.902   2.651   2.826
 9329SOL    MW437637   5.878   2.571   2.850
 9330SOL     OW37638   6.949   3.323   3.604
 9330SOL    HW237639   6.949   3.417   3.620
 9330SOL    HW337640   6.994   3.313   3.520
 9330SOL    MW437641   6.955   3.333   3.595
 9331SOL     OW37642   7.188   2.041   2.165
 9331SOL    HW237643   7.181   2.045   2.260
 9331SOL    HW337644   7.200   2.132   2.138
 9331SOL    MW437645   7.189   2.054   2.173
 9332SOL     OW37646   6.477   2.604   2.279
 9332SOL    HW237647   6.457   2.590   2.186
 9332SOL    HW337648   6.570   2.583   2.286
 9332SOL    MW437649   6.487   2.599   2.268
 9333SOL     OW37650   5.804   2.227   3.583
 9333SOL    HW237651   5.761   2.286   3.520
 9333SOL    HW337652   5.872   2.282   3.623
 9333SOL    MW437653   5.808   2.242   3.580
 9334SOL     OW37654   6.916   2.847   3.128
 9334SOL    HW237655   6.979   2.844   3.201
 9334SOL    HW337656   6.832   2.865   3.170
 9334SOL    MW437657   6.912   2.849   3.143
 9335SOL     OW37658   6.460   3.562   2.317
 9335SOL    HW237659   6.518   3.633   2.344
 9335SOL    HW337660   6.483   3.490   2.375
 9335SOL    MW437661   6.471   3.562   2.328
 9336SOL     OW37662   7.255   2.024   2.907
 9336SOL    HW237663   7.300   1.942   2.926
 9336SOL    HW337664   7.275   2.080   2.983
 9336SOL    MW437665   7.265   2.020   2.919
 9337SOL     OW37666   5.703   1.867   3.006
 9337SOL    HW237667   5.694   1.868   2.911
 9337SOL    HW337668   5.797   1.879   3.021
 9337SOL    MW437669   5.715   1.870   2.997
 9338SOL     OW37670   7.340   3.060   2.626
 9338SOL    HW237671   7.319   3.006   2.549
 9338SOL    HW337672   7.436   3.058   2.630
 9338SOL    MW437673   7.349   3.053   2.615
 9339SOL     OW37674   6.032   3.205   3.369
 9339SOL    HW237675   5.953   3.155   3.392
 9339SOL    HW337676   6.102   3.164   3.419
 9339SOL    MW437677   6.030   3.193   3.379
 9340SOL     OW37678   5.916   1.994   2.052
 9340SOL    HW237679   5.845   2.049   2.020
 9340SOL    HW337680   5.958   1.960   1.973
 9340SOL    MW437681   5.912   1.996   2.038
 9341SOL     OW37682   7.040   2.491   2.888
 9341SOL    HW237683   6.963   2.537   2.854
 9341SOL    HW337684   7.097   2.560   2.922
 9341SOL    MW437685   7.037   2.506   2.888
 9342SOL     OW37686   5.672   2.093   1.901
 9342SOL    HW237687   5.639   2.172   1.945
 9342SOL    HW337688   5.727   2.126   1.830
 9342SOL    MW437689   5.675   2.107   1.898
 9343SOL     OW37690   5.706   3.350   2.090
 9343SOL    HW237691   5.723   3.434   2.132
 9343SOL    HW337692   5.741   3.359   2.002
 9343SOL    MW437693   5.711   3.363   2.084
 9344SOL     OW37694   6.978   3.439   2.307
 9344SOL    HW237695   7.041   3.429   2.236
 9344SOL    HW337696   6.895   3.459   2.262
 9344SOL    MW437697   6.975   3.440   2.292
 9345SOL     OW37698   7.341   2.707   3.993
 9345SOL    HW237699   7.382   2.649   4.058
 9345SOL    HW337700   7.248   2.699   4.010
 9345SOL    MW437701   7.335   2.699   4.003
 9346SOL     OW37702   7.207   2.639   4.988
 9346SOL    HW237703   7.162   2.706   5.039
 9346SOL    HW337704   7.295   2.675   4.974
 9346SOL    MW437705   7.213   2.652   4.992
 9347SOL     OW37706   6.135   2.890   4.222
 9347SOL    HW237707   6.225   2.865   4.206
 9347SOL    HW337708   6.131   2.983   4.199
 9347SOL    MW437709   6.147   2.899   4.217
 9348SOL     OW37710   7.251   3.593   4.364
 9348SOL    HW237711   7.263   3.539   4.442
 9348SOL    HW337712   7.288   3.541   4.293
 9348SOL    MW437713   7.257   3.578   4.365
 9349SOL     OW37714   6.630   3.478   5.365
 9349SOL    HW237715   6.671   3.514   5.286
 9349SOL    HW337716   6.665   3.389   5.372
 9349SOL    MW437717   6.641   3.471   5.356
 9350SOL     OW37718   7.187   3.033   4.969
 9350SOL    HW237719   7.108   2.998   4.927
 9350SOL    HW337720   7.214   3.105   4.913
 9350SOL    MW437721   7.180   3.038   4.956
 9351SOL     OW37722   6.419   2.346   4.235
 9351SOL    HW237723   6.394   2.434   4.263
 9351SOL    HW337724   6.416   2.349   4.139
 9351SOL    MW437725   6.415   2.358   4.227
 9352SOL     OW37726   5.861   2.374   4.163
 9352SOL    HW237727   5.893   2.462   4.145
 9352SOL    HW337728   5.849   2.372   4.258
 9352SOL    MW437729   5.864   2.386   4.175
 9353SOL     OW37730   5.939   2.787   5.064
 9353SOL    HW237731   6.002   2.734   5.015
 9353SOL    HW337732   5.920   2.861   5.007
 9353SOL    MW437733   5.945   2.789   5.051
 9354SOL     OW37734   6.260   2.129   4.250
 9354SOL    HW237735   6.318   2.205   4.252
 9354SOL    HW337736   6.195   2.150   4.183
 9354SOL    MW437737   6.259   2.141   4.241
 9355SOL     OW37738   6.347   3.056   4.425
 9355SOL    HW237739   6.427   3.059   4.477
 9355SOL    HW337740   6.375   3.023   4.339
 9355SOL    MW437741   6.361   3.052   4.420
 9356SOL     OW37742   6.372   3.397   5.328
 9356SOL    HW237743   6.456   3.423   5.367
 9356SOL    HW337744   6.396   3.341   5.254
 9356SOL    MW437745   6.386   3.393   5.323
 9357SOL     OW37746   6.124   2.560   4.416
 9357SOL    HW237747   6.109   2.480   4.467
 9357SOL    HW337748   6.206   2.595   4.450
 9357SOL    MW437749   6.132   2.552   4.428
 9358SOL     OW37750   6.461   3.246   5.101
 9358SOL    HW237751   6.425   3.312   5.041
 9358SOL    HW337752   6.389   3.184   5.114
 9358SOL    MW437753   6.447   3.246   5.095
 9359SOL     OW37754   6.266   2.386   4.793
 9359SOL    HW237755   6.172   2.382   4.811
 9359SOL    HW337756   6.296   2.295   4.802
 9359SOL    MW437757   6.257   2.374   4.796
 9360SOL     OW37758   6.012   2.800   4.697
 9360SOL    HW237759   5.967   2.807   4.613
 9360SOL    HW337760   5.992   2.883   4.741
 9360SOL    MW437761   6.004   2.812   4.691
 9361SOL     OW37762   5.709   3.646   4.572
 9361SOL    HW237763   5.798   3.638   4.607
 9361SOL    HW337764   5.673   3.558   4.577
 9361SOL    MW437765   5.716   3.633   4.577
 9362SOL     OW37766   6.974   3.038   3.941
 9362SOL    HW237767   6.892   3.074   3.907
 9362SOL    HW337768   7.042   3.081   3.890
 9362SOL    MW437769   6.972   3.048   3.929
 9363SOL     OW37770   5.973   3.173   4.607
 9363SOL    HW237771   5.949   3.226   4.683
 9363SOL    HW337772   6.029   3.231   4.555
 9363SOL    MW437773   5.977   3.188   4.610
 9364SOL     OW37774   6.535   2.817   4.417
 9364SOL    HW237775   6.449   2.804   4.457
 9364SOL    HW337776   6.588   2.744   4.449
 9364SOL    MW437777   6.531   2.806   4.426
 9365SOL     OW37778   5.943   3.469   5.202
 9365SOL    HW237779   5.851   3.445   5.187
 9365SOL    HW337780   5.987   3.386   5.219
 9365SOL    MW437781   5.937   3.454   5.201
 9366SOL     OW37782   6.526   3.179   4.134
 9366SOL    HW237783   6.503   3.241   4.202
 9366SOL    HW337784   6.483   3.097   4.160
 9366SOL    MW437785   6.518   3.175   4.145
 9367SOL     OW37786   7.399   2.180   4.590
 9367SOL    HW237787   7.336   2.160   4.659
 9367SOL    HW337788   7.389   2.109   4.527
 9367SOL    MW437789   7.389   2.167   4.591
 9368SOL     OW37790   6.023   2.152   4.102
 9368SOL    HW237791   5.997   2.114   4.018
 9368SOL    HW337792   5.960   2.222   4.118
 9368SOL    MW437793   6.012   2.155   4.093
 9369SOL     OW37794   5.858   3.113   4.139
 9369SOL    HW237795   5.806   3.181   4.095
 9369SOL    HW337796   5.855   3.039   4.079
 9369SOL    MW437797   5.850   3.112   4.126
 9370SOL     OW37798   6.520   3.576   3.917
 9370SOL    HW237799   6.475   3.592   4.000
 9370SOL    HW337800   6.451   3.541   3.859
 9370SOL    MW437801   6.506   3.573   3.919
 9371SOL     OW37802   7.455   2.349   3.892
 9371SOL    HW237803   7.364   2.351   3.920
 9371SOL    HW337804   7.500   2.411   3.950
 9371SOL    MW437805   7.448   2.357   3.902
 9372SOL     OW37806   7.200   2.952   4.242
 9372SOL    HW237807   7.110   2.952   4.277
 9372SOL    HW337808   7.193   2.998   4.159
 9372SOL    MW437809   7.187   2.958   4.236
 9373SOL     OW37810   7.000   2.587   5.314
 9373SOL    HW237811   7.069   2.525   5.291
 9373SOL    HW337812   6.925   2.561   5.261
 9373SOL    MW437813   7.000   2.574   5.305
 9374SOL     OW37814   5.741   3.467   4.866
 9374SOL    HW237815   5.724   3.413   4.943
 9374SOL    HW337816   5.729   3.557   4.896
 9374SOL    MW437817   5.738   3.471   4.880
 9375SOL     OW37818   6.736   2.974   5.306
 9375SOL    HW237819   6.721   3.067   5.291
 9375SOL    HW337820   6.831   2.964   5.306
 9375SOL    MW437821   6.745   2.984   5.303
 9376SOL     OW37822   6.532   2.398   5.507
 9376SOL    HW237823   6.622   2.399   5.474
 9376SOL    HW337824   6.491   2.323   5.465
 9376SOL    MW437825   6.538   2.388   5.498
 9377SOL     OW37826   7.107   2.930   4.634
 9377SOL    HW237827   7.110   2.864   4.565
 9377SOL    HW337828   7.192   2.973   4.630
 9377SOL    MW437829   7.119   2.926   4.625
 9378SOL     OW37830   6.727   2.533   4.203
 9378SOL    HW237831   6.753   2.557   4.114
 9378SOL    HW337832   6.709   2.440   4.199
 9378SOL    MW437833   6.729   2.525   4.190
 9379SOL     OW37834   7.392   3.153   4.054
 9379SOL    HW237835   7.348   3.194   4.129
 9379SOL    HW337836   7.449   3.221   4.019
 9379SOL    MW437837   7.394   3.167   4.059
 9380SOL     OW37838   6.312   2.202   5.457
 9380SOL    HW237839   6.322   2.128   5.397
 9380SOL    HW337840   6.348   2.171   5.540
 9380SOL    MW437841   6.318   2.188   5.459
 9381SOL     OW37842   6.048   3.569   4.372
 9381SOL    HW237843   6.080   3.657   4.350
 9381SOL    HW337844   6.001   3.541   4.294
 9381SOL    MW437845   6.047   3.577   4.359
 9382SOL     OW37846   7.432   1.931   4.421
 9382SOL    HW237847   7.486   1.882   4.483
 9382SOL    HW337848   7.375   1.865   4.382
 9382SOL    MW437849   7.432   1.915   4.423
 9383SOL     OW37850   5.764   3.629   3.949
 9383SOL    HW237851   5.793   3.719   3.941
 9383SOL    HW337852   5.714   3.612   3.870
 9383SOL    MW437853   5.762   3.637   3.938
 9384SOL     OW37854   6.551   1.884   4.834
 9384SOL    HW237855   6.510   1.962   4.796
 9384SOL    HW337856   6.645   1.902   4.829
 9384SOL    MW437857   6.557   1.896   4.829
 9385SOL     OW37858   7.168   3.437   3.920
 9385SOL    HW237859   7.216   3.506   3.966
 9385SOL    HW337860   7.089   3.481   3.889
 9385SOL    MW437861   7.163   3.451   3.923
 9386SOL     OW37862   6.566   2.562   3.864
 9386SOL    HW237863   6.568   2.509   3.785
 9386SOL    HW337864   6.654   2.599   3.870
 9386SOL    MW437865   6.578   2.561   3.853
 9387SOL     OW37866   7.180   2.488   4.200
 9387SOL    HW237867   7.219   2.488   4.287
 9387SOL    HW337868   7.121   2.564   4.200
 9387SOL    MW437869   7.177   2.499   4.211
 9388SOL     OW37870   6.497   2.855   5.329
 9388SOL    HW237871   6.474   2.835   5.419
 9388SOL    HW337872   6.582   2.899   5.334
 9388SOL    MW437873   6.504   2.858   5.341
 9389SOL     OW37874   6.577   1.992   5.089
 9389SOL    HW237875   6.583   1.954   5.002
 9389SOL    HW337876   6.566   2.086   5.074
 9389SOL    MW437877   6.578   2.000   5.077
 9390SOL     OW37878   6.666   2.481   4.923
 9390SOL    HW237879   6.741   2.510   4.870
 9390SOL    HW337880   6.598   2.546   4.907
 9390SOL    MW437881   6.667   2.493   4.913
 9391SOL     OW37882   7.216   2.449   5.200
 9391SOL    HW237883   7.197   2.358   5.179
 9391SOL    HW337884   7.194   2.498   5.121
 9391SOL    MW437885   7.211   2.442   5.187
 9392SOL     OW37886   7.358   3.543   5.104
 9392SOL    HW237887   7.286   3.505   5.155
 9392SOL    HW337888   7.375   3.628   5.145
 9392SOL    MW437889   7.352   3.548   5.116
 9393SOL     OW37890   6.663   2.187   5.306
 9393SOL    HW237891   6.629   2.226   5.225
 9393SOL    HW337892   6.641   2.095   5.299
 9393SOL    MW437893   6.656   2.180   5.296
 9394SOL     OW37894   7.072   3.001   5.382
 9394SOL    HW237895   7.154   3.042   5.412
 9394SOL    HW337896   7.035   2.963   5.462
 9394SOL    MW437897   7.078   3.002   5.397
 9395SOL     OW37898   7.367   2.374   4.366
 9395SOL    HW237899   7.456   2.343   4.383
 9395SOL    HW337900   7.310   2.314   4.414
 9395SOL    MW437901   7.370   2.362   4.375
 9396SOL     OW37902   5.793   2.088   4.395
 9396SOL    HW237903   5.784   2.028   4.321
 9396SOL    HW337904   5.726   2.059   4.458
 9396SOL    MW437905   5.783   2.075   4.393
 9397SOL     OW37906   6.736   3.181   3.956
 9397SOL    HW237907   6.686   3.183   4.038
 9397SOL    HW337908   6.670   3.199   3.888
 9397SOL    MW437909   6.722   3.183   3.958
 9398SOL     OW37910   5.740   2.261   4.758
 9398SOL    HW237911   5.712   2.352   4.767
 9398SOL    HW337912   5.677   2.222   4.697
 9398SOL    MW437913   5.727   2.267   4.752
 9399SOL     OW37914   6.199   3.599   4.064
 9399SOL    HW237915   6.120   3.557   4.097
 9399SOL    HW337916   6.265   3.582   4.131
 9399SOL    MW437917   6.198   3.591   4.077
 9400SOL     OW37918   7.327   3.119   5.461
 9400SOL    HW237919   7.377   3.045   5.493
 9400SOL    HW337920   7.273   3.146   5.536
 9400SOL    MW437921   7.327   3.113   5.474
 9401SOL     OW37922   6.335   3.014   3.771
 9401SOL    HW237923   6.257   2.960   3.758
 9401SOL    HW337924   6.306   3.087   3.824
 9401SOL    MW437925   6.321   3.016   3.776
 9402SOL     OW37926   7.461   2.754   4.963
 9402SOL    HW237927   7.477   2.792   4.876
 9402SOL    HW337928   7.495   2.820   5.024
 9402SOL    MW437929   7.468   2.767   4.959
 9403SOL     OW37930   7.253   3.463   4.632
 9403SOL    HW237931   7.282   3.530   4.693
 9403SOL    HW337932   7.234   3.387   4.687
 9403SOL    MW437933   7.255   3.463   4.647
 9404SOL     OW37934   6.916   3.530   3.839
 9404SOL    HW237935   6.842   3.493   3.889
 9404SOL    HW337936   6.924   3.620   3.872
 9404SOL    MW437937   6.907   3.537   3.851
 9405SOL     OW37938   5.724   2.536   4.928
 9405SOL    HW237939   5.786   2.566   4.994
 9405SOL    HW337940   5.658   2.605   4.922
 9405SOL    MW437941   5.723   2.549   4.935
 9406SOL     OW37942   7.140   3.204   3.781
 9406SOL    HW237943   7.087   3.253   3.717
 9406SOL    HW337944   7.171   3.270   3.842
 9406SOL    MW437945   7.138   3.218   3.779
 9407SOL     OW37946   6.365   2.093   3.836
 9407SOL    HW237947   6.313   2.013   3.824
 9407SOL    HW337948   6.452   2.070   3.804
 9407SOL    MW437949   6.368   2.079   3.830
 9408SOL     OW37950   5.819   3.645   5.380
 9408SOL    HW237951   5.793   3.713   5.318
 9408SOL    HW337952   5.867   3.582   5.328
 9408SOL    MW437953   5.821   3.645   5.366
 9409SOL     OW37954   5.871   2.964   4.887
 9409SOL    HW237955   5.924   3.039   4.912
 9409SOL    HW337956   5.790   3.002   4.853
 9409SOL    MW437957   5.867   2.979   4.887
 9410SOL     OW37958   6.411   2.868   4.875
 9410SOL    HW237959   6.439   2.777   4.887
 9410SOL    HW337960   6.340   2.862   4.811
 9410SOL    MW437961   6.404   2.856   4.870
 9411SOL     OW37962   5.726   2.733   4.293
 9411SOL    HW237963   5.817   2.748   4.320
 9411SOL    HW337964   5.729   2.654   4.239
 9411SOL    MW437965   5.738   2.725   4.291
 9412SOL     OW37966   5.962   2.441   5.547
 9412SOL    HW237967   5.909   2.521   5.554
 9412SOL    HW337968   6.032   2.453   5.612
 9412SOL    MW437969   5.964   2.454   5.555
 9413SOL     OW37970   6.348   1.991   5.254
 9413SOL    HW237971   6.325   1.899   5.256
 9413SOL    HW337972   6.434   1.993   5.211
 9413SOL    MW437973   6.355   1.981   5.250
 9414SOL     OW37974   6.032   2.515   5.293
 9414SOL    HW237975   6.112   2.565   5.279
 9414SOL    HW337976   6.023   2.509   5.388
 9414SOL    MW437977   6.041   2.521   5.303
 9415SOL     OW37978   6.353   3.665   4.667
 9415SOL    HW237979   6.442   3.680   4.697
 9415SOL    HW337980   6.348   3.712   4.583
 9415SOL    MW437981   6.363   3.673   4.660
 9416SOL     OW37982   7.009   2.040   5.564
 9416SOL    HW237983   7.065   1.967   5.590
 9416SOL    HW337984   6.979   2.078   5.646
 9416SOL    MW437985   7.013   2.035   5.577
 9417SOL     OW37986   5.734   3.345   4.332
 9417SOL    HW237987   5.706   3.384   4.414
 9417SOL    HW337988   5.754   3.254   4.354
 9417SOL    MW437989   5.732   3.337   4.345
 9418SOL     OW37990   6.567   3.388   4.367
 9418SOL    HW237991   6.650   3.342   4.351
 9418SOL    HW337992   6.557   3.387   4.463
 9418SOL    MW437993   6.577   3.381   4.377
 9419SOL     OW37994   7.399   2.533   4.681
 9419SOL    HW237995   7.488   2.563   4.663
 9419SOL    HW337996   7.379   2.473   4.610
 9419SOL    MW437997   7.408   2.530   4.670
 9420SOL     OW37998   7.250   2.712   5.561
 9420SOL    HW237999   7.305   2.636   5.542
 9420SOL    HW338000   7.252   2.720   5.656
 9420SOL    MW438001   7.258   2.703   5.569
 9421SOL     OW38002   6.300   3.445   3.772
 9421SOL    HW238003   6.240   3.514   3.742
 9421SOL    HW338004   6.245   3.387   3.825
 9421SOL    MW438005   6.284   3.447   3.774
 9422SOL     OW38006   6.738   2.090   3.995
 9422SOL    HW238007   6.671   2.066   3.932
 9422SOL    HW338008   6.803   2.139   3.944
 9422SOL    MW438009   6.738   2.092   3.980
 9423SOL     OW38010   6.545   2.274   5.080
 9423SOL    HW238011   6.464   2.315   5.108
 9423SOL    HW338012   6.592   2.342   5.032
 9423SOL    MW438013   6.540   2.289   5.078
 9424SOL     OW38014   6.805   2.612   4.703
 9424SOL    HW238015   6.818   2.706   4.713
 9424SOL    HW338016   6.766   2.602   4.617
 9424SOL    MW438017   6.801   2.623   4.693
 9425SOL     OW38018   6.257   2.807   4.507
 9425SOL    HW238019   6.168   2.798   4.540
 9425SOL    HW338020   6.261   2.897   4.475
 9425SOL    MW438021   6.246   2.818   4.507
 9426SOL     OW38022   7.056   2.390   4.502
 9426SOL    HW238023   7.001   2.311   4.501
 9426SOL    HW338024   7.038   2.431   4.586
 9426SOL    MW438025   7.046   2.385   4.511
 9427SOL     OW38026   6.027   2.077   5.319
 9427SOL    HW238027   5.948   2.095   5.371
 9427SOL    HW338028   6.022   2.139   5.246
 9427SOL    MW438029   6.017   2.087   5.316
 9428SOL     OW38030   6.675   2.594   4.459
 9428SOL    HW238031   6.612   2.526   4.483
 9428SOL    HW338032   6.695   2.575   4.367
 9428SOL    MW438033   6.669   2.581   4.451
 9429SOL     OW38034   5.931   3.489   4.161
 9429SOL    HW238035   5.892   3.536   4.087
 9429SOL    HW338036   5.865   3.424   4.186
 9429SOL    MW438037   5.918   3.487   4.155
 9430SOL     OW38038   6.423   2.898   4.185
 9430SOL    HW238039   6.425   2.872   4.092
 9430SOL    HW338040   6.481   2.835   4.228
 9430SOL    MW438041   6.431   2.887   4.179
 9431SOL     OW38042   6.976   3.458   4.957
 9431SOL    HW238043   6.901   3.504   4.995
 9431SOL    HW338044   6.958   3.365   4.974
 9431SOL    MW438045   6.965   3.452   4.965
 9432SOL     OW38046   6.980   3.666   4.387
 9432SOL    HW238047   6.923   3.619   4.326
 9432SOL    HW338048   7.066   3.627   4.374
 9432SOL    MW438049   6.983   3.657   4.377
 9433SOL     OW38050   6.933   2.142   4.518
 9433SOL    HW238051   6.961   2.074   4.579
 9433SOL    HW338052   6.847   2.113   4.488
 9433SOL    MW438053   6.926   2.129   4.522
 9434SOL     OW38054   5.738   3.076   4.452
 9434SOL    HW238055   5.802   3.108   4.515
 9434SOL    HW338056   5.787   3.012   4.400
 9434SOL    MW438057   5.753   3.072   4.453
 9435SOL     OW38058   6.238   3.152   5.434
 9435SOL    HW238059   6.286   3.235   5.421
 9435SOL    HW338060   6.295   3.100   5.490
 9435SOL    MW438061   6.252   3.156   5.440
 9436SOL     OW38062   5.814   3.394   5.574
 9436SOL    HW238063   5.870   3.318   5.589
 9436SOL    HW338064   5.763   3.372   5.496
 9436SOL    MW438065   5.814   3.381   5.565
 9437SOL     OW38066   6.913   2.246   3.853
 9437SOL    HW238067   6.886   2.312   3.789
 9437SOL    HW338068   6.983   2.289   3.903
 9437SOL    MW438069   6.918   2.259   3.850
 9438SOL     OW38070   6.581   1.951   3.790
 9438SOL    HW238071   6.637   1.943   3.712
 9438SOL    HW338072   6.558   1.861   3.812
 9438SOL    MW438073   6.586   1.938   3.783
 9439SOL     OW38074   7.086   2.802   3.995
 9439SOL    HW238075   7.053   2.891   3.985
 9439SOL    HW338076   7.051   2.773   4.080
 9439SOL    MW438077   7.076   2.811   4.006
 9440SOL     OW38078   6.699   3.231   5.183
 9440SOL    HW238079   6.610   3.237   5.151
 9440SOL    HW338080   6.743   3.310   5.151
 9440SOL    MW438081   6.694   3.241   5.175
 9441SOL     OW38082   5.992   1.899   5.525
 9441SOL    HW238083   5.920   1.864   5.473
 9441SOL    HW338084   6.050   1.940   5.460
 9441SOL    MW438085   5.990   1.900   5.510
 9442SOL     OW38086   6.016   3.389   4.824
 9442SOL    HW238087   6.061   3.451   4.881
 9442SOL    HW338088   5.923   3.408   4.837
 9442SOL    MW438089   6.009   3.399   4.831
 9443SOL     OW38090   7.456   2.918   5.178
 9443SOL    HW238091   7.371   2.931   5.137
 9443SOL    HW338092   7.436   2.882   5.265
 9443SOL    MW438093   7.443   2.914   5.183
 9444SOL     OW38094   6.438   3.457   4.932
 9444SOL    HW238095   6.462   3.446   4.841
 9444SOL    HW338096   6.361   3.514   4.930
 9444SOL    MW438097   6.430   3.462   4.921
 9445SOL     OW38098   6.080   2.840   3.787
 9445SOL    HW238099   6.003   2.853   3.843
 9445SOL    HW338100   6.044   2.804   3.706
 9445SOL    MW438101   6.066   2.836   3.784
 9446SOL     OW38102   6.733   2.813   4.030
 9446SOL    HW238103   6.643   2.834   4.005
 9446SOL    HW338104   6.760   2.886   4.086
 9446SOL    MW438105   6.725   2.825   4.033
 9447SOL     OW38106   6.233   3.162   4.722
 9447SOL    HW238107   6.226   3.141   4.816
 9447SOL    HW338108   6.151   3.130   4.685
 9447SOL    MW438109   6.221   3.156   4.729
 9448SOL     OW38110   7.097   2.172   5.124
 9448SOL    HW238111   7.044   2.174   5.204
 9448SOL    HW338112   7.082   2.085   5.087
 9448SOL    MW438113   7.089   2.162   5.129
 9449SOL     OW38114   7.433   2.096   4.997
 9449SOL    HW238115   7.414   2.163   4.932
 9449SOL    HW338116   7.490   2.034   4.952
 9449SOL    MW438117   7.437   2.097   4.983
 9450SOL     OW38118   5.679   3.254   5.385
 9450SOL    HW238119   5.723   3.187   5.331
 9450SOL    HW338120   5.594   3.216   5.405
 9450SOL    MW438121   5.674   3.240   5.381
 9451SOL     OW38122   6.362   1.929   4.437
 9451SOL    HW238123   6.291   1.990   4.419
 9451SOL    HW338124   6.413   1.926   4.356
 9451SOL    MW438125   6.358   1.935   4.424
 9452SOL     OW38126   6.120   3.169   4.186
 9452SOL    HW238127   6.113   3.201   4.276
 9452SOL    HW338128   6.030   3.153   4.158
 9452SOL    MW438129   6.108   3.171   4.193
 9453SOL     OW38130   6.715   3.562   5.095
 9453SOL    HW238131   6.635   3.547   5.045
 9453SOL    HW338132   6.722   3.657   5.102
 9453SOL    MW438133   6.706   3.573   5.089
 9454SOL     OW38134   6.829   3.527   4.585
 9454SOL    HW238135   6.876   3.600   4.544
 9454SOL    HW338136   6.750   3.566   4.621
 9454SOL    MW438137   6.824   3.542   4.584
 9455SOL     OW38138   7.237   3.622   4.860
 9455SOL    HW238139   7.280   3.592   4.940
 9455SOL    HW338140   7.156   3.570   4.857
 9455SOL    MW438141   7.232   3.611   4.870
 9456SOL     OW38142   6.322   2.586   5.567
 9456SOL    HW238143   6.392   2.528   5.539
 9456SOL    HW338144   6.265   2.531   5.622
 9456SOL    MW438145   6.324   2.573   5.571
 9457SOL     OW38146   7.109   2.798   5.200
 9457SOL    HW238147   7.114   2.851   5.280
 9457SOL    HW338148   7.071   2.715   5.228
 9457SOL    MW438149   7.105   2.793   5.215
 9458SOL     OW38150   6.749   1.933   5.446
 9458SOL    HW238151   6.744   1.840   5.427
 9458SOL    HW338152   6.832   1.944   5.492
 9458SOL    MW438153   6.757   1.922   5.450
 9459SOL     OW38154   6.123   2.453   3.900
 9459SOL    HW238155   6.089   2.509   3.970
 9459SOL    HW338156   6.194   2.403   3.940
 9459SOL    MW438157   6.129   2.454   3.914
 9460SOL     OW38158   7.219   3.204   4.722
 9460SOL    HW238159   7.254   3.186   4.635
 9460SOL    HW338160   7.124   3.205   4.709
 9460SOL    MW438161   7.211   3.201   4.709
 9461SOL     OW38162   6.648   2.852   5.091
 9461SOL    HW238163   6.691   2.887   5.169
 9461SOL    HW338164   6.631   2.929   5.037
 9461SOL    MW438165   6.651   2.867   5.094
 9462SOL     OW38166   7.179   2.339   3.964
 9462SOL    HW238167   7.171   2.410   3.901
 9462SOL    HW338168   7.197   2.383   4.047
 9462SOL    MW438169   7.180   2.353   3.966
 9463SOL     OW38170   6.039   1.994   4.393
 9463SOL    HW238171   6.089   2.037   4.324
 9463SOL    HW338172   5.954   2.038   4.393
 9463SOL    MW438173   6.036   2.007   4.384
 9464SOL     OW38174   5.798   3.056   5.253
 9464SOL    HW238175   5.826   3.009   5.331
 9464SOL    HW338176   5.719   3.011   5.224
 9464SOL    MW438177   5.791   3.045   5.259
 9465SOL     OW38178   6.306   2.383   5.220
 9465SOL    HW238179   6.278   2.471   5.244
 9465SOL    HW338180   6.275   2.327   5.291
 9465SOL    MW438181   6.298   2.386   5.232
 9466SOL     OW38182   6.848   2.601   3.939
 9466SOL    HW238183   6.895   2.619   3.858
 9466SOL    HW338184   6.814   2.685   3.967
 9466SOL    MW438185   6.850   2.615   3.932
 9467SOL     OW38186   5.961   2.779   4.433
 9467SOL    HW238187   6.019   2.835   4.381
 9467SOL    HW338188   6.005   2.694   4.435
 9467SOL    MW438189   5.974   2.776   4.426
 9468SOL     OW38190   7.101   2.131   4.270
 9468SOL    HW238191   7.023   2.081   4.295
 9468SOL    HW338192   7.072   2.222   4.270
 9468SOL    MW438193   7.087   2.135   4.273
 9469SOL     OW38194   6.687   2.093   4.429
 9469SOL    HW238195   6.707   2.168   4.373
 9469SOL    HW338196   6.667   2.132   4.514
 9469SOL    MW438197   6.688   2.109   4.433
 9470SOL     OW38198   6.583   3.343   3.761
 9470SOL    HW238199   6.610   3.421   3.713
 9470SOL    HW338200   6.490   3.358   3.780
 9470SOL    MW438201   6.574   3.356   3.757
 9471SOL     OW38202   7.447   2.866   5.448
 9471SOL    HW238203   7.360   2.846   5.484
 9471SOL    HW338204   7.501   2.792   5.473
 9471SOL    MW438205   7.442   2.855   5.456
 9472SOL     OW38206   5.668   3.379   4.605
 9472SOL    HW238207   5.700   3.383   4.696
 9472SOL    HW338208   5.573   3.387   4.613
 9472SOL    MW438209   5.660   3.382   4.618
 9473SOL     OW38210   5.623   2.505   4.152
 9473SOL    HW238211   5.563   2.477   4.222
 9473SOL    HW338212   5.697   2.445   4.158
 9473SOL    MW438213   5.625   2.494   4.161
 9474SOL     OW38214   7.191   3.717   5.586
 9474SOL    HW238215   7.236   3.641   5.551
 9474SOL    HW338216   7.229   3.730   5.673
 9474SOL    MW438217   7.201   3.710   5.592
 9475SOL     OW38218   6.791   3.236   4.312
 9475SOL    HW238219   6.814   3.187   4.390
 9475SOL    HW338220   6.872   3.278   4.284
 9475SOL    MW438221   6.804   3.236   4.319
 9476SOL     OW38222   6.049   2.244   5.041
 9476SOL    HW238223   6.082   2.325   5.081
 9476SOL    HW338224   6.022   2.270   4.953
 9476SOL    MW438225   6.048   2.258   5.035
 9477SOL     OW38226   6.003   2.211   4.777
 9477SOL    HW238227   6.033   2.125   4.748
 9477SOL    HW338228   5.908   2.204   4.780
 9477SOL    MW438229   5.995   2.200   4.775
 9478SOL     OW38230   6.832   2.420   5.468
 9478SOL    HW238231   6.884   2.355   5.421
 9478SOL    HW338232   6.790   2.471   5.398
 9478SOL    MW438233   6.833   2.417   5.451
 9479SOL     OW38234   6.931   2.215   5.329
 9479SOL    HW238235   6.838   2.199   5.316
 9479SOL    HW338236   6.957   2.153   5.397
 9479SOL    MW438237   6.921   2.205   5.336
 9480SOL     OW38238   6.146   1.989   4.668
 9480SOL    HW238239   6.156   1.898   4.694
 9480SOL    HW338240   6.102   1.985   4.583
 9480SOL    MW438241   6.142   1.977   4.660
 9481SOL     OW38242   6.240   3.604   5.214
 9481SOL    HW238243   6.157   3.589   5.259
 9481SOL    HW338244   6.299   3.537   5.249
 9481SOL    MW438245   6.238   3.594   5.224
 9482SOL     OW38246   7.297   2.311   4.839
 9482SOL    HW238247   7.230   2.344   4.899
 9482SOL    HW338248   7.340   2.389   4.805
 9482SOL    MW438249   7.295   2.326   4.843
 9483SOL     OW38250   7.475   3.031   4.809
 9483SOL    HW238251   7.468   2.971   4.734
 9483SOL    HW338252   7.401   3.091   4.798
 9483SOL    MW438253   7.465   3.031   4.798
 9484SOL     OW38254   6.857   2.893   4.727
 9484SOL    HW238255   6.871   2.865   4.818
 9484SOL    HW338256   6.943   2.924   4.699
 9484SOL    MW438257   6.870   2.894   4.736
 9485SOL     OW38258   6.940   2.388   5.006
 9485SOL    HW238259   6.961   2.389   4.913
 9485SOL    HW338260   6.985   2.310   5.039
 9485SOL    MW438261   6.947   2.378   4.998
 9486SOL     OW38262   7.433   2.519   5.548
 9486SOL    HW238263   7.470   2.464   5.617
 9486SOL    HW338264   7.458   2.476   5.466
 9486SOL    MW438265   7.440   2.507   5.547
 9487SOL     OW38266   6.980   2.817   5.600
 9487SOL    HW238267   7.046   2.765   5.554
 9487SOL    HW338268   7.000   2.804   5.693
 9487SOL    MW438269   6.991   2.808   5.607
 9488SOL     OW38270   6.931   1.903   3.948
 9488SOL    HW238271   7.005   1.947   3.991
 9488SOL    HW338272   6.855   1.957   3.970
 9488SOL    MW438273   6.931   1.915   3.956
 9489SOL     OW38274   6.991   2.678   4.226
 9489SOL    HW238275   6.906   2.648   4.196
 9489SOL    HW338276   6.983   2.685   4.321
 9489SOL    MW438277   6.979   2.676   4.235
 9490SOL     OW38278   6.067   3.141   4.957
 9490SOL    HW238279   6.079   3.168   5.048
 9490SOL    HW338280   6.048   3.222   4.910
 9490SOL    MW438281   6.066   3.156   4.962
 9491SOL     OW38282   6.351   2.121   4.780
 9491SOL    HW238283   6.324   2.123   4.871
 9491SOL    HW338284   6.281   2.073   4.735
 9491SOL    MW438285   6.339   2.117   4.787
 9492SOL     OW38286   6.205   3.613   4.942
 9492SOL    HW238287   6.257   3.690   4.919
 9492SOL    HW338288   6.214   3.605   5.037
 9492SOL    MW438289   6.214   3.620   4.953
 9493SOL     OW38290   7.107   3.198   5.174
 9493SOL    HW238291   7.092   3.127   5.237
 9493SOL    HW338292   7.153   3.156   5.102
 9493SOL    MW438293   7.113   3.182   5.174
 9494SOL     OW38294   6.181   2.929   5.291
 9494SOL    HW238295   6.218   2.934   5.203
 9494SOL    HW338296   6.220   3.002   5.338
 9494SOL    MW438297   6.191   2.939   5.286
 9495SOL     OW38298   6.361   2.972   5.103
 9495SOL    HW238299   6.420   2.918   5.156
 9495SOL    HW338300   6.376   2.944   5.013
 9495SOL    MW438301   6.371   2.961   5.099
 9496SOL     OW38302   6.364   2.344   3.952
 9496SOL    HW238303   6.437   2.393   3.915
 9496SOL    HW338304   6.380   2.253   3.926
 9496SOL    MW438305   6.376   2.339   3.945
 9497SOL     OW38306   7.172   3.461   5.275
 9497SOL    HW238307   7.214   3.446   5.360
 9497SOL    HW338308   7.163   3.374   5.237
 9497SOL    MW438309   7.176   3.449   5.282
 9498SOL     OW38310   6.832   1.940   4.866
 9498SOL    HW238311   6.887   1.949   4.788
 9498SOL    HW338312   6.887   1.974   4.937
 9498SOL    MW438313   6.846   1.945   4.865
 9499SOL     OW38314   5.839   2.853   4.050
 9499SOL    HW238315   5.776   2.869   3.979
 9499SOL    HW338316   5.786   2.816   4.121
 9499SOL    MW438317   5.824   2.850   4.050
 9500SOL     OW38318   6.195   3.207   3.909
 9500SOL    HW238319   6.210   3.183   4.001
 9500SOL    HW338320   6.103   3.185   3.893
 9500SOL    MW438321   6.185   3.200   3.919
 9501SOL     OW38322   6.734   3.438   4.061
 9501SOL    HW238323   6.742   3.356   4.012
 9501SOL    HW338324   6.653   3.477   4.028
 9501SOL    MW438325   6.724   3.433   4.051
 9502SOL     OW38326   5.993   3.596   4.630
 9502SOL    HW238327   5.997   3.507   4.665
 9502SOL    HW338328   6.019   3.587   4.539
 9502SOL    MW438329   5.996   3.584   4.622
 9503SOL     OW38330   6.610   3.074   4.873
 9503SOL    HW238331   6.542   3.008   4.889
 9503SOL    HW338332   6.628   3.068   4.780
 9503SOL    MW438333   6.603   3.065   4.864
 9504SOL     OW38334   5.699   3.349   5.124
 9504SOL    HW238335   5.689   3.307   5.210
 9504SOL    HW338336   5.620   3.402   5.114
 9504SOL    MW438337   5.688   3.350   5.135
 9505SOL     OW38338   6.603   2.213   4.694
 9505SOL    HW238339   6.533   2.165   4.739
 9505SOL    HW338340   6.635   2.276   4.758
 9505SOL    MW438341   6.598   2.215   4.708
 9506SOL     OW38342   6.254   2.649   5.314
 9506SOL    HW238343   6.247   2.744   5.302
 9506SOL    HW338344   6.263   2.638   5.409
 9506SOL    MW438345   6.255   2.661   5.324
 9507SOL     OW38346   5.975   3.164   5.572
 9507SOL    HW238347   6.047   3.166   5.509
 9507SOL    HW338348   5.945   3.073   5.571
 9507SOL    MW438349   5.980   3.153   5.564
 9508SOL     OW38350   7.059   1.927   5.039
 9508SOL    HW238351   7.130   1.873   5.003
 9508SOL    HW338352   7.058   1.906   5.132
 9508SOL    MW438353   7.068   1.918   5.047
 9509SOL     OW38354   7.259   3.457   5.523
 9509SOL    HW238355   7.232   3.454   5.614
 9509SOL    HW338356   7.355   3.461   5.526
 9509SOL    MW438357   7.269   3.457   5.535
 9510SOL     OW38358   6.070   2.319   4.507
 9510SOL    HW238359   6.141   2.267   4.470
 9510SOL    HW338360   6.056   2.284   4.594
 9510SOL    MW438361   6.078   2.308   4.514
 9511SOL     OW38362   5.625   3.654   5.579
 9511SOL    HW238363   5.675   3.632   5.501
 9511SOL    HW338364   5.633   3.749   5.587
 9511SOL    MW438365   5.633   3.663   5.570
 9512SOL     OW38366   6.386   3.412   4.583
 9512SOL    HW238367   6.314   3.349   4.596
 9512SOL    HW338368   6.347   3.497   4.601
 9512SOL    MW438369   6.370   3.415   4.586
 9513SOL     OW38370   6.706   2.260   4.231
 9513SOL    HW238371   6.728   2.197   4.163
 9513SOL    HW338372   6.611   2.252   4.242
 9513SOL    MW438373   6.696   2.251   4.223
 9514SOL     OW38374   5.791   1.950   4.163
 9514SOL    HW238375   5.862   1.971   4.102
 9514SOL    HW338376   5.745   1.878   4.121
 9514SOL    MW438377   5.795   1.944   4.149
 9515SOL     OW38378   5.622   2.417   5.306
 9515SOL    HW238379   5.686   2.483   5.281
 9515SOL    HW338380   5.541   2.444   5.263
 9515SOL    MW438381   5.620   2.429   5.298
 9516SOL     OW38382   7.360   3.324   4.263
 9516SOL    HW238383   7.330   3.257   4.324
 9516SOL    HW338384   7.454   3.330   4.277
 9516SOL    MW438385   7.368   3.316   4.273
 9517SOL     OW38386   6.916   3.001   4.193
 9517SOL    HW238387   6.888   3.087   4.226
 9517SOL    HW338388   6.944   3.017   4.103
 9517SOL    MW438389   6.916   3.015   4.185
 9518SOL     OW38390   6.578   1.921   4.246
 9518SOL    HW238391   6.615   1.980   4.311
 9518SOL    HW338392   6.555   1.977   4.172
 9518SOL    MW438393   6.579   1.936   4.245
 9519SOL     OW38394   7.431   2.803   4.668
 9519SOL    HW238395   7.422   2.835   4.579
 9519SOL    HW338396   7.384   2.719   4.668
 9519SOL    MW438397   7.424   2.796   4.658
 9520SOL     OW38398   5.807   2.643   5.247
 9520SOL    HW238399   5.828   2.712   5.185
 9520SOL    HW338400   5.887   2.590   5.252
 9520SOL    MW438401   5.820   2.644   5.241
 9521SOL     OW38402   7.343   2.734   4.369
 9521SOL    HW238403   7.437   2.723   4.357
 9521SOL    HW338404   7.319   2.806   4.310
 9521SOL    MW438405   7.353   2.742   4.360
 9522SOL     OW38406   5.792   2.658   5.514
 9522SOL    HW238407   5.718   2.602   5.540
 9522SOL    HW338408   5.787   2.661   5.419
 9522SOL    MW438409   5.781   2.651   5.504
 9523SOL     OW38410   5.958   1.945   4.964
 9523SOL    HW238411   6.001   2.029   4.984
 9523SOL    HW338412   6.031   1.883   4.957
 9523SOL    MW438413   5.973   1.948   4.965
 9524SOL     OW38414   5.999   2.612   4.142
 9524SOL    HW238415   5.999   2.707   4.127
 9524SOL    HW338416   6.076   2.596   4.196
 9524SOL    MW438417   6.009   2.623   4.147
 9525SOL     OW38418   6.775   2.471   5.206
 9525SOL    HW238419   6.811   2.444   5.122
 9525SOL    HW338420   6.688   2.505   5.185
 9525SOL    MW438421   6.769   2.472   5.193
 9526SOL     OW38422   5.758   2.343   4.431
 9526SOL    HW238423   5.820   2.350   4.504
 9526SOL    HW338424   5.758   2.250   4.408
 9526SOL    MW438425   5.766   2.332   4.438
 9527SOL     OW38426   7.305   3.683   3.963
 9527SOL    HW238427   7.372   3.716   3.903
 9527SOL    HW338428   7.262   3.762   3.997
 9527SOL    MW438429   7.307   3.698   3.959
 9528SOL     OW38430   6.440   2.604   4.915
 9528SOL    HW238431   6.398   2.522   4.891
 9528SOL    HW338432   6.441   2.603   5.011
 9528SOL    MW438433   6.433   2.593   4.924
 9529SOL     OW38434   7.111   3.737   5.314
 9529SOL    HW238435   7.114   3.643   5.297
 9529SOL    HW338436   7.134   3.745   5.406
 9529SOL    MW438437   7.114   3.725   5.324
 9530SOL     OW38438   6.244   2.074   5.020
 9530SOL    HW238439   6.175   2.137   5.041
 9530SOL    HW338440   6.271   2.038   5.105
 9530SOL    MW438441   6.238   2.077   5.033
 9531SOL     OW38442   5.627   2.915   3.889
 9531SOL    HW238443   5.596   2.980   3.952
 9531SOL    HW338444   5.576   2.837   3.908
 9531SOL    MW438445   5.617   2.912   3.899
 9532SOL     OW38446   7.039   1.927   4.637
 9532SOL    HW238447   7.127   1.936   4.674
 9532SOL    HW338448   7.049   1.868   4.563
 9532SOL    MW438449   7.053   1.921   4.631
 9533SOL     OW38450   7.071   2.666   4.481
 9533SOL    HW238451   7.151   2.681   4.430
 9533SOL    HW338452   7.064   2.571   4.487
 9533SOL    MW438453   7.080   2.655   4.476
 9534SOL     OW38454   6.211   3.715   3.831
 9534SOL    HW238455   6.116   3.715   3.823
 9534SOL    HW338456   6.227   3.661   3.909
 9534SOL    MW438457   6.201   3.709   3.840
 9535SOL     OW38458   6.521   2.592   5.178
 9535SOL    HW238459   6.590   2.659   5.175
 9535SOL    HW338460   6.454   2.630   5.234
 9535SOL    MW438461   6.522   2.605   5.185
 9536SOL     OW38462   5.939   2.892   5.426
 9536SOL    HW238463   5.893   2.808   5.428
 9536SOL    HW338464   5.996   2.886   5.350
 9536SOL    MW438465   5.941   2.880   5.418
 9537SOL     OW38466   7.056   2.535   3.747
 9537SOL    HW238467   6.984   2.511   3.689
 9537SOL    HW338468   7.122   2.572   3.689
 9537SOL    MW438469   7.055   2.537   3.732
 9538SOL     OW38470   6.190   3.267   4.427
 9538SOL    HW238471   6.255   3.200   4.448
 9538SOL    HW338472   6.242   3.344   4.404
 9538SOL    MW438473   6.205   3.269   4.426
 9539SOL     OW38474   6.451   2.432   4.557
 9539SOL    HW238475   6.391   2.450   4.629
 9539SOL    HW338476   6.485   2.344   4.576
 9539SOL    MW438477   6.447   2.422   4.570
 9540SOL     OW38478   7.392   1.931   5.226
 9540SOL    HW238479   7.313   1.977   5.254
 9540SOL    HW338480   7.427   1.985   5.155
 9540SOL    MW438481   7.386   1.944   5.220
 9541SOL     OW38482   6.676   3.015   4.576
 9541SOL    HW238483   6.768   2.996   4.594
 9541SOL    HW338484   6.649   2.945   4.516
 9541SOL    MW438485   6.684   3.003   4.570
 9542SOL     OW38486   6.469   2.835   3.931
 9542SOL    HW238487   6.455   2.747   3.896
 9542SOL    HW338488   6.420   2.892   3.872
 9542SOL    MW438489   6.461   2.830   3.919
 9543SOL     OW38490   6.950   3.253   4.672
 9543SOL    HW238491   6.923   3.337   4.637
 9543SOL    HW338492   6.910   3.248   4.759
 9543SOL    MW438493   6.943   3.262   4.678
 9544SOL     OW38494   6.869   3.201   4.940
 9544SOL    HW238495   6.880   3.168   5.029
 9544SOL    HW338496   6.788   3.160   4.909
 9544SOL    MW438497   6.859   3.193   4.946
 9545SOL     OW38498   5.882   2.559   4.710
 9545SOL    HW238499   5.832   2.558   4.791
 9545SOL    HW338500   5.902   2.651   4.694
 9545SOL    MW438501   5.878   2.571   4.718
 9546SOL     OW38502   6.949   3.323   5.472
 9546SOL    HW238503   6.949   3.417   5.488
 9546SOL    HW338504   6.994   3.313   5.388
 9546SOL    MW438505   6.955   3.333   5.463
 9547SOL     OW38506   7.188   2.041   4.033
 9547SOL    HW238507   7.181   2.045   4.128
 9547SOL    HW338508   7.200   2.132   4.006
 9547SOL    MW438509   7.189   2.054   4.041
 9548SOL     OW38510   6.477   2.604   4.147
 9548SOL    HW238511   6.457   2.590   4.054
 9548SOL    HW338512   6.570   2.583   4.154
 9548SOL    MW438513   6.487   2.599   4.136
 9549SOL     OW38514   5.804   2.227   5.451
 9549SOL    HW238515   5.761   2.286   5.388
 9549SOL    HW338516   5.872   2.282   5.491
 9549SOL    MW438517   5.808   2.242   5.448
 9550SOL     OW38518   6.916   2.847   4.996
 9550SOL    HW238519   6.979   2.844   5.069
 9550SOL    HW338520   6.832   2.865   5.038
 9550SOL    MW438521   6.912   2.849   5.011
 9551SOL     OW38522   6.460   3.562   4.185
 9551SOL    HW238523   6.518   3.633   4.212
 9551SOL    HW338524   6.483   3.490   4.243
 9551SOL    MW438525   6.471   3.562   4.196
 9552SOL     OW38526   7.255   2.024   4.775
 9552SOL    HW238527   7.300   1.942   4.794
 9552SOL    HW338528   7.275   2.080   4.851
 9552SOL    MW438529   7.265   2.020   4.787
 9553SOL     OW38530   5.703   1.867   4.874
 9553SOL    HW238531   5.694   1.868   4.779
 9553SOL    HW338532   5.797   1.879   4.889
 9553SOL    MW438533   5.715   1.870   4.865
 9554SOL     OW38534   7.340   3.060   4.494
 9554SOL    HW238535   7.319   3.006   4.417
 9554SOL    HW338536   7.436   3.058   4.498
 9554SOL    MW438537   7.349   3.053   4.483
 9555SOL     OW38538   6.032   3.205   5.237
 9555SOL    HW238539   5.953   3.155   5.260
 9555SOL    HW338540   6.102   3.164   5.287
 9555SOL    MW438541   6.030   3.193   5.247
 9556SOL     OW38542   5.916   1.994   3.920
 9556SOL    HW238543   5.845   2.049   3.888
 9556SOL    HW338544   5.958   1.960   3.841
 9556SOL    MW438545   5.912   1.996   3.906
 9557SOL     OW38546   7.040   2.491   4.756
 9557SOL    HW238547   6.963   2.537   4.722
 9557SOL    HW338548   7.097   2.560   4.790
 9557SOL    MW438549   7.037   2.506   4.756
 9558SOL     OW38550   5.672   2.093   3.769
 9558SOL    HW238551   5.639   2.172   3.813
 9558SOL    HW338552   5.727   2.126   3.698
 9558SOL    MW438553   5.675   2.107   3.766
 9559SOL     OW38554   5.706   3.350   3.958
 9559SOL    HW238555   5.723   3.434   4.000
 9559SOL    HW338556   5.741   3.359   3.870
 9559SOL    MW438557   5.711   3.363   3.952
 9560SOL     OW38558   6.978   3.439   4.175
 9560SOL    HW238559   7.041   3.429   4.104
 9560SOL    HW338560   6.895   3.459   4.130
 9560SOL    MW438561   6.975   3.440   4.160
 9561SOL     OW38562   7.341   2.707   5.862
 9561SOL    HW238563   7.382   2.649   5.927
 9561SOL    HW338564   7.248   2.699   5.879
 9561SOL    MW438565   7.335   2.699   5.872
 9562SOL     OW38566   6.135   2.890   6.091
 9562SOL    HW238567   6.225   2.865   6.075
 9562SOL    HW338568   6.131   2.983   6.068
 9562SOL    MW438569   6.147   2.899   6.086
 9563SOL     OW38570   5.861   2.374   6.032
 9563SOL    HW238571   5.893   2.462   6.014
 9563SOL    HW338572   5.849   2.372   6.127
 9563SOL    MW438573   5.864   2.386   6.044
 9564SOL     OW38574   6.974   3.038   5.810
 9564SOL    HW238575   6.892   3.074   5.776
 9564SOL    HW338576   7.042   3.081   5.759
 9564SOL    MW438577   6.972   3.048   5.798
 9565SOL     OW38578   6.535   2.817   6.286
 9565SOL    HW238579   6.449   2.804   6.326
 9565SOL    HW338580   6.588   2.744   6.318
 9565SOL    MW438581   6.531   2.806   6.295
 9566SOL     OW38582   6.526   3.179   6.003
 9566SOL    HW238583   6.503   3.241   6.071
 9566SOL    HW338584   6.483   3.097   6.029
 9566SOL    MW438585   6.518   3.175   6.014
 9567SOL     OW38586   6.023   2.152   5.971
 9567SOL    HW238587   5.997   2.114   5.887
 9567SOL    HW338588   5.960   2.222   5.987
 9567SOL    MW438589   6.012   2.155   5.962
 9568SOL     OW38590   5.858   3.113   6.008
 9568SOL    HW238591   5.806   3.181   5.964
 9568SOL    HW338592   5.855   3.039   5.948
 9568SOL    MW438593   5.850   3.112   5.995
 9569SOL     OW38594   6.520   3.576   5.786
 9569SOL    HW238595   6.475   3.592   5.869
 9569SOL    HW338596   6.451   3.541   5.728
 9569SOL    MW438597   6.506   3.573   5.788
 9570SOL     OW38598   7.455   2.349   5.761
 9570SOL    HW238599   7.364   2.351   5.789
 9570SOL    HW338600   7.500   2.411   5.819
 9570SOL    MW438601   7.448   2.357   5.771
 9571SOL     OW38602   7.200   2.952   6.111
 9571SOL    HW238603   7.110   2.952   6.146
 9571SOL    HW338604   7.193   2.998   6.028
 9571SOL    MW438605   7.187   2.958   6.105
 9572SOL     OW38606   6.727   2.533   6.072
 9572SOL    HW238607   6.753   2.557   5.983
 9572SOL    HW338608   6.709   2.440   6.068
 9572SOL    MW438609   6.729   2.525   6.059
 9573SOL     OW38610   7.392   3.153   5.923
 9573SOL    HW238611   7.348   3.194   5.998
 9573SOL    HW338612   7.449   3.221   5.888
 9573SOL    MW438613   7.394   3.167   5.928
 9574SOL     OW38614   5.764   3.629   5.818
 9574SOL    HW238615   5.793   3.719   5.810
 9574SOL    HW338616   5.714   3.612   5.739
 9574SOL    MW438617   5.762   3.637   5.807
 9575SOL     OW38618   7.168   3.437   5.789
 9575SOL    HW238619   7.216   3.506   5.835
 9575SOL    HW338620   7.089   3.481   5.758
 9575SOL    MW438621   7.163   3.451   5.792
 9576SOL     OW38622   6.566   2.562   5.733
 9576SOL    HW238623   6.568   2.509   5.654
 9576SOL    HW338624   6.654   2.599   5.739
 9576SOL    MW438625   6.578   2.561   5.722
 9577SOL     OW38626   7.180   2.488   6.069
 9577SOL    HW238627   7.219   2.488   6.156
 9577SOL    HW338628   7.121   2.564   6.069
 9577SOL    MW438629   7.177   2.499   6.080
 9578SOL     OW38630   6.736   3.181   5.825
 9578SOL    HW238631   6.686   3.183   5.907
 9578SOL    HW338632   6.670   3.199   5.757
 9578SOL    MW438633   6.722   3.183   5.827
 9579SOL     OW38634   6.199   3.599   5.933
 9579SOL    HW238635   6.120   3.557   5.966
 9579SOL    HW338636   6.265   3.582   6.000
 9579SOL    MW438637   6.198   3.591   5.946
 9580SOL     OW38638   6.335   3.014   5.640
 9580SOL    HW238639   6.257   2.960   5.627
 9580SOL    HW338640   6.306   3.087   5.693
 9580SOL    MW438641   6.321   3.016   5.645
 9581SOL     OW38642   6.916   3.530   5.708
 9581SOL    HW238643   6.842   3.493   5.758
 9581SOL    HW338644   6.924   3.620   5.741
 9581SOL    MW438645   6.907   3.537   5.720
 9582SOL     OW38646   7.140   3.204   5.650
 9582SOL    HW238647   7.087   3.253   5.586
 9582SOL    HW338648   7.171   3.270   5.711
 9582SOL    MW438649   7.138   3.218   5.648
 9583SOL     OW38650   6.365   2.093   5.705
 9583SOL    HW238651   6.313   2.013   5.693
 9583SOL    HW338652   6.452   2.070   5.673
 9583SOL    MW438653   6.368   2.079   5.699
 9584SOL     OW38654   5.734   3.345   6.201
 9584SOL    HW238655   5.706   3.384   6.283
 9584SOL    HW338656   5.754   3.254   6.223
 9584SOL    MW438657   5.732   3.337   6.214
 9585SOL     OW38658   6.567   3.388   6.236
 9585SOL    HW238659   6.650   3.342   6.220
 9585SOL    HW338660   6.557   3.387   6.332
 9585SOL    MW438661   6.577   3.381   6.246
 9586SOL     OW38662   6.300   3.445   5.641
 9586SOL    HW238663   6.240   3.514   5.611
 9586SOL    HW338664   6.245   3.387   5.694
 9586SOL    MW438665   6.284   3.447   5.643
 9587SOL     OW38666   6.738   2.090   5.864
 9587SOL    HW238667   6.671   2.066   5.801
 9587SOL    HW338668   6.803   2.139   5.813
 9587SOL    MW438669   6.738   2.092   5.849
 9588SOL     OW38670   5.931   3.489   6.030
 9588SOL    HW238671   5.892   3.536   5.956
 9588SOL    HW338672   5.865   3.424   6.055
 9588SOL    MW438673   5.918   3.487   6.024
 9589SOL     OW38674   6.423   2.898   6.054
 9589SOL    HW238675   6.425   2.872   5.961
 9589SOL    HW338676   6.481   2.835   6.097
 9589SOL    MW438677   6.431   2.887   6.048
 9590SOL     OW38678   6.913   2.246   5.722
 9590SOL    HW238679   6.886   2.312   5.658
 9590SOL    HW338680   6.983   2.289   5.772
 9590SOL    MW438681   6.918   2.259   5.719
 9591SOL     OW38682   6.581   1.951   5.659
 9591SOL    HW238683   6.637   1.943   5.581
 9591SOL    HW338684   6.558   1.861   5.681
 9591SOL    MW438685   6.586   1.938   5.652
 9592SOL     OW38686   7.086   2.802   5.864
 9592SOL    HW238687   7.053   2.891   5.854
 9592SOL    HW338688   7.051   2.773   5.949
 9592SOL    MW438689   7.076   2.811   5.875
 9593SOL     OW38690   6.080   2.840   5.656
 9593SOL    HW238691   6.003   2.853   5.712
 9593SOL    HW338692   6.044   2.804   5.575
 9593SOL    MW438693   6.066   2.836   5.653
 9594SOL     OW38694   6.733   2.813   5.899
 9594SOL    HW238695   6.643   2.834   5.874
 9594SOL    HW338696   6.760   2.886   5.955
 9594SOL    MW438697   6.725   2.825   5.902
 9595SOL     OW38698   6.120   3.169   6.055
 9595SOL    HW238699   6.113   3.201   6.145
 9595SOL    HW338700   6.030   3.153   6.027
 9595SOL    MW438701   6.108   3.171   6.062
 9596SOL     OW38702   6.123   2.453   5.769
 9596SOL    HW238703   6.089   2.509   5.839
 9596SOL    HW338704   6.194   2.403   5.809
 9596SOL    MW438705   6.129   2.454   5.783
 9597SOL     OW38706   7.179   2.339   5.833
 9597SOL    HW238707   7.171   2.410   5.770
 9597SOL    HW338708   7.197   2.383   5.916
 9597SOL    MW438709   7.180   2.353   5.835
 9598SOL     OW38710   6.039   1.994   6.262
 9598SOL    HW238711   6.089   2.037   6.193
 9598SOL    HW338712   5.954   2.038   6.262
 9598SOL    MW438713   6.036   2.007   6.253
 9599SOL     OW38714   6.848   2.601   5.808
 9599SOL    HW238715   6.895   2.619   5.727
 9599SOL    HW338716   6.814   2.685   5.836
 9599SOL    MW438717   6.850   2.615   5.801
 9600SOL     OW38718   7.101   2.131   6.139
 9600SOL    HW238719   7.023   2.081   6.164
 9600SOL    HW338720   7.072   2.222   6.139
 9600SOL    MW438721   7.087   2.135   6.142
 9601SOL     OW38722   6.583   3.343   5.630
 9601SOL    HW238723   6.610   3.421   5.582
 9601SOL    HW338724   6.490   3.358   5.649
 9601SOL    MW438725   6.574   3.356   5.626
 9602SOL     OW38726   5.623   2.505   6.021
 9602SOL    HW238727   5.563   2.477   6.091
 9602SOL    HW338728   5.697   2.445   6.027
 9602SOL    MW438729   5.625   2.494   6.030
 9603SOL     OW38730   6.931   1.903   5.817
 9603SOL    HW238731   7.005   1.947   5.860
 9603SOL    HW338732   6.855   1.957   5.839
 9603SOL    MW438733   6.931   1.915   5.825
 9604SOL     OW38734   6.991   2.678   6.095
 9604SOL    HW238735   6.906   2.648   6.065
 9604SOL    HW338736   6.983   2.685   6.190
 9604SOL    MW438737   6.979   2.676   6.104
 9605SOL     OW38738   6.364   2.344   5.821
 9605SOL    HW238739   6.437   2.393   5.784
 9605SOL    HW338740   6.380   2.253   5.795
 9605SOL    MW438741   6.376   2.339   5.814
 9606SOL     OW38742   5.839   2.853   5.919
 9606SOL    HW238743   5.776   2.869   5.848
 9606SOL    HW338744   5.786   2.816   5.990
 9606SOL    MW438745   5.824   2.850   5.919
 9607SOL     OW38746   6.195   3.207   5.778
 9607SOL    HW238747   6.210   3.183   5.870
 9607SOL    HW338748   6.103   3.185   5.762
 9607SOL    MW438749   6.185   3.200   5.788
 9608SOL     OW38750   6.734   3.438   5.930
 9608SOL    HW238751   6.742   3.356   5.881
 9608SOL    HW338752   6.653   3.477   5.897
 9608SOL    MW438753   6.724   3.433   5.920
 9609SOL     OW38754   6.706   2.260   6.100
 9609SOL    HW238755   6.728   2.197   6.032
 9609SOL    HW338756   6.611   2.252   6.111
 9609SOL    MW438757   6.696   2.251   6.092
 9610SOL     OW38758   5.791   1.950   6.032
 9610SOL    HW238759   5.862   1.971   5.971
 9610SOL    HW338760   5.745   1.878   5.990
 9610SOL    MW438761   5.795   1.944   6.018
 9611SOL     OW38762   7.360   3.324   6.132
 9611SOL    HW238763   7.330   3.257   6.193
 9611SOL    HW338764   7.454   3.330   6.146
 9611SOL    MW438765   7.368   3.316   6.142
 9612SOL     OW38766   6.916   3.001   6.062
 9612SOL    HW238767   6.888   3.087   6.095
 9612SOL    HW338768   6.944   3.017   5.972
 9612SOL    MW438769   6.916   3.015   6.054
 9613SOL     OW38770   6.578   1.921   6.115
 9613SOL    HW238771   6.615   1.980   6.180
 9613SOL    HW338772   6.555   1.977   6.041
 9613SOL    MW438773   6.579   1.936   6.114
 9614SOL     OW38774   5.999   2.612   6.011
 9614SOL    HW238775   5.999   2.707   5.996
 9614SOL    HW338776   6.076   2.596   6.065
 9614SOL    MW438777   6.009   2.623   6.016
 9615SOL     OW38778   7.305   3.683   5.832
 9615SOL    HW238779   7.372   3.716   5.772
 9615SOL    HW338780   7.262   3.762   5.866
 9615SOL    MW438781   7.307   3.698   5.828
 9616SOL     OW38782   5.627   2.915   5.758
 9616SOL    HW238783   5.596   2.980   5.821
 9616SOL    HW338784   5.576   2.837   5.777
 9616SOL    MW438785   5.617   2.912   5.768
 9617SOL     OW38786   6.211   3.715   5.700
 9617SOL    HW238787   6.116   3.715   5.692
 9617SOL    HW338788   6.227   3.661   5.778
 9617SOL    MW438789   6.201   3.709   5.709
 9618SOL     OW38790   7.056   2.535   5.615
 9618SOL    HW238791   6.984   2.511   5.557
 9618SOL    HW338792   7.122   2.572   5.557
 9618SOL    MW438793   7.055   2.537   5.600
 9619SOL     OW38794   6.451   2.432   6.426
 9619SOL    HW238795   6.391   2.450   6.498
 9619SOL    HW338796   6.485   2.344   6.445
 9619SOL    MW438797   6.447   2.422   6.439
 9620SOL     OW38798   6.469   2.835   5.800
 9620SOL    HW238799   6.455   2.747   5.765
 9620SOL    HW338800   6.420   2.892   5.741
 9620SOL    MW438801   6.461   2.830   5.788
 9621SOL     OW38802   7.188   2.041   5.902
 9621SOL    HW238803   7.181   2.045   5.997
 9621SOL    HW338804   7.200   2.132   5.875
 9621SOL    MW438805   7.189   2.054   5.910
 9622SOL     OW38806   6.477   2.604   6.016
 9622SOL    HW238807   6.457   2.590   5.923
 9622SOL    HW338808   6.570   2.583   6.023
 9622SOL    MW438809   6.487   2.599   6.005
 9623SOL     OW38810   6.460   3.562   6.054
 9623SOL    HW238811   6.518   3.633   6.081
 9623SOL    HW338812   6.483   3.490   6.112
 9623SOL    MW438813   6.471   3.562   6.065
 9624SOL     OW38814   5.916   1.994   5.789
 9624SOL    HW238815   5.845   2.049   5.757
 9624SOL    HW338816   5.958   1.960   5.710
 9624SOL    MW438817   5.912   1.996   5.775
 9625SOL     OW38818   5.672   2.093   5.638
 9625SOL    HW238819   5.639   2.172   5.682
 9625SOL    HW338820   5.727   2.126   5.567
 9625SOL    MW438821   5.675   2.107   5.635
 9626SOL     OW38822   5.706   3.350   5.827
 9626SOL    HW238823   5.723   3.434   5.869
 9626SOL    HW338824   5.741   3.359   5.739
 9626SOL    MW438825   5.711   3.363   5.821
 9627SOL     OW38826   6.978   3.439   6.044
 9627SOL    HW238827   7.041   3.429   5.973
 9627SOL    HW338828   6.895   3.459   5.999
 9627SOL    MW438829   6.975   3.440   6.029
 9628SOL     OW38830   7.341   4.575   0.257
 9628SOL    HW238831   7.382   4.517   0.322
 9628SOL    HW338832   7.248   4.567   0.274
 9628SOL    MW438833   7.335   4.567   0.267
 9629SOL     OW38834   7.207   4.507   1.252
 9629SOL    HW238835   7.162   4.574   1.303
 9629SOL    HW338836   7.295   4.543   1.238
 9629SOL    MW438837   7.213   4.520   1.256
 9630SOL     OW38838   6.135   4.758   0.486
 9630SOL    HW238839   6.225   4.733   0.470
 9630SOL    HW338840   6.131   4.851   0.463
 9630SOL    MW438841   6.147   4.767   0.481
 9631SOL     OW38842   7.251   5.461   0.628
 9631SOL    HW238843   7.263   5.407   0.706
 9631SOL    HW338844   7.288   5.409   0.557
 9631SOL    MW438845   7.257   5.446   0.629
 9632SOL     OW38846   6.630   5.346   1.629
 9632SOL    HW238847   6.671   5.382   1.550
 9632SOL    HW338848   6.665   5.257   1.636
 9632SOL    MW438849   6.641   5.339   1.620
 9633SOL     OW38850   7.187   4.901   1.233
 9633SOL    HW238851   7.108   4.866   1.191
 9633SOL    HW338852   7.214   4.973   1.177
 9633SOL    MW438853   7.180   4.906   1.220
 9634SOL     OW38854   6.419   4.214   0.499
 9634SOL    HW238855   6.394   4.302   0.527
 9634SOL    HW338856   6.416   4.217   0.403
 9634SOL    MW438857   6.415   4.226   0.491
 9635SOL     OW38858   5.861   4.242   0.427
 9635SOL    HW238859   5.893   4.330   0.409
 9635SOL    HW338860   5.849   4.240   0.522
 9635SOL    MW438861   5.864   4.254   0.439
 9636SOL     OW38862   5.939   4.655   1.328
 9636SOL    HW238863   6.002   4.602   1.279
 9636SOL    HW338864   5.920   4.729   1.271
 9636SOL    MW438865   5.945   4.657   1.315
 9637SOL     OW38866   6.260   3.997   0.514
 9637SOL    HW238867   6.318   4.073   0.516
 9637SOL    HW338868   6.195   4.018   0.447
 9637SOL    MW438869   6.259   4.009   0.505
 9638SOL     OW38870   6.347   4.924   0.689
 9638SOL    HW238871   6.427   4.927   0.741
 9638SOL    HW338872   6.375   4.891   0.603
 9638SOL    MW438873   6.361   4.920   0.684
 9639SOL     OW38874   6.372   5.265   1.592
 9639SOL    HW238875   6.456   5.291   1.631
 9639SOL    HW338876   6.396   5.209   1.518
 9639SOL    MW438877   6.386   5.261   1.587
 9640SOL     OW38878   6.124   4.428   0.680
 9640SOL    HW238879   6.109   4.348   0.731
 9640SOL    HW338880   6.206   4.463   0.714
 9640SOL    MW438881   6.132   4.420   0.692
 9641SOL     OW38882   6.461   5.114   1.365
 9641SOL    HW238883   6.425   5.180   1.305
 9641SOL    HW338884   6.389   5.052   1.378
 9641SOL    MW438885   6.447   5.114   1.359
 9642SOL     OW38886   6.266   4.254   1.057
 9642SOL    HW238887   6.172   4.250   1.075
 9642SOL    HW338888   6.296   4.163   1.066
 9642SOL    MW438889   6.257   4.242   1.060
 9643SOL     OW38890   6.012   4.668   0.961
 9643SOL    HW238891   5.967   4.675   0.877
 9643SOL    HW338892   5.992   4.751   1.005
 9643SOL    MW438893   6.004   4.680   0.955
 9644SOL     OW38894   5.709   5.514   0.836
 9644SOL    HW238895   5.798   5.506   0.871
 9644SOL    HW338896   5.673   5.426   0.841
 9644SOL    MW438897   5.716   5.501   0.841
 9645SOL     OW38898   6.974   4.906   0.205
 9645SOL    HW238899   6.892   4.942   0.171
 9645SOL    HW338900   7.042   4.949   0.154
 9645SOL    MW438901   6.972   4.916   0.193
 9646SOL     OW38902   5.973   5.041   0.871
 9646SOL    HW238903   5.949   5.094   0.947
 9646SOL    HW338904   6.029   5.099   0.819
 9646SOL    MW438905   5.977   5.056   0.874
 9647SOL     OW38906   6.535   4.685   0.681
 9647SOL    HW238907   6.449   4.672   0.721
 9647SOL    HW338908   6.588   4.612   0.713
 9647SOL    MW438909   6.531   4.674   0.690
 9648SOL     OW38910   5.943   5.337   1.466
 9648SOL    HW238911   5.851   5.313   1.451
 9648SOL    HW338912   5.987   5.254   1.483
 9648SOL    MW438913   5.937   5.322   1.465
 9649SOL     OW38914   6.526   5.047   0.398
 9649SOL    HW238915   6.503   5.109   0.466
 9649SOL    HW338916   6.483   4.965   0.424
 9649SOL    MW438917   6.518   5.043   0.409
 9650SOL     OW38918   7.399   4.048   0.854
 9650SOL    HW238919   7.336   4.028   0.923
 9650SOL    HW338920   7.389   3.977   0.791
 9650SOL    MW438921   7.389   4.035   0.855
 9651SOL     OW38922   7.200   4.820   0.506
 9651SOL    HW238923   7.110   4.820   0.541
 9651SOL    HW338924   7.193   4.866   0.423
 9651SOL    MW438925   7.187   4.826   0.500
 9652SOL     OW38926   7.000   4.455   1.578
 9652SOL    HW238927   7.069   4.393   1.555
 9652SOL    HW338928   6.925   4.429   1.525
 9652SOL    MW438929   7.000   4.442   1.569
 9653SOL     OW38930   5.741   5.335   1.130
 9653SOL    HW238931   5.724   5.281   1.207
 9653SOL    HW338932   5.729   5.425   1.160
 9653SOL    MW438933   5.738   5.339   1.144
 9654SOL     OW38934   6.736   4.842   1.570
 9654SOL    HW238935   6.721   4.935   1.555
 9654SOL    HW338936   6.831   4.832   1.570
 9654SOL    MW438937   6.745   4.852   1.567
 9655SOL     OW38938   6.532   4.266   1.771
 9655SOL    HW238939   6.622   4.267   1.738
 9655SOL    HW338940   6.491   4.191   1.729
 9655SOL    MW438941   6.538   4.256   1.762
 9656SOL     OW38942   7.107   4.798   0.898
 9656SOL    HW238943   7.110   4.732   0.829
 9656SOL    HW338944   7.192   4.841   0.894
 9656SOL    MW438945   7.119   4.794   0.889
 9657SOL     OW38946   6.312   4.070   1.721
 9657SOL    HW238947   6.322   3.996   1.661
 9657SOL    HW338948   6.348   4.039   1.804
 9657SOL    MW438949   6.318   4.056   1.723
 9658SOL     OW38950   6.048   5.437   0.636
 9658SOL    HW238951   6.080   5.525   0.614
 9658SOL    HW338952   6.001   5.409   0.558
 9658SOL    MW438953   6.047   5.445   0.623
 9659SOL     OW38954   7.432   3.799   0.685
 9659SOL    HW238955   7.486   3.750   0.747
 9659SOL    HW338956   7.375   3.733   0.646
 9659SOL    MW438957   7.432   3.783   0.687
 9660SOL     OW38958   6.551   3.752   1.098
 9660SOL    HW238959   6.510   3.830   1.060
 9660SOL    HW338960   6.645   3.770   1.093
 9660SOL    MW438961   6.557   3.764   1.093
 9661SOL     OW38962   7.180   4.356   0.464
 9661SOL    HW238963   7.219   4.356   0.551
 9661SOL    HW338964   7.121   4.432   0.464
 9661SOL    MW438965   7.177   4.367   0.475
 9662SOL     OW38966   6.497   4.723   1.593
 9662SOL    HW238967   6.474   4.703   1.683
 9662SOL    HW338968   6.582   4.767   1.598
 9662SOL    MW438969   6.504   4.726   1.605
 9663SOL     OW38970   6.577   3.860   1.353
 9663SOL    HW238971   6.583   3.822   1.266
 9663SOL    HW338972   6.566   3.954   1.338
 9663SOL    MW438973   6.578   3.868   1.341
 9664SOL     OW38974   6.666   4.349   1.187
 9664SOL    HW238975   6.741   4.378   1.134
 9664SOL    HW338976   6.598   4.414   1.171
 9664SOL    MW438977   6.667   4.361   1.177
 9665SOL     OW38978   7.216   4.317   1.464
 9665SOL    HW238979   7.197   4.226   1.443
 9665SOL    HW338980   7.194   4.366   1.385
 9665SOL    MW438981   7.211   4.310   1.451
 9666SOL     OW38982   7.358   5.411   1.368
 9666SOL    HW238983   7.286   5.373   1.419
 9666SOL    HW338984   7.375   5.496   1.409
 9666SOL    MW438985   7.352   5.416   1.380
 9667SOL     OW38986   6.663   4.055   1.570
 9667SOL    HW238987   6.629   4.094   1.489
 9667SOL    HW338988   6.641   3.963   1.563
 9667SOL    MW438989   6.656   4.048   1.560
 9668SOL     OW38990   7.072   4.869   1.646
 9668SOL    HW238991   7.154   4.910   1.676
 9668SOL    HW338992   7.035   4.831   1.726
 9668SOL    MW438993   7.078   4.870   1.661
 9669SOL     OW38994   7.367   4.242   0.630
 9669SOL    HW238995   7.456   4.211   0.647
 9669SOL    HW338996   7.310   4.182   0.678
 9669SOL    MW438997   7.370   4.230   0.639
 9670SOL     OW38998   5.793   3.956   0.659
 9670SOL    HW238999   5.784   3.896   0.585
 9670SOL    HW339000   5.726   3.927   0.722
 9670SOL    MW439001   5.783   3.943   0.657
 9671SOL     OW39002   6.736   5.049   0.220
 9671SOL    HW239003   6.686   5.051   0.302
 9671SOL    HW339004   6.670   5.067   0.152
 9671SOL    MW439005   6.722   5.051   0.222
 9672SOL     OW39006   5.740   4.129   1.022
 9672SOL    HW239007   5.712   4.220   1.031
 9672SOL    HW339008   5.677   4.090   0.961
 9672SOL    MW439009   5.727   4.135   1.016
 9673SOL     OW39010   6.199   5.467   0.328
 9673SOL    HW239011   6.120   5.425   0.361
 9673SOL    HW339012   6.265   5.450   0.395
 9673SOL    MW439013   6.198   5.459   0.341
 9674SOL     OW39014   7.327   4.987   1.725
 9674SOL    HW239015   7.377   4.913   1.757
 9674SOL    HW339016   7.273   5.014   1.800
 9674SOL    MW439017   7.327   4.981   1.738
 9675SOL     OW39018   7.461   4.622   1.227
 9675SOL    HW239019   7.477   4.660   1.140
 9675SOL    HW339020   7.495   4.688   1.288
 9675SOL    MW439021   7.468   4.635   1.223
 9676SOL     OW39022   7.253   5.331   0.896
 9676SOL    HW239023   7.282   5.398   0.957
 9676SOL    HW339024   7.234   5.255   0.951
 9676SOL    MW439025   7.255   5.331   0.911
 9677SOL     OW39026   5.724   4.404   1.192
 9677SOL    HW239027   5.786   4.434   1.258
 9677SOL    HW339028   5.658   4.473   1.186
 9677SOL    MW439029   5.723   4.417   1.199
 9678SOL     OW39030   5.819   5.513   1.644
 9678SOL    HW239031   5.793   5.581   1.582
 9678SOL    HW339032   5.867   5.450   1.592
 9678SOL    MW439033   5.821   5.513   1.630
 9679SOL     OW39034   5.871   4.832   1.151
 9679SOL    HW239035   5.924   4.907   1.176
 9679SOL    HW339036   5.790   4.870   1.117
 9679SOL    MW439037   5.867   4.847   1.151
 9680SOL     OW39038   6.411   4.736   1.139
 9680SOL    HW239039   6.439   4.645   1.151
 9680SOL    HW339040   6.340   4.730   1.075
 9680SOL    MW439041   6.404   4.724   1.134
 9681SOL     OW39042   5.726   4.601   0.557
 9681SOL    HW239043   5.817   4.616   0.584
 9681SOL    HW339044   5.729   4.522   0.503
 9681SOL    MW439045   5.738   4.593   0.555
 9682SOL     OW39046   5.962   4.309   1.811
 9682SOL    HW239047   5.909   4.389   1.818
 9682SOL    HW339048   6.032   4.321   1.876
 9682SOL    MW439049   5.964   4.322   1.819
 9683SOL     OW39050   6.348   3.859   1.518
 9683SOL    HW239051   6.325   3.767   1.520
 9683SOL    HW339052   6.434   3.861   1.475
 9683SOL    MW439053   6.355   3.849   1.514
 9684SOL     OW39054   6.032   4.383   1.557
 9684SOL    HW239055   6.112   4.433   1.543
 9684SOL    HW339056   6.023   4.377   1.652
 9684SOL    MW439057   6.041   4.389   1.567
 9685SOL     OW39058   6.353   5.533   0.931
 9685SOL    HW239059   6.442   5.548   0.961
 9685SOL    HW339060   6.348   5.580   0.847
 9685SOL    MW439061   6.363   5.541   0.924
 9686SOL     OW39062   7.009   3.908   1.828
 9686SOL    HW239063   7.065   3.835   1.854
 9686SOL    HW339064   6.979   3.946   1.910
 9686SOL    MW439065   7.013   3.903   1.841
 9687SOL     OW39066   5.734   5.213   0.596
 9687SOL    HW239067   5.706   5.252   0.678
 9687SOL    HW339068   5.754   5.122   0.618
 9687SOL    MW439069   5.732   5.205   0.609
 9688SOL     OW39070   6.567   5.256   0.631
 9688SOL    HW239071   6.650   5.210   0.615
 9688SOL    HW339072   6.557   5.255   0.727
 9688SOL    MW439073   6.577   5.249   0.641
 9689SOL     OW39074   7.399   4.401   0.945
 9689SOL    HW239075   7.488   4.431   0.927
 9689SOL    HW339076   7.379   4.341   0.874
 9689SOL    MW439077   7.408   4.398   0.934
 9690SOL     OW39078   7.250   4.580   1.825
 9690SOL    HW239079   7.305   4.504   1.806
 9690SOL    HW339080   7.252   4.588   1.920
 9690SOL    MW439081   7.258   4.571   1.833
 9691SOL     OW39082   6.545   4.142   1.344
 9691SOL    HW239083   6.464   4.183   1.372
 9691SOL    HW339084   6.592   4.210   1.296
 9691SOL    MW439085   6.540   4.157   1.342
 9692SOL     OW39086   6.805   4.480   0.967
 9692SOL    HW239087   6.818   4.574   0.977
 9692SOL    HW339088   6.766   4.470   0.881
 9692SOL    MW439089   6.801   4.491   0.957
 9693SOL     OW39090   6.257   4.675   0.771
 9693SOL    HW239091   6.168   4.666   0.804
 9693SOL    HW339092   6.261   4.765   0.739
 9693SOL    MW439093   6.246   4.686   0.771
 9694SOL     OW39094   7.056   4.258   0.766
 9694SOL    HW239095   7.001   4.179   0.765
 9694SOL    HW339096   7.038   4.299   0.850
 9694SOL    MW439097   7.046   4.253   0.775
 9695SOL     OW39098   6.027   3.945   1.583
 9695SOL    HW239099   5.948   3.963   1.635
 9695SOL    HW339100   6.022   4.007   1.510
 9695SOL    MW439101   6.017   3.955   1.580
 9696SOL     OW39102   6.675   4.462   0.723
 9696SOL    HW239103   6.612   4.394   0.747
 9696SOL    HW339104   6.695   4.443   0.631
 9696SOL    MW439105   6.669   4.449   0.715
 9697SOL     OW39106   6.423   4.766   0.449
 9697SOL    HW239107   6.425   4.740   0.356
 9697SOL    HW339108   6.481   4.703   0.492
 9697SOL    MW439109   6.431   4.755   0.443
 9698SOL     OW39110   6.976   5.326   1.221
 9698SOL    HW239111   6.901   5.372   1.259
 9698SOL    HW339112   6.958   5.233   1.238
 9698SOL    MW439113   6.965   5.320   1.229
 9699SOL     OW39114   6.980   5.534   0.651
 9699SOL    HW239115   6.923   5.487   0.590
 9699SOL    HW339116   7.066   5.495   0.638
 9699SOL    MW439117   6.983   5.525   0.641
 9700SOL     OW39118   6.933   4.010   0.782
 9700SOL    HW239119   6.961   3.942   0.843
 9700SOL    HW339120   6.847   3.981   0.752
 9700SOL    MW439121   6.926   3.997   0.786
 9701SOL     OW39122   5.738   4.944   0.716
 9701SOL    HW239123   5.802   4.976   0.779
 9701SOL    HW339124   5.787   4.880   0.664
 9701SOL    MW439125   5.753   4.940   0.717
 9702SOL     OW39126   6.238   5.020   1.698
 9702SOL    HW239127   6.286   5.103   1.685
 9702SOL    HW339128   6.295   4.968   1.754
 9702SOL    MW439129   6.252   5.024   1.704
 9703SOL     OW39130   5.814   5.262   1.838
 9703SOL    HW239131   5.870   5.186   1.853
 9703SOL    HW339132   5.763   5.240   1.760
 9703SOL    MW439133   5.814   5.249   1.829
 9704SOL     OW39134   6.699   5.099   1.447
 9704SOL    HW239135   6.610   5.105   1.415
 9704SOL    HW339136   6.743   5.178   1.415
 9704SOL    MW439137   6.694   5.109   1.439
 9705SOL     OW39138   5.992   3.767   1.789
 9705SOL    HW239139   5.920   3.732   1.737
 9705SOL    HW339140   6.050   3.808   1.724
 9705SOL    MW439141   5.990   3.768   1.774
 9706SOL     OW39142   6.016   5.257   1.088
 9706SOL    HW239143   6.061   5.319   1.145
 9706SOL    HW339144   5.923   5.276   1.101
 9706SOL    MW439145   6.009   5.267   1.095
 9707SOL     OW39146   7.456   4.786   1.442
 9707SOL    HW239147   7.371   4.799   1.401
 9707SOL    HW339148   7.436   4.750   1.529
 9707SOL    MW439149   7.443   4.782   1.447
 9708SOL     OW39150   6.438   5.325   1.196
 9708SOL    HW239151   6.462   5.314   1.105
 9708SOL    HW339152   6.361   5.382   1.194
 9708SOL    MW439153   6.430   5.330   1.185
 9709SOL     OW39154   6.233   5.030   0.986
 9709SOL    HW239155   6.226   5.009   1.080
 9709SOL    HW339156   6.151   4.998   0.949
 9709SOL    MW439157   6.221   5.024   0.993
 9710SOL     OW39158   7.097   4.040   1.388
 9710SOL    HW239159   7.044   4.042   1.468
 9710SOL    HW339160   7.082   3.953   1.351
 9710SOL    MW439161   7.089   4.030   1.393
 9711SOL     OW39162   7.433   3.964   1.261
 9711SOL    HW239163   7.414   4.031   1.196
 9711SOL    HW339164   7.490   3.902   1.216
 9711SOL    MW439165   7.437   3.965   1.247
 9712SOL     OW39166   5.679   5.122   1.649
 9712SOL    HW239167   5.723   5.055   1.595
 9712SOL    HW339168   5.594   5.084   1.669
 9712SOL    MW439169   5.674   5.108   1.645
 9713SOL     OW39170   6.362   3.797   0.701
 9713SOL    HW239171   6.291   3.858   0.683
 9713SOL    HW339172   6.413   3.794   0.620
 9713SOL    MW439173   6.358   3.803   0.688
 9714SOL     OW39174   6.120   5.037   0.450
 9714SOL    HW239175   6.113   5.069   0.540
 9714SOL    HW339176   6.030   5.021   0.422
 9714SOL    MW439177   6.108   5.039   0.457
 9715SOL     OW39178   6.715   5.430   1.359
 9715SOL    HW239179   6.635   5.415   1.309
 9715SOL    HW339180   6.722   5.525   1.366
 9715SOL    MW439181   6.706   5.441   1.353
 9716SOL     OW39182   6.829   5.395   0.849
 9716SOL    HW239183   6.876   5.468   0.808
 9716SOL    HW339184   6.750   5.434   0.885
 9716SOL    MW439185   6.824   5.410   0.848
 9717SOL     OW39186   7.237   5.490   1.124
 9717SOL    HW239187   7.280   5.460   1.204
 9717SOL    HW339188   7.156   5.438   1.121
 9717SOL    MW439189   7.232   5.479   1.134
 9718SOL     OW39190   6.322   4.454   1.831
 9718SOL    HW239191   6.392   4.396   1.803
 9718SOL    HW339192   6.265   4.399   1.886
 9718SOL    MW439193   6.324   4.441   1.835
 9719SOL     OW39194   7.109   4.666   1.464
 9719SOL    HW239195   7.114   4.719   1.544
 9719SOL    HW339196   7.071   4.583   1.492
 9719SOL    MW439197   7.105   4.661   1.479
 9720SOL     OW39198   6.749   3.801   1.710
 9720SOL    HW239199   6.744   3.708   1.691
 9720SOL    HW339200   6.832   3.812   1.756
 9720SOL    MW439201   6.757   3.790   1.714
 9721SOL     OW39202   7.219   5.072   0.986
 9721SOL    HW239203   7.254   5.054   0.899
 9721SOL    HW339204   7.124   5.073   0.973
 9721SOL    MW439205   7.211   5.069   0.973
 9722SOL     OW39206   6.648   4.720   1.355
 9722SOL    HW239207   6.691   4.755   1.433
 9722SOL    HW339208   6.631   4.797   1.301
 9722SOL    MW439209   6.651   4.735   1.358
 9723SOL     OW39210   7.179   4.207   0.228
 9723SOL    HW239211   7.171   4.278   0.165
 9723SOL    HW339212   7.197   4.251   0.311
 9723SOL    MW439213   7.180   4.221   0.230
 9724SOL     OW39214   6.039   3.862   0.657
 9724SOL    HW239215   6.089   3.905   0.588
 9724SOL    HW339216   5.954   3.906   0.657
 9724SOL    MW439217   6.036   3.875   0.648
 9725SOL     OW39218   5.798   4.924   1.517
 9725SOL    HW239219   5.826   4.877   1.595
 9725SOL    HW339220   5.719   4.879   1.488
 9725SOL    MW439221   5.791   4.913   1.523
 9726SOL     OW39222   6.306   4.251   1.484
 9726SOL    HW239223   6.278   4.339   1.508
 9726SOL    HW339224   6.275   4.195   1.555
 9726SOL    MW439225   6.298   4.254   1.496
 9727SOL     OW39226   5.961   4.647   0.697
 9727SOL    HW239227   6.019   4.703   0.645
 9727SOL    HW339228   6.005   4.562   0.699
 9727SOL    MW439229   5.974   4.644   0.690
 9728SOL     OW39230   7.101   3.999   0.534
 9728SOL    HW239231   7.023   3.949   0.559
 9728SOL    HW339232   7.072   4.090   0.534
 9728SOL    MW439233   7.087   4.003   0.537
 9729SOL     OW39234   6.687   3.961   0.693
 9729SOL    HW239235   6.707   4.036   0.637
 9729SOL    HW339236   6.667   4.000   0.778
 9729SOL    MW439237   6.688   3.977   0.697
 9730SOL     OW39238   7.447   4.734   1.712
 9730SOL    HW239239   7.360   4.714   1.748
 9730SOL    HW339240   7.501   4.660   1.737
 9730SOL    MW439241   7.442   4.723   1.720
 9731SOL     OW39242   5.668   5.247   0.869
 9731SOL    HW239243   5.700   5.251   0.960
 9731SOL    HW339244   5.573   5.255   0.877
 9731SOL    MW439245   5.660   5.250   0.882
 9732SOL     OW39246   5.623   4.373   0.416
 9732SOL    HW239247   5.563   4.345   0.486
 9732SOL    HW339248   5.697   4.313   0.422
 9732SOL    MW439249   5.625   4.362   0.425
 9733SOL     OW39250   7.191   5.585   1.850
 9733SOL    HW239251   7.236   5.509   1.815
 9733SOL    HW339252   7.229   5.598   1.937
 9733SOL    MW439253   7.201   5.578   1.856
 9734SOL     OW39254   6.791   5.104   0.576
 9734SOL    HW239255   6.814   5.055   0.654
 9734SOL    HW339256   6.872   5.146   0.548
 9734SOL    MW439257   6.804   5.104   0.583
 9735SOL     OW39258   6.049   4.112   1.305
 9735SOL    HW239259   6.082   4.193   1.345
 9735SOL    HW339260   6.022   4.138   1.217
 9735SOL    MW439261   6.048   4.126   1.299
 9736SOL     OW39262   6.003   4.079   1.041
 9736SOL    HW239263   6.033   3.993   1.012
 9736SOL    HW339264   5.908   4.072   1.044
 9736SOL    MW439265   5.995   4.068   1.039
 9737SOL     OW39266   6.832   4.288   1.732
 9737SOL    HW239267   6.884   4.223   1.685
 9737SOL    HW339268   6.790   4.339   1.662
 9737SOL    MW439269   6.833   4.285   1.715
 9738SOL     OW39270   6.931   4.083   1.593
 9738SOL    HW239271   6.838   4.067   1.580
 9738SOL    HW339272   6.957   4.021   1.661
 9738SOL    MW439273   6.921   4.073   1.600
 9739SOL     OW39274   6.146   3.857   0.932
 9739SOL    HW239275   6.156   3.766   0.958
 9739SOL    HW339276   6.102   3.853   0.847
 9739SOL    MW439277   6.142   3.845   0.924
 9740SOL     OW39278   6.240   5.472   1.478
 9740SOL    HW239279   6.157   5.457   1.523
 9740SOL    HW339280   6.299   5.405   1.513
 9740SOL    MW439281   6.238   5.462   1.488
 9741SOL     OW39282   7.297   4.179   1.103
 9741SOL    HW239283   7.230   4.212   1.163
 9741SOL    HW339284   7.340   4.257   1.069
 9741SOL    MW439285   7.295   4.194   1.107
 9742SOL     OW39286   7.475   4.899   1.073
 9742SOL    HW239287   7.468   4.839   0.998
 9742SOL    HW339288   7.401   4.959   1.062
 9742SOL    MW439289   7.465   4.899   1.062
 9743SOL     OW39290   6.857   4.761   0.991
 9743SOL    HW239291   6.871   4.733   1.082
 9743SOL    HW339292   6.943   4.792   0.963
 9743SOL    MW439293   6.870   4.762   1.000
 9744SOL     OW39294   6.940   4.256   1.270
 9744SOL    HW239295   6.961   4.257   1.177
 9744SOL    HW339296   6.985   4.178   1.303
 9744SOL    MW439297   6.947   4.246   1.262
 9745SOL     OW39298   7.433   4.387   1.812
 9745SOL    HW239299   7.470   4.332   1.881
 9745SOL    HW339300   7.458   4.344   1.730
 9745SOL    MW439301   7.440   4.375   1.811
 9746SOL     OW39302   6.980   4.685   1.863
 9746SOL    HW239303   7.046   4.633   1.817
 9746SOL    HW339304   7.000   4.672   1.956
 9746SOL    MW439305   6.991   4.676   1.870
 9747SOL     OW39306   6.067   5.009   1.221
 9747SOL    HW239307   6.079   5.036   1.312
 9747SOL    HW339308   6.048   5.090   1.174
 9747SOL    MW439309   6.066   5.024   1.226
 9748SOL     OW39310   6.351   3.989   1.044
 9748SOL    HW239311   6.324   3.991   1.135
 9748SOL    HW339312   6.281   3.941   0.999
 9748SOL    MW439313   6.339   3.985   1.051
 9749SOL     OW39314   6.205   5.481   1.206
 9749SOL    HW239315   6.257   5.558   1.183
 9749SOL    HW339316   6.214   5.473   1.301
 9749SOL    MW439317   6.214   5.488   1.217
 9750SOL     OW39318   7.107   5.066   1.438
 9750SOL    HW239319   7.092   4.995   1.501
 9750SOL    HW339320   7.153   5.024   1.366
 9750SOL    MW439321   7.113   5.050   1.438
 9751SOL     OW39322   6.181   4.797   1.555
 9751SOL    HW239323   6.218   4.802   1.467
 9751SOL    HW339324   6.220   4.870   1.602
 9751SOL    MW439325   6.191   4.807   1.550
 9752SOL     OW39326   6.361   4.840   1.367
 9752SOL    HW239327   6.420   4.786   1.420
 9752SOL    HW339328   6.376   4.812   1.277
 9752SOL    MW439329   6.371   4.829   1.363
 9753SOL     OW39330   7.172   5.329   1.539
 9753SOL    HW239331   7.214   5.314   1.624
 9753SOL    HW339332   7.163   5.242   1.501
 9753SOL    MW439333   7.176   5.317   1.546
 9754SOL     OW39334   6.832   3.808   1.130
 9754SOL    HW239335   6.887   3.817   1.052
 9754SOL    HW339336   6.887   3.842   1.201
 9754SOL    MW439337   6.846   3.813   1.129
 9755SOL     OW39338   5.839   4.721   0.314
 9755SOL    HW239339   5.776   4.737   0.243
 9755SOL    HW339340   5.786   4.684   0.385
 9755SOL    MW439341   5.824   4.718   0.314
 9756SOL     OW39342   6.734   5.306   0.325
 9756SOL    HW239343   6.742   5.224   0.276
 9756SOL    HW339344   6.653   5.345   0.292
 9756SOL    MW439345   6.724   5.301   0.315
 9757SOL     OW39346   5.993   5.464   0.894
 9757SOL    HW239347   5.997   5.375   0.929
 9757SOL    HW339348   6.019   5.455   0.803
 9757SOL    MW439349   5.996   5.452   0.886
 9758SOL     OW39350   6.610   4.942   1.137
 9758SOL    HW239351   6.542   4.876   1.153
 9758SOL    HW339352   6.628   4.936   1.044
 9758SOL    MW439353   6.603   4.933   1.128
 9759SOL     OW39354   5.699   5.217   1.388
 9759SOL    HW239355   5.689   5.175   1.474
 9759SOL    HW339356   5.620   5.270   1.378
 9759SOL    MW439357   5.688   5.218   1.399
 9760SOL     OW39358   6.603   4.081   0.958
 9760SOL    HW239359   6.533   4.033   1.003
 9760SOL    HW339360   6.635   4.144   1.022
 9760SOL    MW439361   6.598   4.083   0.972
 9761SOL     OW39362   6.254   4.517   1.578
 9761SOL    HW239363   6.247   4.612   1.566
 9761SOL    HW339364   6.263   4.506   1.673
 9761SOL    MW439365   6.255   4.529   1.588
 9762SOL     OW39366   5.975   5.032   1.836
 9762SOL    HW239367   6.047   5.034   1.773
 9762SOL    HW339368   5.945   4.941   1.835
 9762SOL    MW439369   5.980   5.021   1.828
 9763SOL     OW39370   7.059   3.795   1.303
 9763SOL    HW239371   7.130   3.741   1.267
 9763SOL    HW339372   7.058   3.774   1.396
 9763SOL    MW439373   7.068   3.786   1.311
 9764SOL     OW39374   7.259   5.325   1.787
 9764SOL    HW239375   7.232   5.322   1.878
 9764SOL    HW339376   7.355   5.329   1.790
 9764SOL    MW439377   7.269   5.325   1.799
 9765SOL     OW39378   6.070   4.187   0.771
 9765SOL    HW239379   6.141   4.135   0.734
 9765SOL    HW339380   6.056   4.152   0.858
 9765SOL    MW439381   6.078   4.176   0.778
 9766SOL     OW39382   5.625   5.522   1.843
 9766SOL    HW239383   5.675   5.500   1.765
 9766SOL    HW339384   5.633   5.617   1.851
 9766SOL    MW439385   5.633   5.531   1.834
 9767SOL     OW39386   6.386   5.280   0.847
 9767SOL    HW239387   6.314   5.217   0.860
 9767SOL    HW339388   6.347   5.365   0.865
 9767SOL    MW439389   6.370   5.283   0.850
 9768SOL     OW39390   6.706   4.128   0.495
 9768SOL    HW239391   6.728   4.065   0.427
 9768SOL    HW339392   6.611   4.120   0.506
 9768SOL    MW439393   6.696   4.119   0.487
 9769SOL     OW39394   5.622   4.285   1.570
 9769SOL    HW239395   5.686   4.351   1.545
 9769SOL    HW339396   5.541   4.312   1.527
 9769SOL    MW439397   5.620   4.297   1.562
 9770SOL     OW39398   7.360   5.192   0.527
 9770SOL    HW239399   7.330   5.125   0.588
 9770SOL    HW339400   7.454   5.198   0.541
 9770SOL    MW439401   7.368   5.184   0.537
 9771SOL     OW39402   6.916   4.869   0.457
 9771SOL    HW239403   6.888   4.955   0.490
 9771SOL    HW339404   6.944   4.885   0.367
 9771SOL    MW439405   6.916   4.883   0.449
 9772SOL     OW39406   6.578   3.789   0.510
 9772SOL    HW239407   6.615   3.848   0.575
 9772SOL    HW339408   6.555   3.845   0.436
 9772SOL    MW439409   6.579   3.804   0.509
 9773SOL     OW39410   7.431   4.671   0.932
 9773SOL    HW239411   7.422   4.703   0.843
 9773SOL    HW339412   7.384   4.587   0.932
 9773SOL    MW439413   7.424   4.664   0.922
 9774SOL     OW39414   5.807   4.511   1.511
 9774SOL    HW239415   5.828   4.580   1.449
 9774SOL    HW339416   5.887   4.458   1.516
 9774SOL    MW439417   5.820   4.512   1.505
 9775SOL     OW39418   7.343   4.602   0.633
 9775SOL    HW239419   7.437   4.591   0.621
 9775SOL    HW339420   7.319   4.674   0.574
 9775SOL    MW439421   7.353   4.610   0.624
 9776SOL     OW39422   5.792   4.526   1.778
 9776SOL    HW239423   5.718   4.470   1.804
 9776SOL    HW339424   5.787   4.529   1.683
 9776SOL    MW439425   5.781   4.519   1.768
 9777SOL     OW39426   5.958   3.813   1.228
 9777SOL    HW239427   6.001   3.897   1.248
 9777SOL    HW339428   6.031   3.751   1.221
 9777SOL    MW439429   5.973   3.816   1.229
 9778SOL     OW39430   5.999   4.480   0.406
 9778SOL    HW239431   5.999   4.575   0.391
 9778SOL    HW339432   6.076   4.464   0.460
 9778SOL    MW439433   6.009   4.491   0.411
 9779SOL     OW39434   6.775   4.339   1.470
 9779SOL    HW239435   6.811   4.312   1.386
 9779SOL    HW339436   6.688   4.373   1.449
 9779SOL    MW439437   6.769   4.340   1.457
 9780SOL     OW39438   5.758   4.211   0.695
 9780SOL    HW239439   5.820   4.218   0.768
 9780SOL    HW339440   5.758   4.118   0.672
 9780SOL    MW439441   5.766   4.200   0.702
 9781SOL     OW39442   6.440   4.472   1.179
 9781SOL    HW239443   6.398   4.390   1.155
 9781SOL    HW339444   6.441   4.471   1.275
 9781SOL    MW439445   6.433   4.461   1.188
 9782SOL     OW39446   7.111   5.605   1.578
 9782SOL    HW239447   7.114   5.511   1.561
 9782SOL    HW339448   7.134   5.613   1.670
 9782SOL    MW439449   7.114   5.593   1.588
 9783SOL     OW39450   6.244   3.942   1.284
 9783SOL    HW239451   6.175   4.005   1.305
 9783SOL    HW339452   6.271   3.906   1.369
 9783SOL    MW439453   6.238   3.945   1.297
 9784SOL     OW39454   5.627   4.783   0.153
 9784SOL    HW239455   5.596   4.848   0.216
 9784SOL    HW339456   5.576   4.705   0.172
 9784SOL    MW439457   5.617   4.780   0.163
 9785SOL     OW39458   7.039   3.795   0.901
 9785SOL    HW239459   7.127   3.804   0.938
 9785SOL    HW339460   7.049   3.736   0.827
 9785SOL    MW439461   7.053   3.789   0.895
 9786SOL     OW39462   7.071   4.534   0.745
 9786SOL    HW239463   7.151   4.549   0.694
 9786SOL    HW339464   7.064   4.439   0.751
 9786SOL    MW439465   7.080   4.523   0.740
 9787SOL     OW39466   6.521   4.460   1.442
 9787SOL    HW239467   6.590   4.527   1.439
 9787SOL    HW339468   6.454   4.498   1.498
 9787SOL    MW439469   6.522   4.473   1.449
 9788SOL     OW39470   5.939   4.760   1.690
 9788SOL    HW239471   5.893   4.676   1.692
 9788SOL    HW339472   5.996   4.754   1.614
 9788SOL    MW439473   5.941   4.748   1.682
 9789SOL     OW39474   6.190   5.135   0.691
 9789SOL    HW239475   6.255   5.068   0.712
 9789SOL    HW339476   6.242   5.212   0.668
 9789SOL    MW439477   6.205   5.137   0.690
 9790SOL     OW39478   6.451   4.300   0.821
 9790SOL    HW239479   6.391   4.318   0.893
 9790SOL    HW339480   6.485   4.212   0.840
 9790SOL    MW439481   6.447   4.290   0.834
 9791SOL     OW39482   7.392   3.799   1.490
 9791SOL    HW239483   7.313   3.845   1.518
 9791SOL    HW339484   7.427   3.853   1.419
 9791SOL    MW439485   7.386   3.812   1.484
 9792SOL     OW39486   6.676   4.883   0.840
 9792SOL    HW239487   6.768   4.864   0.858
 9792SOL    HW339488   6.649   4.813   0.780
 9792SOL    MW439489   6.684   4.871   0.834
 9793SOL     OW39490   6.950   5.121   0.936
 9793SOL    HW239491   6.923   5.205   0.901
 9793SOL    HW339492   6.910   5.116   1.023
 9793SOL    MW439493   6.943   5.130   0.942
 9794SOL     OW39494   6.869   5.069   1.204
 9794SOL    HW239495   6.880   5.036   1.293
 9794SOL    HW339496   6.788   5.028   1.173
 9794SOL    MW439497   6.859   5.061   1.210
 9795SOL     OW39498   5.882   4.427   0.974
 9795SOL    HW239499   5.832   4.426   1.055
 9795SOL    HW339500   5.902   4.519   0.958
 9795SOL    MW439501   5.878   4.439   0.982
 9796SOL     OW39502   6.949   5.191   1.736
 9796SOL    HW239503   6.949   5.285   1.752
 9796SOL    HW339504   6.994   5.181   1.652
 9796SOL    MW439505   6.955   5.201   1.727
 9797SOL     OW39506   6.477   4.472   0.411
 9797SOL    HW239507   6.457   4.458   0.318
 9797SOL    HW339508   6.570   4.451   0.418
 9797SOL    MW439509   6.487   4.467   0.400
 9798SOL     OW39510   5.804   4.095   1.715
 9798SOL    HW239511   5.761   4.154   1.652
 9798SOL    HW339512   5.872   4.150   1.755
 9798SOL    MW439513   5.808   4.110   1.712
 9799SOL     OW39514   6.916   4.715   1.260
 9799SOL    HW239515   6.979   4.712   1.333
 9799SOL    HW339516   6.832   4.733   1.302
 9799SOL    MW439517   6.912   4.717   1.275
 9800SOL     OW39518   6.460   5.430   0.449
 9800SOL    HW239519   6.518   5.501   0.476
 9800SOL    HW339520   6.483   5.358   0.507
 9800SOL    MW439521   6.471   5.430   0.460
 9801SOL     OW39522   7.255   3.892   1.039
 9801SOL    HW239523   7.300   3.810   1.058
 9801SOL    HW339524   7.275   3.948   1.115
 9801SOL    MW439525   7.265   3.888   1.051
 9802SOL     OW39526   5.703   3.735   1.138
 9802SOL    HW239527   5.694   3.736   1.043
 9802SOL    HW339528   5.797   3.747   1.153
 9802SOL    MW439529   5.715   3.738   1.129
 9803SOL     OW39530   7.340   4.928   0.758
 9803SOL    HW239531   7.319   4.874   0.681
 9803SOL    HW339532   7.436   4.926   0.762
 9803SOL    MW439533   7.349   4.921   0.747
 9804SOL     OW39534   6.032   5.073   1.501
 9804SOL    HW239535   5.953   5.023   1.524
 9804SOL    HW339536   6.102   5.032   1.551
 9804SOL    MW439537   6.030   5.061   1.511
 9805SOL     OW39538   5.916   3.862   0.184
 9805SOL    HW239539   5.845   3.917   0.152
 9805SOL    HW339540   5.958   3.828   0.105
 9805SOL    MW439541   5.912   3.864   0.170
 9806SOL     OW39542   7.040   4.359   1.020
 9806SOL    HW239543   6.963   4.405   0.986
 9806SOL    HW339544   7.097   4.428   1.054
 9806SOL    MW439545   7.037   4.374   1.020
 9807SOL     OW39546   7.341   4.575   2.125
 9807SOL    HW239547   7.382   4.517   2.190
 9807SOL    HW339548   7.248   4.567   2.142
 9807SOL    MW439549   7.335   4.567   2.135
 9808SOL     OW39550   7.207   4.507   3.120
 9808SOL    HW239551   7.162   4.574   3.171
 9808SOL    HW339552   7.295   4.543   3.106
 9808SOL    MW439553   7.213   4.520   3.124
 9809SOL     OW39554   6.135   4.758   2.354
 9809SOL    HW239555   6.225   4.733   2.338
 9809SOL    HW339556   6.131   4.851   2.331
 9809SOL    MW439557   6.147   4.767   2.349
 9810SOL     OW39558   7.251   5.461   2.496
 9810SOL    HW239559   7.263   5.407   2.574
 9810SOL    HW339560   7.288   5.409   2.425
 9810SOL    MW439561   7.257   5.446   2.497
 9811SOL     OW39562   6.630   5.346   3.497
 9811SOL    HW239563   6.671   5.382   3.418
 9811SOL    HW339564   6.665   5.257   3.504
 9811SOL    MW439565   6.641   5.339   3.488
 9812SOL     OW39566   7.187   4.901   3.101
 9812SOL    HW239567   7.108   4.866   3.059
 9812SOL    HW339568   7.214   4.973   3.045
 9812SOL    MW439569   7.180   4.906   3.088
 9813SOL     OW39570   6.419   4.214   2.367
 9813SOL    HW239571   6.394   4.302   2.395
 9813SOL    HW339572   6.416   4.217   2.271
 9813SOL    MW439573   6.415   4.226   2.359
 9814SOL     OW39574   5.861   4.242   2.295
 9814SOL    HW239575   5.893   4.330   2.277
 9814SOL    HW339576   5.849   4.240   2.390
 9814SOL    MW439577   5.864   4.254   2.307
 9815SOL     OW39578   5.939   4.655   3.196
 9815SOL    HW239579   6.002   4.602   3.147
 9815SOL    HW339580   5.920   4.729   3.139
 9815SOL    MW439581   5.945   4.657   3.183
 9816SOL     OW39582   6.260   3.997   2.382
 9816SOL    HW239583   6.318   4.073   2.384
 9816SOL    HW339584   6.195   4.018   2.315
 9816SOL    MW439585   6.259   4.009   2.373
 9817SOL     OW39586   6.347   4.924   2.557
 9817SOL    HW239587   6.427   4.927   2.609
 9817SOL    HW339588   6.375   4.891   2.471
 9817SOL    MW439589   6.361   4.920   2.552
 9818SOL     OW39590   6.372   5.265   3.460
 9818SOL    HW239591   6.456   5.291   3.499
 9818SOL    HW339592   6.396   5.209   3.386
 9818SOL    MW439593   6.386   5.261   3.455
 9819SOL     OW39594   6.124   4.428   2.548
 9819SOL    HW239595   6.109   4.348   2.599
 9819SOL    HW339596   6.206   4.463   2.582
 9819SOL    MW439597   6.132   4.420   2.560
 9820SOL     OW39598   6.461   5.114   3.233
 9820SOL    HW239599   6.425   5.180   3.173
 9820SOL    HW339600   6.389   5.052   3.246
 9820SOL    MW439601   6.447   5.114   3.227
 9821SOL     OW39602   6.266   4.254   2.925
 9821SOL    HW239603   6.172   4.250   2.943
 9821SOL    HW339604   6.296   4.163   2.934
 9821SOL    MW439605   6.257   4.242   2.928
 9822SOL     OW39606   6.012   4.668   2.829
 9822SOL    HW239607   5.967   4.675   2.745
 9822SOL    HW339608   5.992   4.751   2.873
 9822SOL    MW439609   6.004   4.680   2.823
 9823SOL     OW39610   5.709   5.514   2.704
 9823SOL    HW239611   5.798   5.506   2.739
 9823SOL    HW339612   5.673   5.426   2.709
 9823SOL    MW439613   5.716   5.501   2.709
 9824SOL     OW39614   6.974   4.906   2.073
 9824SOL    HW239615   6.892   4.942   2.039
 9824SOL    HW339616   7.042   4.949   2.022
 9824SOL    MW439617   6.972   4.916   2.061
 9825SOL     OW39618   5.973   5.041   2.739
 9825SOL    HW239619   5.949   5.094   2.815
 9825SOL    HW339620   6.029   5.099   2.687
 9825SOL    MW439621   5.977   5.056   2.742
 9826SOL     OW39622   6.535   4.685   2.549
 9826SOL    HW239623   6.449   4.672   2.589
 9826SOL    HW339624   6.588   4.612   2.581
 9826SOL    MW439625   6.531   4.674   2.558
 9827SOL     OW39626   5.943   5.337   3.334
 9827SOL    HW239627   5.851   5.313   3.319
 9827SOL    HW339628   5.987   5.254   3.351
 9827SOL    MW439629   5.937   5.322   3.333
 9828SOL     OW39630   6.526   5.047   2.266
 9828SOL    HW239631   6.503   5.109   2.334
 9828SOL    HW339632   6.483   4.965   2.292
 9828SOL    MW439633   6.518   5.043   2.277
 9829SOL     OW39634   7.399   4.048   2.722
 9829SOL    HW239635   7.336   4.028   2.791
 9829SOL    HW339636   7.389   3.977   2.659
 9829SOL    MW439637   7.389   4.035   2.723
 9830SOL     OW39638   6.023   4.020   2.234
 9830SOL    HW239639   5.997   3.982   2.150
 9830SOL    HW339640   5.960   4.090   2.250
 9830SOL    MW439641   6.012   4.023   2.225
 9831SOL     OW39642   5.858   4.981   2.271
 9831SOL    HW239643   5.806   5.049   2.227
 9831SOL    HW339644   5.855   4.907   2.211
 9831SOL    MW439645   5.850   4.980   2.258
 9832SOL     OW39646   6.520   5.444   2.049
 9832SOL    HW239647   6.475   5.460   2.132
 9832SOL    HW339648   6.451   5.409   1.991
 9832SOL    MW439649   6.506   5.441   2.051
 9833SOL     OW39650   7.455   4.217   2.024
 9833SOL    HW239651   7.364   4.219   2.052
 9833SOL    HW339652   7.500   4.279   2.082
 9833SOL    MW439653   7.448   4.225   2.034
 9834SOL     OW39654   7.200   4.820   2.374
 9834SOL    HW239655   7.110   4.820   2.409
 9834SOL    HW339656   7.193   4.866   2.291
 9834SOL    MW439657   7.187   4.826   2.368
 9835SOL     OW39658   7.000   4.455   3.446
 9835SOL    HW239659   7.069   4.393   3.423
 9835SOL    HW339660   6.925   4.429   3.393
 9835SOL    MW439661   7.000   4.442   3.437
 9836SOL     OW39662   5.741   5.335   2.998
 9836SOL    HW239663   5.724   5.281   3.075
 9836SOL    HW339664   5.729   5.425   3.028
 9836SOL    MW439665   5.738   5.339   3.012
 9837SOL     OW39666   6.736   4.842   3.438
 9837SOL    HW239667   6.721   4.935   3.423
 9837SOL    HW339668   6.831   4.832   3.438
 9837SOL    MW439669   6.745   4.852   3.435
 9838SOL     OW39670   6.532   4.266   3.639
 9838SOL    HW239671   6.622   4.267   3.606
 9838SOL    HW339672   6.491   4.191   3.597
 9838SOL    MW439673   6.538   4.256   3.630
 9839SOL     OW39674   7.107   4.798   2.766
 9839SOL    HW239675   7.110   4.732   2.697
 9839SOL    HW339676   7.192   4.841   2.762
 9839SOL    MW439677   7.119   4.794   2.757
 9840SOL     OW39678   6.727   4.401   2.335
 9840SOL    HW239679   6.753   4.425   2.246
 9840SOL    HW339680   6.709   4.308   2.331
 9840SOL    MW439681   6.729   4.393   2.322
 9841SOL     OW39682   7.392   5.021   2.186
 9841SOL    HW239683   7.348   5.062   2.261
 9841SOL    HW339684   7.449   5.089   2.151
 9841SOL    MW439685   7.394   5.035   2.191
 9842SOL     OW39686   6.312   4.070   3.589
 9842SOL    HW239687   6.322   3.996   3.529
 9842SOL    HW339688   6.348   4.039   3.672
 9842SOL    MW439689   6.318   4.056   3.591
 9843SOL     OW39690   6.048   5.437   2.504
 9843SOL    HW239691   6.080   5.525   2.482
 9843SOL    HW339692   6.001   5.409   2.426
 9843SOL    MW439693   6.047   5.445   2.491
 9844SOL     OW39694   7.432   3.799   2.553
 9844SOL    HW239695   7.486   3.750   2.615
 9844SOL    HW339696   7.375   3.733   2.514
 9844SOL    MW439697   7.432   3.783   2.555
 9845SOL     OW39698   5.764   5.497   2.081
 9845SOL    HW239699   5.793   5.587   2.073
 9845SOL    HW339700   5.714   5.480   2.002
 9845SOL    MW439701   5.762   5.505   2.070
 9846SOL     OW39702   6.551   3.752   2.966
 9846SOL    HW239703   6.510   3.830   2.928
 9846SOL    HW339704   6.645   3.770   2.961
 9846SOL    MW439705   6.557   3.764   2.961
 9847SOL     OW39706   7.168   5.305   2.052
 9847SOL    HW239707   7.216   5.374   2.098
 9847SOL    HW339708   7.089   5.349   2.021
 9847SOL    MW439709   7.163   5.319   2.055
 9848SOL     OW39710   6.566   4.430   1.996
 9848SOL    HW239711   6.568   4.377   1.917
 9848SOL    HW339712   6.654   4.467   2.002
 9848SOL    MW439713   6.578   4.429   1.985
 9849SOL     OW39714   7.180   4.356   2.332
 9849SOL    HW239715   7.219   4.356   2.419
 9849SOL    HW339716   7.121   4.432   2.332
 9849SOL    MW439717   7.177   4.367   2.343
 9850SOL     OW39718   6.497   4.723   3.461
 9850SOL    HW239719   6.474   4.703   3.551
 9850SOL    HW339720   6.582   4.767   3.466
 9850SOL    MW439721   6.504   4.726   3.473
 9851SOL     OW39722   6.577   3.860   3.221
 9851SOL    HW239723   6.583   3.822   3.134
 9851SOL    HW339724   6.566   3.954   3.206
 9851SOL    MW439725   6.578   3.868   3.209
 9852SOL     OW39726   6.666   4.349   3.055
 9852SOL    HW239727   6.741   4.378   3.002
 9852SOL    HW339728   6.598   4.414   3.039
 9852SOL    MW439729   6.667   4.361   3.045
 9853SOL     OW39730   7.216   4.317   3.332
 9853SOL    HW239731   7.197   4.226   3.311
 9853SOL    HW339732   7.194   4.366   3.253
 9853SOL    MW439733   7.211   4.310   3.319
 9854SOL     OW39734   7.358   5.411   3.236
 9854SOL    HW239735   7.286   5.373   3.287
 9854SOL    HW339736   7.375   5.496   3.277
 9854SOL    MW439737   7.352   5.416   3.248
 9855SOL     OW39738   6.663   4.055   3.438
 9855SOL    HW239739   6.629   4.094   3.357
 9855SOL    HW339740   6.641   3.963   3.431
 9855SOL    MW439741   6.656   4.048   3.428
 9856SOL     OW39742   7.072   4.869   3.514
 9856SOL    HW239743   7.154   4.910   3.544
 9856SOL    HW339744   7.035   4.831   3.594
 9856SOL    MW439745   7.078   4.870   3.529
 9857SOL     OW39746   7.367   4.242   2.498
 9857SOL    HW239747   7.456   4.211   2.515
 9857SOL    HW339748   7.310   4.182   2.546
 9857SOL    MW439749   7.370   4.230   2.507
 9858SOL     OW39750   5.793   3.956   2.527
 9858SOL    HW239751   5.784   3.896   2.453
 9858SOL    HW339752   5.726   3.927   2.590
 9858SOL    MW439753   5.783   3.943   2.525
 9859SOL     OW39754   6.736   5.049   2.088
 9859SOL    HW239755   6.686   5.051   2.170
 9859SOL    HW339756   6.670   5.067   2.020
 9859SOL    MW439757   6.722   5.051   2.090
 9860SOL     OW39758   5.740   4.129   2.890
 9860SOL    HW239759   5.712   4.220   2.899
 9860SOL    HW339760   5.677   4.090   2.829
 9860SOL    MW439761   5.727   4.135   2.884
 9861SOL     OW39762   6.199   5.467   2.196
 9861SOL    HW239763   6.120   5.425   2.229
 9861SOL    HW339764   6.265   5.450   2.263
 9861SOL    MW439765   6.198   5.459   2.209
 9862SOL     OW39766   7.327   4.987   3.593
 9862SOL    HW239767   7.377   4.913   3.625
 9862SOL    HW339768   7.273   5.014   3.668
 9862SOL    MW439769   7.327   4.981   3.606
 9863SOL     OW39770   6.335   4.882   1.903
 9863SOL    HW239771   6.257   4.828   1.890
 9863SOL    HW339772   6.306   4.955   1.956
 9863SOL    MW439773   6.321   4.884   1.908
 9864SOL     OW39774   7.461   4.622   3.095
 9864SOL    HW239775   7.477   4.660   3.008
 9864SOL    HW339776   7.495   4.688   3.156
 9864SOL    MW439777   7.468   4.635   3.091
 9865SOL     OW39778   7.253   5.331   2.764
 9865SOL    HW239779   7.282   5.398   2.825
 9865SOL    HW339780   7.234   5.255   2.819
 9865SOL    MW439781   7.255   5.331   2.779
 9866SOL     OW39782   6.916   5.398   1.971
 9866SOL    HW239783   6.842   5.361   2.021
 9866SOL    HW339784   6.924   5.488   2.004
 9866SOL    MW439785   6.907   5.405   1.983
 9867SOL     OW39786   5.724   4.404   3.060
 9867SOL    HW239787   5.786   4.434   3.126
 9867SOL    HW339788   5.658   4.473   3.054
 9867SOL    MW439789   5.723   4.417   3.067
 9868SOL     OW39790   7.140   5.072   1.913
 9868SOL    HW239791   7.087   5.121   1.849
 9868SOL    HW339792   7.171   5.138   1.974
 9868SOL    MW439793   7.138   5.086   1.911
 9869SOL     OW39794   6.365   3.961   1.968
 9869SOL    HW239795   6.313   3.881   1.956
 9869SOL    HW339796   6.452   3.938   1.936
 9869SOL    MW439797   6.368   3.947   1.962
 9870SOL     OW39798   5.819   5.513   3.512
 9870SOL    HW239799   5.793   5.581   3.450
 9870SOL    HW339800   5.867   5.450   3.460
 9870SOL    MW439801   5.821   5.513   3.498
 9871SOL     OW39802   5.871   4.832   3.019
 9871SOL    HW239803   5.924   4.907   3.044
 9871SOL    HW339804   5.790   4.870   2.985
 9871SOL    MW439805   5.867   4.847   3.019
 9872SOL     OW39806   6.411   4.736   3.007
 9872SOL    HW239807   6.439   4.645   3.019
 9872SOL    HW339808   6.340   4.730   2.943
 9872SOL    MW439809   6.404   4.724   3.002
 9873SOL     OW39810   5.726   4.601   2.425
 9873SOL    HW239811   5.817   4.616   2.452
 9873SOL    HW339812   5.729   4.522   2.371
 9873SOL    MW439813   5.738   4.593   2.423
 9874SOL     OW39814   5.962   4.309   3.679
 9874SOL    HW239815   5.909   4.389   3.686
 9874SOL    HW339816   6.032   4.321   3.744
 9874SOL    MW439817   5.964   4.322   3.687
 9875SOL     OW39818   6.348   3.859   3.386
 9875SOL    HW239819   6.325   3.767   3.388
 9875SOL    HW339820   6.434   3.861   3.343
 9875SOL    MW439821   6.355   3.849   3.382
 9876SOL     OW39822   6.032   4.383   3.425
 9876SOL    HW239823   6.112   4.433   3.411
 9876SOL    HW339824   6.023   4.377   3.520
 9876SOL    MW439825   6.041   4.389   3.435
 9877SOL     OW39826   6.353   5.533   2.799
 9877SOL    HW239827   6.442   5.548   2.829
 9877SOL    HW339828   6.348   5.580   2.715
 9877SOL    MW439829   6.363   5.541   2.792
 9878SOL     OW39830   7.009   3.908   3.696
 9878SOL    HW239831   7.065   3.835   3.722
 9878SOL    HW339832   6.979   3.946   3.778
 9878SOL    MW439833   7.013   3.903   3.709
 9879SOL     OW39834   5.734   5.213   2.464
 9879SOL    HW239835   5.706   5.252   2.546
 9879SOL    HW339836   5.754   5.122   2.486
 9879SOL    MW439837   5.732   5.205   2.477
 9880SOL     OW39838   6.567   5.256   2.499
 9880SOL    HW239839   6.650   5.210   2.483
 9880SOL    HW339840   6.557   5.255   2.595
 9880SOL    MW439841   6.577   5.249   2.509
 9881SOL     OW39842   7.399   4.401   2.813
 9881SOL    HW239843   7.488   4.431   2.795
 9881SOL    HW339844   7.379   4.341   2.742
 9881SOL    MW439845   7.408   4.398   2.802
 9882SOL     OW39846   7.250   4.580   3.693
 9882SOL    HW239847   7.305   4.504   3.674
 9882SOL    HW339848   7.252   4.588   3.788
 9882SOL    MW439849   7.258   4.571   3.701
 9883SOL     OW39850   6.300   5.313   1.904
 9883SOL    HW239851   6.240   5.382   1.874
 9883SOL    HW339852   6.245   5.255   1.957
 9883SOL    MW439853   6.284   5.315   1.906
 9884SOL     OW39854   6.738   3.958   2.127
 9884SOL    HW239855   6.671   3.934   2.064
 9884SOL    HW339856   6.803   4.007   2.076
 9884SOL    MW439857   6.738   3.960   2.112
 9885SOL     OW39858   6.545   4.142   3.212
 9885SOL    HW239859   6.464   4.183   3.240
 9885SOL    HW339860   6.592   4.210   3.164
 9885SOL    MW439861   6.540   4.157   3.210
 9886SOL     OW39862   6.805   4.480   2.835
 9886SOL    HW239863   6.818   4.574   2.845
 9886SOL    HW339864   6.766   4.470   2.749
 9886SOL    MW439865   6.801   4.491   2.825
 9887SOL     OW39866   6.257   4.675   2.639
 9887SOL    HW239867   6.168   4.666   2.672
 9887SOL    HW339868   6.261   4.765   2.607
 9887SOL    MW439869   6.246   4.686   2.639
 9888SOL     OW39870   7.056   4.258   2.634
 9888SOL    HW239871   7.001   4.179   2.633
 9888SOL    HW339872   7.038   4.299   2.718
 9888SOL    MW439873   7.046   4.253   2.643
 9889SOL     OW39874   6.027   3.945   3.451
 9889SOL    HW239875   5.948   3.963   3.503
 9889SOL    HW339876   6.022   4.007   3.378
 9889SOL    MW439877   6.017   3.955   3.448
 9890SOL     OW39878   6.675   4.462   2.591
 9890SOL    HW239879   6.612   4.394   2.615
 9890SOL    HW339880   6.695   4.443   2.499
 9890SOL    MW439881   6.669   4.449   2.583
 9891SOL     OW39882   5.931   5.357   2.293
 9891SOL    HW239883   5.892   5.404   2.219
 9891SOL    HW339884   5.865   5.292   2.318
 9891SOL    MW439885   5.918   5.355   2.287
 9892SOL     OW39886   6.423   4.766   2.317
 9892SOL    HW239887   6.425   4.740   2.224
 9892SOL    HW339888   6.481   4.703   2.360
 9892SOL    MW439889   6.431   4.755   2.311
 9893SOL     OW39890   6.976   5.326   3.089
 9893SOL    HW239891   6.901   5.372   3.127
 9893SOL    HW339892   6.958   5.233   3.106
 9893SOL    MW439893   6.965   5.320   3.097
 9894SOL     OW39894   6.980   5.534   2.519
 9894SOL    HW239895   6.923   5.487   2.458
 9894SOL    HW339896   7.066   5.495   2.506
 9894SOL    MW439897   6.983   5.525   2.509
 9895SOL     OW39898   6.933   4.010   2.650
 9895SOL    HW239899   6.961   3.942   2.711
 9895SOL    HW339900   6.847   3.981   2.620
 9895SOL    MW439901   6.926   3.997   2.654
 9896SOL     OW39902   5.738   4.944   2.584
 9896SOL    HW239903   5.802   4.976   2.647
 9896SOL    HW339904   5.787   4.880   2.532
 9896SOL    MW439905   5.753   4.940   2.585
 9897SOL     OW39906   6.238   5.020   3.566
 9897SOL    HW239907   6.286   5.103   3.553
 9897SOL    HW339908   6.295   4.968   3.622
 9897SOL    MW439909   6.252   5.024   3.572
 9898SOL     OW39910   5.814   5.262   3.706
 9898SOL    HW239911   5.870   5.186   3.721
 9898SOL    HW339912   5.763   5.240   3.628
 9898SOL    MW439913   5.814   5.249   3.697
 9899SOL     OW39914   6.913   4.114   1.985
 9899SOL    HW239915   6.886   4.180   1.921
 9899SOL    HW339916   6.983   4.157   2.035
 9899SOL    MW439917   6.918   4.127   1.982
 9900SOL     OW39918   6.581   3.819   1.922
 9900SOL    HW239919   6.637   3.811   1.844
 9900SOL    HW339920   6.558   3.729   1.944
 9900SOL    MW439921   6.586   3.806   1.915
 9901SOL     OW39922   7.086   4.670   2.127
 9901SOL    HW239923   7.053   4.759   2.117
 9901SOL    HW339924   7.051   4.641   2.212
 9901SOL    MW439925   7.076   4.679   2.138
 9902SOL     OW39926   6.699   5.099   3.315
 9902SOL    HW239927   6.610   5.105   3.283
 9902SOL    HW339928   6.743   5.178   3.283
 9902SOL    MW439929   6.694   5.109   3.307
 9903SOL     OW39930   5.992   3.767   3.657
 9903SOL    HW239931   5.920   3.732   3.605
 9903SOL    HW339932   6.050   3.808   3.592
 9903SOL    MW439933   5.990   3.768   3.642
 9904SOL     OW39934   6.016   5.257   2.956
 9904SOL    HW239935   6.061   5.319   3.013
 9904SOL    HW339936   5.923   5.276   2.969
 9904SOL    MW439937   6.009   5.267   2.963
 9905SOL     OW39938   7.456   4.786   3.310
 9905SOL    HW239939   7.371   4.799   3.269
 9905SOL    HW339940   7.436   4.750   3.397
 9905SOL    MW439941   7.443   4.782   3.315
 9906SOL     OW39942   6.438   5.325   3.064
 9906SOL    HW239943   6.462   5.314   2.973
 9906SOL    HW339944   6.361   5.382   3.062
 9906SOL    MW439945   6.430   5.330   3.053
 9907SOL     OW39946   6.080   4.708   1.919
 9907SOL    HW239947   6.003   4.721   1.975
 9907SOL    HW339948   6.044   4.672   1.838
 9907SOL    MW439949   6.066   4.704   1.916
 9908SOL     OW39950   6.733   4.681   2.162
 9908SOL    HW239951   6.643   4.702   2.137
 9908SOL    HW339952   6.760   4.754   2.218
 9908SOL    MW439953   6.725   4.693   2.165
 9909SOL     OW39954   6.233   5.030   2.854
 9909SOL    HW239955   6.226   5.009   2.948
 9909SOL    HW339956   6.151   4.998   2.817
 9909SOL    MW439957   6.221   5.024   2.861
 9910SOL     OW39958   7.097   4.040   3.256
 9910SOL    HW239959   7.044   4.042   3.336
 9910SOL    HW339960   7.082   3.953   3.219
 9910SOL    MW439961   7.089   4.030   3.261
 9911SOL     OW39962   7.433   3.964   3.129
 9911SOL    HW239963   7.414   4.031   3.064
 9911SOL    HW339964   7.490   3.902   3.084
 9911SOL    MW439965   7.437   3.965   3.115
 9912SOL     OW39966   5.679   5.122   3.517
 9912SOL    HW239967   5.723   5.055   3.463
 9912SOL    HW339968   5.594   5.084   3.537
 9912SOL    MW439969   5.674   5.108   3.513
 9913SOL     OW39970   6.362   3.797   2.569
 9913SOL    HW239971   6.291   3.858   2.551
 9913SOL    HW339972   6.413   3.794   2.488
 9913SOL    MW439973   6.358   3.803   2.556
 9914SOL     OW39974   6.120   5.037   2.318
 9914SOL    HW239975   6.113   5.069   2.408
 9914SOL    HW339976   6.030   5.021   2.290
 9914SOL    MW439977   6.108   5.039   2.325
 9915SOL     OW39978   6.715   5.430   3.227
 9915SOL    HW239979   6.635   5.415   3.177
 9915SOL    HW339980   6.722   5.525   3.234
 9915SOL    MW439981   6.706   5.441   3.221
 9916SOL     OW39982   6.829   5.395   2.717
 9916SOL    HW239983   6.876   5.468   2.676
 9916SOL    HW339984   6.750   5.434   2.753
 9916SOL    MW439985   6.824   5.410   2.716
 9917SOL     OW39986   7.237   5.490   2.992
 9917SOL    HW239987   7.280   5.460   3.072
 9917SOL    HW339988   7.156   5.438   2.989
 9917SOL    MW439989   7.232   5.479   3.002
 9918SOL     OW39990   6.322   4.454   3.699
 9918SOL    HW239991   6.392   4.396   3.671
 9918SOL    HW339992   6.265   4.399   3.754
 9918SOL    MW439993   6.324   4.441   3.703
 9919SOL     OW39994   7.109   4.666   3.332
 9919SOL    HW239995   7.114   4.719   3.412
 9919SOL    HW339996   7.071   4.583   3.360
 9919SOL    MW439997   7.105   4.661   3.347
 9920SOL     OW39998   6.749   3.801   3.578
 9920SOL    HW239999   6.744   3.708   3.559
 9920SOL    HW340000   6.832   3.812   3.624
 9920SOL    MW440001   6.757   3.790   3.582
 9921SOL     OW40002   6.123   4.321   2.032
 9921SOL    HW240003   6.089   4.377   2.102
 9921SOL    HW340004   6.194   4.271   2.072
 9921SOL    MW440005   6.129   4.322   2.046
 9922SOL     OW40006   7.219   5.072   2.854
 9922SOL    HW240007   7.254   5.054   2.767
 9922SOL    HW340008   7.124   5.073   2.841
 9922SOL    MW440009   7.211   5.069   2.841
 9923SOL     OW40010   6.648   4.720   3.223
 9923SOL    HW240011   6.691   4.755   3.301
 9923SOL    HW340012   6.631   4.797   3.169
 9923SOL    MW440013   6.651   4.735   3.226
 9924SOL     OW40014   7.179   4.207   2.096
 9924SOL    HW240015   7.171   4.278   2.033
 9924SOL    HW340016   7.197   4.251   2.179
 9924SOL    MW440017   7.180   4.221   2.098
 9925SOL     OW40018   6.039   3.862   2.525
 9925SOL    HW240019   6.089   3.905   2.456
 9925SOL    HW340020   5.954   3.906   2.525
 9925SOL    MW440021   6.036   3.875   2.516
 9926SOL     OW40022   5.798   4.924   3.385
 9926SOL    HW240023   5.826   4.877   3.463
 9926SOL    HW340024   5.719   4.879   3.356
 9926SOL    MW440025   5.791   4.913   3.391
 9927SOL     OW40026   6.306   4.251   3.352
 9927SOL    HW240027   6.278   4.339   3.376
 9927SOL    HW340028   6.275   4.195   3.423
 9927SOL    MW440029   6.298   4.254   3.364
 9928SOL     OW40030   6.848   4.469   2.071
 9928SOL    HW240031   6.895   4.487   1.990
 9928SOL    HW340032   6.814   4.553   2.099
 9928SOL    MW440033   6.850   4.483   2.064
 9929SOL     OW40034   5.961   4.647   2.565
 9929SOL    HW240035   6.019   4.703   2.513
 9929SOL    HW340036   6.005   4.562   2.567
 9929SOL    MW440037   5.974   4.644   2.558
 9930SOL     OW40038   7.101   3.999   2.402
 9930SOL    HW240039   7.023   3.949   2.427
 9930SOL    HW340040   7.072   4.090   2.402
 9930SOL    MW440041   7.087   4.003   2.405
 9931SOL     OW40042   6.687   3.961   2.561
 9931SOL    HW240043   6.707   4.036   2.505
 9931SOL    HW340044   6.667   4.000   2.646
 9931SOL    MW440045   6.688   3.977   2.565
 9932SOL     OW40046   6.583   5.211   1.893
 9932SOL    HW240047   6.610   5.289   1.845
 9932SOL    HW340048   6.490   5.226   1.912
 9932SOL    MW440049   6.574   5.224   1.889
 9933SOL     OW40050   7.447   4.734   3.580
 9933SOL    HW240051   7.360   4.714   3.616
 9933SOL    HW340052   7.501   4.660   3.605
 9933SOL    MW440053   7.442   4.723   3.588
 9934SOL     OW40054   5.668   5.247   2.737
 9934SOL    HW240055   5.700   5.251   2.828
 9934SOL    HW340056   5.573   5.255   2.745
 9934SOL    MW440057   5.660   5.250   2.750
 9935SOL     OW40058   5.623   4.373   2.284
 9935SOL    HW240059   5.563   4.345   2.354
 9935SOL    HW340060   5.697   4.313   2.290
 9935SOL    MW440061   5.625   4.362   2.293
 9936SOL     OW40062   7.191   5.585   3.718
 9936SOL    HW240063   7.236   5.509   3.683
 9936SOL    HW340064   7.229   5.598   3.805
 9936SOL    MW440065   7.201   5.578   3.724
 9937SOL     OW40066   6.791   5.104   2.444
 9937SOL    HW240067   6.814   5.055   2.522
 9937SOL    HW340068   6.872   5.146   2.416
 9937SOL    MW440069   6.804   5.104   2.451
 9938SOL     OW40070   6.049   4.112   3.173
 9938SOL    HW240071   6.082   4.193   3.213
 9938SOL    HW340072   6.022   4.138   3.085
 9938SOL    MW440073   6.048   4.126   3.167
 9939SOL     OW40074   6.003   4.079   2.909
 9939SOL    HW240075   6.033   3.993   2.880
 9939SOL    HW340076   5.908   4.072   2.912
 9939SOL    MW440077   5.995   4.068   2.907
 9940SOL     OW40078   6.832   4.288   3.600
 9940SOL    HW240079   6.884   4.223   3.553
 9940SOL    HW340080   6.790   4.339   3.530
 9940SOL    MW440081   6.833   4.285   3.583
 9941SOL     OW40082   6.931   4.083   3.461
 9941SOL    HW240083   6.838   4.067   3.448
 9941SOL    HW340084   6.957   4.021   3.529
 9941SOL    MW440085   6.921   4.073   3.468
 9942SOL     OW40086   6.146   3.857   2.800
 9942SOL    HW240087   6.156   3.766   2.826
 9942SOL    HW340088   6.102   3.853   2.715
 9942SOL    MW440089   6.142   3.845   2.792
 9943SOL     OW40090   6.240   5.472   3.346
 9943SOL    HW240091   6.157   5.457   3.391
 9943SOL    HW340092   6.299   5.405   3.381
 9943SOL    MW440093   6.238   5.462   3.356
 9944SOL     OW40094   7.297   4.179   2.971
 9944SOL    HW240095   7.230   4.212   3.031
 9944SOL    HW340096   7.340   4.257   2.937
 9944SOL    MW440097   7.295   4.194   2.975
 9945SOL     OW40098   7.475   4.899   2.941
 9945SOL    HW240099   7.468   4.839   2.866
 9945SOL    HW340100   7.401   4.959   2.930
 9945SOL    MW440101   7.465   4.899   2.930
 9946SOL     OW40102   6.857   4.761   2.859
 9946SOL    HW240103   6.871   4.733   2.950
 9946SOL    HW340104   6.943   4.792   2.831
 9946SOL    MW440105   6.870   4.762   2.868
 9947SOL     OW40106   6.940   4.256   3.138
 9947SOL    HW240107   6.961   4.257   3.045
 9947SOL    HW340108   6.985   4.178   3.171
 9947SOL    MW440109   6.947   4.246   3.130
 9948SOL     OW40110   7.433   4.387   3.680
 9948SOL    HW240111   7.470   4.332   3.749
 9948SOL    HW340112   7.458   4.344   3.598
 9948SOL    MW440113   7.440   4.375   3.679
 9949SOL     OW40114   6.980   4.685   3.731
 9949SOL    HW240115   7.046   4.633   3.685
 9949SOL    HW340116   7.000   4.672   3.824
 9949SOL    MW440117   6.991   4.676   3.738
 9950SOL     OW40118   6.931   3.771   2.080
 9950SOL    HW240119   7.005   3.815   2.123
 9950SOL    HW340120   6.855   3.825   2.102
 9950SOL    MW440121   6.931   3.783   2.088
 9951SOL     OW40122   6.991   4.546   2.358
 9951SOL    HW240123   6.906   4.516   2.328
 9951SOL    HW340124   6.983   4.553   2.453
 9951SOL    MW440125   6.979   4.544   2.367
 9952SOL     OW40126   6.067   5.009   3.089
 9952SOL    HW240127   6.079   5.036   3.180
 9952SOL    HW340128   6.048   5.090   3.042
 9952SOL    MW440129   6.066   5.024   3.094
 9953SOL     OW40130   6.351   3.989   2.912
 9953SOL    HW240131   6.324   3.991   3.003
 9953SOL    HW340132   6.281   3.941   2.867
 9953SOL    MW440133   6.339   3.985   2.919
 9954SOL     OW40134   6.205   5.481   3.074
 9954SOL    HW240135   6.257   5.558   3.051
 9954SOL    HW340136   6.214   5.473   3.169
 9954SOL    MW440137   6.214   5.488   3.085
 9955SOL     OW40138   7.107   5.066   3.306
 9955SOL    HW240139   7.092   4.995   3.369
 9955SOL    HW340140   7.153   5.024   3.234
 9955SOL    MW440141   7.113   5.050   3.306
 9956SOL     OW40142   6.181   4.797   3.423
 9956SOL    HW240143   6.218   4.802   3.335
 9956SOL    HW340144   6.220   4.870   3.470
 9956SOL    MW440145   6.191   4.807   3.418
 9957SOL     OW40146   6.361   4.840   3.235
 9957SOL    HW240147   6.420   4.786   3.288
 9957SOL    HW340148   6.376   4.812   3.145
 9957SOL    MW440149   6.371   4.829   3.231
 9958SOL     OW40150   6.364   4.212   2.084
 9958SOL    HW240151   6.437   4.261   2.047
 9958SOL    HW340152   6.380   4.121   2.058
 9958SOL    MW440153   6.376   4.207   2.077
 9959SOL     OW40154   7.172   5.329   3.407
 9959SOL    HW240155   7.214   5.314   3.492
 9959SOL    HW340156   7.163   5.242   3.369
 9959SOL    MW440157   7.176   5.317   3.414
 9960SOL     OW40158   6.832   3.808   2.998
 9960SOL    HW240159   6.887   3.817   2.920
 9960SOL    HW340160   6.887   3.842   3.069
 9960SOL    MW440161   6.846   3.813   2.997
 9961SOL     OW40162   5.839   4.721   2.182
 9961SOL    HW240163   5.776   4.737   2.111
 9961SOL    HW340164   5.786   4.684   2.253
 9961SOL    MW440165   5.824   4.718   2.182
 9962SOL     OW40166   6.195   5.075   2.041
 9962SOL    HW240167   6.210   5.051   2.133
 9962SOL    HW340168   6.103   5.053   2.025
 9962SOL    MW440169   6.185   5.068   2.051
 9963SOL     OW40170   6.734   5.306   2.193
 9963SOL    HW240171   6.742   5.224   2.144
 9963SOL    HW340172   6.653   5.345   2.160
 9963SOL    MW440173   6.724   5.301   2.183
 9964SOL     OW40174   5.993   5.464   2.762
 9964SOL    HW240175   5.997   5.375   2.797
 9964SOL    HW340176   6.019   5.455   2.671
 9964SOL    MW440177   5.996   5.452   2.754
 9965SOL     OW40178   6.610   4.942   3.005
 9965SOL    HW240179   6.542   4.876   3.021
 9965SOL    HW340180   6.628   4.936   2.912
 9965SOL    MW440181   6.603   4.933   2.996
 9966SOL     OW40182   5.699   5.217   3.256
 9966SOL    HW240183   5.689   5.175   3.342
 9966SOL    HW340184   5.620   5.270   3.246
 9966SOL    MW440185   5.688   5.218   3.267
 9967SOL     OW40186   6.603   4.081   2.826
 9967SOL    HW240187   6.533   4.033   2.871
 9967SOL    HW340188   6.635   4.144   2.890
 9967SOL    MW440189   6.598   4.083   2.840
 9968SOL     OW40190   6.254   4.517   3.446
 9968SOL    HW240191   6.247   4.612   3.434
 9968SOL    HW340192   6.263   4.506   3.541
 9968SOL    MW440193   6.255   4.529   3.456
 9969SOL     OW40194   5.975   5.032   3.704
 9969SOL    HW240195   6.047   5.034   3.641
 9969SOL    HW340196   5.945   4.941   3.703
 9969SOL    MW440197   5.980   5.021   3.696
 9970SOL     OW40198   7.059   3.795   3.171
 9970SOL    HW240199   7.130   3.741   3.135
 9970SOL    HW340200   7.058   3.774   3.264
 9970SOL    MW440201   7.068   3.786   3.179
 9971SOL     OW40202   7.259   5.325   3.655
 9971SOL    HW240203   7.232   5.322   3.746
 9971SOL    HW340204   7.355   5.329   3.658
 9971SOL    MW440205   7.269   5.325   3.667
 9972SOL     OW40206   6.070   4.187   2.639
 9972SOL    HW240207   6.141   4.135   2.602
 9972SOL    HW340208   6.056   4.152   2.726
 9972SOL    MW440209   6.078   4.176   2.646
 9973SOL     OW40210   5.625   5.522   3.711
 9973SOL    HW240211   5.675   5.500   3.633
 9973SOL    HW340212   5.633   5.617   3.719
 9973SOL    MW440213   5.633   5.531   3.702
 9974SOL     OW40214   6.386   5.280   2.715
 9974SOL    HW240215   6.314   5.217   2.728
 9974SOL    HW340216   6.347   5.365   2.733
 9974SOL    MW440217   6.370   5.283   2.718
 9975SOL     OW40218   6.706   4.128   2.363
 9975SOL    HW240219   6.728   4.065   2.295
 9975SOL    HW340220   6.611   4.120   2.374
 9975SOL    MW440221   6.696   4.119   2.355
 9976SOL     OW40222   5.791   3.818   2.295
 9976SOL    HW240223   5.862   3.839   2.234
 9976SOL    HW340224   5.745   3.746   2.253
 9976SOL    MW440225   5.795   3.812   2.281
 9977SOL     OW40226   5.622   4.285   3.438
 9977SOL    HW240227   5.686   4.351   3.413
 9977SOL    HW340228   5.541   4.312   3.395
 9977SOL    MW440229   5.620   4.297   3.430
 9978SOL     OW40230   7.360   5.192   2.395
 9978SOL    HW240231   7.330   5.125   2.456
 9978SOL    HW340232   7.454   5.198   2.409
 9978SOL    MW440233   7.368   5.184   2.405
 9979SOL     OW40234   6.916   4.869   2.325
 9979SOL    HW240235   6.888   4.955   2.358
 9979SOL    HW340236   6.944   4.885   2.235
 9979SOL    MW440237   6.916   4.883   2.317
 9980SOL     OW40238   6.578   3.789   2.378
 9980SOL    HW240239   6.615   3.848   2.443
 9980SOL    HW340240   6.555   3.845   2.304
 9980SOL    MW440241   6.579   3.804   2.377
 9981SOL     OW40242   7.431   4.671   2.800
 9981SOL    HW240243   7.422   4.703   2.711
 9981SOL    HW340244   7.384   4.587   2.800
 9981SOL    MW440245   7.424   4.664   2.790
 9982SOL     OW40246   5.807   4.511   3.379
 9982SOL    HW240247   5.828   4.580   3.317
 9982SOL    HW340248   5.887   4.458   3.384
 9982SOL    MW440249   5.820   4.512   3.373
 9983SOL     OW40250   7.343   4.602   2.501
 9983SOL    HW240251   7.437   4.591   2.489
 9983SOL    HW340252   7.319   4.674   2.442
 9983SOL    MW440253   7.353   4.610   2.492
 9984SOL     OW40254   5.792   4.526   3.646
 9984SOL    HW240255   5.718   4.470   3.672
 9984SOL    HW340256   5.787   4.529   3.551
 9984SOL    MW440257   5.781   4.519   3.636
 9985SOL     OW40258   5.958   3.813   3.096
 9985SOL    HW240259   6.001   3.897   3.116
 9985SOL    HW340260   6.031   3.751   3.089
 9985SOL    MW440261   5.973   3.816   3.097
 9986SOL     OW40262   5.999   4.480   2.274
 9986SOL    HW240263   5.999   4.575   2.259
 9986SOL    HW340264   6.076   4.464   2.328
 9986SOL    MW440265   6.009   4.491   2.279
 9987SOL     OW40266   6.775   4.339   3.338
 9987SOL    HW240267   6.811   4.312   3.254
 9987SOL    HW340268   6.688   4.373   3.317
 9987SOL    MW440269   6.769   4.340   3.325
 9988SOL     OW40270   5.758   4.211   2.563
 9988SOL    HW240271   5.820   4.218   2.636
 9988SOL    HW340272   5.758   4.118   2.540
 9988SOL    MW440273   5.766   4.200   2.570
 9989SOL     OW40274   7.305   5.551   2.095
 9989SOL    HW240275   7.372   5.584   2.035
 9989SOL    HW340276   7.262   5.630   2.129
 9989SOL    MW440277   7.307   5.566   2.091
 9990SOL     OW40278   6.440   4.472   3.047
 9990SOL    HW240279   6.398   4.390   3.023
 9990SOL    HW340280   6.441   4.471   3.143
 9990SOL    MW440281   6.433   4.461   3.056
 9991SOL     OW40282   7.111   5.605   3.446
 9991SOL    HW240283   7.114   5.511   3.429
 9991SOL    HW340284   7.134   5.613   3.538
 9991SOL    MW440285   7.114   5.593   3.456
 9992SOL     OW40286   6.244   3.942   3.152
 9992SOL    HW240287   6.175   4.005   3.173
 9992SOL    HW340288   6.271   3.906   3.237
 9992SOL    MW440289   6.238   3.945   3.165
 9993SOL     OW40290   5.627   4.783   2.021
 9993SOL    HW240291   5.596   4.848   2.084
 9993SOL    HW340292   5.576   4.705   2.040
 9993SOL    MW440293   5.617   4.780   2.031
 9994SOL     OW40294   7.039   3.795   2.769
 9994SOL    HW240295   7.127   3.804   2.806
 9994SOL    HW340296   7.049   3.736   2.695
 9994SOL    MW440297   7.053   3.789   2.763
 9995SOL     OW40298   7.071   4.534   2.613
 9995SOL    HW240299   7.151   4.549   2.562
 9995SOL    HW340300   7.064   4.439   2.619
 9995SOL    MW440301   7.080   4.523   2.608
 9996SOL     OW40302   6.211   5.583   1.963
 9996SOL    HW240303   6.116   5.583   1.955
 9996SOL    HW340304   6.227   5.529   2.041
 9996SOL    MW440305   6.201   5.577   1.972
 9997SOL     OW40306   6.521   4.460   3.310
 9997SOL    HW240307   6.590   4.527   3.307
 9997SOL    HW340308   6.454   4.498   3.366
 9997SOL    MW440309   6.522   4.473   3.317
 9998SOL     OW40310   5.939   4.760   3.558
 9998SOL    HW240311   5.893   4.676   3.560
 9998SOL    HW340312   5.996   4.754   3.482
 9998SOL    MW440313   5.941   4.748   3.550
 9999SOL     OW40314   7.056   4.403   1.879
 9999SOL    HW240315   6.984   4.379   1.821
 9999SOL    HW340316   7.122   4.440   1.821
 9999SOL    MW440317   7.055   4.405   1.864
10000SOL     OW40318   6.190   5.135   2.559
10000SOL    HW240319   6.255   5.068   2.580
10000SOL    HW340320   6.242   5.212   2.536
10000SOL    MW440321   6.205   5.137   2.558
10001SOL     OW40322   6.451   4.300   2.689
10001SOL    HW240323   6.391   4.318   2.761
10001SOL    HW340324   6.485   4.212   2.708
10001SOL    MW440325   6.447   4.290   2.702
10002SOL     OW40326   7.392   3.799   3.358
10002SOL    HW240327   7.313   3.845   3.386
10002SOL    HW340328   7.427   3.853   3.287
10002SOL    MW440329   7.386   3.812   3.352
10003SOL     OW40330   6.676   4.883   2.708
10003SOL    HW240331   6.768   4.864   2.726
10003SOL    HW340332   6.649   4.813   2.648
10003SOL    MW440333   6.684   4.871   2.702
10004SOL     OW40334   6.469   4.703   2.063
10004SOL    HW240335   6.455   4.615   2.028
10004SOL    HW340336   6.420   4.760   2.004
10004SOL    MW440337   6.461   4.698   2.051
10005SOL     OW40338   6.950   5.121   2.804
10005SOL    HW240339   6.923   5.205   2.769
10005SOL    HW340340   6.910   5.116   2.891
10005SOL    MW440341   6.943   5.130   2.810
10006SOL     OW40342   6.869   5.069   3.072
10006SOL    HW240343   6.880   5.036   3.161
10006SOL    HW340344   6.788   5.028   3.041
10006SOL    MW440345   6.859   5.061   3.078
10007SOL     OW40346   5.882   4.427   2.842
10007SOL    HW240347   5.832   4.426   2.923
10007SOL    HW340348   5.902   4.519   2.826
10007SOL    MW440349   5.878   4.439   2.850
10008SOL     OW40350   6.949   5.191   3.604
10008SOL    HW240351   6.949   5.285   3.620
10008SOL    HW340352   6.994   5.181   3.520
10008SOL    MW440353   6.955   5.201   3.595
10009SOL     OW40354   7.188   3.909   2.165
10009SOL    HW240355   7.181   3.913   2.260
10009SOL    HW340356   7.200   4.000   2.138
10009SOL    MW440357   7.189   3.922   2.173
10010SOL     OW40358   6.477   4.472   2.279
10010SOL    HW240359   6.457   4.458   2.186
10010SOL    HW340360   6.570   4.451   2.286
10010SOL    MW440361   6.487   4.467   2.268
10011SOL     OW40362   5.804   4.095   3.583
10011SOL    HW240363   5.761   4.154   3.520
10011SOL    HW340364   5.872   4.150   3.623
10011SOL    MW440365   5.808   4.110   3.580
10012SOL     OW40366   6.916   4.715   3.128
10012SOL    HW240367   6.979   4.712   3.201
10012SOL    HW340368   6.832   4.733   3.170
10012SOL    MW440369   6.912   4.717   3.143
10013SOL     OW40370   6.460   5.430   2.317
10013SOL    HW240371   6.518   5.501   2.344
10013SOL    HW340372   6.483   5.358   2.375
10013SOL    MW440373   6.471   5.430   2.328
10014SOL     OW40374   7.255   3.892   2.907
10014SOL    HW240375   7.300   3.810   2.926
10014SOL    HW340376   7.275   3.948   2.983
10014SOL    MW440377   7.265   3.888   2.919
10015SOL     OW40378   5.703   3.735   3.006
10015SOL    HW240379   5.694   3.736   2.911
10015SOL    HW340380   5.797   3.747   3.021
10015SOL    MW440381   5.715   3.738   2.997
10016SOL     OW40382   7.340   4.928   2.626
10016SOL    HW240383   7.319   4.874   2.549
10016SOL    HW340384   7.436   4.926   2.630
10016SOL    MW440385   7.349   4.921   2.615
10017SOL     OW40386   6.032   5.073   3.369
10017SOL    HW240387   5.953   5.023   3.392
10017SOL    HW340388   6.102   5.032   3.419
10017SOL    MW440389   6.030   5.061   3.379
10018SOL     OW40390   5.916   3.862   2.052
10018SOL    HW240391   5.845   3.917   2.020
10018SOL    HW340392   5.958   3.828   1.973
10018SOL    MW440393   5.912   3.864   2.038
10019SOL     OW40394   7.040   4.359   2.888
10019SOL    HW240395   6.963   4.405   2.854
10019SOL    HW340396   7.097   4.428   2.922
10019SOL    MW440397   7.037   4.374   2.888
10020SOL     OW40398   5.672   3.961   1.901
10020SOL    HW240399   5.639   4.040   1.945
10020SOL    HW340400   5.727   3.994   1.830
10020SOL    MW440401   5.675   3.975   1.898
10021SOL     OW40402   5.706   5.218   2.090
10021SOL    HW240403   5.723   5.302   2.132
10021SOL    HW340404   5.741   5.227   2.002
10021SOL    MW440405   5.711   5.231   2.084
10022SOL     OW40406   6.978   5.307   2.307
10022SOL    HW240407   7.041   5.297   2.236
10022SOL    HW340408   6.895   5.327   2.262
10022SOL    MW440409   6.975   5.308   2.292
10023SOL     OW40410   7.341   4.575   3.993
10023SOL    HW240411   7.382   4.517   4.058
10023SOL    HW340412   7.248   4.567   4.010
10023SOL    MW440413   7.335   4.567   4.003
10024SOL     OW40414   7.207   4.507   4.988
10024SOL    HW240415   7.162   4.574   5.039
10024SOL    HW340416   7.295   4.543   4.974
10024SOL    MW440417   7.213   4.520   4.992
10025SOL     OW40418   6.135   4.758   4.222
10025SOL    HW240419   6.225   4.733   4.206
10025SOL    HW340420   6.131   4.851   4.199
10025SOL    MW440421   6.147   4.767   4.217
10026SOL     OW40422   7.251   5.461   4.364
10026SOL    HW240423   7.263   5.407   4.442
10026SOL    HW340424   7.288   5.409   4.293
10026SOL    MW440425   7.257   5.446   4.365
10027SOL     OW40426   6.630   5.346   5.365
10027SOL    HW240427   6.671   5.382   5.286
10027SOL    HW340428   6.665   5.257   5.372
10027SOL    MW440429   6.641   5.339   5.356
10028SOL     OW40430   7.187   4.901   4.969
10028SOL    HW240431   7.108   4.866   4.927
10028SOL    HW340432   7.214   4.973   4.913
10028SOL    MW440433   7.180   4.906   4.956
10029SOL     OW40434   6.419   4.214   4.235
10029SOL    HW240435   6.394   4.302   4.263
10029SOL    HW340436   6.416   4.217   4.139
10029SOL    MW440437   6.415   4.226   4.227
10030SOL     OW40438   5.861   4.242   4.163
10030SOL    HW240439   5.893   4.330   4.145
10030SOL    HW340440   5.849   4.240   4.258
10030SOL    MW440441   5.864   4.254   4.175
10031SOL     OW40442   5.939   4.655   5.064
10031SOL    HW240443   6.002   4.602   5.015
10031SOL    HW340444   5.920   4.729   5.007
10031SOL    MW440445   5.945   4.657   5.051
10032SOL     OW40446   6.260   3.997   4.250
10032SOL    HW240447   6.318   4.073   4.252
10032SOL    HW340448   6.195   4.018   4.183
10032SOL    MW440449   6.259   4.009   4.241
10033SOL     OW40450   6.347   4.924   4.425
10033SOL    HW240451   6.427   4.927   4.477
10033SOL    HW340452   6.375   4.891   4.339
10033SOL    MW440453   6.361   4.920   4.420
10034SOL     OW40454   6.372   5.265   5.328
10034SOL    HW240455   6.456   5.291   5.367
10034SOL    HW340456   6.396   5.209   5.254
10034SOL    MW440457   6.386   5.261   5.323
10035SOL     OW40458   6.124   4.428   4.416
10035SOL    HW240459   6.109   4.348   4.467
10035SOL    HW340460   6.206   4.463   4.450
10035SOL    MW440461   6.132   4.420   4.428
10036SOL     OW40462   6.461   5.114   5.101
10036SOL    HW240463   6.425   5.180   5.041
10036SOL    HW340464   6.389   5.052   5.114
10036SOL    MW440465   6.447   5.114   5.095
10037SOL     OW40466   6.266   4.254   4.793
10037SOL    HW240467   6.172   4.250   4.811
10037SOL    HW340468   6.296   4.163   4.802
10037SOL    MW440469   6.257   4.242   4.796
10038SOL     OW40470   6.012   4.668   4.697
10038SOL    HW240471   5.967   4.675   4.613
10038SOL    HW340472   5.992   4.751   4.741
10038SOL    MW440473   6.004   4.680   4.691
10039SOL     OW40474   5.709   5.514   4.572
10039SOL    HW240475   5.798   5.506   4.607
10039SOL    HW340476   5.673   5.426   4.577
10039SOL    MW440477   5.716   5.501   4.577
10040SOL     OW40478   6.974   4.906   3.941
10040SOL    HW240479   6.892   4.942   3.907
10040SOL    HW340480   7.042   4.949   3.890
10040SOL    MW440481   6.972   4.916   3.929
10041SOL     OW40482   5.973   5.041   4.607
10041SOL    HW240483   5.949   5.094   4.683
10041SOL    HW340484   6.029   5.099   4.555
10041SOL    MW440485   5.977   5.056   4.610
10042SOL     OW40486   6.535   4.685   4.417
10042SOL    HW240487   6.449   4.672   4.457
10042SOL    HW340488   6.588   4.612   4.449
10042SOL    MW440489   6.531   4.674   4.426
10043SOL     OW40490   5.943   5.337   5.202
10043SOL    HW240491   5.851   5.313   5.187
10043SOL    HW340492   5.987   5.254   5.219
10043SOL    MW440493   5.937   5.322   5.201
10044SOL     OW40494   6.526   5.047   4.134
10044SOL    HW240495   6.503   5.109   4.202
10044SOL    HW340496   6.483   4.965   4.160
10044SOL    MW440497   6.518   5.043   4.145
10045SOL     OW40498   7.399   4.048   4.590
10045SOL    HW240499   7.336   4.028   4.659
10045SOL    HW340500   7.389   3.977   4.527
10045SOL    MW440501   7.389   4.035   4.591
10046SOL     OW40502   6.023   4.020   4.102
10046SOL    HW240503   5.997   3.982   4.018
10046SOL    HW340504   5.960   4.090   4.118
10046SOL    MW440505   6.012   4.023   4.093
10047SOL     OW40506   5.858   4.981   4.139
10047SOL    HW240507   5.806   5.049   4.095
10047SOL    HW340508   5.855   4.907   4.079
10047SOL    MW440509   5.850   4.980   4.126
10048SOL     OW40510   6.520   5.444   3.917
10048SOL    HW240511   6.475   5.460   4.000
10048SOL    HW340512   6.451   5.409   3.859
10048SOL    MW440513   6.506   5.441   3.919
10049SOL     OW40514   7.455   4.217   3.892
10049SOL    HW240515   7.364   4.219   3.920
10049SOL    HW340516   7.500   4.279   3.950
10049SOL    MW440517   7.448   4.225   3.902
10050SOL     OW40518   7.200   4.820   4.242
10050SOL    HW240519   7.110   4.820   4.277
10050SOL    HW340520   7.193   4.866   4.159
10050SOL    MW440521   7.187   4.826   4.236
10051SOL     OW40522   7.000   4.455   5.314
10051SOL    HW240523   7.069   4.393   5.291
10051SOL    HW340524   6.925   4.429   5.261
10051SOL    MW440525   7.000   4.442   5.305
10052SOL     OW40526   5.741   5.335   4.866
10052SOL    HW240527   5.724   5.281   4.943
10052SOL    HW340528   5.729   5.425   4.896
10052SOL    MW440529   5.738   5.339   4.880
10053SOL     OW40530   6.736   4.842   5.306
10053SOL    HW240531   6.721   4.935   5.291
10053SOL    HW340532   6.831   4.832   5.306
10053SOL    MW440533   6.745   4.852   5.303
10054SOL     OW40534   6.532   4.266   5.507
10054SOL    HW240535   6.622   4.267   5.474
10054SOL    HW340536   6.491   4.191   5.465
10054SOL    MW440537   6.538   4.256   5.498
10055SOL     OW40538   7.107   4.798   4.634
10055SOL    HW240539   7.110   4.732   4.565
10055SOL    HW340540   7.192   4.841   4.630
10055SOL    MW440541   7.119   4.794   4.625
10056SOL     OW40542   6.727   4.401   4.203
10056SOL    HW240543   6.753   4.425   4.114
10056SOL    HW340544   6.709   4.308   4.199
10056SOL    MW440545   6.729   4.393   4.190
10057SOL     OW40546   7.392   5.021   4.054
10057SOL    HW240547   7.348   5.062   4.129
10057SOL    HW340548   7.449   5.089   4.019
10057SOL    MW440549   7.394   5.035   4.059
10058SOL     OW40550   6.312   4.070   5.457
10058SOL    HW240551   6.322   3.996   5.397
10058SOL    HW340552   6.348   4.039   5.540
10058SOL    MW440553   6.318   4.056   5.459
10059SOL     OW40554   6.048   5.437   4.372
10059SOL    HW240555   6.080   5.525   4.350
10059SOL    HW340556   6.001   5.409   4.294
10059SOL    MW440557   6.047   5.445   4.359
10060SOL     OW40558   7.432   3.799   4.421
10060SOL    HW240559   7.486   3.750   4.483
10060SOL    HW340560   7.375   3.733   4.382
10060SOL    MW440561   7.432   3.783   4.423
10061SOL     OW40562   5.764   5.497   3.949
10061SOL    HW240563   5.793   5.587   3.941
10061SOL    HW340564   5.714   5.480   3.870
10061SOL    MW440565   5.762   5.505   3.938
10062SOL     OW40566   6.551   3.752   4.834
10062SOL    HW240567   6.510   3.830   4.796
10062SOL    HW340568   6.645   3.770   4.829
10062SOL    MW440569   6.557   3.764   4.829
10063SOL     OW40570   7.168   5.305   3.920
10063SOL    HW240571   7.216   5.374   3.966
10063SOL    HW340572   7.089   5.349   3.889
10063SOL    MW440573   7.163   5.319   3.923
10064SOL     OW40574   6.566   4.430   3.864
10064SOL    HW240575   6.568   4.377   3.785
10064SOL    HW340576   6.654   4.467   3.870
10064SOL    MW440577   6.578   4.429   3.853
10065SOL     OW40578   7.180   4.356   4.200
10065SOL    HW240579   7.219   4.356   4.287
10065SOL    HW340580   7.121   4.432   4.200
10065SOL    MW440581   7.177   4.367   4.211
10066SOL     OW40582   6.497   4.723   5.329
10066SOL    HW240583   6.474   4.703   5.419
10066SOL    HW340584   6.582   4.767   5.334
10066SOL    MW440585   6.504   4.726   5.341
10067SOL     OW40586   6.577   3.860   5.089
10067SOL    HW240587   6.583   3.822   5.002
10067SOL    HW340588   6.566   3.954   5.074
10067SOL    MW440589   6.578   3.868   5.077
10068SOL     OW40590   6.666   4.349   4.923
10068SOL    HW240591   6.741   4.378   4.870
10068SOL    HW340592   6.598   4.414   4.907
10068SOL    MW440593   6.667   4.361   4.913
10069SOL     OW40594   7.216   4.317   5.200
10069SOL    HW240595   7.197   4.226   5.179
10069SOL    HW340596   7.194   4.366   5.121
10069SOL    MW440597   7.211   4.310   5.187
10070SOL     OW40598   7.358   5.411   5.104
10070SOL    HW240599   7.286   5.373   5.155
10070SOL    HW340600   7.375   5.496   5.145
10070SOL    MW440601   7.352   5.416   5.116
10071SOL     OW40602   6.663   4.055   5.306
10071SOL    HW240603   6.629   4.094   5.225
10071SOL    HW340604   6.641   3.963   5.299
10071SOL    MW440605   6.656   4.048   5.296
10072SOL     OW40606   7.072   4.869   5.382
10072SOL    HW240607   7.154   4.910   5.412
10072SOL    HW340608   7.035   4.831   5.462
10072SOL    MW440609   7.078   4.870   5.397
10073SOL     OW40610   7.367   4.242   4.366
10073SOL    HW240611   7.456   4.211   4.383
10073SOL    HW340612   7.310   4.182   4.414
10073SOL    MW440613   7.370   4.230   4.375
10074SOL     OW40614   5.793   3.956   4.395
10074SOL    HW240615   5.784   3.896   4.321
10074SOL    HW340616   5.726   3.927   4.458
10074SOL    MW440617   5.783   3.943   4.393
10075SOL     OW40618   6.736   5.049   3.956
10075SOL    HW240619   6.686   5.051   4.038
10075SOL    HW340620   6.670   5.067   3.888
10075SOL    MW440621   6.722   5.051   3.958
10076SOL     OW40622   5.740   4.129   4.758
10076SOL    HW240623   5.712   4.220   4.767
10076SOL    HW340624   5.677   4.090   4.697
10076SOL    MW440625   5.727   4.135   4.752
10077SOL     OW40626   6.199   5.467   4.064
10077SOL    HW240627   6.120   5.425   4.097
10077SOL    HW340628   6.265   5.450   4.131
10077SOL    MW440629   6.198   5.459   4.077
10078SOL     OW40630   7.327   4.987   5.461
10078SOL    HW240631   7.377   4.913   5.493
10078SOL    HW340632   7.273   5.014   5.536
10078SOL    MW440633   7.327   4.981   5.474
10079SOL     OW40634   6.335   4.882   3.771
10079SOL    HW240635   6.257   4.828   3.758
10079SOL    HW340636   6.306   4.955   3.824
10079SOL    MW440637   6.321   4.884   3.776
10080SOL     OW40638   7.461   4.622   4.963
10080SOL    HW240639   7.477   4.660   4.876
10080SOL    HW340640   7.495   4.688   5.024
10080SOL    MW440641   7.468   4.635   4.959
10081SOL     OW40642   7.253   5.331   4.632
10081SOL    HW240643   7.282   5.398   4.693
10081SOL    HW340644   7.234   5.255   4.687
10081SOL    MW440645   7.255   5.331   4.647
10082SOL     OW40646   6.916   5.398   3.839
10082SOL    HW240647   6.842   5.361   3.889
10082SOL    HW340648   6.924   5.488   3.872
10082SOL    MW440649   6.907   5.405   3.851
10083SOL     OW40650   5.724   4.404   4.928
10083SOL    HW240651   5.786   4.434   4.994
10083SOL    HW340652   5.658   4.473   4.922
10083SOL    MW440653   5.723   4.417   4.935
10084SOL     OW40654   7.140   5.072   3.781
10084SOL    HW240655   7.087   5.121   3.717
10084SOL    HW340656   7.171   5.138   3.842
10084SOL    MW440657   7.138   5.086   3.779
10085SOL     OW40658   6.365   3.961   3.836
10085SOL    HW240659   6.313   3.881   3.824
10085SOL    HW340660   6.452   3.938   3.804
10085SOL    MW440661   6.368   3.947   3.830
10086SOL     OW40662   5.819   5.513   5.380
10086SOL    HW240663   5.793   5.581   5.318
10086SOL    HW340664   5.867   5.450   5.328
10086SOL    MW440665   5.821   5.513   5.366
10087SOL     OW40666   5.871   4.832   4.887
10087SOL    HW240667   5.924   4.907   4.912
10087SOL    HW340668   5.790   4.870   4.853
10087SOL    MW440669   5.867   4.847   4.887
10088SOL     OW40670   6.411   4.736   4.875
10088SOL    HW240671   6.439   4.645   4.887
10088SOL    HW340672   6.340   4.730   4.811
10088SOL    MW440673   6.404   4.724   4.870
10089SOL     OW40674   5.726   4.601   4.293
10089SOL    HW240675   5.817   4.616   4.320
10089SOL    HW340676   5.729   4.522   4.239
10089SOL    MW440677   5.738   4.593   4.291
10090SOL     OW40678   5.962   4.309   5.547
10090SOL    HW240679   5.909   4.389   5.554
10090SOL    HW340680   6.032   4.321   5.612
10090SOL    MW440681   5.964   4.322   5.555
10091SOL     OW40682   6.348   3.859   5.254
10091SOL    HW240683   6.325   3.767   5.256
10091SOL    HW340684   6.434   3.861   5.211
10091SOL    MW440685   6.355   3.849   5.250
10092SOL     OW40686   6.032   4.383   5.293
10092SOL    HW240687   6.112   4.433   5.279
10092SOL    HW340688   6.023   4.377   5.388
10092SOL    MW440689   6.041   4.389   5.303
10093SOL     OW40690   6.353   5.533   4.667
10093SOL    HW240691   6.442   5.548   4.697
10093SOL    HW340692   6.348   5.580   4.583
10093SOL    MW440693   6.363   5.541   4.660
10094SOL     OW40694   7.009   3.908   5.564
10094SOL    HW240695   7.065   3.835   5.590
10094SOL    HW340696   6.979   3.946   5.646
10094SOL    MW440697   7.013   3.903   5.577
10095SOL     OW40698   5.734   5.213   4.332
10095SOL    HW240699   5.706   5.252   4.414
10095SOL    HW340700   5.754   5.122   4.354
10095SOL    MW440701   5.732   5.205   4.345
10096SOL     OW40702   6.567   5.256   4.367
10096SOL    HW240703   6.650   5.210   4.351
10096SOL    HW340704   6.557   5.255   4.463
10096SOL    MW440705   6.577   5.249   4.377
10097SOL     OW40706   7.399   4.401   4.681
10097SOL    HW240707   7.488   4.431   4.663
10097SOL    HW340708   7.379   4.341   4.610
10097SOL    MW440709   7.408   4.398   4.670
10098SOL     OW40710   7.250   4.580   5.561
10098SOL    HW240711   7.305   4.504   5.542
10098SOL    HW340712   7.252   4.588   5.656
10098SOL    MW440713   7.258   4.571   5.569
10099SOL     OW40714   6.300   5.313   3.772
10099SOL    HW240715   6.240   5.382   3.742
10099SOL    HW340716   6.245   5.255   3.825
10099SOL    MW440717   6.284   5.315   3.774
10100SOL     OW40718   6.738   3.958   3.995
10100SOL    HW240719   6.671   3.934   3.932
10100SOL    HW340720   6.803   4.007   3.944
10100SOL    MW440721   6.738   3.960   3.980
10101SOL     OW40722   6.545   4.142   5.080
10101SOL    HW240723   6.464   4.183   5.108
10101SOL    HW340724   6.592   4.210   5.032
10101SOL    MW440725   6.540   4.157   5.078
10102SOL     OW40726   6.805   4.480   4.703
10102SOL    HW240727   6.818   4.574   4.713
10102SOL    HW340728   6.766   4.470   4.617
10102SOL    MW440729   6.801   4.491   4.693
10103SOL     OW40730   6.257   4.675   4.507
10103SOL    HW240731   6.168   4.666   4.540
10103SOL    HW340732   6.261   4.765   4.475
10103SOL    MW440733   6.246   4.686   4.507
10104SOL     OW40734   7.056   4.258   4.502
10104SOL    HW240735   7.001   4.179   4.501
10104SOL    HW340736   7.038   4.299   4.586
10104SOL    MW440737   7.046   4.253   4.511
10105SOL     OW40738   6.027   3.945   5.319
10105SOL    HW240739   5.948   3.963   5.371
10105SOL    HW340740   6.022   4.007   5.246
10105SOL    MW440741   6.017   3.955   5.316
10106SOL     OW40742   6.675   4.462   4.459
10106SOL    HW240743   6.612   4.394   4.483
10106SOL    HW340744   6.695   4.443   4.367
10106SOL    MW440745   6.669   4.449   4.451
10107SOL     OW40746   5.931   5.357   4.161
10107SOL    HW240747   5.892   5.404   4.087
10107SOL    HW340748   5.865   5.292   4.186
10107SOL    MW440749   5.918   5.355   4.155
10108SOL     OW40750   6.423   4.766   4.185
10108SOL    HW240751   6.425   4.740   4.092
10108SOL    HW340752   6.481   4.703   4.228
10108SOL    MW440753   6.431   4.755   4.179
10109SOL     OW40754   6.976   5.326   4.957
10109SOL    HW240755   6.901   5.372   4.995
10109SOL    HW340756   6.958   5.233   4.974
10109SOL    MW440757   6.965   5.320   4.965
10110SOL     OW40758   6.980   5.534   4.387
10110SOL    HW240759   6.923   5.487   4.326
10110SOL    HW340760   7.066   5.495   4.374
10110SOL    MW440761   6.983   5.525   4.377
10111SOL     OW40762   6.933   4.010   4.518
10111SOL    HW240763   6.961   3.942   4.579
10111SOL    HW340764   6.847   3.981   4.488
10111SOL    MW440765   6.926   3.997   4.522
10112SOL     OW40766   5.738   4.944   4.452
10112SOL    HW240767   5.802   4.976   4.515
10112SOL    HW340768   5.787   4.880   4.400
10112SOL    MW440769   5.753   4.940   4.453
10113SOL     OW40770   6.238   5.020   5.434
10113SOL    HW240771   6.286   5.103   5.421
10113SOL    HW340772   6.295   4.968   5.490
10113SOL    MW440773   6.252   5.024   5.440
10114SOL     OW40774   5.814   5.262   5.574
10114SOL    HW240775   5.870   5.186   5.589
10114SOL    HW340776   5.763   5.240   5.496
10114SOL    MW440777   5.814   5.249   5.565
10115SOL     OW40778   6.913   4.114   3.853
10115SOL    HW240779   6.886   4.180   3.789
10115SOL    HW340780   6.983   4.157   3.903
10115SOL    MW440781   6.918   4.127   3.850
10116SOL     OW40782   6.581   3.819   3.790
10116SOL    HW240783   6.637   3.811   3.712
10116SOL    HW340784   6.558   3.729   3.812
10116SOL    MW440785   6.586   3.806   3.783
10117SOL     OW40786   7.086   4.670   3.995
10117SOL    HW240787   7.053   4.759   3.985
10117SOL    HW340788   7.051   4.641   4.080
10117SOL    MW440789   7.076   4.679   4.006
10118SOL     OW40790   6.699   5.099   5.183
10118SOL    HW240791   6.610   5.105   5.151
10118SOL    HW340792   6.743   5.178   5.151
10118SOL    MW440793   6.694   5.109   5.175
10119SOL     OW40794   5.992   3.767   5.525
10119SOL    HW240795   5.920   3.732   5.473
10119SOL    HW340796   6.050   3.808   5.460
10119SOL    MW440797   5.990   3.768   5.510
10120SOL     OW40798   6.016   5.257   4.824
10120SOL    HW240799   6.061   5.319   4.881
10120SOL    HW340800   5.923   5.276   4.837
10120SOL    MW440801   6.009   5.267   4.831
10121SOL     OW40802   7.456   4.786   5.178
10121SOL    HW240803   7.371   4.799   5.137
10121SOL    HW340804   7.436   4.750   5.265
10121SOL    MW440805   7.443   4.782   5.183
10122SOL     OW40806   6.438   5.325   4.932
10122SOL    HW240807   6.462   5.314   4.841
10122SOL    HW340808   6.361   5.382   4.930
10122SOL    MW440809   6.430   5.330   4.921
10123SOL     OW40810   6.080   4.708   3.787
10123SOL    HW240811   6.003   4.721   3.843
10123SOL    HW340812   6.044   4.672   3.706
10123SOL    MW440813   6.066   4.704   3.784
10124SOL     OW40814   6.733   4.681   4.030
10124SOL    HW240815   6.643   4.702   4.005
10124SOL    HW340816   6.760   4.754   4.086
10124SOL    MW440817   6.725   4.693   4.033
10125SOL     OW40818   6.233   5.030   4.722
10125SOL    HW240819   6.226   5.009   4.816
10125SOL    HW340820   6.151   4.998   4.685
10125SOL    MW440821   6.221   5.024   4.729
10126SOL     OW40822   7.097   4.040   5.124
10126SOL    HW240823   7.044   4.042   5.204
10126SOL    HW340824   7.082   3.953   5.087
10126SOL    MW440825   7.089   4.030   5.129
10127SOL     OW40826   7.433   3.964   4.997
10127SOL    HW240827   7.414   4.031   4.932
10127SOL    HW340828   7.490   3.902   4.952
10127SOL    MW440829   7.437   3.965   4.983
10128SOL     OW40830   5.679   5.122   5.385
10128SOL    HW240831   5.723   5.055   5.331
10128SOL    HW340832   5.594   5.084   5.405
10128SOL    MW440833   5.674   5.108   5.381
10129SOL     OW40834   6.362   3.797   4.437
10129SOL    HW240835   6.291   3.858   4.419
10129SOL    HW340836   6.413   3.794   4.356
10129SOL    MW440837   6.358   3.803   4.424
10130SOL     OW40838   6.120   5.037   4.186
10130SOL    HW240839   6.113   5.069   4.276
10130SOL    HW340840   6.030   5.021   4.158
10130SOL    MW440841   6.108   5.039   4.193
10131SOL     OW40842   6.715   5.430   5.095
10131SOL    HW240843   6.635   5.415   5.045
10131SOL    HW340844   6.722   5.525   5.102
10131SOL    MW440845   6.706   5.441   5.089
10132SOL     OW40846   6.829   5.395   4.585
10132SOL    HW240847   6.876   5.468   4.544
10132SOL    HW340848   6.750   5.434   4.621
10132SOL    MW440849   6.824   5.410   4.584
10133SOL     OW40850   7.237   5.490   4.860
10133SOL    HW240851   7.280   5.460   4.940
10133SOL    HW340852   7.156   5.438   4.857
10133SOL    MW440853   7.232   5.479   4.870
10134SOL     OW40854   6.322   4.454   5.567
10134SOL    HW240855   6.392   4.396   5.539
10134SOL    HW340856   6.265   4.399   5.622
10134SOL    MW440857   6.324   4.441   5.571
10135SOL     OW40858   7.109   4.666   5.200
10135SOL    HW240859   7.114   4.719   5.280
10135SOL    HW340860   7.071   4.583   5.228
10135SOL    MW440861   7.105   4.661   5.215
10136SOL     OW40862   6.749   3.801   5.446
10136SOL    HW240863   6.744   3.708   5.427
10136SOL    HW340864   6.832   3.812   5.492
10136SOL    MW440865   6.757   3.790   5.450
10137SOL     OW40866   6.123   4.321   3.900
10137SOL    HW240867   6.089   4.377   3.970
10137SOL    HW340868   6.194   4.271   3.940
10137SOL    MW440869   6.129   4.322   3.914
10138SOL     OW40870   7.219   5.072   4.722
10138SOL    HW240871   7.254   5.054   4.635
10138SOL    HW340872   7.124   5.073   4.709
10138SOL    MW440873   7.211   5.069   4.709
10139SOL     OW40874   6.648   4.720   5.091
10139SOL    HW240875   6.691   4.755   5.169
10139SOL    HW340876   6.631   4.797   5.037
10139SOL    MW440877   6.651   4.735   5.094
10140SOL     OW40878   7.179   4.207   3.964
10140SOL    HW240879   7.171   4.278   3.901
10140SOL    HW340880   7.197   4.251   4.047
10140SOL    MW440881   7.180   4.221   3.966
10141SOL     OW40882   6.039   3.862   4.393
10141SOL    HW240883   6.089   3.905   4.324
10141SOL    HW340884   5.954   3.906   4.393
10141SOL    MW440885   6.036   3.875   4.384
10142SOL     OW40886   5.798   4.924   5.253
10142SOL    HW240887   5.826   4.877   5.331
10142SOL    HW340888   5.719   4.879   5.224
10142SOL    MW440889   5.791   4.913   5.259
10143SOL     OW40890   6.306   4.251   5.220
10143SOL    HW240891   6.278   4.339   5.244
10143SOL    HW340892   6.275   4.195   5.291
10143SOL    MW440893   6.298   4.254   5.232
10144SOL     OW40894   6.848   4.469   3.939
10144SOL    HW240895   6.895   4.487   3.858
10144SOL    HW340896   6.814   4.553   3.967
10144SOL    MW440897   6.850   4.483   3.932
10145SOL     OW40898   5.961   4.647   4.433
10145SOL    HW240899   6.019   4.703   4.381
10145SOL    HW340900   6.005   4.562   4.435
10145SOL    MW440901   5.974   4.644   4.426
10146SOL     OW40902   7.101   3.999   4.270
10146SOL    HW240903   7.023   3.949   4.295
10146SOL    HW340904   7.072   4.090   4.270
10146SOL    MW440905   7.087   4.003   4.273
10147SOL     OW40906   6.687   3.961   4.429
10147SOL    HW240907   6.707   4.036   4.373
10147SOL    HW340908   6.667   4.000   4.514
10147SOL    MW440909   6.688   3.977   4.433
10148SOL     OW40910   6.583   5.211   3.761
10148SOL    HW240911   6.610   5.289   3.713
10148SOL    HW340912   6.490   5.226   3.780
10148SOL    MW440913   6.574   5.224   3.757
10149SOL     OW40914   7.447   4.734   5.448
10149SOL    HW240915   7.360   4.714   5.484
10149SOL    HW340916   7.501   4.660   5.473
10149SOL    MW440917   7.442   4.723   5.456
10150SOL     OW40918   5.668   5.247   4.605
10150SOL    HW240919   5.700   5.251   4.696
10150SOL    HW340920   5.573   5.255   4.613
10150SOL    MW440921   5.660   5.250   4.618
10151SOL     OW40922   5.623   4.373   4.152
10151SOL    HW240923   5.563   4.345   4.222
10151SOL    HW340924   5.697   4.313   4.158
10151SOL    MW440925   5.625   4.362   4.161
10152SOL     OW40926   7.191   5.585   5.586
10152SOL    HW240927   7.236   5.509   5.551
10152SOL    HW340928   7.229   5.598   5.673
10152SOL    MW440929   7.201   5.578   5.592
10153SOL     OW40930   6.791   5.104   4.312
10153SOL    HW240931   6.814   5.055   4.390
10153SOL    HW340932   6.872   5.146   4.284
10153SOL    MW440933   6.804   5.104   4.319
10154SOL     OW40934   6.049   4.112   5.041
10154SOL    HW240935   6.082   4.193   5.081
10154SOL    HW340936   6.022   4.138   4.953
10154SOL    MW440937   6.048   4.126   5.035
10155SOL     OW40938   6.003   4.079   4.777
10155SOL    HW240939   6.033   3.993   4.748
10155SOL    HW340940   5.908   4.072   4.780
10155SOL    MW440941   5.995   4.068   4.775
10156SOL     OW40942   6.832   4.288   5.468
10156SOL    HW240943   6.884   4.223   5.421
10156SOL    HW340944   6.790   4.339   5.398
10156SOL    MW440945   6.833   4.285   5.451
10157SOL     OW40946   6.931   4.083   5.329
10157SOL    HW240947   6.838   4.067   5.316
10157SOL    HW340948   6.957   4.021   5.397
10157SOL    MW440949   6.921   4.073   5.336
10158SOL     OW40950   6.146   3.857   4.668
10158SOL    HW240951   6.156   3.766   4.694
10158SOL    HW340952   6.102   3.853   4.583
10158SOL    MW440953   6.142   3.845   4.660
10159SOL     OW40954   6.240   5.472   5.214
10159SOL    HW240955   6.157   5.457   5.259
10159SOL    HW340956   6.299   5.405   5.249
10159SOL    MW440957   6.238   5.462   5.224
10160SOL     OW40958   7.297   4.179   4.839
10160SOL    HW240959   7.230   4.212   4.899
10160SOL    HW340960   7.340   4.257   4.805
10160SOL    MW440961   7.295   4.194   4.843
10161SOL     OW40962   7.475   4.899   4.809
10161SOL    HW240963   7.468   4.839   4.734
10161SOL    HW340964   7.401   4.959   4.798
10161SOL    MW440965   7.465   4.899   4.798
10162SOL     OW40966   6.857   4.761   4.727
10162SOL    HW240967   6.871   4.733   4.818
10162SOL    HW340968   6.943   4.792   4.699
10162SOL    MW440969   6.870   4.762   4.736
10163SOL     OW40970   6.940   4.256   5.006
10163SOL    HW240971   6.961   4.257   4.913
10163SOL    HW340972   6.985   4.178   5.039
10163SOL    MW440973   6.947   4.246   4.998
10164SOL     OW40974   7.433   4.387   5.548
10164SOL    HW240975   7.470   4.332   5.617
10164SOL    HW340976   7.458   4.344   5.466
10164SOL    MW440977   7.440   4.375   5.547
10165SOL     OW40978   6.980   4.685   5.600
10165SOL    HW240979   7.046   4.633   5.554
10165SOL    HW340980   7.000   4.672   5.693
10165SOL    MW440981   6.991   4.676   5.607
10166SOL     OW40982   6.931   3.771   3.948
10166SOL    HW240983   7.005   3.815   3.991
10166SOL    HW340984   6.855   3.825   3.970
10166SOL    MW440985   6.931   3.783   3.956
10167SOL     OW40986   6.991   4.546   4.226
10167SOL    HW240987   6.906   4.516   4.196
10167SOL    HW340988   6.983   4.553   4.321
10167SOL    MW440989   6.979   4.544   4.235
10168SOL     OW40990   6.067   5.009   4.957
10168SOL    HW240991   6.079   5.036   5.048
10168SOL    HW340992   6.048   5.090   4.910
10168SOL    MW440993   6.066   5.024   4.962
10169SOL     OW40994   6.351   3.989   4.780
10169SOL    HW240995   6.324   3.991   4.871
10169SOL    HW340996   6.281   3.941   4.735
10169SOL    MW440997   6.339   3.985   4.787
10170SOL     OW40998   6.205   5.481   4.942
10170SOL    HW240999   6.257   5.558   4.919
10170SOL    HW341000   6.214   5.473   5.037
10170SOL    MW441001   6.214   5.488   4.953
10171SOL     OW41002   7.107   5.066   5.174
10171SOL    HW241003   7.092   4.995   5.237
10171SOL    HW341004   7.153   5.024   5.102
10171SOL    MW441005   7.113   5.050   5.174
10172SOL     OW41006   6.181   4.797   5.291
10172SOL    HW241007   6.218   4.802   5.203
10172SOL    HW341008   6.220   4.870   5.338
10172SOL    MW441009   6.191   4.807   5.286
10173SOL     OW41010   6.361   4.840   5.103
10173SOL    HW241011   6.420   4.786   5.156
10173SOL    HW341012   6.376   4.812   5.013
10173SOL    MW441013   6.371   4.829   5.099
10174SOL     OW41014   6.364   4.212   3.952
10174SOL    HW241015   6.437   4.261   3.915
10174SOL    HW341016   6.380   4.121   3.926
10174SOL    MW441017   6.376   4.207   3.945
10175SOL     OW41018   7.172   5.329   5.275
10175SOL    HW241019   7.214   5.314   5.360
10175SOL    HW341020   7.163   5.242   5.237
10175SOL    MW441021   7.176   5.317   5.282
10176SOL     OW41022   6.832   3.808   4.866
10176SOL    HW241023   6.887   3.817   4.788
10176SOL    HW341024   6.887   3.842   4.937
10176SOL    MW441025   6.846   3.813   4.865
10177SOL     OW41026   5.839   4.721   4.050
10177SOL    HW241027   5.776   4.737   3.979
10177SOL    HW341028   5.786   4.684   4.121
10177SOL    MW441029   5.824   4.718   4.050
10178SOL     OW41030   6.195   5.075   3.909
10178SOL    HW241031   6.210   5.051   4.001
10178SOL    HW341032   6.103   5.053   3.893
10178SOL    MW441033   6.185   5.068   3.919
10179SOL     OW41034   6.734   5.306   4.061
10179SOL    HW241035   6.742   5.224   4.012
10179SOL    HW341036   6.653   5.345   4.028
10179SOL    MW441037   6.724   5.301   4.051
10180SOL     OW41038   5.993   5.464   4.630
10180SOL    HW241039   5.997   5.375   4.665
10180SOL    HW341040   6.019   5.455   4.539
10180SOL    MW441041   5.996   5.452   4.622
10181SOL     OW41042   6.610   4.942   4.873
10181SOL    HW241043   6.542   4.876   4.889
10181SOL    HW341044   6.628   4.936   4.780
10181SOL    MW441045   6.603   4.933   4.864
10182SOL     OW41046   5.699   5.217   5.124
10182SOL    HW241047   5.689   5.175   5.210
10182SOL    HW341048   5.620   5.270   5.114
10182SOL    MW441049   5.688   5.218   5.135
10183SOL     OW41050   6.603   4.081   4.694
10183SOL    HW241051   6.533   4.033   4.739
10183SOL    HW341052   6.635   4.144   4.758
10183SOL    MW441053   6.598   4.083   4.708
10184SOL     OW41054   6.254   4.517   5.314
10184SOL    HW241055   6.247   4.612   5.302
10184SOL    HW341056   6.263   4.506   5.409
10184SOL    MW441057   6.255   4.529   5.324
10185SOL     OW41058   5.975   5.032   5.572
10185SOL    HW241059   6.047   5.034   5.509
10185SOL    HW341060   5.945   4.941   5.571
10185SOL    MW441061   5.980   5.021   5.564
10186SOL     OW41062   7.059   3.795   5.039
10186SOL    HW241063   7.130   3.741   5.003
10186SOL    HW341064   7.058   3.774   5.132
10186SOL    MW441065   7.068   3.786   5.047
10187SOL     OW41066   7.259   5.325   5.523
10187SOL    HW241067   7.232   5.322   5.614
10187SOL    HW341068   7.355   5.329   5.526
10187SOL    MW441069   7.269   5.325   5.535
10188SOL     OW41070   6.070   4.187   4.507
10188SOL    HW241071   6.141   4.135   4.470
10188SOL    HW341072   6.056   4.152   4.594
10188SOL    MW441073   6.078   4.176   4.514
10189SOL     OW41074   5.625   5.522   5.579
10189SOL    HW241075   5.675   5.500   5.501
10189SOL    HW341076   5.633   5.617   5.587
10189SOL    MW441077   5.633   5.531   5.570
10190SOL     OW41078   6.386   5.280   4.583
10190SOL    HW241079   6.314   5.217   4.596
10190SOL    HW341080   6.347   5.365   4.601
10190SOL    MW441081   6.370   5.283   4.586
10191SOL     OW41082   6.706   4.128   4.231
10191SOL    HW241083   6.728   4.065   4.163
10191SOL    HW341084   6.611   4.120   4.242
10191SOL    MW441085   6.696   4.119   4.223
10192SOL     OW41086   5.791   3.818   4.163
10192SOL    HW241087   5.862   3.839   4.102
10192SOL    HW341088   5.745   3.746   4.121
10192SOL    MW441089   5.795   3.812   4.149
10193SOL     OW41090   5.622   4.285   5.306
10193SOL    HW241091   5.686   4.351   5.281
10193SOL    HW341092   5.541   4.312   5.263
10193SOL    MW441093   5.620   4.297   5.298
10194SOL     OW41094   7.360   5.192   4.263
10194SOL    HW241095   7.330   5.125   4.324
10194SOL    HW341096   7.454   5.198   4.277
10194SOL    MW441097   7.368   5.184   4.273
10195SOL     OW41098   6.916   4.869   4.193
10195SOL    HW241099   6.888   4.955   4.226
10195SOL    HW341100   6.944   4.885   4.103
10195SOL    MW441101   6.916   4.883   4.185
10196SOL     OW41102   6.578   3.789   4.246
10196SOL    HW241103   6.615   3.848   4.311
10196SOL    HW341104   6.555   3.845   4.172
10196SOL    MW441105   6.579   3.804   4.245
10197SOL     OW41106   7.431   4.671   4.668
10197SOL    HW241107   7.422   4.703   4.579
10197SOL    HW341108   7.384   4.587   4.668
10197SOL    MW441109   7.424   4.664   4.658
10198SOL     OW41110   5.807   4.511   5.247
10198SOL    HW241111   5.828   4.580   5.185
10198SOL    HW341112   5.887   4.458   5.252
10198SOL    MW441113   5.820   4.512   5.241
10199SOL     OW41114   7.343   4.602   4.369
10199SOL    HW241115   7.437   4.591   4.357
10199SOL    HW341116   7.319   4.674   4.310
10199SOL    MW441117   7.353   4.610   4.360
10200SOL     OW41118   5.792   4.526   5.514
10200SOL    HW241119   5.718   4.470   5.540
10200SOL    HW341120   5.787   4.529   5.419
10200SOL    MW441121   5.781   4.519   5.504
10201SOL     OW41122   5.958   3.813   4.964
10201SOL    HW241123   6.001   3.897   4.984
10201SOL    HW341124   6.031   3.751   4.957
10201SOL    MW441125   5.973   3.816   4.965
10202SOL     OW41126   5.999   4.480   4.142
10202SOL    HW241127   5.999   4.575   4.127
10202SOL    HW341128   6.076   4.464   4.196
10202SOL    MW441129   6.009   4.491   4.147
10203SOL     OW41130   6.775   4.339   5.206
10203SOL    HW241131   6.811   4.312   5.122
10203SOL    HW341132   6.688   4.373   5.185
10203SOL    MW441133   6.769   4.340   5.193
10204SOL     OW41134   5.758   4.211   4.431
10204SOL    HW241135   5.820   4.218   4.504
10204SOL    HW341136   5.758   4.118   4.408
10204SOL    MW441137   5.766   4.200   4.438
10205SOL     OW41138   7.305   5.551   3.963
10205SOL    HW241139   7.372   5.584   3.903
10205SOL    HW341140   7.262   5.630   3.997
10205SOL    MW441141   7.307   5.566   3.959
10206SOL     OW41142   6.440   4.472   4.915
10206SOL    HW241143   6.398   4.390   4.891
10206SOL    HW341144   6.441   4.471   5.011
10206SOL    MW441145   6.433   4.461   4.924
10207SOL     OW41146   7.111   5.605   5.314
10207SOL    HW241147   7.114   5.511   5.297
10207SOL    HW341148   7.134   5.613   5.406
10207SOL    MW441149   7.114   5.593   5.324
10208SOL     OW41150   6.244   3.942   5.020
10208SOL    HW241151   6.175   4.005   5.041
10208SOL    HW341152   6.271   3.906   5.105
10208SOL    MW441153   6.238   3.945   5.033
10209SOL     OW41154   5.627   4.783   3.889
10209SOL    HW241155   5.596   4.848   3.952
10209SOL    HW341156   5.576   4.705   3.908
10209SOL    MW441157   5.617   4.780   3.899
10210SOL     OW41158   7.039   3.795   4.637
10210SOL    HW241159   7.127   3.804   4.674
10210SOL    HW341160   7.049   3.736   4.563
10210SOL    MW441161   7.053   3.789   4.631
10211SOL     OW41162   7.071   4.534   4.481
10211SOL    HW241163   7.151   4.549   4.430
10211SOL    HW341164   7.064   4.439   4.487
10211SOL    MW441165   7.080   4.523   4.476
10212SOL     OW41166   6.211   5.583   3.831
10212SOL    HW241167   6.116   5.583   3.823
10212SOL    HW341168   6.227   5.529   3.909
10212SOL    MW441169   6.201   5.577   3.840
10213SOL     OW41170   6.521   4.460   5.178
10213SOL    HW241171   6.590   4.527   5.175
10213SOL    HW341172   6.454   4.498   5.234
10213SOL    MW441173   6.522   4.473   5.185
10214SOL     OW41174   5.939   4.760   5.426
10214SOL    HW241175   5.893   4.676   5.428
10214SOL    HW341176   5.996   4.754   5.350
10214SOL    MW441177   5.941   4.748   5.418
10215SOL     OW41178   7.056   4.403   3.747
10215SOL    HW241179   6.984   4.379   3.689
10215SOL    HW341180   7.122   4.440   3.689
10215SOL    MW441181   7.055   4.405   3.732
10216SOL     OW41182   6.190   5.135   4.427
10216SOL    HW241183   6.255   5.068   4.448
10216SOL    HW341184   6.242   5.212   4.404
10216SOL    MW441185   6.205   5.137   4.426
10217SOL     OW41186   6.451   4.300   4.557
10217SOL    HW241187   6.391   4.318   4.629
10217SOL    HW341188   6.485   4.212   4.576
10217SOL    MW441189   6.447   4.290   4.570
10218SOL     OW41190   7.392   3.799   5.226
10218SOL    HW241191   7.313   3.845   5.254
10218SOL    HW341192   7.427   3.853   5.155
10218SOL    MW441193   7.386   3.812   5.220
10219SOL     OW41194   6.676   4.883   4.576
10219SOL    HW241195   6.768   4.864   4.594
10219SOL    HW341196   6.649   4.813   4.516
10219SOL    MW441197   6.684   4.871   4.570
10220SOL     OW41198   6.469   4.703   3.931
10220SOL    HW241199   6.455   4.615   3.896
10220SOL    HW341200   6.420   4.760   3.872
10220SOL    MW441201   6.461   4.698   3.919
10221SOL     OW41202   6.950   5.121   4.672
10221SOL    HW241203   6.923   5.205   4.637
10221SOL    HW341204   6.910   5.116   4.759
10221SOL    MW441205   6.943   5.130   4.678
10222SOL     OW41206   6.869   5.069   4.940
10222SOL    HW241207   6.880   5.036   5.029
10222SOL    HW341208   6.788   5.028   4.909
10222SOL    MW441209   6.859   5.061   4.946
10223SOL     OW41210   5.882   4.427   4.710
10223SOL    HW241211   5.832   4.426   4.791
10223SOL    HW341212   5.902   4.519   4.694
10223SOL    MW441213   5.878   4.439   4.718
10224SOL     OW41214   6.949   5.191   5.472
10224SOL    HW241215   6.949   5.285   5.488
10224SOL    HW341216   6.994   5.181   5.388
10224SOL    MW441217   6.955   5.201   5.463
10225SOL     OW41218   7.188   3.909   4.033
10225SOL    HW241219   7.181   3.913   4.128
10225SOL    HW341220   7.200   4.000   4.006
10225SOL    MW441221   7.189   3.922   4.041
10226SOL     OW41222   6.477   4.472   4.147
10226SOL    HW241223   6.457   4.458   4.054
10226SOL    HW341224   6.570   4.451   4.154
10226SOL    MW441225   6.487   4.467   4.136
10227SOL     OW41226   5.804   4.095   5.451
10227SOL    HW241227   5.761   4.154   5.388
10227SOL    HW341228   5.872   4.150   5.491
10227SOL    MW441229   5.808   4.110   5.448
10228SOL     OW41230   6.916   4.715   4.996
10228SOL    HW241231   6.979   4.712   5.069
10228SOL    HW341232   6.832   4.733   5.038
10228SOL    MW441233   6.912   4.717   5.011
10229SOL     OW41234   6.460   5.430   4.185
10229SOL    HW241235   6.518   5.501   4.212
10229SOL    HW341236   6.483   5.358   4.243
10229SOL    MW441237   6.471   5.430   4.196
10230SOL     OW41238   7.255   3.892   4.775
10230SOL    HW241239   7.300   3.810   4.794
10230SOL    HW341240   7.275   3.948   4.851
10230SOL    MW441241   7.265   3.888   4.787
10231SOL     OW41242   5.703   3.735   4.874
10231SOL    HW241243   5.694   3.736   4.779
10231SOL    HW341244   5.797   3.747   4.889
10231SOL    MW441245   5.715   3.738   4.865
10232SOL     OW41246   7.340   4.928   4.494
10232SOL    HW241247   7.319   4.874   4.417
10232SOL    HW341248   7.436   4.926   4.498
10232SOL    MW441249   7.349   4.921   4.483
10233SOL     OW41250   6.032   5.073   5.237
10233SOL    HW241251   5.953   5.023   5.260
10233SOL    HW341252   6.102   5.032   5.287
10233SOL    MW441253   6.030   5.061   5.247
10234SOL     OW41254   5.916   3.862   3.920
10234SOL    HW241255   5.845   3.917   3.888
10234SOL    HW341256   5.958   3.828   3.841
10234SOL    MW441257   5.912   3.864   3.906
10235SOL     OW41258   7.040   4.359   4.756
10235SOL    HW241259   6.963   4.405   4.722
10235SOL    HW341260   7.097   4.428   4.790
10235SOL    MW441261   7.037   4.374   4.756
10236SOL     OW41262   5.672   3.961   3.769
10236SOL    HW241263   5.639   4.040   3.813
10236SOL    HW341264   5.727   3.994   3.698
10236SOL    MW441265   5.675   3.975   3.766
10237SOL     OW41266   5.706   5.218   3.958
10237SOL    HW241267   5.723   5.302   4.000
10237SOL    HW341268   5.741   5.227   3.870
10237SOL    MW441269   5.711   5.231   3.952
10238SOL     OW41270   6.978   5.307   4.175
10238SOL    HW241271   7.041   5.297   4.104
10238SOL    HW341272   6.895   5.327   4.130
10238SOL    MW441273   6.975   5.308   4.160
10239SOL     OW41274   7.341   4.575   5.862
10239SOL    HW241275   7.382   4.517   5.927
10239SOL    HW341276   7.248   4.567   5.879
10239SOL    MW441277   7.335   4.567   5.872
10240SOL     OW41278   6.135   4.758   6.091
10240SOL    HW241279   6.225   4.733   6.075
10240SOL    HW341280   6.131   4.851   6.068
10240SOL    MW441281   6.147   4.767   6.086
10241SOL     OW41282   5.861   4.242   6.032
10241SOL    HW241283   5.893   4.330   6.014
10241SOL    HW341284   5.849   4.240   6.127
10241SOL    MW441285   5.864   4.254   6.044
10242SOL     OW41286   6.260   3.997   6.119
10242SOL    HW241287   6.318   4.073   6.121
10242SOL    HW341288   6.195   4.018   6.052
10242SOL    MW441289   6.259   4.009   6.110
10243SOL     OW41290   6.347   4.924   6.294
10243SOL    HW241291   6.427   4.927   6.346
10243SOL    HW341292   6.375   4.891   6.208
10243SOL    MW441293   6.361   4.920   6.289
10244SOL     OW41294   6.974   4.906   5.810
10244SOL    HW241295   6.892   4.942   5.776
10244SOL    HW341296   7.042   4.949   5.759
10244SOL    MW441297   6.972   4.916   5.798
10245SOL     OW41298   5.973   5.041   6.476
10245SOL    HW241299   5.949   5.094   6.552
10245SOL    HW341300   6.029   5.099   6.424
10245SOL    MW441301   5.977   5.056   6.479
10246SOL     OW41302   6.526   5.047   6.003
10246SOL    HW241303   6.503   5.109   6.071
10246SOL    HW341304   6.483   4.965   6.029
10246SOL    MW441305   6.518   5.043   6.014
10247SOL     OW41306   6.023   4.020   5.971
10247SOL    HW241307   5.997   3.982   5.887
10247SOL    HW341308   5.960   4.090   5.987
10247SOL    MW441309   6.012   4.023   5.962
10248SOL     OW41310   5.858   4.981   6.008
10248SOL    HW241311   5.806   5.049   5.964
10248SOL    HW341312   5.855   4.907   5.948
10248SOL    MW441313   5.850   4.980   5.995
10249SOL     OW41314   6.520   5.444   5.786
10249SOL    HW241315   6.475   5.460   5.869
10249SOL    HW341316   6.451   5.409   5.728
10249SOL    MW441317   6.506   5.441   5.788
10250SOL     OW41318   7.455   4.217   5.761
10250SOL    HW241319   7.364   4.219   5.789
10250SOL    HW341320   7.500   4.279   5.819
10250SOL    MW441321   7.448   4.225   5.771
10251SOL     OW41322   7.200   4.820   6.111
10251SOL    HW241323   7.110   4.820   6.146
10251SOL    HW341324   7.193   4.866   6.028
10251SOL    MW441325   7.187   4.826   6.105
10252SOL     OW41326   6.727   4.401   6.072
10252SOL    HW241327   6.753   4.425   5.983
10252SOL    HW341328   6.709   4.308   6.068
10252SOL    MW441329   6.729   4.393   6.059
10253SOL     OW41330   7.392   5.021   5.923
10253SOL    HW241331   7.348   5.062   5.998
10253SOL    HW341332   7.449   5.089   5.888
10253SOL    MW441333   7.394   5.035   5.928
10254SOL     OW41334   5.764   5.497   5.818
10254SOL    HW241335   5.793   5.587   5.810
10254SOL    HW341336   5.714   5.480   5.739
10254SOL    MW441337   5.762   5.505   5.807
10255SOL     OW41338   7.168   5.305   5.789
10255SOL    HW241339   7.216   5.374   5.835
10255SOL    HW341340   7.089   5.349   5.758
10255SOL    MW441341   7.163   5.319   5.792
10256SOL     OW41342   6.566   4.430   5.733
10256SOL    HW241343   6.568   4.377   5.654
10256SOL    HW341344   6.654   4.467   5.739
10256SOL    MW441345   6.578   4.429   5.722
10257SOL     OW41346   7.180   4.356   6.069
10257SOL    HW241347   7.219   4.356   6.156
10257SOL    HW341348   7.121   4.432   6.069
10257SOL    MW441349   7.177   4.367   6.080
10258SOL     OW41350   6.736   5.049   5.825
10258SOL    HW241351   6.686   5.051   5.907
10258SOL    HW341352   6.670   5.067   5.757
10258SOL    MW441353   6.722   5.051   5.827
10259SOL     OW41354   6.199   5.467   5.933
10259SOL    HW241355   6.120   5.425   5.966
10259SOL    HW341356   6.265   5.450   6.000
10259SOL    MW441357   6.198   5.459   5.946
10260SOL     OW41358   6.335   4.882   5.640
10260SOL    HW241359   6.257   4.828   5.627
10260SOL    HW341360   6.306   4.955   5.693
10260SOL    MW441361   6.321   4.884   5.645
10261SOL     OW41362   6.916   5.398   5.708
10261SOL    HW241363   6.842   5.361   5.758
10261SOL    HW341364   6.924   5.488   5.741
10261SOL    MW441365   6.907   5.405   5.720
10262SOL     OW41366   7.140   5.072   5.650
10262SOL    HW241367   7.087   5.121   5.586
10262SOL    HW341368   7.171   5.138   5.711
10262SOL    MW441369   7.138   5.086   5.648
10263SOL     OW41370   6.365   3.961   5.705
10263SOL    HW241371   6.313   3.881   5.693
10263SOL    HW341372   6.452   3.938   5.673
10263SOL    MW441373   6.368   3.947   5.699
10264SOL     OW41374   6.300   5.313   5.641
10264SOL    HW241375   6.240   5.382   5.611
10264SOL    HW341376   6.245   5.255   5.694
10264SOL    MW441377   6.284   5.315   5.643
10265SOL     OW41378   6.738   3.958   5.864
10265SOL    HW241379   6.671   3.934   5.801
10265SOL    HW341380   6.803   4.007   5.813
10265SOL    MW441381   6.738   3.960   5.849
10266SOL     OW41382   6.675   4.462   6.328
10266SOL    HW241383   6.612   4.394   6.352
10266SOL    HW341384   6.695   4.443   6.236
10266SOL    MW441385   6.669   4.449   6.320
10267SOL     OW41386   5.931   5.357   6.030
10267SOL    HW241387   5.892   5.404   5.956
10267SOL    HW341388   5.865   5.292   6.055
10267SOL    MW441389   5.918   5.355   6.024
10268SOL     OW41390   6.423   4.766   6.054
10268SOL    HW241391   6.425   4.740   5.961
10268SOL    HW341392   6.481   4.703   6.097
10268SOL    MW441393   6.431   4.755   6.048
10269SOL     OW41394   6.913   4.114   5.722
10269SOL    HW241395   6.886   4.180   5.658
10269SOL    HW341396   6.983   4.157   5.772
10269SOL    MW441397   6.918   4.127   5.719
10270SOL     OW41398   6.581   3.819   5.659
10270SOL    HW241399   6.637   3.811   5.581
10270SOL    HW341400   6.558   3.729   5.681
10270SOL    MW441401   6.586   3.806   5.652
10271SOL     OW41402   7.086   4.670   5.864
10271SOL    HW241403   7.053   4.759   5.854
10271SOL    HW341404   7.051   4.641   5.949
10271SOL    MW441405   7.076   4.679   5.875
10272SOL     OW41406   6.080   4.708   5.656
10272SOL    HW241407   6.003   4.721   5.712
10272SOL    HW341408   6.044   4.672   5.575
10272SOL    MW441409   6.066   4.704   5.653
10273SOL     OW41410   6.733   4.681   5.899
10273SOL    HW241411   6.643   4.702   5.874
10273SOL    HW341412   6.760   4.754   5.955
10273SOL    MW441413   6.725   4.693   5.902
10274SOL     OW41414   6.123   4.321   5.769
10274SOL    HW241415   6.089   4.377   5.839
10274SOL    HW341416   6.194   4.271   5.809
10274SOL    MW441417   6.129   4.322   5.783
10275SOL     OW41418   7.179   4.207   5.833
10275SOL    HW241419   7.171   4.278   5.770
10275SOL    HW341420   7.197   4.251   5.916
10275SOL    MW441421   7.180   4.221   5.835
10276SOL     OW41422   6.848   4.469   5.808
10276SOL    HW241423   6.895   4.487   5.727
10276SOL    HW341424   6.814   4.553   5.836
10276SOL    MW441425   6.850   4.483   5.801
10277SOL     OW41426   6.583   5.211   5.630
10277SOL    HW241427   6.610   5.289   5.582
10277SOL    HW341428   6.490   5.226   5.649
10277SOL    MW441429   6.574   5.224   5.626
10278SOL     OW41430   5.623   4.373   6.021
10278SOL    HW241431   5.563   4.345   6.091
10278SOL    HW341432   5.697   4.313   6.027
10278SOL    MW441433   5.625   4.362   6.030
10279SOL     OW41434   6.791   5.104   6.181
10279SOL    HW241435   6.814   5.055   6.259
10279SOL    HW341436   6.872   5.146   6.153
10279SOL    MW441437   6.804   5.104   6.188
10280SOL     OW41438   6.931   3.771   5.817
10280SOL    HW241439   7.005   3.815   5.860
10280SOL    HW341440   6.855   3.825   5.839
10280SOL    MW441441   6.931   3.783   5.825
10281SOL     OW41442   6.991   4.546   6.095
10281SOL    HW241443   6.906   4.516   6.065
10281SOL    HW341444   6.983   4.553   6.190
10281SOL    MW441445   6.979   4.544   6.104
10282SOL     OW41446   6.364   4.212   5.821
10282SOL    HW241447   6.437   4.261   5.784
10282SOL    HW341448   6.380   4.121   5.795
10282SOL    MW441449   6.376   4.207   5.814
10283SOL     OW41450   5.839   4.721   5.919
10283SOL    HW241451   5.776   4.737   5.848
10283SOL    HW341452   5.786   4.684   5.990
10283SOL    MW441453   5.824   4.718   5.919
10284SOL     OW41454   6.195   5.075   5.778
10284SOL    HW241455   6.210   5.051   5.870
10284SOL    HW341456   6.103   5.053   5.762
10284SOL    MW441457   6.185   5.068   5.788
10285SOL     OW41458   6.734   5.306   5.930
10285SOL    HW241459   6.742   5.224   5.881
10285SOL    HW341460   6.653   5.345   5.897
10285SOL    MW441461   6.724   5.301   5.920
10286SOL     OW41462   6.706   4.128   6.100
10286SOL    HW241463   6.728   4.065   6.032
10286SOL    HW341464   6.611   4.120   6.111
10286SOL    MW441465   6.696   4.119   6.092
10287SOL     OW41466   5.791   3.818   6.032
10287SOL    HW241467   5.862   3.839   5.971
10287SOL    HW341468   5.745   3.746   5.990
10287SOL    MW441469   5.795   3.812   6.018
10288SOL     OW41470   7.360   5.192   6.132
10288SOL    HW241471   7.330   5.125   6.193
10288SOL    HW341472   7.454   5.198   6.146
10288SOL    MW441473   7.368   5.184   6.142
10289SOL     OW41474   6.916   4.869   6.062
10289SOL    HW241475   6.888   4.955   6.095
10289SOL    HW341476   6.944   4.885   5.972
10289SOL    MW441477   6.916   4.883   6.054
10290SOL     OW41478   6.578   3.789   6.115
10290SOL    HW241479   6.615   3.848   6.180
10290SOL    HW341480   6.555   3.845   6.041
10290SOL    MW441481   6.579   3.804   6.114
10291SOL     OW41482   5.999   4.480   6.011
10291SOL    HW241483   5.999   4.575   5.996
10291SOL    HW341484   6.076   4.464   6.065
10291SOL    MW441485   6.009   4.491   6.016
10292SOL     OW41486   7.305   5.551   5.832
10292SOL    HW241487   7.372   5.584   5.772
10292SOL    HW341488   7.262   5.630   5.866
10292SOL    MW441489   7.307   5.566   5.828
10293SOL     OW41490   5.627   4.783   5.758
10293SOL    HW241491   5.596   4.848   5.821
10293SOL    HW341492   5.576   4.705   5.777
10293SOL    MW441493   5.617   4.780   5.768
10294SOL     OW41494   7.039   3.795   6.506
10294SOL    HW241495   7.127   3.804   6.543
10294SOL    HW341496   7.049   3.736   6.432
10294SOL    MW441497   7.053   3.789   6.500
10295SOL     OW41498   6.211   5.583   5.700
10295SOL    HW241499   6.116   5.583   5.692
10295SOL    HW341500   6.227   5.529   5.778
10295SOL    MW441501   6.201   5.577   5.709
10296SOL     OW41502   7.056   4.403   5.615
10296SOL    HW241503   6.984   4.379   5.557
10296SOL    HW341504   7.122   4.440   5.557
10296SOL    MW441505   7.055   4.405   5.600
10297SOL     OW41506   6.469   4.703   5.800
10297SOL    HW241507   6.455   4.615   5.765
10297SOL    HW341508   6.420   4.760   5.741
10297SOL    MW441509   6.461   4.698   5.788
10298SOL     OW41510   7.188   3.909   5.902
10298SOL    HW241511   7.181   3.913   5.997
10298SOL    HW341512   7.200   4.000   5.875
10298SOL    MW441513   7.189   3.922   5.910
10299SOL     OW41514   6.477   4.472   6.016
10299SOL    HW241515   6.457   4.458   5.923
10299SOL    HW341516   6.570   4.451   6.023
10299SOL    MW441517   6.487   4.467   6.005
10300SOL     OW41518   6.460   5.430   6.054
10300SOL    HW241519   6.518   5.501   6.081
10300SOL    HW341520   6.483   5.358   6.112
10300SOL    MW441521   6.471   5.430   6.065
10301SOL     OW41522   5.916   3.862   5.789
10301SOL    HW241523   5.845   3.917   5.757
10301SOL    HW341524   5.958   3.828   5.710
10301SOL    MW441525   5.912   3.864   5.775
10302SOL     OW41526   5.672   3.961   5.638
10302SOL    HW241527   5.639   4.040   5.682
10302SOL    HW341528   5.727   3.994   5.567
10302SOL    MW441529   5.675   3.975   5.635
10303SOL     OW41530   5.706   5.218   5.827
10303SOL    HW241531   5.723   5.302   5.869
10303SOL    HW341532   5.741   5.227   5.739
10303SOL    MW441533   5.711   5.231   5.821
10304SOL     OW41534   6.978   5.307   6.044
10304SOL    HW241535   7.041   5.297   5.973
10304SOL    HW341536   6.895   5.327   5.999
10304SOL    MW441537   6.975   5.308   6.029
10305SOL     OW41538   7.341   6.444   0.257
10305SOL    HW241539   7.382   6.386   0.322
10305SOL    HW341540   7.248   6.436   0.274
10305SOL    MW441541   7.335   6.436   0.267
10306SOL     OW41542   7.207   6.376   1.252
10306SOL    HW241543   7.162   6.443   1.303
10306SOL    HW341544   7.295   6.412   1.238
10306SOL    MW441545   7.213   6.389   1.256
10307SOL     OW41546   6.135   6.627   0.486
10307SOL    HW241547   6.225   6.602   0.470
10307SOL    HW341548   6.131   6.720   0.463
10307SOL    MW441549   6.147   6.636   0.481
10308SOL     OW41550   7.187   6.770   1.233
10308SOL    HW241551   7.108   6.735   1.191
10308SOL    HW341552   7.214   6.842   1.177
10308SOL    MW441553   7.180   6.775   1.220
10309SOL     OW41554   6.419   6.083   0.499
10309SOL    HW241555   6.394   6.171   0.527
10309SOL    HW341556   6.416   6.086   0.403
10309SOL    MW441557   6.415   6.095   0.491
10310SOL     OW41558   5.861   6.111   0.427
10310SOL    HW241559   5.893   6.199   0.409
10310SOL    HW341560   5.849   6.109   0.522
10310SOL    MW441561   5.864   6.123   0.439
10311SOL     OW41562   5.939   6.524   1.328
10311SOL    HW241563   6.002   6.471   1.279
10311SOL    HW341564   5.920   6.598   1.271
10311SOL    MW441565   5.945   6.526   1.315
10312SOL     OW41566   6.260   5.866   0.514
10312SOL    HW241567   6.318   5.942   0.516
10312SOL    HW341568   6.195   5.887   0.447
10312SOL    MW441569   6.259   5.878   0.505
10313SOL     OW41570   6.347   6.793   0.689
10313SOL    HW241571   6.427   6.796   0.741
10313SOL    HW341572   6.375   6.760   0.603
10313SOL    MW441573   6.361   6.789   0.684
10314SOL     OW41574   6.372   7.134   1.592
10314SOL    HW241575   6.456   7.160   1.631
10314SOL    HW341576   6.396   7.078   1.518
10314SOL    MW441577   6.386   7.130   1.587
10315SOL     OW41578   6.124   6.297   0.680
10315SOL    HW241579   6.109   6.217   0.731
10315SOL    HW341580   6.206   6.332   0.714
10315SOL    MW441581   6.132   6.289   0.692
10316SOL     OW41582   6.461   6.983   1.365
10316SOL    HW241583   6.425   7.049   1.305
10316SOL    HW341584   6.389   6.921   1.378
10316SOL    MW441585   6.447   6.983   1.359
10317SOL     OW41586   6.266   6.123   1.057
10317SOL    HW241587   6.172   6.119   1.075
10317SOL    HW341588   6.296   6.032   1.066
10317SOL    MW441589   6.257   6.111   1.060
10318SOL     OW41590   6.012   6.537   0.961
10318SOL    HW241591   5.967   6.544   0.877
10318SOL    HW341592   5.992   6.620   1.005
10318SOL    MW441593   6.004   6.549   0.955
10319SOL     OW41594   6.974   6.775   0.205
10319SOL    HW241595   6.892   6.811   0.171
10319SOL    HW341596   7.042   6.818   0.154
10319SOL    MW441597   6.972   6.785   0.193
10320SOL     OW41598   5.973   6.910   0.871
10320SOL    HW241599   5.949   6.963   0.947
10320SOL    HW341600   6.029   6.968   0.819
10320SOL    MW441601   5.977   6.925   0.874
10321SOL     OW41602   6.535   6.554   0.681
10321SOL    HW241603   6.449   6.541   0.721
10321SOL    HW341604   6.588   6.481   0.713
10321SOL    MW441605   6.531   6.543   0.690
10322SOL     OW41606   6.526   6.916   0.398
10322SOL    HW241607   6.503   6.978   0.466
10322SOL    HW341608   6.483   6.834   0.424
10322SOL    MW441609   6.518   6.912   0.409
10323SOL     OW41610   7.399   5.917   0.854
10323SOL    HW241611   7.336   5.897   0.923
10323SOL    HW341612   7.389   5.846   0.791
10323SOL    MW441613   7.389   5.904   0.855
10324SOL     OW41614   7.200   6.689   0.506
10324SOL    HW241615   7.110   6.689   0.541
10324SOL    HW341616   7.193   6.735   0.423
10324SOL    MW441617   7.187   6.695   0.500
10325SOL     OW41618   7.000   6.324   1.578
10325SOL    HW241619   7.069   6.262   1.555
10325SOL    HW341620   6.925   6.298   1.525
10325SOL    MW441621   7.000   6.311   1.569
10326SOL     OW41622   6.736   6.711   1.570
10326SOL    HW241623   6.721   6.804   1.555
10326SOL    HW341624   6.831   6.701   1.570
10326SOL    MW441625   6.745   6.721   1.567
10327SOL     OW41626   6.532   6.135   1.771
10327SOL    HW241627   6.622   6.136   1.738
10327SOL    HW341628   6.491   6.060   1.729
10327SOL    MW441629   6.538   6.125   1.762
10328SOL     OW41630   7.107   6.667   0.898
10328SOL    HW241631   7.110   6.601   0.829
10328SOL    HW341632   7.192   6.710   0.894
10328SOL    MW441633   7.119   6.663   0.889
10329SOL     OW41634   6.312   5.939   1.721
10329SOL    HW241635   6.322   5.865   1.661
10329SOL    HW341636   6.348   5.908   1.804
10329SOL    MW441637   6.318   5.925   1.723
10330SOL     OW41638   6.048   7.306   0.636
10330SOL    HW241639   6.080   7.394   0.614
10330SOL    HW341640   6.001   7.278   0.558
10330SOL    MW441641   6.047   7.314   0.623
10331SOL     OW41642   7.432   5.668   0.685
10331SOL    HW241643   7.486   5.619   0.747
10331SOL    HW341644   7.375   5.602   0.646
10331SOL    MW441645   7.432   5.652   0.687
10332SOL     OW41646   6.551   5.621   1.098
10332SOL    HW241647   6.510   5.699   1.060
10332SOL    HW341648   6.645   5.639   1.093
10332SOL    MW441649   6.557   5.633   1.093
10333SOL     OW41650   7.180   6.225   0.464
10333SOL    HW241651   7.219   6.225   0.551
10333SOL    HW341652   7.121   6.301   0.464
10333SOL    MW441653   7.177   6.236   0.475
10334SOL     OW41654   6.497   6.592   1.593
10334SOL    HW241655   6.474   6.572   1.683
10334SOL    HW341656   6.582   6.636   1.598
10334SOL    MW441657   6.504   6.595   1.605
10335SOL     OW41658   6.577   5.729   1.353
10335SOL    HW241659   6.583   5.691   1.266
10335SOL    HW341660   6.566   5.823   1.338
10335SOL    MW441661   6.578   5.737   1.341
10336SOL     OW41662   6.666   6.218   1.187
10336SOL    HW241663   6.741   6.247   1.134
10336SOL    HW341664   6.598   6.283   1.171
10336SOL    MW441665   6.667   6.230   1.177
10337SOL     OW41666   7.216   6.186   1.464
10337SOL    HW241667   7.197   6.095   1.443
10337SOL    HW341668   7.194   6.235   1.385
10337SOL    MW441669   7.211   6.179   1.451
10338SOL     OW41670   6.663   5.924   1.570
10338SOL    HW241671   6.629   5.963   1.489
10338SOL    HW341672   6.641   5.832   1.563
10338SOL    MW441673   6.656   5.917   1.560
10339SOL     OW41674   7.072   6.738   1.646
10339SOL    HW241675   7.154   6.779   1.676
10339SOL    HW341676   7.035   6.700   1.726
10339SOL    MW441677   7.078   6.739   1.661
10340SOL     OW41678   7.367   6.111   0.630
10340SOL    HW241679   7.456   6.080   0.647
10340SOL    HW341680   7.310   6.051   0.678
10340SOL    MW441681   7.370   6.099   0.639
10341SOL     OW41682   5.793   5.825   0.659
10341SOL    HW241683   5.784   5.765   0.585
10341SOL    HW341684   5.726   5.796   0.722
10341SOL    MW441685   5.783   5.812   0.657
10342SOL     OW41686   6.736   6.918   0.220
10342SOL    HW241687   6.686   6.920   0.302
10342SOL    HW341688   6.670   6.936   0.152
10342SOL    MW441689   6.722   6.920   0.222
10343SOL     OW41690   5.740   5.998   1.022
10343SOL    HW241691   5.712   6.089   1.031
10343SOL    HW341692   5.677   5.959   0.961
10343SOL    MW441693   5.727   6.004   1.016
10344SOL     OW41694   6.199   7.336   0.328
10344SOL    HW241695   6.120   7.294   0.361
10344SOL    HW341696   6.265   7.319   0.395
10344SOL    MW441697   6.198   7.328   0.341
10345SOL     OW41698   7.327   6.856   1.725
10345SOL    HW241699   7.377   6.782   1.757
10345SOL    HW341700   7.273   6.883   1.800
10345SOL    MW441701   7.327   6.850   1.738
10346SOL     OW41702   7.461   6.491   1.227
10346SOL    HW241703   7.477   6.529   1.140
10346SOL    HW341704   7.495   6.557   1.288
10346SOL    MW441705   7.468   6.504   1.223
10347SOL     OW41706   7.253   7.200   0.896
10347SOL    HW241707   7.282   7.267   0.957
10347SOL    HW341708   7.234   7.124   0.951
10347SOL    MW441709   7.255   7.200   0.911
10348SOL     OW41710   5.724   6.273   1.192
10348SOL    HW241711   5.786   6.303   1.258
10348SOL    HW341712   5.658   6.342   1.186
10348SOL    MW441713   5.723   6.286   1.199
10349SOL     OW41714   5.871   6.701   1.151
10349SOL    HW241715   5.924   6.776   1.176
10349SOL    HW341716   5.790   6.739   1.117
10349SOL    MW441717   5.867   6.716   1.151
10350SOL     OW41718   6.411   6.605   1.139
10350SOL    HW241719   6.439   6.514   1.151
10350SOL    HW341720   6.340   6.599   1.075
10350SOL    MW441721   6.404   6.593   1.134
10351SOL     OW41722   5.726   6.470   0.557
10351SOL    HW241723   5.817   6.485   0.584
10351SOL    HW341724   5.729   6.391   0.503
10351SOL    MW441725   5.738   6.462   0.555
10352SOL     OW41726   5.962   6.178   1.811
10352SOL    HW241727   5.909   6.258   1.818
10352SOL    HW341728   6.032   6.190   1.876
10352SOL    MW441729   5.964   6.191   1.819
10353SOL     OW41730   6.348   5.728   1.518
10353SOL    HW241731   6.325   5.636   1.520
10353SOL    HW341732   6.434   5.730   1.475
10353SOL    MW441733   6.355   5.718   1.514
10354SOL     OW41734   6.032   6.252   1.557
10354SOL    HW241735   6.112   6.302   1.543
10354SOL    HW341736   6.023   6.246   1.652
10354SOL    MW441737   6.041   6.258   1.567
10355SOL     OW41738   7.009   5.777   1.828
10355SOL    HW241739   7.065   5.704   1.854
10355SOL    HW341740   6.979   5.815   1.910
10355SOL    MW441741   7.013   5.772   1.841
10356SOL     OW41742   5.734   7.082   0.596
10356SOL    HW241743   5.706   7.121   0.678
10356SOL    HW341744   5.754   6.991   0.618
10356SOL    MW441745   5.732   7.074   0.609
10357SOL     OW41746   6.567   7.125   0.631
10357SOL    HW241747   6.650   7.079   0.615
10357SOL    HW341748   6.557   7.124   0.727
10357SOL    MW441749   6.577   7.118   0.641
10358SOL     OW41750   7.399   6.270   0.945
10358SOL    HW241751   7.488   6.300   0.927
10358SOL    HW341752   7.379   6.210   0.874
10358SOL    MW441753   7.408   6.267   0.934
10359SOL     OW41754   7.250   6.449   1.825
10359SOL    HW241755   7.305   6.373   1.806
10359SOL    HW341756   7.252   6.457   1.920
10359SOL    MW441757   7.258   6.440   1.833
10360SOL     OW41758   6.545   6.011   1.344
10360SOL    HW241759   6.464   6.052   1.372
10360SOL    HW341760   6.592   6.079   1.296
10360SOL    MW441761   6.540   6.026   1.342
10361SOL     OW41762   6.805   6.349   0.967
10361SOL    HW241763   6.818   6.443   0.977
10361SOL    HW341764   6.766   6.339   0.881
10361SOL    MW441765   6.801   6.360   0.957
10362SOL     OW41766   6.257   6.544   0.771
10362SOL    HW241767   6.168   6.535   0.804
10362SOL    HW341768   6.261   6.634   0.739
10362SOL    MW441769   6.246   6.555   0.771
10363SOL     OW41770   7.056   6.127   0.766
10363SOL    HW241771   7.001   6.048   0.765
10363SOL    HW341772   7.038   6.168   0.850
10363SOL    MW441773   7.046   6.122   0.775
10364SOL     OW41774   6.027   5.814   1.583
10364SOL    HW241775   5.948   5.832   1.635
10364SOL    HW341776   6.022   5.876   1.510
10364SOL    MW441777   6.017   5.824   1.580
10365SOL     OW41778   6.675   6.331   0.723
10365SOL    HW241779   6.612   6.263   0.747
10365SOL    HW341780   6.695   6.312   0.631
10365SOL    MW441781   6.669   6.318   0.715
10366SOL     OW41782   6.423   6.635   0.449
10366SOL    HW241783   6.425   6.609   0.356
10366SOL    HW341784   6.481   6.572   0.492
10366SOL    MW441785   6.431   6.624   0.443
10367SOL     OW41786   6.933   5.879   0.782
10367SOL    HW241787   6.961   5.811   0.843
10367SOL    HW341788   6.847   5.850   0.752
10367SOL    MW441789   6.926   5.866   0.786
10368SOL     OW41790   5.738   6.813   0.716
10368SOL    HW241791   5.802   6.845   0.779
10368SOL    HW341792   5.787   6.749   0.664
10368SOL    MW441793   5.753   6.809   0.717
10369SOL     OW41794   6.238   6.889   1.698
10369SOL    HW241795   6.286   6.972   1.685
10369SOL    HW341796   6.295   6.837   1.754
10369SOL    MW441797   6.252   6.893   1.704
10370SOL     OW41798   6.699   6.968   1.447
10370SOL    HW241799   6.610   6.974   1.415
10370SOL    HW341800   6.743   7.047   1.415
10370SOL    MW441801   6.694   6.978   1.439
10371SOL     OW41802   5.992   5.636   1.789
10371SOL    HW241803   5.920   5.601   1.737
10371SOL    HW341804   6.050   5.677   1.724
10371SOL    MW441805   5.990   5.637   1.774
10372SOL     OW41806   7.456   6.655   1.442
10372SOL    HW241807   7.371   6.668   1.401
10372SOL    HW341808   7.436   6.619   1.529
10372SOL    MW441809   7.443   6.651   1.447
10373SOL     OW41810   6.233   6.899   0.986
10373SOL    HW241811   6.226   6.878   1.080
10373SOL    HW341812   6.151   6.867   0.949
10373SOL    MW441813   6.221   6.893   0.993
10374SOL     OW41814   7.097   5.909   1.388
10374SOL    HW241815   7.044   5.911   1.468
10374SOL    HW341816   7.082   5.822   1.351
10374SOL    MW441817   7.089   5.899   1.393
10375SOL     OW41818   7.433   5.833   1.261
10375SOL    HW241819   7.414   5.900   1.196
10375SOL    HW341820   7.490   5.771   1.216
10375SOL    MW441821   7.437   5.834   1.247
10376SOL     OW41822   5.679   6.991   1.649
10376SOL    HW241823   5.723   6.924   1.595
10376SOL    HW341824   5.594   6.953   1.669
10376SOL    MW441825   5.674   6.977   1.645
10377SOL     OW41826   6.362   5.666   0.701
10377SOL    HW241827   6.291   5.727   0.683
10377SOL    HW341828   6.413   5.663   0.620
10377SOL    MW441829   6.358   5.672   0.688
10378SOL     OW41830   6.120   6.906   0.450
10378SOL    HW241831   6.113   6.938   0.540
10378SOL    HW341832   6.030   6.890   0.422
10378SOL    MW441833   6.108   6.908   0.457
10379SOL     OW41834   6.322   6.323   1.831
10379SOL    HW241835   6.392   6.265   1.803
10379SOL    HW341836   6.265   6.268   1.886
10379SOL    MW441837   6.324   6.310   1.835
10380SOL     OW41838   7.109   6.535   1.464
10380SOL    HW241839   7.114   6.588   1.544
10380SOL    HW341840   7.071   6.452   1.492
10380SOL    MW441841   7.105   6.530   1.479
10381SOL     OW41842   6.749   5.670   1.710
10381SOL    HW241843   6.744   5.577   1.691
10381SOL    HW341844   6.832   5.681   1.756
10381SOL    MW441845   6.757   5.659   1.714
10382SOL     OW41846   7.219   6.941   0.986
10382SOL    HW241847   7.254   6.923   0.899
10382SOL    HW341848   7.124   6.942   0.973
10382SOL    MW441849   7.211   6.938   0.973
10383SOL     OW41850   6.648   6.589   1.355
10383SOL    HW241851   6.691   6.624   1.433
10383SOL    HW341852   6.631   6.666   1.301
10383SOL    MW441853   6.651   6.604   1.358
10384SOL     OW41854   7.179   6.076   0.228
10384SOL    HW241855   7.171   6.147   0.165
10384SOL    HW341856   7.197   6.120   0.311
10384SOL    MW441857   7.180   6.090   0.230
10385SOL     OW41858   6.039   5.731   0.657
10385SOL    HW241859   6.089   5.774   0.588
10385SOL    HW341860   5.954   5.775   0.657
10385SOL    MW441861   6.036   5.744   0.648
10386SOL     OW41862   5.798   6.793   1.517
10386SOL    HW241863   5.826   6.746   1.595
10386SOL    HW341864   5.719   6.748   1.488
10386SOL    MW441865   5.791   6.782   1.523
10387SOL     OW41866   6.306   6.120   1.484
10387SOL    HW241867   6.278   6.208   1.508
10387SOL    HW341868   6.275   6.064   1.555
10387SOL    MW441869   6.298   6.123   1.496
10388SOL     OW41870   5.961   6.516   0.697
10388SOL    HW241871   6.019   6.572   0.645
10388SOL    HW341872   6.005   6.431   0.699
10388SOL    MW441873   5.974   6.513   0.690
10389SOL     OW41874   7.101   5.868   0.534
10389SOL    HW241875   7.023   5.818   0.559
10389SOL    HW341876   7.072   5.959   0.534
10389SOL    MW441877   7.087   5.872   0.537
10390SOL     OW41878   6.687   5.830   0.693
10390SOL    HW241879   6.707   5.905   0.637
10390SOL    HW341880   6.667   5.869   0.778
10390SOL    MW441881   6.688   5.846   0.697
10391SOL     OW41882   7.447   6.603   1.712
10391SOL    HW241883   7.360   6.583   1.748
10391SOL    HW341884   7.501   6.529   1.737
10391SOL    MW441885   7.442   6.592   1.720
10392SOL     OW41886   5.668   7.116   0.869
10392SOL    HW241887   5.700   7.120   0.960
10392SOL    HW341888   5.573   7.124   0.877
10392SOL    MW441889   5.660   7.119   0.882
10393SOL     OW41890   5.623   6.242   0.416
10393SOL    HW241891   5.563   6.214   0.486
10393SOL    HW341892   5.697   6.182   0.422
10393SOL    MW441893   5.625   6.231   0.425
10394SOL     OW41894   6.791   6.973   0.576
10394SOL    HW241895   6.814   6.924   0.654
10394SOL    HW341896   6.872   7.015   0.548
10394SOL    MW441897   6.804   6.973   0.583
10395SOL     OW41898   6.049   5.981   1.305
10395SOL    HW241899   6.082   6.062   1.345
10395SOL    HW341900   6.022   6.007   1.217
10395SOL    MW441901   6.048   5.995   1.299
10396SOL     OW41902   6.003   5.948   1.041
10396SOL    HW241903   6.033   5.862   1.012
10396SOL    HW341904   5.908   5.941   1.044
10396SOL    MW441905   5.995   5.937   1.039
10397SOL     OW41906   6.832   6.157   1.732
10397SOL    HW241907   6.884   6.092   1.685
10397SOL    HW341908   6.790   6.208   1.662
10397SOL    MW441909   6.833   6.154   1.715
10398SOL     OW41910   6.931   5.952   1.593
10398SOL    HW241911   6.838   5.936   1.580
10398SOL    HW341912   6.957   5.890   1.661
10398SOL    MW441913   6.921   5.942   1.600
10399SOL     OW41914   6.146   5.726   0.932
10399SOL    HW241915   6.156   5.635   0.958
10399SOL    HW341916   6.102   5.722   0.847
10399SOL    MW441917   6.142   5.714   0.924
10400SOL     OW41918   7.297   6.048   1.103
10400SOL    HW241919   7.230   6.081   1.163
10400SOL    HW341920   7.340   6.126   1.069
10400SOL    MW441921   7.295   6.063   1.107
10401SOL     OW41922   7.475   6.768   1.073
10401SOL    HW241923   7.468   6.708   0.998
10401SOL    HW341924   7.401   6.828   1.062
10401SOL    MW441925   7.465   6.768   1.062
10402SOL     OW41926   6.857   6.630   0.991
10402SOL    HW241927   6.871   6.602   1.082
10402SOL    HW341928   6.943   6.661   0.963
10402SOL    MW441929   6.870   6.631   1.000
10403SOL     OW41930   6.940   6.125   1.270
10403SOL    HW241931   6.961   6.126   1.177
10403SOL    HW341932   6.985   6.047   1.303
10403SOL    MW441933   6.947   6.115   1.262
10404SOL     OW41934   7.433   6.256   1.812
10404SOL    HW241935   7.470   6.201   1.881
10404SOL    HW341936   7.458   6.213   1.730
10404SOL    MW441937   7.440   6.244   1.811
10405SOL     OW41938   6.980   6.554   1.863
10405SOL    HW241939   7.046   6.502   1.817
10405SOL    HW341940   7.000   6.541   1.956
10405SOL    MW441941   6.991   6.545   1.870
10406SOL     OW41942   6.067   6.878   1.221
10406SOL    HW241943   6.079   6.905   1.312
10406SOL    HW341944   6.048   6.959   1.174
10406SOL    MW441945   6.066   6.893   1.226
10407SOL     OW41946   6.351   5.858   1.044
10407SOL    HW241947   6.324   5.860   1.135
10407SOL    HW341948   6.281   5.810   0.999
10407SOL    MW441949   6.339   5.854   1.051
10408SOL     OW41950   7.107   6.935   1.438
10408SOL    HW241951   7.092   6.864   1.501
10408SOL    HW341952   7.153   6.893   1.366
10408SOL    MW441953   7.113   6.919   1.438
10409SOL     OW41954   6.181   6.666   1.555
10409SOL    HW241955   6.218   6.671   1.467
10409SOL    HW341956   6.220   6.739   1.602
10409SOL    MW441957   6.191   6.676   1.550
10410SOL     OW41958   6.361   6.709   1.367
10410SOL    HW241959   6.420   6.655   1.420
10410SOL    HW341960   6.376   6.681   1.277
10410SOL    MW441961   6.371   6.698   1.363
10411SOL     OW41962   6.832   5.677   1.130
10411SOL    HW241963   6.887   5.686   1.052
10411SOL    HW341964   6.887   5.711   1.201
10411SOL    MW441965   6.846   5.682   1.129
10412SOL     OW41966   5.839   6.590   0.314
10412SOL    HW241967   5.776   6.606   0.243
10412SOL    HW341968   5.786   6.553   0.385
10412SOL    MW441969   5.824   6.587   0.314
10413SOL     OW41970   6.734   7.175   0.325
10413SOL    HW241971   6.742   7.093   0.276
10413SOL    HW341972   6.653   7.214   0.292
10413SOL    MW441973   6.724   7.170   0.315
10414SOL     OW41974   6.610   6.811   1.137
10414SOL    HW241975   6.542   6.745   1.153
10414SOL    HW341976   6.628   6.805   1.044
10414SOL    MW441977   6.603   6.802   1.128
10415SOL     OW41978   5.699   7.086   1.388
10415SOL    HW241979   5.689   7.044   1.474
10415SOL    HW341980   5.620   7.139   1.378
10415SOL    MW441981   5.688   7.087   1.399
10416SOL     OW41982   6.603   5.950   0.958
10416SOL    HW241983   6.533   5.902   1.003
10416SOL    HW341984   6.635   6.013   1.022
10416SOL    MW441985   6.598   5.952   0.972
10417SOL     OW41986   6.254   6.386   1.578
10417SOL    HW241987   6.247   6.481   1.566
10417SOL    HW341988   6.263   6.375   1.673
10417SOL    MW441989   6.255   6.398   1.588
10418SOL     OW41990   5.975   6.901   1.836
10418SOL    HW241991   6.047   6.903   1.773
10418SOL    HW341992   5.945   6.810   1.835
10418SOL    MW441993   5.980   6.890   1.828
10419SOL     OW41994   7.059   5.664   1.303
10419SOL    HW241995   7.130   5.610   1.267
10419SOL    HW341996   7.058   5.643   1.396
10419SOL    MW441997   7.068   5.655   1.311
10420SOL     OW41998   6.070   6.056   0.771
10420SOL    HW241999   6.141   6.004   0.734
10420SOL    HW342000   6.056   6.021   0.858
10420SOL    MW442001   6.078   6.045   0.778
10421SOL     OW42002   6.706   5.997   0.495
10421SOL    HW242003   6.728   5.934   0.427
10421SOL    HW342004   6.611   5.989   0.506
10421SOL    MW442005   6.696   5.988   0.487
10422SOL     OW42006   5.622   6.154   1.570
10422SOL    HW242007   5.686   6.220   1.545
10422SOL    HW342008   5.541   6.181   1.527
10422SOL    MW442009   5.620   6.166   1.562
10423SOL     OW42010   7.360   7.061   0.527
10423SOL    HW242011   7.330   6.994   0.588
10423SOL    HW342012   7.454   7.067   0.541
10423SOL    MW442013   7.368   7.053   0.537
10424SOL     OW42014   6.916   6.738   0.457
10424SOL    HW242015   6.888   6.824   0.490
10424SOL    HW342016   6.944   6.754   0.367
10424SOL    MW442017   6.916   6.752   0.449
10425SOL     OW42018   6.578   5.658   0.510
10425SOL    HW242019   6.615   5.717   0.575
10425SOL    HW342020   6.555   5.714   0.436
10425SOL    MW442021   6.579   5.673   0.509
10426SOL     OW42022   7.431   6.540   0.932
10426SOL    HW242023   7.422   6.572   0.843
10426SOL    HW342024   7.384   6.456   0.932
10426SOL    MW442025   7.424   6.533   0.922
10427SOL     OW42026   5.807   6.380   1.511
10427SOL    HW242027   5.828   6.449   1.449
10427SOL    HW342028   5.887   6.327   1.516
10427SOL    MW442029   5.820   6.381   1.505
10428SOL     OW42030   7.343   6.471   0.633
10428SOL    HW242031   7.437   6.460   0.621
10428SOL    HW342032   7.319   6.543   0.574
10428SOL    MW442033   7.353   6.479   0.624
10429SOL     OW42034   5.792   6.395   1.778
10429SOL    HW242035   5.718   6.339   1.804
10429SOL    HW342036   5.787   6.398   1.683
10429SOL    MW442037   5.781   6.388   1.768
10430SOL     OW42038   5.958   5.682   1.228
10430SOL    HW242039   6.001   5.766   1.248
10430SOL    HW342040   6.031   5.620   1.221
10430SOL    MW442041   5.973   5.685   1.229
10431SOL     OW42042   5.999   6.349   0.406
10431SOL    HW242043   5.999   6.444   0.391
10431SOL    HW342044   6.076   6.333   0.460
10431SOL    MW442045   6.009   6.360   0.411
10432SOL     OW42046   6.775   6.208   1.470
10432SOL    HW242047   6.811   6.181   1.386
10432SOL    HW342048   6.688   6.242   1.449
10432SOL    MW442049   6.769   6.209   1.457
10433SOL     OW42050   5.758   6.080   0.695
10433SOL    HW242051   5.820   6.087   0.768
10433SOL    HW342052   5.758   5.987   0.672
10433SOL    MW442053   5.766   6.069   0.702
10434SOL     OW42054   6.440   6.341   1.179
10434SOL    HW242055   6.398   6.259   1.155
10434SOL    HW342056   6.441   6.340   1.275
10434SOL    MW442057   6.433   6.330   1.188
10435SOL     OW42058   6.244   5.811   1.284
10435SOL    HW242059   6.175   5.874   1.305
10435SOL    HW342060   6.271   5.775   1.369
10435SOL    MW442061   6.238   5.814   1.297
10436SOL     OW42062   5.627   6.652   0.153
10436SOL    HW242063   5.596   6.717   0.216
10436SOL    HW342064   5.576   6.574   0.172
10436SOL    MW442065   5.617   6.649   0.163
10437SOL     OW42066   7.039   5.664   0.901
10437SOL    HW242067   7.127   5.673   0.938
10437SOL    HW342068   7.049   5.605   0.827
10437SOL    MW442069   7.053   5.658   0.895
10438SOL     OW42070   7.071   6.403   0.745
10438SOL    HW242071   7.151   6.418   0.694
10438SOL    HW342072   7.064   6.308   0.751
10438SOL    MW442073   7.080   6.392   0.740
10439SOL     OW42074   6.521   6.329   1.442
10439SOL    HW242075   6.590   6.396   1.439
10439SOL    HW342076   6.454   6.367   1.498
10439SOL    MW442077   6.522   6.342   1.449
10440SOL     OW42078   5.939   6.629   1.690
10440SOL    HW242079   5.893   6.545   1.692
10440SOL    HW342080   5.996   6.623   1.614
10440SOL    MW442081   5.941   6.617   1.682
10441SOL     OW42082   6.451   6.169   0.821
10441SOL    HW242083   6.391   6.187   0.893
10441SOL    HW342084   6.485   6.081   0.840
10441SOL    MW442085   6.447   6.159   0.834
10442SOL     OW42086   7.392   5.668   1.490
10442SOL    HW242087   7.313   5.714   1.518
10442SOL    HW342088   7.427   5.722   1.419
10442SOL    MW442089   7.386   5.681   1.484
10443SOL     OW42090   6.676   6.752   0.840
10443SOL    HW242091   6.768   6.733   0.858
10443SOL    HW342092   6.649   6.682   0.780
10443SOL    MW442093   6.684   6.740   0.834
10444SOL     OW42094   6.950   6.990   0.936
10444SOL    HW242095   6.923   7.074   0.901
10444SOL    HW342096   6.910   6.985   1.023
10444SOL    MW442097   6.943   6.999   0.942
10445SOL     OW42098   6.869   6.938   1.204
10445SOL    HW242099   6.880   6.905   1.293
10445SOL    HW342100   6.788   6.897   1.173
10445SOL    MW442101   6.859   6.930   1.210
10446SOL     OW42102   5.882   6.296   0.974
10446SOL    HW242103   5.832   6.295   1.055
10446SOL    HW342104   5.902   6.388   0.958
10446SOL    MW442105   5.878   6.308   0.982
10447SOL     OW42106   6.949   7.060   1.736
10447SOL    HW242107   6.949   7.154   1.752
10447SOL    HW342108   6.994   7.050   1.652
10447SOL    MW442109   6.955   7.070   1.727
10448SOL     OW42110   6.477   6.341   0.411
10448SOL    HW242111   6.457   6.327   0.318
10448SOL    HW342112   6.570   6.320   0.418
10448SOL    MW442113   6.487   6.336   0.400
10449SOL     OW42114   5.804   5.964   1.715
10449SOL    HW242115   5.761   6.023   1.652
10449SOL    HW342116   5.872   6.019   1.755
10449SOL    MW442117   5.808   5.979   1.712
10450SOL     OW42118   6.916   6.584   1.260
10450SOL    HW242119   6.979   6.581   1.333
10450SOL    HW342120   6.832   6.602   1.302
10450SOL    MW442121   6.912   6.586   1.275
10451SOL     OW42122   7.255   5.761   1.039
10451SOL    HW242123   7.300   5.679   1.058
10451SOL    HW342124   7.275   5.817   1.115
10451SOL    MW442125   7.265   5.757   1.051
10452SOL     OW42126   5.703   5.604   1.138
10452SOL    HW242127   5.694   5.605   1.043
10452SOL    HW342128   5.797   5.616   1.153
10452SOL    MW442129   5.715   5.607   1.129
10453SOL     OW42130   7.340   6.797   0.758
10453SOL    HW242131   7.319   6.743   0.681
10453SOL    HW342132   7.436   6.795   0.762
10453SOL    MW442133   7.349   6.790   0.747
10454SOL     OW42134   6.032   6.942   1.501
10454SOL    HW242135   5.953   6.892   1.524
10454SOL    HW342136   6.102   6.901   1.551
10454SOL    MW442137   6.030   6.930   1.511
10455SOL     OW42138   5.916   5.731   0.184
10455SOL    HW242139   5.845   5.786   0.152
10455SOL    HW342140   5.958   5.697   0.105
10455SOL    MW442141   5.912   5.733   0.170
10456SOL     OW42142   7.040   6.228   1.020
10456SOL    HW242143   6.963   6.274   0.986
10456SOL    HW342144   7.097   6.297   1.054
10456SOL    MW442145   7.037   6.243   1.020
10457SOL     OW42146   7.341   6.444   2.125
10457SOL    HW242147   7.382   6.386   2.190
10457SOL    HW342148   7.248   6.436   2.142
10457SOL    MW442149   7.335   6.436   2.135
10458SOL     OW42150   7.207   6.376   3.120
10458SOL    HW242151   7.162   6.443   3.171
10458SOL    HW342152   7.295   6.412   3.106
10458SOL    MW442153   7.213   6.389   3.124
10459SOL     OW42154   6.135   6.627   2.354
10459SOL    HW242155   6.225   6.602   2.338
10459SOL    HW342156   6.131   6.720   2.331
10459SOL    MW442157   6.147   6.636   2.349
10460SOL     OW42158   7.187   6.770   3.101
10460SOL    HW242159   7.108   6.735   3.059
10460SOL    HW342160   7.214   6.842   3.045
10460SOL    MW442161   7.180   6.775   3.088
10461SOL     OW42162   6.419   6.083   2.367
10461SOL    HW242163   6.394   6.171   2.395
10461SOL    HW342164   6.416   6.086   2.271
10461SOL    MW442165   6.415   6.095   2.359
10462SOL     OW42166   5.861   6.111   2.295
10462SOL    HW242167   5.893   6.199   2.277
10462SOL    HW342168   5.849   6.109   2.390
10462SOL    MW442169   5.864   6.123   2.307
10463SOL     OW42170   5.939   6.524   3.196
10463SOL    HW242171   6.002   6.471   3.147
10463SOL    HW342172   5.920   6.598   3.139
10463SOL    MW442173   5.945   6.526   3.183
10464SOL     OW42174   6.260   5.866   2.382
10464SOL    HW242175   6.318   5.942   2.384
10464SOL    HW342176   6.195   5.887   2.315
10464SOL    MW442177   6.259   5.878   2.373
10465SOL     OW42178   6.347   6.793   2.557
10465SOL    HW242179   6.427   6.796   2.609
10465SOL    HW342180   6.375   6.760   2.471
10465SOL    MW442181   6.361   6.789   2.552
10466SOL     OW42182   6.372   7.134   3.460
10466SOL    HW242183   6.456   7.160   3.499
10466SOL    HW342184   6.396   7.078   3.386
10466SOL    MW442185   6.386   7.130   3.455
10467SOL     OW42186   6.124   6.297   2.548
10467SOL    HW242187   6.109   6.217   2.599
10467SOL    HW342188   6.206   6.332   2.582
10467SOL    MW442189   6.132   6.289   2.560
10468SOL     OW42190   6.461   6.983   3.233
10468SOL    HW242191   6.425   7.049   3.173
10468SOL    HW342192   6.389   6.921   3.246
10468SOL    MW442193   6.447   6.983   3.227
10469SOL     OW42194   6.266   6.123   2.925
10469SOL    HW242195   6.172   6.119   2.943
10469SOL    HW342196   6.296   6.032   2.934
10469SOL    MW442197   6.257   6.111   2.928
10470SOL     OW42198   6.012   6.537   2.829
10470SOL    HW242199   5.967   6.544   2.745
10470SOL    HW342200   5.992   6.620   2.873
10470SOL    MW442201   6.004   6.549   2.823
10471SOL     OW42202   6.974   6.775   2.073
10471SOL    HW242203   6.892   6.811   2.039
10471SOL    HW342204   7.042   6.818   2.022
10471SOL    MW442205   6.972   6.785   2.061
10472SOL     OW42206   5.973   6.910   2.739
10472SOL    HW242207   5.949   6.963   2.815
10472SOL    HW342208   6.029   6.968   2.687
10472SOL    MW442209   5.977   6.925   2.742
10473SOL     OW42210   6.535   6.554   2.549
10473SOL    HW242211   6.449   6.541   2.589
10473SOL    HW342212   6.588   6.481   2.581
10473SOL    MW442213   6.531   6.543   2.558
10474SOL     OW42214   6.526   6.916   2.266
10474SOL    HW242215   6.503   6.978   2.334
10474SOL    HW342216   6.483   6.834   2.292
10474SOL    MW442217   6.518   6.912   2.277
10475SOL     OW42218   7.399   5.917   2.722
10475SOL    HW242219   7.336   5.897   2.791
10475SOL    HW342220   7.389   5.846   2.659
10475SOL    MW442221   7.389   5.904   2.723
10476SOL     OW42222   6.023   5.889   2.234
10476SOL    HW242223   5.997   5.851   2.150
10476SOL    HW342224   5.960   5.959   2.250
10476SOL    MW442225   6.012   5.892   2.225
10477SOL     OW42226   5.858   6.850   2.271
10477SOL    HW242227   5.806   6.918   2.227
10477SOL    HW342228   5.855   6.776   2.211
10477SOL    MW442229   5.850   6.849   2.258
10478SOL     OW42230   7.455   6.086   2.024
10478SOL    HW242231   7.364   6.088   2.052
10478SOL    HW342232   7.500   6.148   2.082
10478SOL    MW442233   7.448   6.094   2.034
10479SOL     OW42234   7.200   6.689   2.374
10479SOL    HW242235   7.110   6.689   2.409
10479SOL    HW342236   7.193   6.735   2.291
10479SOL    MW442237   7.187   6.695   2.368
10480SOL     OW42238   7.000   6.324   3.446
10480SOL    HW242239   7.069   6.262   3.423
10480SOL    HW342240   6.925   6.298   3.393
10480SOL    MW442241   7.000   6.311   3.437
10481SOL     OW42242   6.736   6.711   3.438
10481SOL    HW242243   6.721   6.804   3.423
10481SOL    HW342244   6.831   6.701   3.438
10481SOL    MW442245   6.745   6.721   3.435
10482SOL     OW42246   6.532   6.135   3.639
10482SOL    HW242247   6.622   6.136   3.606
10482SOL    HW342248   6.491   6.060   3.597
10482SOL    MW442249   6.538   6.125   3.630
10483SOL     OW42250   7.107   6.667   2.766
10483SOL    HW242251   7.110   6.601   2.697
10483SOL    HW342252   7.192   6.710   2.762
10483SOL    MW442253   7.119   6.663   2.757
10484SOL     OW42254   6.727   6.270   2.335
10484SOL    HW242255   6.753   6.294   2.246
10484SOL    HW342256   6.709   6.177   2.331
10484SOL    MW442257   6.729   6.262   2.322
10485SOL     OW42258   7.392   6.890   2.186
10485SOL    HW242259   7.348   6.931   2.261
10485SOL    HW342260   7.449   6.958   2.151
10485SOL    MW442261   7.394   6.904   2.191
10486SOL     OW42262   6.312   5.939   3.589
10486SOL    HW242263   6.322   5.865   3.529
10486SOL    HW342264   6.348   5.908   3.672
10486SOL    MW442265   6.318   5.925   3.591
10487SOL     OW42266   6.048   7.306   2.504
10487SOL    HW242267   6.080   7.394   2.482
10487SOL    HW342268   6.001   7.278   2.426
10487SOL    MW442269   6.047   7.314   2.491
10488SOL     OW42270   7.432   5.668   2.553
10488SOL    HW242271   7.486   5.619   2.615
10488SOL    HW342272   7.375   5.602   2.514
10488SOL    MW442273   7.432   5.652   2.555
10489SOL     OW42274   6.551   5.621   2.966
10489SOL    HW242275   6.510   5.699   2.928
10489SOL    HW342276   6.645   5.639   2.961
10489SOL    MW442277   6.557   5.633   2.961
10490SOL     OW42278   6.566   6.299   1.996
10490SOL    HW242279   6.568   6.246   1.917
10490SOL    HW342280   6.654   6.336   2.002
10490SOL    MW442281   6.578   6.298   1.985
10491SOL     OW42282   7.180   6.225   2.332
10491SOL    HW242283   7.219   6.225   2.419
10491SOL    HW342284   7.121   6.301   2.332
10491SOL    MW442285   7.177   6.236   2.343
10492SOL     OW42286   6.497   6.592   3.461
10492SOL    HW242287   6.474   6.572   3.551
10492SOL    HW342288   6.582   6.636   3.466
10492SOL    MW442289   6.504   6.595   3.473
10493SOL     OW42290   6.577   5.729   3.221
10493SOL    HW242291   6.583   5.691   3.134
10493SOL    HW342292   6.566   5.823   3.206
10493SOL    MW442293   6.578   5.737   3.209
10494SOL     OW42294   6.666   6.218   3.055
10494SOL    HW242295   6.741   6.247   3.002
10494SOL    HW342296   6.598   6.283   3.039
10494SOL    MW442297   6.667   6.230   3.045
10495SOL     OW42298   7.216   6.186   3.332
10495SOL    HW242299   7.197   6.095   3.311
10495SOL    HW342300   7.194   6.235   3.253
10495SOL    MW442301   7.211   6.179   3.319
10496SOL     OW42302   6.663   5.924   3.438
10496SOL    HW242303   6.629   5.963   3.357
10496SOL    HW342304   6.641   5.832   3.431
10496SOL    MW442305   6.656   5.917   3.428
10497SOL     OW42306   7.072   6.738   3.514
10497SOL    HW242307   7.154   6.779   3.544
10497SOL    HW342308   7.035   6.700   3.594
10497SOL    MW442309   7.078   6.739   3.529
10498SOL     OW42310   7.367   6.111   2.498
10498SOL    HW242311   7.456   6.080   2.515
10498SOL    HW342312   7.310   6.051   2.546
10498SOL    MW442313   7.370   6.099   2.507
10499SOL     OW42314   5.793   5.825   2.527
10499SOL    HW242315   5.784   5.765   2.453
10499SOL    HW342316   5.726   5.796   2.590
10499SOL    MW442317   5.783   5.812   2.525
10500SOL     OW42318   6.736   6.918   2.088
10500SOL    HW242319   6.686   6.920   2.170
10500SOL    HW342320   6.670   6.936   2.020
10500SOL    MW442321   6.722   6.920   2.090
10501SOL     OW42322   5.740   5.998   2.890
10501SOL    HW242323   5.712   6.089   2.899
10501SOL    HW342324   5.677   5.959   2.829
10501SOL    MW442325   5.727   6.004   2.884
10502SOL     OW42326   6.199   7.336   2.196
10502SOL    HW242327   6.120   7.294   2.229
10502SOL    HW342328   6.265   7.319   2.263
10502SOL    MW442329   6.198   7.328   2.209
10503SOL     OW42330   7.327   6.856   3.593
10503SOL    HW242331   7.377   6.782   3.625
10503SOL    HW342332   7.273   6.883   3.668
10503SOL    MW442333   7.327   6.850   3.606
10504SOL     OW42334   6.335   6.751   1.903
10504SOL    HW242335   6.257   6.697   1.890
10504SOL    HW342336   6.306   6.824   1.956
10504SOL    MW442337   6.321   6.753   1.908
10505SOL     OW42338   7.461   6.491   3.095
10505SOL    HW242339   7.477   6.529   3.008
10505SOL    HW342340   7.495   6.557   3.156
10505SOL    MW442341   7.468   6.504   3.091
10506SOL     OW42342   7.253   7.200   2.764
10506SOL    HW242343   7.282   7.267   2.825
10506SOL    HW342344   7.234   7.124   2.819
10506SOL    MW442345   7.255   7.200   2.779
10507SOL     OW42346   5.724   6.273   3.060
10507SOL    HW242347   5.786   6.303   3.126
10507SOL    HW342348   5.658   6.342   3.054
10507SOL    MW442349   5.723   6.286   3.067
10508SOL     OW42350   7.140   6.941   1.913
10508SOL    HW242351   7.087   6.990   1.849
10508SOL    HW342352   7.171   7.007   1.974
10508SOL    MW442353   7.138   6.955   1.911
10509SOL     OW42354   6.365   5.830   1.968
10509SOL    HW242355   6.313   5.750   1.956
10509SOL    HW342356   6.452   5.807   1.936
10509SOL    MW442357   6.368   5.816   1.962
10510SOL     OW42358   5.871   6.701   3.019
10510SOL    HW242359   5.924   6.776   3.044
10510SOL    HW342360   5.790   6.739   2.985
10510SOL    MW442361   5.867   6.716   3.019
10511SOL     OW42362   6.411   6.605   3.007
10511SOL    HW242363   6.439   6.514   3.019
10511SOL    HW342364   6.340   6.599   2.943
10511SOL    MW442365   6.404   6.593   3.002
10512SOL     OW42366   5.726   6.470   2.425
10512SOL    HW242367   5.817   6.485   2.452
10512SOL    HW342368   5.729   6.391   2.371
10512SOL    MW442369   5.738   6.462   2.423
10513SOL     OW42370   5.962   6.178   3.679
10513SOL    HW242371   5.909   6.258   3.686
10513SOL    HW342372   6.032   6.190   3.744
10513SOL    MW442373   5.964   6.191   3.687
10514SOL     OW42374   6.348   5.728   3.386
10514SOL    HW242375   6.325   5.636   3.388
10514SOL    HW342376   6.434   5.730   3.343
10514SOL    MW442377   6.355   5.718   3.382
10515SOL     OW42378   6.032   6.252   3.425
10515SOL    HW242379   6.112   6.302   3.411
10515SOL    HW342380   6.023   6.246   3.520
10515SOL    MW442381   6.041   6.258   3.435
10516SOL     OW42382   7.009   5.777   3.696
10516SOL    HW242383   7.065   5.704   3.722
10516SOL    HW342384   6.979   5.815   3.778
10516SOL    MW442385   7.013   5.772   3.709
10517SOL     OW42386   5.734   7.082   2.464
10517SOL    HW242387   5.706   7.121   2.546
10517SOL    HW342388   5.754   6.991   2.486
10517SOL    MW442389   5.732   7.074   2.477
10518SOL     OW42390   6.567   7.125   2.499
10518SOL    HW242391   6.650   7.079   2.483
10518SOL    HW342392   6.557   7.124   2.595
10518SOL    MW442393   6.577   7.118   2.509
10519SOL     OW42394   7.399   6.270   2.813
10519SOL    HW242395   7.488   6.300   2.795
10519SOL    HW342396   7.379   6.210   2.742
10519SOL    MW442397   7.408   6.267   2.802
10520SOL     OW42398   7.250   6.449   3.693
10520SOL    HW242399   7.305   6.373   3.674
10520SOL    HW342400   7.252   6.457   3.788
10520SOL    MW442401   7.258   6.440   3.701
10521SOL     OW42402   6.300   7.182   1.904
10521SOL    HW242403   6.240   7.251   1.874
10521SOL    HW342404   6.245   7.124   1.957
10521SOL    MW442405   6.284   7.184   1.906
10522SOL     OW42406   6.738   5.827   2.127
10522SOL    HW242407   6.671   5.803   2.064
10522SOL    HW342408   6.803   5.876   2.076
10522SOL    MW442409   6.738   5.829   2.112
10523SOL     OW42410   6.545   6.011   3.212
10523SOL    HW242411   6.464   6.052   3.240
10523SOL    HW342412   6.592   6.079   3.164
10523SOL    MW442413   6.540   6.026   3.210
10524SOL     OW42414   6.805   6.349   2.835
10524SOL    HW242415   6.818   6.443   2.845
10524SOL    HW342416   6.766   6.339   2.749
10524SOL    MW442417   6.801   6.360   2.825
10525SOL     OW42418   6.257   6.544   2.639
10525SOL    HW242419   6.168   6.535   2.672
10525SOL    HW342420   6.261   6.634   2.607
10525SOL    MW442421   6.246   6.555   2.639
10526SOL     OW42422   7.056   6.127   2.634
10526SOL    HW242423   7.001   6.048   2.633
10526SOL    HW342424   7.038   6.168   2.718
10526SOL    MW442425   7.046   6.122   2.643
10527SOL     OW42426   6.027   5.814   3.451
10527SOL    HW242427   5.948   5.832   3.503
10527SOL    HW342428   6.022   5.876   3.378
10527SOL    MW442429   6.017   5.824   3.448
10528SOL     OW42430   6.675   6.331   2.591
10528SOL    HW242431   6.612   6.263   2.615
10528SOL    HW342432   6.695   6.312   2.499
10528SOL    MW442433   6.669   6.318   2.583
10529SOL     OW42434   6.423   6.635   2.317
10529SOL    HW242435   6.425   6.609   2.224
10529SOL    HW342436   6.481   6.572   2.360
10529SOL    MW442437   6.431   6.624   2.311
10530SOL     OW42438   6.933   5.879   2.650
10530SOL    HW242439   6.961   5.811   2.711
10530SOL    HW342440   6.847   5.850   2.620
10530SOL    MW442441   6.926   5.866   2.654
10531SOL     OW42442   5.738   6.813   2.584
10531SOL    HW242443   5.802   6.845   2.647
10531SOL    HW342444   5.787   6.749   2.532
10531SOL    MW442445   5.753   6.809   2.585
10532SOL     OW42446   6.238   6.889   3.566
10532SOL    HW242447   6.286   6.972   3.553
10532SOL    HW342448   6.295   6.837   3.622
10532SOL    MW442449   6.252   6.893   3.572
10533SOL     OW42450   6.913   5.983   1.985
10533SOL    HW242451   6.886   6.049   1.921
10533SOL    HW342452   6.983   6.026   2.035
10533SOL    MW442453   6.918   5.996   1.982
10534SOL     OW42454   6.581   5.688   1.922
10534SOL    HW242455   6.637   5.680   1.844
10534SOL    HW342456   6.558   5.598   1.944
10534SOL    MW442457   6.586   5.675   1.915
10535SOL     OW42458   7.086   6.539   2.127
10535SOL    HW242459   7.053   6.628   2.117
10535SOL    HW342460   7.051   6.510   2.212
10535SOL    MW442461   7.076   6.548   2.138
10536SOL     OW42462   6.699   6.968   3.315
10536SOL    HW242463   6.610   6.974   3.283
10536SOL    HW342464   6.743   7.047   3.283
10536SOL    MW442465   6.694   6.978   3.307
10537SOL     OW42466   5.992   5.636   3.657
10537SOL    HW242467   5.920   5.601   3.605
10537SOL    HW342468   6.050   5.677   3.592
10537SOL    MW442469   5.990   5.637   3.642
10538SOL     OW42470   7.456   6.655   3.310
10538SOL    HW242471   7.371   6.668   3.269
10538SOL    HW342472   7.436   6.619   3.397
10538SOL    MW442473   7.443   6.651   3.315
10539SOL     OW42474   6.080   6.577   1.919
10539SOL    HW242475   6.003   6.590   1.975
10539SOL    HW342476   6.044   6.541   1.838
10539SOL    MW442477   6.066   6.573   1.916
10540SOL     OW42478   6.733   6.550   2.162
10540SOL    HW242479   6.643   6.571   2.137
10540SOL    HW342480   6.760   6.623   2.218
10540SOL    MW442481   6.725   6.562   2.165
10541SOL     OW42482   6.233   6.899   2.854
10541SOL    HW242483   6.226   6.878   2.948
10541SOL    HW342484   6.151   6.867   2.817
10541SOL    MW442485   6.221   6.893   2.861
10542SOL     OW42486   7.097   5.909   3.256
10542SOL    HW242487   7.044   5.911   3.336
10542SOL    HW342488   7.082   5.822   3.219
10542SOL    MW442489   7.089   5.899   3.261
10543SOL     OW42490   7.433   5.833   3.129
10543SOL    HW242491   7.414   5.900   3.064
10543SOL    HW342492   7.490   5.771   3.084
10543SOL    MW442493   7.437   5.834   3.115
10544SOL     OW42494   5.679   6.991   3.517
10544SOL    HW242495   5.723   6.924   3.463
10544SOL    HW342496   5.594   6.953   3.537
10544SOL    MW442497   5.674   6.977   3.513
10545SOL     OW42498   6.362   5.666   2.569
10545SOL    HW242499   6.291   5.727   2.551
10545SOL    HW342500   6.413   5.663   2.488
10545SOL    MW442501   6.358   5.672   2.556
10546SOL     OW42502   6.120   6.906   2.318
10546SOL    HW242503   6.113   6.938   2.408
10546SOL    HW342504   6.030   6.890   2.290
10546SOL    MW442505   6.108   6.908   2.325
10547SOL     OW42506   6.322   6.323   3.699
10547SOL    HW242507   6.392   6.265   3.671
10547SOL    HW342508   6.265   6.268   3.754
10547SOL    MW442509   6.324   6.310   3.703
10548SOL     OW42510   7.109   6.535   3.332
10548SOL    HW242511   7.114   6.588   3.412
10548SOL    HW342512   7.071   6.452   3.360
10548SOL    MW442513   7.105   6.530   3.347
10549SOL     OW42514   6.749   5.670   3.578
10549SOL    HW242515   6.744   5.577   3.559
10549SOL    HW342516   6.832   5.681   3.624
10549SOL    MW442517   6.757   5.659   3.582
10550SOL     OW42518   6.123   6.190   2.032
10550SOL    HW242519   6.089   6.246   2.102
10550SOL    HW342520   6.194   6.140   2.072
10550SOL    MW442521   6.129   6.191   2.046
10551SOL     OW42522   7.219   6.941   2.854
10551SOL    HW242523   7.254   6.923   2.767
10551SOL    HW342524   7.124   6.942   2.841
10551SOL    MW442525   7.211   6.938   2.841
10552SOL     OW42526   6.648   6.589   3.223
10552SOL    HW242527   6.691   6.624   3.301
10552SOL    HW342528   6.631   6.666   3.169
10552SOL    MW442529   6.651   6.604   3.226
10553SOL     OW42530   7.179   6.076   2.096
10553SOL    HW242531   7.171   6.147   2.033
10553SOL    HW342532   7.197   6.120   2.179
10553SOL    MW442533   7.180   6.090   2.098
10554SOL     OW42534   6.039   5.731   2.525
10554SOL    HW242535   6.089   5.774   2.456
10554SOL    HW342536   5.954   5.775   2.525
10554SOL    MW442537   6.036   5.744   2.516
10555SOL     OW42538   5.798   6.793   3.385
10555SOL    HW242539   5.826   6.746   3.463
10555SOL    HW342540   5.719   6.748   3.356
10555SOL    MW442541   5.791   6.782   3.391
10556SOL     OW42542   6.306   6.120   3.352
10556SOL    HW242543   6.278   6.208   3.376
10556SOL    HW342544   6.275   6.064   3.423
10556SOL    MW442545   6.298   6.123   3.364
10557SOL     OW42546   6.848   6.338   2.071
10557SOL    HW242547   6.895   6.356   1.990
10557SOL    HW342548   6.814   6.422   2.099
10557SOL    MW442549   6.850   6.352   2.064
10558SOL     OW42550   5.961   6.516   2.565
10558SOL    HW242551   6.019   6.572   2.513
10558SOL    HW342552   6.005   6.431   2.567
10558SOL    MW442553   5.974   6.513   2.558
10559SOL     OW42554   7.101   5.868   2.402
10559SOL    HW242555   7.023   5.818   2.427
10559SOL    HW342556   7.072   5.959   2.402
10559SOL    MW442557   7.087   5.872   2.405
10560SOL     OW42558   6.687   5.830   2.561
10560SOL    HW242559   6.707   5.905   2.505
10560SOL    HW342560   6.667   5.869   2.646
10560SOL    MW442561   6.688   5.846   2.565
10561SOL     OW42562   7.447   6.603   3.580
10561SOL    HW242563   7.360   6.583   3.616
10561SOL    HW342564   7.501   6.529   3.605
10561SOL    MW442565   7.442   6.592   3.588
10562SOL     OW42566   5.668   7.116   2.737
10562SOL    HW242567   5.700   7.120   2.828
10562SOL    HW342568   5.573   7.124   2.745
10562SOL    MW442569   5.660   7.119   2.750
10563SOL     OW42570   5.623   6.242   2.284
10563SOL    HW242571   5.563   6.214   2.354
10563SOL    HW342572   5.697   6.182   2.290
10563SOL    MW442573   5.625   6.231   2.293
10564SOL     OW42574   6.791   6.973   2.444
10564SOL    HW242575   6.814   6.924   2.522
10564SOL    HW342576   6.872   7.015   2.416
10564SOL    MW442577   6.804   6.973   2.451
10565SOL     OW42578   6.049   5.981   3.173
10565SOL    HW242579   6.082   6.062   3.213
10565SOL    HW342580   6.022   6.007   3.085
10565SOL    MW442581   6.048   5.995   3.167
10566SOL     OW42582   6.003   5.948   2.909
10566SOL    HW242583   6.033   5.862   2.880
10566SOL    HW342584   5.908   5.941   2.912
10566SOL    MW442585   5.995   5.937   2.907
10567SOL     OW42586   6.832   6.157   3.600
10567SOL    HW242587   6.884   6.092   3.553
10567SOL    HW342588   6.790   6.208   3.530
10567SOL    MW442589   6.833   6.154   3.583
10568SOL     OW42590   6.931   5.952   3.461
10568SOL    HW242591   6.838   5.936   3.448
10568SOL    HW342592   6.957   5.890   3.529
10568SOL    MW442593   6.921   5.942   3.468
10569SOL     OW42594   6.146   5.726   2.800
10569SOL    HW242595   6.156   5.635   2.826
10569SOL    HW342596   6.102   5.722   2.715
10569SOL    MW442597   6.142   5.714   2.792
10570SOL     OW42598   7.297   6.048   2.971
10570SOL    HW242599   7.230   6.081   3.031
10570SOL    HW342600   7.340   6.126   2.937
10570SOL    MW442601   7.295   6.063   2.975
10571SOL     OW42602   7.475   6.768   2.941
10571SOL    HW242603   7.468   6.708   2.866
10571SOL    HW342604   7.401   6.828   2.930
10571SOL    MW442605   7.465   6.768   2.930
10572SOL     OW42606   6.857   6.630   2.859
10572SOL    HW242607   6.871   6.602   2.950
10572SOL    HW342608   6.943   6.661   2.831
10572SOL    MW442609   6.870   6.631   2.868
10573SOL     OW42610   6.940   6.125   3.138
10573SOL    HW242611   6.961   6.126   3.045
10573SOL    HW342612   6.985   6.047   3.171
10573SOL    MW442613   6.947   6.115   3.130
10574SOL     OW42614   7.433   6.256   3.680
10574SOL    HW242615   7.470   6.201   3.749
10574SOL    HW342616   7.458   6.213   3.598
10574SOL    MW442617   7.440   6.244   3.679
10575SOL     OW42618   6.980   6.554   3.731
10575SOL    HW242619   7.046   6.502   3.685
10575SOL    HW342620   7.000   6.541   3.824
10575SOL    MW442621   6.991   6.545   3.738
10576SOL     OW42622   6.931   5.640   2.080
10576SOL    HW242623   7.005   5.684   2.123
10576SOL    HW342624   6.855   5.694   2.102
10576SOL    MW442625   6.931   5.652   2.088
10577SOL     OW42626   6.991   6.415   2.358
10577SOL    HW242627   6.906   6.385   2.328
10577SOL    HW342628   6.983   6.422   2.453
10577SOL    MW442629   6.979   6.413   2.367
10578SOL     OW42630   6.067   6.878   3.089
10578SOL    HW242631   6.079   6.905   3.180
10578SOL    HW342632   6.048   6.959   3.042
10578SOL    MW442633   6.066   6.893   3.094
10579SOL     OW42634   6.351   5.858   2.912
10579SOL    HW242635   6.324   5.860   3.003
10579SOL    HW342636   6.281   5.810   2.867
10579SOL    MW442637   6.339   5.854   2.919
10580SOL     OW42638   7.107   6.935   3.306
10580SOL    HW242639   7.092   6.864   3.369
10580SOL    HW342640   7.153   6.893   3.234
10580SOL    MW442641   7.113   6.919   3.306
10581SOL     OW42642   6.181   6.666   3.423
10581SOL    HW242643   6.218   6.671   3.335
10581SOL    HW342644   6.220   6.739   3.470
10581SOL    MW442645   6.191   6.676   3.418
10582SOL     OW42646   6.361   6.709   3.235
10582SOL    HW242647   6.420   6.655   3.288
10582SOL    HW342648   6.376   6.681   3.145
10582SOL    MW442649   6.371   6.698   3.231
10583SOL     OW42650   6.364   6.081   2.084
10583SOL    HW242651   6.437   6.130   2.047
10583SOL    HW342652   6.380   5.990   2.058
10583SOL    MW442653   6.376   6.076   2.077
10584SOL     OW42654   6.832   5.677   2.998
10584SOL    HW242655   6.887   5.686   2.920
10584SOL    HW342656   6.887   5.711   3.069
10584SOL    MW442657   6.846   5.682   2.997
10585SOL     OW42658   5.839   6.590   2.182
10585SOL    HW242659   5.776   6.606   2.111
10585SOL    HW342660   5.786   6.553   2.253
10585SOL    MW442661   5.824   6.587   2.182
10586SOL     OW42662   6.195   6.944   2.041
10586SOL    HW242663   6.210   6.920   2.133
10586SOL    HW342664   6.103   6.922   2.025
10586SOL    MW442665   6.185   6.937   2.051
10587SOL     OW42666   6.610   6.811   3.005
10587SOL    HW242667   6.542   6.745   3.021
10587SOL    HW342668   6.628   6.805   2.912
10587SOL    MW442669   6.603   6.802   2.996
10588SOL     OW42670   5.699   7.086   3.256
10588SOL    HW242671   5.689   7.044   3.342
10588SOL    HW342672   5.620   7.139   3.246
10588SOL    MW442673   5.688   7.087   3.267
10589SOL     OW42674   6.603   5.950   2.826
10589SOL    HW242675   6.533   5.902   2.871
10589SOL    HW342676   6.635   6.013   2.890
10589SOL    MW442677   6.598   5.952   2.840
10590SOL     OW42678   6.254   6.386   3.446
10590SOL    HW242679   6.247   6.481   3.434
10590SOL    HW342680   6.263   6.375   3.541
10590SOL    MW442681   6.255   6.398   3.456
10591SOL     OW42682   5.975   6.901   3.704
10591SOL    HW242683   6.047   6.903   3.641
10591SOL    HW342684   5.945   6.810   3.703
10591SOL    MW442685   5.980   6.890   3.696
10592SOL     OW42686   7.059   5.664   3.171
10592SOL    HW242687   7.130   5.610   3.135
10592SOL    HW342688   7.058   5.643   3.264
10592SOL    MW442689   7.068   5.655   3.179
10593SOL     OW42690   6.070   6.056   2.639
10593SOL    HW242691   6.141   6.004   2.602
10593SOL    HW342692   6.056   6.021   2.726
10593SOL    MW442693   6.078   6.045   2.646
10594SOL     OW42694   6.706   5.997   2.363
10594SOL    HW242695   6.728   5.934   2.295
10594SOL    HW342696   6.611   5.989   2.374
10594SOL    MW442697   6.696   5.988   2.355
10595SOL     OW42698   5.791   5.687   2.295
10595SOL    HW242699   5.862   5.708   2.234
10595SOL    HW342700   5.745   5.615   2.253
10595SOL    MW442701   5.795   5.681   2.281
10596SOL     OW42702   5.622   6.154   3.438
10596SOL    HW242703   5.686   6.220   3.413
10596SOL    HW342704   5.541   6.181   3.395
10596SOL    MW442705   5.620   6.166   3.430
10597SOL     OW42706   7.360   7.061   2.395
10597SOL    HW242707   7.330   6.994   2.456
10597SOL    HW342708   7.454   7.067   2.409
10597SOL    MW442709   7.368   7.053   2.405
10598SOL     OW42710   6.916   6.738   2.325
10598SOL    HW242711   6.888   6.824   2.358
10598SOL    HW342712   6.944   6.754   2.235
10598SOL    MW442713   6.916   6.752   2.317
10599SOL     OW42714   6.578   5.658   2.378
10599SOL    HW242715   6.615   5.717   2.443
10599SOL    HW342716   6.555   5.714   2.304
10599SOL    MW442717   6.579   5.673   2.377
10600SOL     OW42718   7.431   6.540   2.800
10600SOL    HW242719   7.422   6.572   2.711
10600SOL    HW342720   7.384   6.456   2.800
10600SOL    MW442721   7.424   6.533   2.790
10601SOL     OW42722   5.807   6.380   3.379
10601SOL    HW242723   5.828   6.449   3.317
10601SOL    HW342724   5.887   6.327   3.384
10601SOL    MW442725   5.820   6.381   3.373
10602SOL     OW42726   7.343   6.471   2.501
10602SOL    HW242727   7.437   6.460   2.489
10602SOL    HW342728   7.319   6.543   2.442
10602SOL    MW442729   7.353   6.479   2.492
10603SOL     OW42730   5.792   6.395   3.646
10603SOL    HW242731   5.718   6.339   3.672
10603SOL    HW342732   5.787   6.398   3.551
10603SOL    MW442733   5.781   6.388   3.636
10604SOL     OW42734   5.958   5.682   3.096
10604SOL    HW242735   6.001   5.766   3.116
10604SOL    HW342736   6.031   5.620   3.089
10604SOL    MW442737   5.973   5.685   3.097
10605SOL     OW42738   5.999   6.349   2.274
10605SOL    HW242739   5.999   6.444   2.259
10605SOL    HW342740   6.076   6.333   2.328
10605SOL    MW442741   6.009   6.360   2.279
10606SOL     OW42742   6.775   6.208   3.338
10606SOL    HW242743   6.811   6.181   3.254
10606SOL    HW342744   6.688   6.242   3.317
10606SOL    MW442745   6.769   6.209   3.325
10607SOL     OW42746   5.758   6.080   2.563
10607SOL    HW242747   5.820   6.087   2.636
10607SOL    HW342748   5.758   5.987   2.540
10607SOL    MW442749   5.766   6.069   2.570
10608SOL     OW42750   6.440   6.341   3.047
10608SOL    HW242751   6.398   6.259   3.023
10608SOL    HW342752   6.441   6.340   3.143
10608SOL    MW442753   6.433   6.330   3.056
10609SOL     OW42754   6.244   5.811   3.152
10609SOL    HW242755   6.175   5.874   3.173
10609SOL    HW342756   6.271   5.775   3.237
10609SOL    MW442757   6.238   5.814   3.165
10610SOL     OW42758   5.627   6.652   2.021
10610SOL    HW242759   5.596   6.717   2.084
10610SOL    HW342760   5.576   6.574   2.040
10610SOL    MW442761   5.617   6.649   2.031
10611SOL     OW42762   7.039   5.664   2.769
10611SOL    HW242763   7.127   5.673   2.806
10611SOL    HW342764   7.049   5.605   2.695
10611SOL    MW442765   7.053   5.658   2.763
10612SOL     OW42766   7.071   6.403   2.613
10612SOL    HW242767   7.151   6.418   2.562
10612SOL    HW342768   7.064   6.308   2.619
10612SOL    MW442769   7.080   6.392   2.608
10613SOL     OW42770   6.521   6.329   3.310
10613SOL    HW242771   6.590   6.396   3.307
10613SOL    HW342772   6.454   6.367   3.366
10613SOL    MW442773   6.522   6.342   3.317
10614SOL     OW42774   5.939   6.629   3.558
10614SOL    HW242775   5.893   6.545   3.560
10614SOL    HW342776   5.996   6.623   3.482
10614SOL    MW442777   5.941   6.617   3.550
10615SOL     OW42778   7.056   6.272   1.879
10615SOL    HW242779   6.984   6.248   1.821
10615SOL    HW342780   7.122   6.309   1.821
10615SOL    MW442781   7.055   6.274   1.864
10616SOL     OW42782   6.451   6.169   2.689
10616SOL    HW242783   6.391   6.187   2.761
10616SOL    HW342784   6.485   6.081   2.708
10616SOL    MW442785   6.447   6.159   2.702
10617SOL     OW42786   7.392   5.668   3.358
10617SOL    HW242787   7.313   5.714   3.386
10617SOL    HW342788   7.427   5.722   3.287
10617SOL    MW442789   7.386   5.681   3.352
10618SOL     OW42790   6.676   6.752   2.708
10618SOL    HW242791   6.768   6.733   2.726
10618SOL    HW342792   6.649   6.682   2.648
10618SOL    MW442793   6.684   6.740   2.702
10619SOL     OW42794   6.469   6.572   2.063
10619SOL    HW242795   6.455   6.484   2.028
10619SOL    HW342796   6.420   6.629   2.004
10619SOL    MW442797   6.461   6.567   2.051
10620SOL     OW42798   6.950   6.990   2.804
10620SOL    HW242799   6.923   7.074   2.769
10620SOL    HW342800   6.910   6.985   2.891
10620SOL    MW442801   6.943   6.999   2.810
10621SOL     OW42802   6.869   6.938   3.072
10621SOL    HW242803   6.880   6.905   3.161
10621SOL    HW342804   6.788   6.897   3.041
10621SOL    MW442805   6.859   6.930   3.078
10622SOL     OW42806   5.882   6.296   2.842
10622SOL    HW242807   5.832   6.295   2.923
10622SOL    HW342808   5.902   6.388   2.826
10622SOL    MW442809   5.878   6.308   2.850
10623SOL     OW42810   6.949   7.060   3.604
10623SOL    HW242811   6.949   7.154   3.620
10623SOL    HW342812   6.994   7.050   3.520
10623SOL    MW442813   6.955   7.070   3.595
10624SOL     OW42814   7.188   5.778   2.165
10624SOL    HW242815   7.181   5.782   2.260
10624SOL    HW342816   7.200   5.869   2.138
10624SOL    MW442817   7.189   5.791   2.173
10625SOL     OW42818   6.477   6.341   2.279
10625SOL    HW242819   6.457   6.327   2.186
10625SOL    HW342820   6.570   6.320   2.286
10625SOL    MW442821   6.487   6.336   2.268
10626SOL     OW42822   5.804   5.964   3.583
10626SOL    HW242823   5.761   6.023   3.520
10626SOL    HW342824   5.872   6.019   3.623
10626SOL    MW442825   5.808   5.979   3.580
10627SOL     OW42826   6.916   6.584   3.128
10627SOL    HW242827   6.979   6.581   3.201
10627SOL    HW342828   6.832   6.602   3.170
10627SOL    MW442829   6.912   6.586   3.143
10628SOL     OW42830   7.255   5.761   2.907
10628SOL    HW242831   7.300   5.679   2.926
10628SOL    HW342832   7.275   5.817   2.983
10628SOL    MW442833   7.265   5.757   2.919
10629SOL     OW42834   5.703   5.604   3.006
10629SOL    HW242835   5.694   5.605   2.911
10629SOL    HW342836   5.797   5.616   3.021
10629SOL    MW442837   5.715   5.607   2.997
10630SOL     OW42838   7.340   6.797   2.626
10630SOL    HW242839   7.319   6.743   2.549
10630SOL    HW342840   7.436   6.795   2.630
10630SOL    MW442841   7.349   6.790   2.615
10631SOL     OW42842   6.032   6.942   3.369
10631SOL    HW242843   5.953   6.892   3.392
10631SOL    HW342844   6.102   6.901   3.419
10631SOL    MW442845   6.030   6.930   3.379
10632SOL     OW42846   5.916   5.731   2.052
10632SOL    HW242847   5.845   5.786   2.020
10632SOL    HW342848   5.958   5.697   1.973
10632SOL    MW442849   5.912   5.733   2.038
10633SOL     OW42850   7.040   6.228   2.888
10633SOL    HW242851   6.963   6.274   2.854
10633SOL    HW342852   7.097   6.297   2.922
10633SOL    MW442853   7.037   6.243   2.888
10634SOL     OW42854   5.672   5.830   1.901
10634SOL    HW242855   5.639   5.909   1.945
10634SOL    HW342856   5.727   5.863   1.830
10634SOL    MW442857   5.675   5.844   1.898
10635SOL     OW42858   6.978   7.176   2.307
10635SOL    HW242859   7.041   7.166   2.236
10635SOL    HW342860   6.895   7.196   2.262
10635SOL    MW442861   6.975   7.177   2.292
10636SOL     OW42862   7.341   6.444   3.993
10636SOL    HW242863   7.382   6.386   4.058
10636SOL    HW342864   7.248   6.436   4.010
10636SOL    MW442865   7.335   6.436   4.003
10637SOL     OW42866   7.207   6.376   4.988
10637SOL    HW242867   7.162   6.443   5.039
10637SOL    HW342868   7.295   6.412   4.974
10637SOL    MW442869   7.213   6.389   4.992
10638SOL     OW42870   6.135   6.627   4.222
10638SOL    HW242871   6.225   6.602   4.206
10638SOL    HW342872   6.131   6.720   4.199
10638SOL    MW442873   6.147   6.636   4.217
10639SOL     OW42874   7.187   6.770   4.969
10639SOL    HW242875   7.108   6.735   4.927
10639SOL    HW342876   7.214   6.842   4.913
10639SOL    MW442877   7.180   6.775   4.956
10640SOL     OW42878   6.419   6.083   4.235
10640SOL    HW242879   6.394   6.171   4.263
10640SOL    HW342880   6.416   6.086   4.139
10640SOL    MW442881   6.415   6.095   4.227
10641SOL     OW42882   5.861   6.111   4.163
10641SOL    HW242883   5.893   6.199   4.145
10641SOL    HW342884   5.849   6.109   4.258
10641SOL    MW442885   5.864   6.123   4.175
10642SOL     OW42886   5.939   6.524   5.064
10642SOL    HW242887   6.002   6.471   5.015
10642SOL    HW342888   5.920   6.598   5.007
10642SOL    MW442889   5.945   6.526   5.051
10643SOL     OW42890   6.260   5.866   4.250
10643SOL    HW242891   6.318   5.942   4.252
10643SOL    HW342892   6.195   5.887   4.183
10643SOL    MW442893   6.259   5.878   4.241
10644SOL     OW42894   6.347   6.793   4.425
10644SOL    HW242895   6.427   6.796   4.477
10644SOL    HW342896   6.375   6.760   4.339
10644SOL    MW442897   6.361   6.789   4.420
10645SOL     OW42898   6.372   7.134   5.328
10645SOL    HW242899   6.456   7.160   5.367
10645SOL    HW342900   6.396   7.078   5.254
10645SOL    MW442901   6.386   7.130   5.323
10646SOL     OW42902   6.124   6.297   4.416
10646SOL    HW242903   6.109   6.217   4.467
10646SOL    HW342904   6.206   6.332   4.450
10646SOL    MW442905   6.132   6.289   4.428
10647SOL     OW42906   6.461   6.983   5.101
10647SOL    HW242907   6.425   7.049   5.041
10647SOL    HW342908   6.389   6.921   5.114
10647SOL    MW442909   6.447   6.983   5.095
10648SOL     OW42910   6.266   6.123   4.793
10648SOL    HW242911   6.172   6.119   4.811
10648SOL    HW342912   6.296   6.032   4.802
10648SOL    MW442913   6.257   6.111   4.796
10649SOL     OW42914   6.012   6.537   4.697
10649SOL    HW242915   5.967   6.544   4.613
10649SOL    HW342916   5.992   6.620   4.741
10649SOL    MW442917   6.004   6.549   4.691
10650SOL     OW42918   6.974   6.775   3.941
10650SOL    HW242919   6.892   6.811   3.907
10650SOL    HW342920   7.042   6.818   3.890
10650SOL    MW442921   6.972   6.785   3.929
10651SOL     OW42922   5.973   6.910   4.607
10651SOL    HW242923   5.949   6.963   4.683
10651SOL    HW342924   6.029   6.968   4.555
10651SOL    MW442925   5.977   6.925   4.610
10652SOL     OW42926   6.535   6.554   4.417
10652SOL    HW242927   6.449   6.541   4.457
10652SOL    HW342928   6.588   6.481   4.449
10652SOL    MW442929   6.531   6.543   4.426
10653SOL     OW42930   6.526   6.916   4.134
10653SOL    HW242931   6.503   6.978   4.202
10653SOL    HW342932   6.483   6.834   4.160
10653SOL    MW442933   6.518   6.912   4.145
10654SOL     OW42934   7.399   5.917   4.590
10654SOL    HW242935   7.336   5.897   4.659
10654SOL    HW342936   7.389   5.846   4.527
10654SOL    MW442937   7.389   5.904   4.591
10655SOL     OW42938   6.023   5.889   4.102
10655SOL    HW242939   5.997   5.851   4.018
10655SOL    HW342940   5.960   5.959   4.118
10655SOL    MW442941   6.012   5.892   4.093
10656SOL     OW42942   5.858   6.850   4.139
10656SOL    HW242943   5.806   6.918   4.095
10656SOL    HW342944   5.855   6.776   4.079
10656SOL    MW442945   5.850   6.849   4.126
10657SOL     OW42946   7.455   6.086   3.892
10657SOL    HW242947   7.364   6.088   3.920
10657SOL    HW342948   7.500   6.148   3.950
10657SOL    MW442949   7.448   6.094   3.902
10658SOL     OW42950   7.200   6.689   4.242
10658SOL    HW242951   7.110   6.689   4.277
10658SOL    HW342952   7.193   6.735   4.159
10658SOL    MW442953   7.187   6.695   4.236
10659SOL     OW42954   7.000   6.324   5.314
10659SOL    HW242955   7.069   6.262   5.291
10659SOL    HW342956   6.925   6.298   5.261
10659SOL    MW442957   7.000   6.311   5.305
10660SOL     OW42958   6.736   6.711   5.306
10660SOL    HW242959   6.721   6.804   5.291
10660SOL    HW342960   6.831   6.701   5.306
10660SOL    MW442961   6.745   6.721   5.303
10661SOL     OW42962   6.532   6.135   5.507
10661SOL    HW242963   6.622   6.136   5.474
10661SOL    HW342964   6.491   6.060   5.465
10661SOL    MW442965   6.538   6.125   5.498
10662SOL     OW42966   7.107   6.667   4.634
10662SOL    HW242967   7.110   6.601   4.565
10662SOL    HW342968   7.192   6.710   4.630
10662SOL    MW442969   7.119   6.663   4.625
10663SOL     OW42970   6.727   6.270   4.203
10663SOL    HW242971   6.753   6.294   4.114
10663SOL    HW342972   6.709   6.177   4.199
10663SOL    MW442973   6.729   6.262   4.190
10664SOL     OW42974   7.392   6.890   4.054
10664SOL    HW242975   7.348   6.931   4.129
10664SOL    HW342976   7.449   6.958   4.019
10664SOL    MW442977   7.394   6.904   4.059
10665SOL     OW42978   6.312   5.939   5.457
10665SOL    HW242979   6.322   5.865   5.397
10665SOL    HW342980   6.348   5.908   5.540
10665SOL    MW442981   6.318   5.925   5.459
10666SOL     OW42982   6.048   7.306   4.372
10666SOL    HW242983   6.080   7.394   4.350
10666SOL    HW342984   6.001   7.278   4.294
10666SOL    MW442985   6.047   7.314   4.359
10667SOL     OW42986   7.432   5.668   4.421
10667SOL    HW242987   7.486   5.619   4.483
10667SOL    HW342988   7.375   5.602   4.382
10667SOL    MW442989   7.432   5.652   4.423
10668SOL     OW42990   6.551   5.621   4.834
10668SOL    HW242991   6.510   5.699   4.796
10668SOL    HW342992   6.645   5.639   4.829
10668SOL    MW442993   6.557   5.633   4.829
10669SOL     OW42994   6.566   6.299   3.864
10669SOL    HW242995   6.568   6.246   3.785
10669SOL    HW342996   6.654   6.336   3.870
10669SOL    MW442997   6.578   6.298   3.853
10670SOL     OW42998   7.180   6.225   4.200
10670SOL    HW242999   7.219   6.225   4.287
10670SOL    HW343000   7.121   6.301   4.200
10670SOL    MW443001   7.177   6.236   4.211
10671SOL     OW43002   6.497   6.592   5.329
10671SOL    HW243003   6.474   6.572   5.419
10671SOL    HW343004   6.582   6.636   5.334
10671SOL    MW443005   6.504   6.595   5.341
10672SOL     OW43006   6.577   5.729   5.089
10672SOL    HW243007   6.583   5.691   5.002
10672SOL    HW343008   6.566   5.823   5.074
10672SOL    MW443009   6.578   5.737   5.077
10673SOL     OW43010   6.666   6.218   4.923
10673SOL    HW243011   6.741   6.247   4.870
10673SOL    HW343012   6.598   6.283   4.907
10673SOL    MW443013   6.667   6.230   4.913
10674SOL     OW43014   7.216   6.186   5.200
10674SOL    HW243015   7.197   6.095   5.179
10674SOL    HW343016   7.194   6.235   5.121
10674SOL    MW443017   7.211   6.179   5.187
10675SOL     OW43018   6.663   5.924   5.306
10675SOL    HW243019   6.629   5.963   5.225
10675SOL    HW343020   6.641   5.832   5.299
10675SOL    MW443021   6.656   5.917   5.296
10676SOL     OW43022   7.072   6.738   5.382
10676SOL    HW243023   7.154   6.779   5.412
10676SOL    HW343024   7.035   6.700   5.462
10676SOL    MW443025   7.078   6.739   5.397
10677SOL     OW43026   7.367   6.111   4.366
10677SOL    HW243027   7.456   6.080   4.383
10677SOL    HW343028   7.310   6.051   4.414
10677SOL    MW443029   7.370   6.099   4.375
10678SOL     OW43030   5.793   5.825   4.395
10678SOL    HW243031   5.784   5.765   4.321
10678SOL    HW343032   5.726   5.796   4.458
10678SOL    MW443033   5.783   5.812   4.393
10679SOL     OW43034   6.736   6.918   3.956
10679SOL    HW243035   6.686   6.920   4.038
10679SOL    HW343036   6.670   6.936   3.888
10679SOL    MW443037   6.722   6.920   3.958
10680SOL     OW43038   5.740   5.998   4.758
10680SOL    HW243039   5.712   6.089   4.767
10680SOL    HW343040   5.677   5.959   4.697
10680SOL    MW443041   5.727   6.004   4.752
10681SOL     OW43042   6.199   7.336   4.064
10681SOL    HW243043   6.120   7.294   4.097
10681SOL    HW343044   6.265   7.319   4.131
10681SOL    MW443045   6.198   7.328   4.077
10682SOL     OW43046   7.327   6.856   5.461
10682SOL    HW243047   7.377   6.782   5.493
10682SOL    HW343048   7.273   6.883   5.536
10682SOL    MW443049   7.327   6.850   5.474
10683SOL     OW43050   6.335   6.751   3.771
10683SOL    HW243051   6.257   6.697   3.758
10683SOL    HW343052   6.306   6.824   3.824
10683SOL    MW443053   6.321   6.753   3.776
10684SOL     OW43054   7.461   6.491   4.963
10684SOL    HW243055   7.477   6.529   4.876
10684SOL    HW343056   7.495   6.557   5.024
10684SOL    MW443057   7.468   6.504   4.959
10685SOL     OW43058   7.253   7.200   4.632
10685SOL    HW243059   7.282   7.267   4.693
10685SOL    HW343060   7.234   7.124   4.687
10685SOL    MW443061   7.255   7.200   4.647
10686SOL     OW43062   5.724   6.273   4.928
10686SOL    HW243063   5.786   6.303   4.994
10686SOL    HW343064   5.658   6.342   4.922
10686SOL    MW443065   5.723   6.286   4.935
10687SOL     OW43066   7.140   6.941   3.781
10687SOL    HW243067   7.087   6.990   3.717
10687SOL    HW343068   7.171   7.007   3.842
10687SOL    MW443069   7.138   6.955   3.779
10688SOL     OW43070   6.365   5.830   3.836
10688SOL    HW243071   6.313   5.750   3.824
10688SOL    HW343072   6.452   5.807   3.804
10688SOL    MW443073   6.368   5.816   3.830
10689SOL     OW43074   5.871   6.701   4.887
10689SOL    HW243075   5.924   6.776   4.912
10689SOL    HW343076   5.790   6.739   4.853
10689SOL    MW443077   5.867   6.716   4.887
10690SOL     OW43078   6.411   6.605   4.875
10690SOL    HW243079   6.439   6.514   4.887
10690SOL    HW343080   6.340   6.599   4.811
10690SOL    MW443081   6.404   6.593   4.870
10691SOL     OW43082   5.726   6.470   4.293
10691SOL    HW243083   5.817   6.485   4.320
10691SOL    HW343084   5.729   6.391   4.239
10691SOL    MW443085   5.738   6.462   4.291
10692SOL     OW43086   5.962   6.178   5.547
10692SOL    HW243087   5.909   6.258   5.554
10692SOL    HW343088   6.032   6.190   5.612
10692SOL    MW443089   5.964   6.191   5.555
10693SOL     OW43090   6.348   5.728   5.254
10693SOL    HW243091   6.325   5.636   5.256
10693SOL    HW343092   6.434   5.730   5.211
10693SOL    MW443093   6.355   5.718   5.250
10694SOL     OW43094   6.032   6.252   5.293
10694SOL    HW243095   6.112   6.302   5.279
10694SOL    HW343096   6.023   6.246   5.388
10694SOL    MW443097   6.041   6.258   5.303
10695SOL     OW43098   7.009   5.777   5.564
10695SOL    HW243099   7.065   5.704   5.590
10695SOL    HW343100   6.979   5.815   5.646
10695SOL    MW443101   7.013   5.772   5.577
10696SOL     OW43102   5.734   7.082   4.332
10696SOL    HW243103   5.706   7.121   4.414
10696SOL    HW343104   5.754   6.991   4.354
10696SOL    MW443105   5.732   7.074   4.345
10697SOL     OW43106   6.567   7.125   4.367
10697SOL    HW243107   6.650   7.079   4.351
10697SOL    HW343108   6.557   7.124   4.463
10697SOL    MW443109   6.577   7.118   4.377
10698SOL     OW43110   7.399   6.270   4.681
10698SOL    HW243111   7.488   6.300   4.663
10698SOL    HW343112   7.379   6.210   4.610
10698SOL    MW443113   7.408   6.267   4.670
10699SOL     OW43114   7.250   6.449   5.561
10699SOL    HW243115   7.305   6.373   5.542
10699SOL    HW343116   7.252   6.457   5.656
10699SOL    MW443117   7.258   6.440   5.569
10700SOL     OW43118   6.300   7.182   3.772
10700SOL    HW243119   6.240   7.251   3.742
10700SOL    HW343120   6.245   7.124   3.825
10700SOL    MW443121   6.284   7.184   3.774
10701SOL     OW43122   6.738   5.827   3.995
10701SOL    HW243123   6.671   5.803   3.932
10701SOL    HW343124   6.803   5.876   3.944
10701SOL    MW443125   6.738   5.829   3.980
10702SOL     OW43126   6.545   6.011   5.080
10702SOL    HW243127   6.464   6.052   5.108
10702SOL    HW343128   6.592   6.079   5.032
10702SOL    MW443129   6.540   6.026   5.078
10703SOL     OW43130   6.805   6.349   4.703
10703SOL    HW243131   6.818   6.443   4.713
10703SOL    HW343132   6.766   6.339   4.617
10703SOL    MW443133   6.801   6.360   4.693
10704SOL     OW43134   6.257   6.544   4.507
10704SOL    HW243135   6.168   6.535   4.540
10704SOL    HW343136   6.261   6.634   4.475
10704SOL    MW443137   6.246   6.555   4.507
10705SOL     OW43138   7.056   6.127   4.502
10705SOL    HW243139   7.001   6.048   4.501
10705SOL    HW343140   7.038   6.168   4.586
10705SOL    MW443141   7.046   6.122   4.511
10706SOL     OW43142   6.027   5.814   5.319
10706SOL    HW243143   5.948   5.832   5.371
10706SOL    HW343144   6.022   5.876   5.246
10706SOL    MW443145   6.017   5.824   5.316
10707SOL     OW43146   6.675   6.331   4.459
10707SOL    HW243147   6.612   6.263   4.483
10707SOL    HW343148   6.695   6.312   4.367
10707SOL    MW443149   6.669   6.318   4.451
10708SOL     OW43150   6.423   6.635   4.185
10708SOL    HW243151   6.425   6.609   4.092
10708SOL    HW343152   6.481   6.572   4.228
10708SOL    MW443153   6.431   6.624   4.179
10709SOL     OW43154   6.933   5.879   4.518
10709SOL    HW243155   6.961   5.811   4.579
10709SOL    HW343156   6.847   5.850   4.488
10709SOL    MW443157   6.926   5.866   4.522
10710SOL     OW43158   5.738   6.813   4.452
10710SOL    HW243159   5.802   6.845   4.515
10710SOL    HW343160   5.787   6.749   4.400
10710SOL    MW443161   5.753   6.809   4.453
10711SOL     OW43162   6.238   6.889   5.434
10711SOL    HW243163   6.286   6.972   5.421
10711SOL    HW343164   6.295   6.837   5.490
10711SOL    MW443165   6.252   6.893   5.440
10712SOL     OW43166   6.913   5.983   3.853
10712SOL    HW243167   6.886   6.049   3.789
10712SOL    HW343168   6.983   6.026   3.903
10712SOL    MW443169   6.918   5.996   3.850
10713SOL     OW43170   6.581   5.688   3.790
10713SOL    HW243171   6.637   5.680   3.712
10713SOL    HW343172   6.558   5.598   3.812
10713SOL    MW443173   6.586   5.675   3.783
10714SOL     OW43174   7.086   6.539   3.995
10714SOL    HW243175   7.053   6.628   3.985
10714SOL    HW343176   7.051   6.510   4.080
10714SOL    MW443177   7.076   6.548   4.006
10715SOL     OW43178   6.699   6.968   5.183
10715SOL    HW243179   6.610   6.974   5.151
10715SOL    HW343180   6.743   7.047   5.151
10715SOL    MW443181   6.694   6.978   5.175
10716SOL     OW43182   5.992   5.636   5.525
10716SOL    HW243183   5.920   5.601   5.473
10716SOL    HW343184   6.050   5.677   5.460
10716SOL    MW443185   5.990   5.637   5.510
10717SOL     OW43186   7.456   6.655   5.178
10717SOL    HW243187   7.371   6.668   5.137
10717SOL    HW343188   7.436   6.619   5.265
10717SOL    MW443189   7.443   6.651   5.183
10718SOL     OW43190   6.080   6.577   3.787
10718SOL    HW243191   6.003   6.590   3.843
10718SOL    HW343192   6.044   6.541   3.706
10718SOL    MW443193   6.066   6.573   3.784
10719SOL     OW43194   6.733   6.550   4.030
10719SOL    HW243195   6.643   6.571   4.005
10719SOL    HW343196   6.760   6.623   4.086
10719SOL    MW443197   6.725   6.562   4.033
10720SOL     OW43198   6.233   6.899   4.722
10720SOL    HW243199   6.226   6.878   4.816
10720SOL    HW343200   6.151   6.867   4.685
10720SOL    MW443201   6.221   6.893   4.729
10721SOL     OW43202   7.097   5.909   5.124
10721SOL    HW243203   7.044   5.911   5.204
10721SOL    HW343204   7.082   5.822   5.087
10721SOL    MW443205   7.089   5.899   5.129
10722SOL     OW43206   7.433   5.833   4.997
10722SOL    HW243207   7.414   5.900   4.932
10722SOL    HW343208   7.490   5.771   4.952
10722SOL    MW443209   7.437   5.834   4.983
10723SOL     OW43210   5.679   6.991   5.385
10723SOL    HW243211   5.723   6.924   5.331
10723SOL    HW343212   5.594   6.953   5.405
10723SOL    MW443213   5.674   6.977   5.381
10724SOL     OW43214   6.362   5.666   4.437
10724SOL    HW243215   6.291   5.727   4.419
10724SOL    HW343216   6.413   5.663   4.356
10724SOL    MW443217   6.358   5.672   4.424
10725SOL     OW43218   6.120   6.906   4.186
10725SOL    HW243219   6.113   6.938   4.276
10725SOL    HW343220   6.030   6.890   4.158
10725SOL    MW443221   6.108   6.908   4.193
10726SOL     OW43222   6.322   6.323   5.567
10726SOL    HW243223   6.392   6.265   5.539
10726SOL    HW343224   6.265   6.268   5.622
10726SOL    MW443225   6.324   6.310   5.571
10727SOL     OW43226   7.109   6.535   5.200
10727SOL    HW243227   7.114   6.588   5.280
10727SOL    HW343228   7.071   6.452   5.228
10727SOL    MW443229   7.105   6.530   5.215
10728SOL     OW43230   6.749   5.670   5.446
10728SOL    HW243231   6.744   5.577   5.427
10728SOL    HW343232   6.832   5.681   5.492
10728SOL    MW443233   6.757   5.659   5.450
10729SOL     OW43234   6.123   6.190   3.900
10729SOL    HW243235   6.089   6.246   3.970
10729SOL    HW343236   6.194   6.140   3.940
10729SOL    MW443237   6.129   6.191   3.914
10730SOL     OW43238   7.219   6.941   4.722
10730SOL    HW243239   7.254   6.923   4.635
10730SOL    HW343240   7.124   6.942   4.709
10730SOL    MW443241   7.211   6.938   4.709
10731SOL     OW43242   6.648   6.589   5.091
10731SOL    HW243243   6.691   6.624   5.169
10731SOL    HW343244   6.631   6.666   5.037
10731SOL    MW443245   6.651   6.604   5.094
10732SOL     OW43246   7.179   6.076   3.964
10732SOL    HW243247   7.171   6.147   3.901
10732SOL    HW343248   7.197   6.120   4.047
10732SOL    MW443249   7.180   6.090   3.966
10733SOL     OW43250   6.039   5.731   4.393
10733SOL    HW243251   6.089   5.774   4.324
10733SOL    HW343252   5.954   5.775   4.393
10733SOL    MW443253   6.036   5.744   4.384
10734SOL     OW43254   5.798   6.793   5.253
10734SOL    HW243255   5.826   6.746   5.331
10734SOL    HW343256   5.719   6.748   5.224
10734SOL    MW443257   5.791   6.782   5.259
10735SOL     OW43258   6.306   6.120   5.220
10735SOL    HW243259   6.278   6.208   5.244
10735SOL    HW343260   6.275   6.064   5.291
10735SOL    MW443261   6.298   6.123   5.232
10736SOL     OW43262   6.848   6.338   3.939
10736SOL    HW243263   6.895   6.356   3.858
10736SOL    HW343264   6.814   6.422   3.967
10736SOL    MW443265   6.850   6.352   3.932
10737SOL     OW43266   5.961   6.516   4.433
10737SOL    HW243267   6.019   6.572   4.381
10737SOL    HW343268   6.005   6.431   4.435
10737SOL    MW443269   5.974   6.513   4.426
10738SOL     OW43270   7.101   5.868   4.270
10738SOL    HW243271   7.023   5.818   4.295
10738SOL    HW343272   7.072   5.959   4.270
10738SOL    MW443273   7.087   5.872   4.273
10739SOL     OW43274   6.687   5.830   4.429
10739SOL    HW243275   6.707   5.905   4.373
10739SOL    HW343276   6.667   5.869   4.514
10739SOL    MW443277   6.688   5.846   4.433
10740SOL     OW43278   7.447   6.603   5.448
10740SOL    HW243279   7.360   6.583   5.484
10740SOL    HW343280   7.501   6.529   5.473
10740SOL    MW443281   7.442   6.592   5.456
10741SOL     OW43282   5.668   7.116   4.605
10741SOL    HW243283   5.700   7.120   4.696
10741SOL    HW343284   5.573   7.124   4.613
10741SOL    MW443285   5.660   7.119   4.618
10742SOL     OW43286   5.623   6.242   4.152
10742SOL    HW243287   5.563   6.214   4.222
10742SOL    HW343288   5.697   6.182   4.158
10742SOL    MW443289   5.625   6.231   4.161
10743SOL     OW43290   6.791   6.973   4.312
10743SOL    HW243291   6.814   6.924   4.390
10743SOL    HW343292   6.872   7.015   4.284
10743SOL    MW443293   6.804   6.973   4.319
10744SOL     OW43294   6.049   5.981   5.041
10744SOL    HW243295   6.082   6.062   5.081
10744SOL    HW343296   6.022   6.007   4.953
10744SOL    MW443297   6.048   5.995   5.035
10745SOL     OW43298   6.003   5.948   4.777
10745SOL    HW243299   6.033   5.862   4.748
10745SOL    HW343300   5.908   5.941   4.780
10745SOL    MW443301   5.995   5.937   4.775
10746SOL     OW43302   6.832   6.157   5.468
10746SOL    HW243303   6.884   6.092   5.421
10746SOL    HW343304   6.790   6.208   5.398
10746SOL    MW443305   6.833   6.154   5.451
10747SOL     OW43306   6.931   5.952   5.329
10747SOL    HW243307   6.838   5.936   5.316
10747SOL    HW343308   6.957   5.890   5.397
10747SOL    MW443309   6.921   5.942   5.336
10748SOL     OW43310   6.146   5.726   4.668
10748SOL    HW243311   6.156   5.635   4.694
10748SOL    HW343312   6.102   5.722   4.583
10748SOL    MW443313   6.142   5.714   4.660
10749SOL     OW43314   7.297   6.048   4.839
10749SOL    HW243315   7.230   6.081   4.899
10749SOL    HW343316   7.340   6.126   4.805
10749SOL    MW443317   7.295   6.063   4.843
10750SOL     OW43318   7.475   6.768   4.809
10750SOL    HW243319   7.468   6.708   4.734
10750SOL    HW343320   7.401   6.828   4.798
10750SOL    MW443321   7.465   6.768   4.798
10751SOL     OW43322   6.857   6.630   4.727
10751SOL    HW243323   6.871   6.602   4.818
10751SOL    HW343324   6.943   6.661   4.699
10751SOL    MW443325   6.870   6.631   4.736
10752SOL     OW43326   6.940   6.125   5.006
10752SOL    HW243327   6.961   6.126   4.913
10752SOL    HW343328   6.985   6.047   5.039
10752SOL    MW443329   6.947   6.115   4.998
10753SOL     OW43330   7.433   6.256   5.548
10753SOL    HW243331   7.470   6.201   5.617
10753SOL    HW343332   7.458   6.213   5.466
10753SOL    MW443333   7.440   6.244   5.547
10754SOL     OW43334   6.980   6.554   5.600
10754SOL    HW243335   7.046   6.502   5.554
10754SOL    HW343336   7.000   6.541   5.693
10754SOL    MW443337   6.991   6.545   5.607
10755SOL     OW43338   6.931   5.640   3.948
10755SOL    HW243339   7.005   5.684   3.991
10755SOL    HW343340   6.855   5.694   3.970
10755SOL    MW443341   6.931   5.652   3.956
10756SOL     OW43342   6.991   6.415   4.226
10756SOL    HW243343   6.906   6.385   4.196
10756SOL    HW343344   6.983   6.422   4.321
10756SOL    MW443345   6.979   6.413   4.235
10757SOL     OW43346   6.067   6.878   4.957
10757SOL    HW243347   6.079   6.905   5.048
10757SOL    HW343348   6.048   6.959   4.910
10757SOL    MW443349   6.066   6.893   4.962
10758SOL     OW43350   6.351   5.858   4.780
10758SOL    HW243351   6.324   5.860   4.871
10758SOL    HW343352   6.281   5.810   4.735
10758SOL    MW443353   6.339   5.854   4.787
10759SOL     OW43354   7.107   6.935   5.174
10759SOL    HW243355   7.092   6.864   5.237
10759SOL    HW343356   7.153   6.893   5.102
10759SOL    MW443357   7.113   6.919   5.174
10760SOL     OW43358   6.181   6.666   5.291
10760SOL    HW243359   6.218   6.671   5.203
10760SOL    HW343360   6.220   6.739   5.338
10760SOL    MW443361   6.191   6.676   5.286
10761SOL     OW43362   6.361   6.709   5.103
10761SOL    HW243363   6.420   6.655   5.156
10761SOL    HW343364   6.376   6.681   5.013
10761SOL    MW443365   6.371   6.698   5.099
10762SOL     OW43366   6.364   6.081   3.952
10762SOL    HW243367   6.437   6.130   3.915
10762SOL    HW343368   6.380   5.990   3.926
10762SOL    MW443369   6.376   6.076   3.945
10763SOL     OW43370   6.832   5.677   4.866
10763SOL    HW243371   6.887   5.686   4.788
10763SOL    HW343372   6.887   5.711   4.937
10763SOL    MW443373   6.846   5.682   4.865
10764SOL     OW43374   5.839   6.590   4.050
10764SOL    HW243375   5.776   6.606   3.979
10764SOL    HW343376   5.786   6.553   4.121
10764SOL    MW443377   5.824   6.587   4.050
10765SOL     OW43378   6.195   6.944   3.909
10765SOL    HW243379   6.210   6.920   4.001
10765SOL    HW343380   6.103   6.922   3.893
10765SOL    MW443381   6.185   6.937   3.919
10766SOL     OW43382   6.610   6.811   4.873
10766SOL    HW243383   6.542   6.745   4.889
10766SOL    HW343384   6.628   6.805   4.780
10766SOL    MW443385   6.603   6.802   4.864
10767SOL     OW43386   5.699   7.086   5.124
10767SOL    HW243387   5.689   7.044   5.210
10767SOL    HW343388   5.620   7.139   5.114
10767SOL    MW443389   5.688   7.087   5.135
10768SOL     OW43390   6.603   5.950   4.694
10768SOL    HW243391   6.533   5.902   4.739
10768SOL    HW343392   6.635   6.013   4.758
10768SOL    MW443393   6.598   5.952   4.708
10769SOL     OW43394   6.254   6.386   5.314
10769SOL    HW243395   6.247   6.481   5.302
10769SOL    HW343396   6.263   6.375   5.409
10769SOL    MW443397   6.255   6.398   5.324
10770SOL     OW43398   5.975   6.901   5.572
10770SOL    HW243399   6.047   6.903   5.509
10770SOL    HW343400   5.945   6.810   5.571
10770SOL    MW443401   5.980   6.890   5.564
10771SOL     OW43402   7.059   5.664   5.039
10771SOL    HW243403   7.130   5.610   5.003
10771SOL    HW343404   7.058   5.643   5.132
10771SOL    MW443405   7.068   5.655   5.047
10772SOL     OW43406   6.070   6.056   4.507
10772SOL    HW243407   6.141   6.004   4.470
10772SOL    HW343408   6.056   6.021   4.594
10772SOL    MW443409   6.078   6.045   4.514
10773SOL     OW43410   6.706   5.997   4.231
10773SOL    HW243411   6.728   5.934   4.163
10773SOL    HW343412   6.611   5.989   4.242
10773SOL    MW443413   6.696   5.988   4.223
10774SOL     OW43414   5.791   5.687   4.163
10774SOL    HW243415   5.862   5.708   4.102
10774SOL    HW343416   5.745   5.615   4.121
10774SOL    MW443417   5.795   5.681   4.149
10775SOL     OW43418   5.622   6.154   5.306
10775SOL    HW243419   5.686   6.220   5.281
10775SOL    HW343420   5.541   6.181   5.263
10775SOL    MW443421   5.620   6.166   5.298
10776SOL     OW43422   7.360   7.061   4.263
10776SOL    HW243423   7.330   6.994   4.324
10776SOL    HW343424   7.454   7.067   4.277
10776SOL    MW443425   7.368   7.053   4.273
10777SOL     OW43426   6.916   6.738   4.193
10777SOL    HW243427   6.888   6.824   4.226
10777SOL    HW343428   6.944   6.754   4.103
10777SOL    MW443429   6.916   6.752   4.185
10778SOL     OW43430   6.578   5.658   4.246
10778SOL    HW243431   6.615   5.717   4.311
10778SOL    HW343432   6.555   5.714   4.172
10778SOL    MW443433   6.579   5.673   4.245
10779SOL     OW43434   7.431   6.540   4.668
10779SOL    HW243435   7.422   6.572   4.579
10779SOL    HW343436   7.384   6.456   4.668
10779SOL    MW443437   7.424   6.533   4.658
10780SOL     OW43438   5.807   6.380   5.247
10780SOL    HW243439   5.828   6.449   5.185
10780SOL    HW343440   5.887   6.327   5.252
10780SOL    MW443441   5.820   6.381   5.241
10781SOL     OW43442   7.343   6.471   4.369
10781SOL    HW243443   7.437   6.460   4.357
10781SOL    HW343444   7.319   6.543   4.310
10781SOL    MW443445   7.353   6.479   4.360
10782SOL     OW43446   5.792   6.395   5.514
10782SOL    HW243447   5.718   6.339   5.540
10782SOL    HW343448   5.787   6.398   5.419
10782SOL    MW443449   5.781   6.388   5.504
10783SOL     OW43450   5.958   5.682   4.964
10783SOL    HW243451   6.001   5.766   4.984
10783SOL    HW343452   6.031   5.620   4.957
10783SOL    MW443453   5.973   5.685   4.965
10784SOL     OW43454   5.999   6.349   4.142
10784SOL    HW243455   5.999   6.444   4.127
10784SOL    HW343456   6.076   6.333   4.196
10784SOL    MW443457   6.009   6.360   4.147
10785SOL     OW43458   6.775   6.208   5.206
10785SOL    HW243459   6.811   6.181   5.122
10785SOL    HW343460   6.688   6.242   5.185
10785SOL    MW443461   6.769   6.209   5.193
10786SOL     OW43462   5.758   6.080   4.431
10786SOL    HW243463   5.820   6.087   4.504
10786SOL    HW343464   5.758   5.987   4.408
10786SOL    MW443465   5.766   6.069   4.438
10787SOL     OW43466   6.440   6.341   4.915
10787SOL    HW243467   6.398   6.259   4.891
10787SOL    HW343468   6.441   6.340   5.011
10787SOL    MW443469   6.433   6.330   4.924
10788SOL     OW43470   6.244   5.811   5.020
10788SOL    HW243471   6.175   5.874   5.041
10788SOL    HW343472   6.271   5.775   5.105
10788SOL    MW443473   6.238   5.814   5.033
10789SOL     OW43474   5.627   6.652   3.889
10789SOL    HW243475   5.596   6.717   3.952
10789SOL    HW343476   5.576   6.574   3.908
10789SOL    MW443477   5.617   6.649   3.899
10790SOL     OW43478   7.039   5.664   4.637
10790SOL    HW243479   7.127   5.673   4.674
10790SOL    HW343480   7.049   5.605   4.563
10790SOL    MW443481   7.053   5.658   4.631
10791SOL     OW43482   7.071   6.403   4.481
10791SOL    HW243483   7.151   6.418   4.430
10791SOL    HW343484   7.064   6.308   4.487
10791SOL    MW443485   7.080   6.392   4.476
10792SOL     OW43486   6.521   6.329   5.178
10792SOL    HW243487   6.590   6.396   5.175
10792SOL    HW343488   6.454   6.367   5.234
10792SOL    MW443489   6.522   6.342   5.185
10793SOL     OW43490   5.939   6.629   5.426
10793SOL    HW243491   5.893   6.545   5.428
10793SOL    HW343492   5.996   6.623   5.350
10793SOL    MW443493   5.941   6.617   5.418
10794SOL     OW43494   7.056   6.272   3.747
10794SOL    HW243495   6.984   6.248   3.689
10794SOL    HW343496   7.122   6.309   3.689
10794SOL    MW443497   7.055   6.274   3.732
10795SOL     OW43498   6.451   6.169   4.557
10795SOL    HW243499   6.391   6.187   4.629
10795SOL    HW343500   6.485   6.081   4.576
10795SOL    MW443501   6.447   6.159   4.570
10796SOL     OW43502   7.392   5.668   5.226
10796SOL    HW243503   7.313   5.714   5.254
10796SOL    HW343504   7.427   5.722   5.155
10796SOL    MW443505   7.386   5.681   5.220
10797SOL     OW43506   6.676   6.752   4.576
10797SOL    HW243507   6.768   6.733   4.594
10797SOL    HW343508   6.649   6.682   4.516
10797SOL    MW443509   6.684   6.740   4.570
10798SOL     OW43510   6.469   6.572   3.931
10798SOL    HW243511   6.455   6.484   3.896
10798SOL    HW343512   6.420   6.629   3.872
10798SOL    MW443513   6.461   6.567   3.919
10799SOL     OW43514   6.950   6.990   4.672
10799SOL    HW243515   6.923   7.074   4.637
10799SOL    HW343516   6.910   6.985   4.759
10799SOL    MW443517   6.943   6.999   4.678
10800SOL     OW43518   6.869   6.938   4.940
10800SOL    HW243519   6.880   6.905   5.029
10800SOL    HW343520   6.788   6.897   4.909
10800SOL    MW443521   6.859   6.930   4.946
10801SOL     OW43522   5.882   6.296   4.710
10801SOL    HW243523   5.832   6.295   4.791
10801SOL    HW343524   5.902   6.388   4.694
10801SOL    MW443525   5.878   6.308   4.718
10802SOL     OW43526   6.949   7.060   5.472
10802SOL    HW243527   6.949   7.154   5.488
10802SOL    HW343528   6.994   7.050   5.388
10802SOL    MW443529   6.955   7.070   5.463
10803SOL     OW43530   7.188   5.778   4.033
10803SOL    HW243531   7.181   5.782   4.128
10803SOL    HW343532   7.200   5.869   4.006
10803SOL    MW443533   7.189   5.791   4.041
10804SOL     OW43534   6.477   6.341   4.147
10804SOL    HW243535   6.457   6.327   4.054
10804SOL    HW343536   6.570   6.320   4.154
10804SOL    MW443537   6.487   6.336   4.136
10805SOL     OW43538   5.804   5.964   5.451
10805SOL    HW243539   5.761   6.023   5.388
10805SOL    HW343540   5.872   6.019   5.491
10805SOL    MW443541   5.808   5.979   5.448
10806SOL     OW43542   6.916   6.584   4.996
10806SOL    HW243543   6.979   6.581   5.069
10806SOL    HW343544   6.832   6.602   5.038
10806SOL    MW443545   6.912   6.586   5.011
10807SOL     OW43546   7.255   5.761   4.775
10807SOL    HW243547   7.300   5.679   4.794
10807SOL    HW343548   7.275   5.817   4.851
10807SOL    MW443549   7.265   5.757   4.787
10808SOL     OW43550   5.703   5.604   4.874
10808SOL    HW243551   5.694   5.605   4.779
10808SOL    HW343552   5.797   5.616   4.889
10808SOL    MW443553   5.715   5.607   4.865
10809SOL     OW43554   7.340   6.797   4.494
10809SOL    HW243555   7.319   6.743   4.417
10809SOL    HW343556   7.436   6.795   4.498
10809SOL    MW443557   7.349   6.790   4.483
10810SOL     OW43558   6.032   6.942   5.237
10810SOL    HW243559   5.953   6.892   5.260
10810SOL    HW343560   6.102   6.901   5.287
10810SOL    MW443561   6.030   6.930   5.247
10811SOL     OW43562   5.916   5.731   3.920
10811SOL    HW243563   5.845   5.786   3.888
10811SOL    HW343564   5.958   5.697   3.841
10811SOL    MW443565   5.912   5.733   3.906
10812SOL     OW43566   7.040   6.228   4.756
10812SOL    HW243567   6.963   6.274   4.722
10812SOL    HW343568   7.097   6.297   4.790
10812SOL    MW443569   7.037   6.243   4.756
10813SOL     OW43570   5.672   5.830   3.769
10813SOL    HW243571   5.639   5.909   3.813
10813SOL    HW343572   5.727   5.863   3.698
10813SOL    MW443573   5.675   5.844   3.766
10814SOL     OW43574   6.978   7.176   4.175
10814SOL    HW243575   7.041   7.166   4.104
10814SOL    HW343576   6.895   7.196   4.130
10814SOL    MW443577   6.975   7.177   4.160
10815SOL     OW43578   7.341   6.444   5.862
10815SOL    HW243579   7.382   6.386   5.927
10815SOL    HW343580   7.248   6.436   5.879
10815SOL    MW443581   7.335   6.436   5.872
10816SOL     OW43582   6.135   6.627   6.091
10816SOL    HW243583   6.225   6.602   6.075
10816SOL    HW343584   6.131   6.720   6.068
10816SOL    MW443585   6.147   6.636   6.086
10817SOL     OW43586   5.861   6.111   6.032
10817SOL    HW243587   5.893   6.199   6.014
10817SOL    HW343588   5.849   6.109   6.127
10817SOL    MW443589   5.864   6.123   6.044
10818SOL     OW43590   6.260   5.866   6.119
10818SOL    HW243591   6.318   5.942   6.121
10818SOL    HW343592   6.195   5.887   6.052
10818SOL    MW443593   6.259   5.878   6.110
10819SOL     OW43594   6.347   6.793   6.294
10819SOL    HW243595   6.427   6.796   6.346
10819SOL    HW343596   6.375   6.760   6.208
10819SOL    MW443597   6.361   6.789   6.289
10820SOL     OW43598   6.974   6.775   5.810
10820SOL    HW243599   6.892   6.811   5.776
10820SOL    HW343600   7.042   6.818   5.759
10820SOL    MW443601   6.972   6.785   5.798
10821SOL     OW43602   5.973   6.910   6.476
10821SOL    HW243603   5.949   6.963   6.552
10821SOL    HW343604   6.029   6.968   6.424
10821SOL    MW443605   5.977   6.925   6.479
10822SOL     OW43606   6.526   6.916   6.003
10822SOL    HW243607   6.503   6.978   6.071
10822SOL    HW343608   6.483   6.834   6.029
10822SOL    MW443609   6.518   6.912   6.014
10823SOL     OW43610   6.023   5.889   5.971
10823SOL    HW243611   5.997   5.851   5.887
10823SOL    HW343612   5.960   5.959   5.987
10823SOL    MW443613   6.012   5.892   5.962
10824SOL     OW43614   5.858   6.850   6.008
10824SOL    HW243615   5.806   6.918   5.964
10824SOL    HW343616   5.855   6.776   5.948
10824SOL    MW443617   5.850   6.849   5.995
10825SOL     OW43618   7.455   6.086   5.761
10825SOL    HW243619   7.364   6.088   5.789
10825SOL    HW343620   7.500   6.148   5.819
10825SOL    MW443621   7.448   6.094   5.771
10826SOL     OW43622   7.200   6.689   6.111
10826SOL    HW243623   7.110   6.689   6.146
10826SOL    HW343624   7.193   6.735   6.028
10826SOL    MW443625   7.187   6.695   6.105
10827SOL     OW43626   6.727   6.270   6.072
10827SOL    HW243627   6.753   6.294   5.983
10827SOL    HW343628   6.709   6.177   6.068
10827SOL    MW443629   6.729   6.262   6.059
10828SOL     OW43630   7.392   6.890   5.923
10828SOL    HW243631   7.348   6.931   5.998
10828SOL    HW343632   7.449   6.958   5.888
10828SOL    MW443633   7.394   6.904   5.928
10829SOL     OW43634   6.566   6.299   5.733
10829SOL    HW243635   6.568   6.246   5.654
10829SOL    HW343636   6.654   6.336   5.739
10829SOL    MW443637   6.578   6.298   5.722
10830SOL     OW43638   7.180   6.225   6.069
10830SOL    HW243639   7.219   6.225   6.156
10830SOL    HW343640   7.121   6.301   6.069
10830SOL    MW443641   7.177   6.236   6.080
10831SOL     OW43642   6.736   6.918   5.825
10831SOL    HW243643   6.686   6.920   5.907
10831SOL    HW343644   6.670   6.936   5.757
10831SOL    MW443645   6.722   6.920   5.827
10832SOL     OW43646   6.199   7.336   5.933
10832SOL    HW243647   6.120   7.294   5.966
10832SOL    HW343648   6.265   7.319   6.000
10832SOL    MW443649   6.198   7.328   5.946
10833SOL     OW43650   6.335   6.751   5.640
10833SOL    HW243651   6.257   6.697   5.627
10833SOL    HW343652   6.306   6.824   5.693
10833SOL    MW443653   6.321   6.753   5.645
10834SOL     OW43654   7.140   6.941   5.650
10834SOL    HW243655   7.087   6.990   5.586
10834SOL    HW343656   7.171   7.007   5.711
10834SOL    MW443657   7.138   6.955   5.648
10835SOL     OW43658   6.365   5.830   5.705
10835SOL    HW243659   6.313   5.750   5.693
10835SOL    HW343660   6.452   5.807   5.673
10835SOL    MW443661   6.368   5.816   5.699
10836SOL     OW43662   6.300   7.182   5.641
10836SOL    HW243663   6.240   7.251   5.611
10836SOL    HW343664   6.245   7.124   5.694
10836SOL    MW443665   6.284   7.184   5.643
10837SOL     OW43666   6.738   5.827   5.864
10837SOL    HW243667   6.671   5.803   5.801
10837SOL    HW343668   6.803   5.876   5.813
10837SOL    MW443669   6.738   5.829   5.849
10838SOL     OW43670   6.675   6.331   6.328
10838SOL    HW243671   6.612   6.263   6.352
10838SOL    HW343672   6.695   6.312   6.236
10838SOL    MW443673   6.669   6.318   6.320
10839SOL     OW43674   6.423   6.635   6.054
10839SOL    HW243675   6.425   6.609   5.961
10839SOL    HW343676   6.481   6.572   6.097
10839SOL    MW443677   6.431   6.624   6.048
10840SOL     OW43678   6.913   5.983   5.722
10840SOL    HW243679   6.886   6.049   5.658
10840SOL    HW343680   6.983   6.026   5.772
10840SOL    MW443681   6.918   5.996   5.719
10841SOL     OW43682   6.581   5.688   5.659
10841SOL    HW243683   6.637   5.680   5.581
10841SOL    HW343684   6.558   5.598   5.681
10841SOL    MW443685   6.586   5.675   5.652
10842SOL     OW43686   7.086   6.539   5.864
10842SOL    HW243687   7.053   6.628   5.854
10842SOL    HW343688   7.051   6.510   5.949
10842SOL    MW443689   7.076   6.548   5.875
10843SOL     OW43690   6.080   6.577   5.656
10843SOL    HW243691   6.003   6.590   5.712
10843SOL    HW343692   6.044   6.541   5.575
10843SOL    MW443693   6.066   6.573   5.653
10844SOL     OW43694   6.733   6.550   5.899
10844SOL    HW243695   6.643   6.571   5.874
10844SOL    HW343696   6.760   6.623   5.955
10844SOL    MW443697   6.725   6.562   5.902
10845SOL     OW43698   6.123   6.190   5.769
10845SOL    HW243699   6.089   6.246   5.839
10845SOL    HW343700   6.194   6.140   5.809
10845SOL    MW443701   6.129   6.191   5.783
10846SOL     OW43702   7.179   6.076   5.833
10846SOL    HW243703   7.171   6.147   5.770
10846SOL    HW343704   7.197   6.120   5.916
10846SOL    MW443705   7.180   6.090   5.835
10847SOL     OW43706   6.848   6.338   5.808
10847SOL    HW243707   6.895   6.356   5.727
10847SOL    HW343708   6.814   6.422   5.836
10847SOL    MW443709   6.850   6.352   5.801
10848SOL     OW43710   5.623   6.242   6.021
10848SOL    HW243711   5.563   6.214   6.091
10848SOL    HW343712   5.697   6.182   6.027
10848SOL    MW443713   5.625   6.231   6.030
10849SOL     OW43714   6.791   6.973   6.181
10849SOL    HW243715   6.814   6.924   6.259
10849SOL    HW343716   6.872   7.015   6.153
10849SOL    MW443717   6.804   6.973   6.188
10850SOL     OW43718   6.931   5.640   5.817
10850SOL    HW243719   7.005   5.684   5.860
10850SOL    HW343720   6.855   5.694   5.839
10850SOL    MW443721   6.931   5.652   5.825
10851SOL     OW43722   6.991   6.415   6.095
10851SOL    HW243723   6.906   6.385   6.065
10851SOL    HW343724   6.983   6.422   6.190
10851SOL    MW443725   6.979   6.413   6.104
10852SOL     OW43726   6.364   6.081   5.821
10852SOL    HW243727   6.437   6.130   5.784
10852SOL    HW343728   6.380   5.990   5.795
10852SOL    MW443729   6.376   6.076   5.814
10853SOL     OW43730   5.839   6.590   5.919
10853SOL    HW243731   5.776   6.606   5.848
10853SOL    HW343732   5.786   6.553   5.990
10853SOL    MW443733   5.824   6.587   5.919
10854SOL     OW43734   6.195   6.944   5.778
10854SOL    HW243735   6.210   6.920   5.870
10854SOL    HW343736   6.103   6.922   5.762
10854SOL    MW443737   6.185   6.937   5.788
10855SOL     OW43738   6.706   5.997   6.100
10855SOL    HW243739   6.728   5.934   6.032
10855SOL    HW343740   6.611   5.989   6.111
10855SOL    MW443741   6.696   5.988   6.092
10856SOL     OW43742   5.791   5.687   6.032
10856SOL    HW243743   5.862   5.708   5.971
10856SOL    HW343744   5.745   5.615   5.990
10856SOL    MW443745   5.795   5.681   6.018
10857SOL     OW43746   7.360   7.061   6.132
10857SOL    HW243747   7.330   6.994   6.193
10857SOL    HW343748   7.454   7.067   6.146
10857SOL    MW443749   7.368   7.053   6.142
10858SOL     OW43750   6.916   6.738   6.062
10858SOL    HW243751   6.888   6.824   6.095
10858SOL    HW343752   6.944   6.754   5.972
10858SOL    MW443753   6.916   6.752   6.054
10859SOL     OW43754   6.578   5.658   6.115
10859SOL    HW243755   6.615   5.717   6.180
10859SOL    HW343756   6.555   5.714   6.041
10859SOL    MW443757   6.579   5.673   6.114
10860SOL     OW43758   5.999   6.349   6.011
10860SOL    HW243759   5.999   6.444   5.996
10860SOL    HW343760   6.076   6.333   6.065
10860SOL    MW443761   6.009   6.360   6.016
10861SOL     OW43762   5.758   6.080   6.300
10861SOL    HW243763   5.820   6.087   6.373
10861SOL    HW343764   5.758   5.987   6.277
10861SOL    MW443765   5.766   6.069   6.307
10862SOL     OW43766   5.627   6.652   5.758
10862SOL    HW243767   5.596   6.717   5.821
10862SOL    HW343768   5.576   6.574   5.777
10862SOL    MW443769   5.617   6.649   5.768
10863SOL     OW43770   7.039   5.664   6.506
10863SOL    HW243771   7.127   5.673   6.543
10863SOL    HW343772   7.049   5.605   6.432
10863SOL    MW443773   7.053   5.658   6.500
10864SOL     OW43774   7.056   6.272   5.615
10864SOL    HW243775   6.984   6.248   5.557
10864SOL    HW343776   7.122   6.309   5.557
10864SOL    MW443777   7.055   6.274   5.600
10865SOL     OW43778   6.469   6.572   5.800
10865SOL    HW243779   6.455   6.484   5.765
10865SOL    HW343780   6.420   6.629   5.741
10865SOL    MW443781   6.461   6.567   5.788
10866SOL     OW43782   7.188   5.778   5.902
10866SOL    HW243783   7.181   5.782   5.997
10866SOL    HW343784   7.200   5.869   5.875
10866SOL    MW443785   7.189   5.791   5.910
10867SOL     OW43786   6.477   6.341   6.016
10867SOL    HW243787   6.457   6.327   5.923
10867SOL    HW343788   6.570   6.320   6.023
10867SOL    MW443789   6.487   6.336   6.005
10868SOL     OW43790   5.916   5.731   5.789
10868SOL    HW243791   5.845   5.786   5.757
10868SOL    HW343792   5.958   5.697   5.710
10868SOL    MW443793   5.912   5.733   5.775
10869SOL     OW43794   5.672   5.830   5.638
10869SOL    HW243795   5.639   5.909   5.682
10869SOL    HW343796   5.727   5.863   5.567
10869SOL    MW443797   5.675   5.844   5.635
10870SOL     OW43798   6.978   7.176   6.044
10870SOL    HW243799   7.041   7.166   5.973
10870SOL    HW343800   6.895   7.196   5.999
10870SOL    MW443801   6.975   7.177   6.029
   7.60585   7.17087   6.21015   0.00000   0.00000   2.53528   0.00000  -2.53528   3.58543
