God Rules Over Mankind, Animals, Cosmos and Such
  417
    1ASP      N    1   1.040  -0.274  -1.952
    1ASP     H1    2   1.096  -0.262  -1.870
    1ASP     H2    3   1.041  -0.370  -1.979
    1ASP     H3    4   1.078  -0.218  -2.026
    1ASP     CA    5   0.901  -0.231  -1.924
    1ASP     HA    6   0.910  -0.134  -1.901
    1ASP     CB    7   0.817  -0.250  -2.050
    1ASP    HB1    8   0.783  -0.343  -2.054
    1ASP    HB2    9   0.873  -0.231  -2.131
    1ASP     CG   10   0.699  -0.153  -2.046
    1ASP    OD1   11   0.724  -0.041  -1.998
    1ASP    OD2   12   0.588  -0.197  -2.081
    1ASP      C   13   0.836  -0.295  -1.799
    1ASP      O   14   0.746  -0.239  -1.740
    2SER      N   15   0.884  -0.410  -1.751
    2SER      H   16   0.968  -0.447  -1.790
    2SER     CA   17   0.818  -0.485  -1.641
    2SER     HA   18   0.721  -0.465  -1.657
    2SER     CB   19   0.851  -0.634  -1.656
    2SER    HB1   20   0.786  -0.690  -1.606
    2SER    HB2   21   0.944  -0.654  -1.623
    2SER     OG   22   0.845  -0.671  -1.792
    2SER     HG   23   0.867  -0.768  -1.802
    2SER      C   24   0.847  -0.436  -1.498
    2SER      O   25   0.793  -0.493  -1.403
    3HIS      N   26   0.929  -0.332  -1.479
    3HIS      H   27   0.968  -0.287  -1.558
    3HIS     CA   28   0.964  -0.282  -1.344
    3HIS     HA   29   0.961  -0.363  -1.285
    3HIS     CB   30   1.107  -0.226  -1.345
    3HIS    HB1   31   1.104  -0.132  -1.381
    3HIS    HB2   32   1.164  -0.282  -1.404
    3HIS     CG   33   1.169  -0.222  -1.208
    3HIS    ND1   34   1.178  -0.327  -1.119
    3HIS    CE1   35   1.242  -0.285  -1.009
    3HIS    HE1   36   1.262  -0.341  -0.929
    3HIS    NE2   37   1.275  -0.156  -1.022
    3HIS    HE2   38   1.322  -0.100  -0.954
    3HIS    CD2   39   1.231  -0.115  -1.148
    3HIS    HD2   40   1.243  -0.024  -1.188
    3HIS      C   41   0.859  -0.184  -1.288
    3HIS      O   42   0.827  -0.189  -1.170
    4ALA      N   43   0.795  -0.103  -1.374
    4ALA      H   44   0.821  -0.108  -1.471
    4ALA     CA   45   0.691  -0.008  -1.334
    4ALA     HA   46   0.726   0.040  -1.254
    4ALA     CB   47   0.668   0.089  -1.452
    4ALA    HB1   48   0.597   0.155  -1.427
    4ALA    HB2   49   0.753   0.137  -1.472
    4ALA    HB3   50   0.639   0.037  -1.532
    4ALA      C   51   0.560  -0.077  -1.291
    4ALA      O   52   0.495  -0.036  -1.195
    5LYS      N   53   0.524  -0.190  -1.355
    5LYS      H   54   0.583  -0.223  -1.429
    5LYS     CA   55   0.403  -0.268  -1.321
    5LYS     HA   56   0.329  -0.201  -1.319
    5LYS     CB   57   0.376  -0.372  -1.431
    5LYS    HB1   58   0.306  -0.436  -1.398
    5LYS    HB2   59   0.460  -0.423  -1.449
    5LYS     CG   60   0.328  -0.306  -1.561
    5LYS    HG1   61   0.398  -0.242  -1.592
    5LYS    HG2   62   0.243  -0.256  -1.542
    5LYS     CD   63   0.300  -0.408  -1.673
    5LYS    HD1   64   0.229  -0.472  -1.643
    5LYS    HD2   65   0.384  -0.458  -1.693
    5LYS     CE   66   0.253  -0.333  -1.798
    5LYS    HE1   67   0.318  -0.260  -1.820
    5LYS    HE2   68   0.163  -0.292  -1.780
    5LYS     NZ   69   0.240  -0.420  -1.917
    5LYS    HZ1   70   0.209  -0.366  -1.995
    5LYS    HZ2   71   0.329  -0.461  -1.938
    5LYS    HZ3   72   0.174  -0.493  -1.899
    5LYS      C   73   0.411  -0.332  -1.183
    5LYS      O   74   0.313  -0.332  -1.109
    6ARG      N   75   0.530  -0.379  -1.143
    6ARG      H   76   0.606  -0.378  -1.208
    6ARG     CA   77   0.553  -0.431  -1.008
    6ARG     HA   78   0.478  -0.495  -0.987
    6ARG     CB   79   0.686  -0.509  -1.006
    6ARG    HB1   80   0.761  -0.443  -1.011
    6ARG    HB2   81   0.689  -0.568  -1.086
    6ARG     CG   82   0.704  -0.595  -0.880
    6ARG    HG1   83   0.620  -0.645  -0.861
    6ARG    HG2   84   0.726  -0.536  -0.802
    6ARG     CD   85   0.819  -0.695  -0.901
    6ARG    HD1   86   0.900  -0.647  -0.933
    6ARG    HD2   87   0.792  -0.763  -0.969
    6ARG     NE   88   0.853  -0.767  -0.776
    6ARG     HE   89   0.841  -0.716  -0.691
    6ARG     CZ   90   0.899  -0.891  -0.765
    6ARG    NH1   91   0.909  -0.971  -0.867
    6ARG   HH11   92   0.883  -0.940  -0.958
    6ARG   HH12   93   0.944  -1.064  -0.854
    6ARG    NH2   94   0.935  -0.937  -0.649
    6ARG   HH21   95   0.929  -0.879  -0.568
    6ARG   HH22   96   0.969  -1.031  -0.640
    6ARG      C   97   0.545  -0.321  -0.902
    6ARG      O   98   0.515  -0.352  -0.787
    7HIS      N   99   0.565  -0.195  -0.941
    7HIS      H  100   0.580  -0.178  -1.038
    7HIS     CA  101   0.564  -0.081  -0.851
    7HIS     HA  102   0.599  -0.118  -0.764
    7HIS     CB  103   0.663   0.027  -0.902
    7HIS    HB1  104   0.611   0.097  -0.951
    7HIS    HB2  105   0.728  -0.017  -0.964
    7HIS     CG  106   0.743   0.097  -0.794
    7HIS    ND1  107   0.832   0.038  -0.705
    7HIS    CE1  108   0.881   0.134  -0.624
    7HIS    HE1  109   0.950   0.119  -0.554
    7HIS    NE2  110   0.823   0.252  -0.653
    7HIS    HE2  111   0.837   0.338  -0.604
    7HIS    CD2  112   0.740   0.230  -0.763
    7HIS    HD2  113   0.688   0.300  -0.812
    7HIS      C  114   0.422  -0.027  -0.819
    7HIS      O  115   0.396   0.028  -0.712
    8HIS      N  116   0.324  -0.047  -0.907
    8HIS      H  117   0.345  -0.091  -0.995
    8HIS     CA  118   0.185  -0.008  -0.878
    8HIS     HA  119   0.193   0.073  -0.820
    8HIS     CB  120   0.114   0.030  -1.008
    8HIS    HB1  121   0.015   0.022  -0.995
    8HIS    HB2  122   0.143  -0.033  -1.081
    8HIS     CG  123   0.148   0.171  -1.049
    8HIS    ND1  124   0.097   0.285  -0.992
    8HIS    CE1  125   0.153   0.391  -1.053
    8HIS    HE1  126   0.132   0.486  -1.032
    8HIS    NE2  127   0.240   0.350  -1.146
    8HIS    HE2  128   0.296   0.408  -1.205
    8HIS    CD2  129   0.237   0.210  -1.145
    8HIS    HD2  130   0.291   0.150  -1.204
    8HIS      C  131   0.108  -0.111  -0.794
    8HIS      O  132   0.022  -0.074  -0.715
    9GLY      N  133   0.143  -0.240  -0.804
    9GLY      H  134   0.218  -0.265  -0.865
    9GLY     CA  135   0.075  -0.347  -0.729
    9GLY    HA1  136   0.106  -0.434  -0.766
    9GLY    HA2  137  -0.023  -0.337  -0.746
    9GLY      C  138   0.100  -0.343  -0.578
    9GLY      O  139   0.008  -0.365  -0.499
   10TYR      N  140   0.223  -0.312  -0.535
   10TYR      H  141   0.293  -0.289  -0.602
   10TYR     CA  142   0.258  -0.310  -0.392
   10TYR     HA  143   0.208  -0.387  -0.353
   10TYR     CB  144   0.409  -0.333  -0.372
   10TYR    HB1  145   0.441  -0.399  -0.441
   10TYR    HB2  146   0.424  -0.370  -0.281
   10TYR     CG  147   0.492  -0.208  -0.386
   10TYR    CD1  148   0.528  -0.162  -0.513
   10TYR    HD1  149   0.507  -0.216  -0.595
   10TYR    CE1  150   0.594  -0.039  -0.525
   10TYR    HE1  151   0.618  -0.005  -0.616
   10TYR     CZ  152   0.628   0.038  -0.414
   10TYR     OH  153   0.683   0.161  -0.430
   10TYR     HH  154   0.701   0.201  -0.340
   10TYR    CE2  155   0.592  -0.008  -0.287
   10TYR    HE2  156   0.615   0.046  -0.206
   10TYR    CD2  157   0.524  -0.130  -0.273
   10TYR    HD2  158   0.497  -0.162  -0.182
   10TYR      C  159   0.209  -0.183  -0.320
   10TYR      O  160   0.163  -0.192  -0.206
   11LYS      N  161   0.211  -0.067  -0.387
   11LYS      H  162   0.252  -0.065  -0.479
   11LYS     CA  163   0.157   0.059  -0.333
   11LYS     HA  164   0.200   0.069  -0.243
   11LYS     CB  165   0.193   0.178  -0.423
   11LYS    HB1  166   0.126   0.251  -0.410
   11LYS    HB2  167   0.191   0.149  -0.519
   11LYS     CG  168   0.333   0.232  -0.390
   11LYS    HG1  169   0.399   0.159  -0.404
   11LYS    HG2  170   0.334   0.261  -0.294
   11LYS     CD  171   0.373   0.352  -0.477
   11LYS    HD1  172   0.298   0.418  -0.481
   11LYS    HD2  173   0.394   0.320  -0.569
   11LYS     CE  174   0.497   0.421  -0.418
   11LYS    HE1  175   0.570   0.353  -0.405
   11LYS    HE2  176   0.474   0.461  -0.329
   11LYS     NZ  177   0.550   0.530  -0.504
   11LYS    HZ1  178   0.630   0.571  -0.461
   11LYS    HZ2  179   0.576   0.492  -0.593
   11LYS    HZ3  180   0.480   0.599  -0.517
   11LYS      C  181   0.006   0.051  -0.311
   11LYS      O  182  -0.042   0.101  -0.210
   12ARG      N  183  -0.067  -0.017  -0.400
   12ARG      H  184  -0.021  -0.055  -0.480
   12ARG     CA  185  -0.212  -0.038  -0.387
   12ARG     HA  186  -0.252   0.052  -0.369
   12ARG     CB  187  -0.270  -0.095  -0.518
   12ARG    HB1  188  -0.244  -0.191  -0.526
   12ARG    HB2  189  -0.233  -0.043  -0.595
   12ARG     CG  190  -0.423  -0.084  -0.519
   12ARG    HG1  191  -0.448   0.012  -0.502
   12ARG    HG2  192  -0.460  -0.141  -0.446
   12ARG     CD  193  -0.485  -0.128  -0.652
   12ARG    HD1  194  -0.433  -0.088  -0.728
   12ARG    HD2  195  -0.580  -0.098  -0.657
   12ARG     NE  196  -0.483  -0.275  -0.668
   12ARG     HE  197  -0.409  -0.325  -0.622
   12ARG     CZ  198  -0.570  -0.346  -0.737
   12ARG    NH1  199  -0.664  -0.291  -0.808
   12ARG   HH11  200  -0.672  -0.192  -0.812
   12ARG   HH12  201  -0.728  -0.349  -0.859
   12ARG    NH2  202  -0.565  -0.477  -0.735
   12ARG   HH21  203  -0.495  -0.523  -0.681
   12ARG   HH22  204  -0.631  -0.530  -0.788
   12ARG      C  205  -0.246  -0.126  -0.266
   12ARG      O  206  -0.330  -0.087  -0.186
   13LYS      N  207  -0.174  -0.237  -0.247
   13LYS      H  208  -0.104  -0.261  -0.315
   13LYS     CA  209  -0.192  -0.326  -0.130
   13LYS     HA  210  -0.289  -0.346  -0.125
   13LYS     CB  211  -0.111  -0.454  -0.152
   13LYS    HB1  212  -0.013  -0.433  -0.144
   13LYS    HB2  213  -0.130  -0.489  -0.244
   13LYS     CG  214  -0.147  -0.563  -0.050
   13LYS    HG1  215  -0.246  -0.578  -0.053
   13LYS    HG2  216  -0.121  -0.532   0.041
   13LYS     CD  217  -0.076  -0.696  -0.080
   13LYS    HD1  218   0.022  -0.684  -0.072
   13LYS    HD2  219  -0.098  -0.725  -0.173
   13LYS     CE  220  -0.124  -0.802   0.020
   13LYS    HE1  221  -0.223  -0.812   0.013
   13LYS    HE2  222  -0.099  -0.774   0.112
   13LYS     NZ  223  -0.062  -0.935  -0.006
   13LYS    HZ1  224  -0.096  -1.001   0.061
   13LYS    HZ2  225  -0.087  -0.966  -0.098
   13LYS    HZ3  226   0.037  -0.928   0.002
   13LYS      C  227  -0.155  -0.257   0.002
   13LYS      O  228  -0.216  -0.286   0.105
   14PHE      N  229  -0.057  -0.166   0.001
   14PHE      H  230  -0.006  -0.153  -0.084
   14PHE     CA  231  -0.022  -0.085   0.117
   14PHE     HA  232  -0.015  -0.148   0.195
   14PHE     CB  233   0.115  -0.020   0.094
   14PHE    HB1  234   0.107   0.043   0.017
   14PHE    HB2  235   0.181  -0.091   0.072
   14PHE     CG  236   0.168   0.058   0.213
   14PHE    CD1  237   0.161   0.199   0.214
   14PHE    HD1  238   0.121   0.247   0.137
   14PHE    CE1  239   0.210   0.271   0.324
   14PHE    HE1  240   0.205   0.371   0.325
   14PHE     CZ  241   0.267   0.203   0.433
   14PHE     HZ  242   0.302   0.254   0.512
   14PHE    CE2  243   0.274   0.062   0.432
   14PHE    HE2  244   0.315   0.014   0.510
   14PHE    CD2  245   0.224  -0.010   0.322
   14PHE    HD2  246   0.229  -0.110   0.322
   14PHE      C  247  -0.133   0.016   0.150
   14PHE      O  248  -0.183   0.013   0.262
   15HIS      N  249  -0.179   0.097   0.054
   15HIS      H  250  -0.138   0.091  -0.037
   15HIS     CA  251  -0.287   0.193   0.077
   15HIS     HA  252  -0.255   0.251   0.152
   15HIS     CB  253  -0.310   0.278  -0.049
   15HIS    HB1  254  -0.406   0.271  -0.077
   15HIS    HB2  255  -0.252   0.243  -0.123
   15HIS     CG  256  -0.278   0.424  -0.030
   15HIS    ND1  257  -0.153   0.477  -0.009
   15HIS    CE1  258  -0.167   0.610   0.006
   15HIS    HE1  259  -0.091   0.674   0.023
   15HIS    NE2  260  -0.295   0.645  -0.006
   15HIS    HE2  261  -0.332   0.738  -0.000
   15HIS    CD2  262  -0.367   0.527  -0.027
   15HIS    HD2  263  -0.466   0.520  -0.038
   15HIS      C  264  -0.418   0.126   0.123
   15HIS      O  265  -0.482   0.173   0.217
   16GLU      N  266  -0.455   0.013   0.063
   16GLU      H  267  -0.396  -0.024  -0.009
   16GLU     CA  268  -0.577  -0.062   0.097
   16GLU     HA  269  -0.654   0.002   0.090
   16GLU     CB  270  -0.590  -0.175  -0.007
   16GLU    HB1  271  -0.520  -0.244   0.014
   16GLU    HB2  272  -0.572  -0.136  -0.097
   16GLU     CG  273  -0.726  -0.245  -0.011
   16GLU    HG1  274  -0.798  -0.177  -0.018
   16GLU    HG2  275  -0.738  -0.298   0.073
   16GLU     CD  276  -0.729  -0.338  -0.133
   16GLU    OE1  277  -0.692  -0.457  -0.117
   16GLU    OE2  278  -0.754  -0.288  -0.245
   16GLU      C  279  -0.577  -0.114   0.242
   16GLU      O  280  -0.679  -0.105   0.310
   17LYS      N  281  -0.461  -0.156   0.294
   17LYS      H  282  -0.381  -0.158   0.235
   17LYS     CA  283  -0.445  -0.201   0.434
   17LYS     HA  284  -0.522  -0.262   0.452
   17LYS     CB  285  -0.311  -0.275   0.446
   17LYS    HB1  286  -0.237  -0.209   0.433
   17LYS    HB2  287  -0.306  -0.345   0.375
   17LYS     CG  288  -0.293  -0.343   0.583
   17LYS    HG1  289  -0.370  -0.405   0.598
   17LYS    HG2  290  -0.292  -0.273   0.654
   17LYS     CD  291  -0.163  -0.424   0.592
   17LYS    HD1  292  -0.085  -0.364   0.577
   17LYS    HD2  293  -0.163  -0.496   0.523
   17LYS     CE  294  -0.155  -0.486   0.732
   17LYS    HE1  295  -0.231  -0.550   0.744
   17LYS    HE2  296  -0.163  -0.413   0.801
   17LYS     NZ  297  -0.028  -0.559   0.755
   17LYS    HZ1  298  -0.028  -0.597   0.848
   17LYS    HZ2  299  -0.020  -0.633   0.689
   17LYS    HZ3  300   0.049  -0.496   0.745
   17LYS      C  301  -0.458  -0.087   0.536
   17LYS      O  302  -0.489  -0.113   0.652
   18HIS      N  303  -0.434   0.038   0.496
   18HIS      H  304  -0.413   0.053   0.400
   18HIS     CA  305  -0.436   0.154   0.586
   18HIS     HA  306  -0.425   0.116   0.678
   18HIS     CB  307  -0.318   0.246   0.552
   18HIS    HB1  308  -0.333   0.336   0.594
   18HIS    HB2  309  -0.311   0.257   0.453
   18HIS     CG  310  -0.187   0.191   0.603
   18HIS    ND1  311  -0.146   0.189   0.734
   18HIS    CE1  312  -0.025   0.131   0.740
   18HIS    HE1  313   0.027   0.117   0.824
   18HIS    NE2  314   0.015   0.093   0.618
   18HIS    HE2  315   0.099   0.045   0.595
   18HIS    CD2  316  -0.085   0.135   0.530
   18HIS    HD2  317  -0.083   0.125   0.430
   18HIS      C  318  -0.571   0.228   0.588
   18HIS      O  319  -0.595   0.307   0.680
   19HIS      N  320  -0.661   0.202   0.493
   19HIS      H  321  -0.635   0.139   0.419
   19HIS     CA  322  -0.795   0.260   0.492
   19HIS     HA  323  -0.786   0.346   0.542
   19HIS     CB  324  -0.838   0.287   0.347
   19HIS    HB1  325  -0.936   0.306   0.345
   19HIS    HB2  326  -0.818   0.207   0.291
   19HIS     CG  327  -0.765   0.405   0.288
   19HIS    ND1  328  -0.775   0.536   0.331
   19HIS    CE1  329  -0.694   0.611   0.254
   19HIS    HE1  330  -0.682   0.710   0.264
   19HIS    NE2  331  -0.634   0.535   0.162
   19HIS    HE2  332  -0.569   0.566   0.092
   19HIS    CD2  333  -0.679   0.404   0.182
   19HIS    HD2  334  -0.652   0.324   0.129
   19HIS      C  335  -0.900   0.178   0.569
   19HIS      O  336  -1.004   0.232   0.606
   20SER      N  337  -0.872   0.051   0.600
   20SER      H  338  -0.783   0.015   0.574
   20SER     CA  339  -0.965  -0.038   0.670
   20SER     HA  340  -1.056  -0.009   0.638
   20SER     CB  341  -0.936  -0.183   0.630
   20SER    HB1  342  -0.944  -0.195   0.531
   20SER    HB2  343  -0.999  -0.246   0.676
   20SER     OG  344  -0.804  -0.219   0.667
   20SER     HG  345  -0.787  -0.314   0.640
   20SER      C  346  -0.969  -0.021   0.823
   20SER      O  347  -1.023  -0.106   0.892
   21HIS      N  348  -0.910   0.086   0.878
   21HIS      H  349  -0.871   0.156   0.817
   21HIS     CA  350  -0.898   0.105   1.023
   21HIS     HA  351  -0.964   0.042   1.063
   21HIS     CB  352  -0.755   0.069   1.069
   21HIS    HB1  353  -0.699   0.152   1.070
   21HIS    HB2  354  -0.716   0.003   1.005
   21HIS     CG  355  -0.752   0.008   1.207
   21HIS    ND1  356  -0.822  -0.104   1.247
   21HIS    CE1  357  -0.792  -0.128   1.375
   21HIS    HE1  358  -0.830  -0.202   1.430
   21HIS    NE2  359  -0.703  -0.038   1.420
   21HIS    HE2  360  -0.662  -0.034   1.511
   21HIS    CD2  361  -0.679   0.051   1.315
   21HIS    HD2  362  -0.620   0.131   1.318
   21HIS      C  363  -0.943   0.244   1.072
   21HIS      O  364  -0.902   0.288   1.179
   22ARG      N  365  -1.026   0.315   0.994
   22ARG      H  366  -1.057   0.274   0.908
   22ARG     CA  367  -1.072   0.451   1.028
   22ARG     HA  368  -1.036   0.470   1.119
   22ARG     CB  369  -1.010   0.552   0.929
   22ARG    HB1  370  -1.073   0.564   0.852
   22ARG    HB2  371  -0.923   0.517   0.897
   22ARG     CG  372  -0.988   0.688   0.997
   22ARG    HG1  373  -0.931   0.675   1.079
   22ARG    HG2  374  -1.077   0.726   1.024
   22ARG     CD  375  -0.918   0.785   0.902
   22ARG    HD1  376  -0.968   0.789   0.815
   22ARG    HD2  377  -0.824   0.755   0.886
   22ARG     NE  378  -0.914   0.920   0.960
   22ARG     HE  379  -0.958   0.932   1.049
   22ARG     CZ  380  -0.858   1.027   0.906
   22ARG    NH1  381  -0.792   1.021   0.794
   22ARG   HH11  382  -0.783   0.934   0.746
   22ARG   HH12  383  -0.751   1.104   0.755
   22ARG    NH2  384  -0.868   1.143   0.965
   22ARG   HH21  385  -0.918   1.151   1.051
   22ARG   HH22  386  -0.825   1.224   0.924
   22ARG      C  387  -1.223   0.463   1.046
   22ARG      O  388  -1.280   0.568   1.021
   23GLY      N  389  -1.287   0.355   1.091
   23GLY      H  390  -1.235   0.271   1.106
   23GLY     CA  391  -1.431   0.354   1.120
   23GLY    HA1  392  -1.479   0.335   1.035
   23GLY    HA2  393  -1.456   0.446   1.153
   23GLY      C  394  -1.467   0.251   1.225
   23GLY      O  395  -1.524   0.149   1.188
   24TYR      N  396  -1.429   0.276   1.350
   24TYR      H  397  -1.344   0.328   1.361
   24TYR     CA  398  -1.496   0.237   1.475
   24TYR     HA  399  -1.594   0.247   1.457
   24TYR     CB  400  -1.473   0.090   1.514
   24TYR    HB1  401  -1.476   0.082   1.614
   24TYR    HB2  402  -1.383   0.062   1.481
   24TYR     CG  403  -1.576  -0.004   1.455
   24TYR    CD1  404  -1.707  -0.007   1.508
   24TYR    HD1  405  -1.729   0.049   1.588
   24TYR    CE1  406  -1.805  -0.089   1.449
   24TYR    HE1  407  -1.898  -0.091   1.487
   24TYR     CZ  408  -1.773  -0.167   1.336
   24TYR     OH  409  -1.868  -0.243   1.276
   24TYR     HH  410  -1.828  -0.291   1.198
   24TYR    CE2  411  -1.642  -0.165   1.284
   24TYR    HE2  412  -1.619  -0.221   1.204
   24TYR    CD2  413  -1.544  -0.086   1.345
   24TYR    HD2  414  -1.450  -0.086   1.310
   24TYR      C  415  -1.449   0.331   1.586
   24TYR    OC1  416  -1.536   0.369   1.666
   24TYR    OC2  417  -1.330   0.369   1.581
   3.21974   2.28795   3.79717
