;
;	File 'topol.top' was generated
;	By user: williamrios (1008)
;	On host: elanus
;	At date: Fri May 23 15:15:15 2025
;
;	This is a standalone topology file
;
;	Created by:
;	                    :-) GROMACS - gmx pdb2gmx, 2024.5 (-:
;	
;	Executable:   /usr/local/gromacs/bin/gmx
;	Data prefix:  /usr/local/gromacs
;	Working dir:  /home/williamrios/hst5-compact/a99disp
;	Command line:
;	  gmx pdb2gmx -f hst5_most_compact.pdb -o protein.gro -ter -ignh
;	Force field was read from current directory or a relative path - path added.
;

; Include forcefield parameters
#include "./a99SBdisp.ff/forcefield.itp"

[ moleculetype ]
; Name            nrexcl
Protein_chain_A     3

[ atoms ]
;   nr       type  resnr residue  atom   cgnr     charge       mass  typeB    chargeB      massB
; residue   1 ASP rtp NASP q  0.0
     1         N3      1    ASP      N      1     0.0782      14.01
     2          H      1    ASP     H1      2       0.22      1.008
     3          H      1    ASP     H2      3       0.22      1.008
     4          H      1    ASP     H3      4       0.22      1.008
     5         CT      1    ASP     CA      5     0.0292      12.01
     6         HP      1    ASP     HA      6     0.1141      1.008
     7         CT      1    ASP     CB      7    -0.0235      12.01
     8         HC      1    ASP    HB1      8    -0.0169      1.008
     9         HC      1    ASP    HB2      9    -0.0169      1.008
    10         C6      1    ASP     CG     10     0.8194      12.01
    11         O2      1    ASP    OD1     11    -0.8084         16
    12         O2      1    ASP    OD2     12    -0.8084         16
    13          C      1    ASP      C     13     0.5621      12.01
    14         OB      1    ASP      O     14    -0.5889         16   ; qtot 0
; residue   2 SER rtp SER  q  0.0
    15          N      2    SER      N     15    -0.4157      14.01
    16         HB      2    SER      H     16     0.2719      1.008
    17         CT      2    SER     CA     17    -0.0249      12.01
    18         H1      2    SER     HA     18     0.0843      1.008
    19         C8      2    SER     CB     19     0.2117      12.01
    20         H1      2    SER    HB1     20     0.0352      1.008
    21         H1      2    SER    HB2     21     0.0352      1.008
    22         OH      2    SER     OG     22    -0.6546         16
    23         HO      2    SER     HG     23     0.4275      1.008
    24          C      2    SER      C     24     0.5973      12.01
    25         OB      2    SER      O     25    -0.5679         16   ; qtot 0
; residue   3 HIS rtp HIE  q  0.0
    26          N      3    HIS      N     26    -0.4157      14.01
    27         HB      3    HIS      H     27     0.2719      1.008
    28         CT      3    HIS     CA     28    -0.0581      12.01
    29         H1      3    HIS     HA     29      0.136      1.008
    30         CT      3    HIS     CB     30    -0.0074      12.01
    31         HC      3    HIS    HB1     31     0.0367      1.008
    32         HC      3    HIS    HB2     32     0.0367      1.008
    33         CC      3    HIS     CG     33     0.1868      12.01
    34         NB      3    HIS    ND1     34    -0.5432      14.01
    35         CR      3    HIS    CE1     35     0.1635      12.01
    36         H5      3    HIS    HE1     36     0.1435      1.008
    37         NA      3    HIS    NE2     37    -0.2795      14.01
    38          H      3    HIS    HE2     38     0.3339      1.008
    39         CW      3    HIS    CD2     39    -0.2207      12.01
    40         H4      3    HIS    HD2     40     0.1862      1.008
    41          C      3    HIS      C     41     0.5973      12.01
    42         OB      3    HIS      O     42    -0.5679         16   ; qtot 0
; residue   4 ALA rtp ALA  q  0.0
    43          N      4    ALA      N     43    -0.4157      14.01
    44         HB      4    ALA      H     44     0.2719      1.008
    45         CT      4    ALA     CA     45     0.0337      12.01
    46         H1      4    ALA     HA     46     0.0823      1.008
    47         CT      4    ALA     CB     47    -0.1825      12.01
    48         HC      4    ALA    HB1     48     0.0603      1.008
    49         HC      4    ALA    HB2     49     0.0603      1.008
    50         HC      4    ALA    HB3     50     0.0603      1.008
    51          C      4    ALA      C     51     0.5973      12.01
    52         OB      4    ALA      O     52    -0.5679         16   ; qtot 0
; residue   5 LYS rtp LYS  q +1.0
    53          N      5    LYS      N     53    -0.4157      14.01
    54         HB      5    LYS      H     54      0.272      1.008
    55         CT      5    LYS     CA     55     0.1059      12.01
    56         H1      5    LYS     HA     56     0.0788      1.008
    57         CT      5    LYS     CB     57    -0.1484      12.01
    58         HC      5    LYS    HB1     58     0.0634      1.008
    59         HC      5    LYS    HB2     59     0.0634      1.008
    60         C9      5    LYS     CG     60     0.0174      12.01
    61         HC      5    LYS    HG1     61     0.0223      1.008
    62         HC      5    LYS    HG2     62     0.0223      1.008
    63         CT      5    LYS     CD     63    -0.0991      12.01
    64         HC      5    LYS    HD1     64     0.0425      1.008
    65         HC      5    LYS    HD2     65     0.0425      1.008
    66         CT      5    LYS     CE     66      0.235      12.01
    67         HP      5    LYS    HE1     67     0.0519      1.008
    68         HP      5    LYS    HE2     68     0.0519      1.008
    69         N3      5    LYS     NZ     69    -0.5941      14.01
    70          H      5    LYS    HZ1     70     0.3862      1.008
    71          H      5    LYS    HZ2     71     0.3862      1.008
    72          H      5    LYS    HZ3     72     0.3862      1.008
    73          C      5    LYS      C     73     0.5973      12.01
    74         OB      5    LYS      O     74    -0.5679         16   ; qtot 1
; residue   6 ARG rtp ARG  q +1.0
    75          N      6    ARG      N     75    -0.4157      14.01
    76         HB      6    ARG      H     76      0.272      1.008
    77         CT      6    ARG     CA     77     0.0539      12.01
    78         H1      6    ARG     HA     78     0.0866      1.008
    79         CT      6    ARG     CB     79     0.0525      12.01
    80         HC      6    ARG    HB1     80     0.0236      1.008
    81         HC      6    ARG    HB2     81     0.0236      1.008
    82         C9      6    ARG     CG     82    -0.0008      12.01
    83         HC      6    ARG    HG1     83      0.013      1.008
    84         HC      6    ARG    HG2     84      0.013      1.008
    85         CT      6    ARG     CD     85    -0.2518      12.01
    86         H1      6    ARG    HD1     86     0.2176      1.008
    87         H1      6    ARG    HD2     87     0.2176      1.008
    88         N2      6    ARG     NE     88    -0.6842      14.01
    89          H      6    ARG     HE     89     0.3943      1.008
    90         CA      6    ARG     CZ     90      1.035      12.01
    91         N2      6    ARG    NH1     91     -0.812      14.01
    92          H      6    ARG   HH11     92     0.3861      1.008
    93          H      6    ARG   HH12     93     0.3861      1.008
    94         N2      6    ARG    NH2     94     -0.812      14.01
    95          H      6    ARG   HH21     95     0.3861      1.008
    96          H      6    ARG   HH22     96     0.3861      1.008
    97          C      6    ARG      C     97     0.5973      12.01
    98         OB      6    ARG      O     98    -0.5679         16   ; qtot 2
; residue   7 HIS rtp HIE  q  0.0
    99          N      7    HIS      N     99    -0.4157      14.01
   100         HB      7    HIS      H    100     0.2719      1.008
   101         CT      7    HIS     CA    101    -0.0581      12.01
   102         H1      7    HIS     HA    102      0.136      1.008
   103         CT      7    HIS     CB    103    -0.0074      12.01
   104         HC      7    HIS    HB1    104     0.0367      1.008
   105         HC      7    HIS    HB2    105     0.0367      1.008
   106         CC      7    HIS     CG    106     0.1868      12.01
   107         NB      7    HIS    ND1    107    -0.5432      14.01
   108         CR      7    HIS    CE1    108     0.1635      12.01
   109         H5      7    HIS    HE1    109     0.1435      1.008
   110         NA      7    HIS    NE2    110    -0.2795      14.01
   111          H      7    HIS    HE2    111     0.3339      1.008
   112         CW      7    HIS    CD2    112    -0.2207      12.01
   113         H4      7    HIS    HD2    113     0.1862      1.008
   114          C      7    HIS      C    114     0.5973      12.01
   115         OB      7    HIS      O    115    -0.5679         16   ; qtot 2
; residue   8 HIS rtp HIE  q  0.0
   116          N      8    HIS      N    116    -0.4157      14.01
   117         HB      8    HIS      H    117     0.2719      1.008
   118         CT      8    HIS     CA    118    -0.0581      12.01
   119         H1      8    HIS     HA    119      0.136      1.008
   120         CT      8    HIS     CB    120    -0.0074      12.01
   121         HC      8    HIS    HB1    121     0.0367      1.008
   122         HC      8    HIS    HB2    122     0.0367      1.008
   123         CC      8    HIS     CG    123     0.1868      12.01
   124         NB      8    HIS    ND1    124    -0.5432      14.01
   125         CR      8    HIS    CE1    125     0.1635      12.01
   126         H5      8    HIS    HE1    126     0.1435      1.008
   127         NA      8    HIS    NE2    127    -0.2795      14.01
   128          H      8    HIS    HE2    128     0.3339      1.008
   129         CW      8    HIS    CD2    129    -0.2207      12.01
   130         H4      8    HIS    HD2    130     0.1862      1.008
   131          C      8    HIS      C    131     0.5973      12.01
   132         OB      8    HIS      O    132    -0.5679         16   ; qtot 2
; residue   9 GLY rtp GLY  q  0.0
   133          N      9    GLY      N    133    -0.4157      14.01
   134         HB      9    GLY      H    134     0.2719      1.008
   135         C1      9    GLY     CA    135    -0.0252      12.01
   136         H1      9    GLY    HA1    136     0.0698      1.008
   137         H1      9    GLY    HA2    137     0.0698      1.008
   138          C      9    GLY      C    138     0.5973      12.01
   139         OB      9    GLY      O    139    -0.5679         16   ; qtot 2
; residue  10 TYR rtp TYR  q  0.0
   140          N     10    TYR      N    140    -0.4157      14.01
   141         HB     10    TYR      H    141     0.2719      1.008
   142         CT     10    TYR     CA    142    -0.0014      12.01
   143         H1     10    TYR     HA    143     0.0876      1.008
   144         CT     10    TYR     CB    144    -0.0152      12.01
   145         HC     10    TYR    HB1    145     0.0295      1.008
   146         HC     10    TYR    HB2    146     0.0295      1.008
   147         CA     10    TYR     CG    147    -0.0011      12.01
   148         CA     10    TYR    CD1    148    -0.1906      12.01
   149         HA     10    TYR    HD1    149     0.1699      1.008
   150         CA     10    TYR    CE1    150    -0.2341      12.01
   151         HA     10    TYR    HE1    151     0.1656      1.008
   152          C     10    TYR     CZ    152     0.3226      12.01
   153         OH     10    TYR     OH    153    -0.5579         16
   154         HO     10    TYR     HH    154     0.3992      1.008
   155         CA     10    TYR    CE2    155    -0.2341      12.01
   156         HA     10    TYR    HE2    156     0.1656      1.008
   157         CA     10    TYR    CD2    157    -0.1906      12.01
   158         HA     10    TYR    HD2    158     0.1699      1.008
   159          C     10    TYR      C    159     0.5973      12.01
   160         OB     10    TYR      O    160    -0.5679         16   ; qtot 2
; residue  11 LYS rtp LYS  q +1.0
   161          N     11    LYS      N    161    -0.4157      14.01
   162         HB     11    LYS      H    162      0.272      1.008
   163         CT     11    LYS     CA    163     0.1059      12.01
   164         H1     11    LYS     HA    164     0.0788      1.008
   165         CT     11    LYS     CB    165    -0.1484      12.01
   166         HC     11    LYS    HB1    166     0.0634      1.008
   167         HC     11    LYS    HB2    167     0.0634      1.008
   168         C9     11    LYS     CG    168     0.0174      12.01
   169         HC     11    LYS    HG1    169     0.0223      1.008
   170         HC     11    LYS    HG2    170     0.0223      1.008
   171         CT     11    LYS     CD    171    -0.0991      12.01
   172         HC     11    LYS    HD1    172     0.0425      1.008
   173         HC     11    LYS    HD2    173     0.0425      1.008
   174         CT     11    LYS     CE    174      0.235      12.01
   175         HP     11    LYS    HE1    175     0.0519      1.008
   176         HP     11    LYS    HE2    176     0.0519      1.008
   177         N3     11    LYS     NZ    177    -0.5941      14.01
   178          H     11    LYS    HZ1    178     0.3862      1.008
   179          H     11    LYS    HZ2    179     0.3862      1.008
   180          H     11    LYS    HZ3    180     0.3862      1.008
   181          C     11    LYS      C    181     0.5973      12.01
   182         OB     11    LYS      O    182    -0.5679         16   ; qtot 3
; residue  12 ARG rtp ARG  q +1.0
   183          N     12    ARG      N    183    -0.4157      14.01
   184         HB     12    ARG      H    184      0.272      1.008
   185         CT     12    ARG     CA    185     0.0539      12.01
   186         H1     12    ARG     HA    186     0.0866      1.008
   187         CT     12    ARG     CB    187     0.0525      12.01
   188         HC     12    ARG    HB1    188     0.0236      1.008
   189         HC     12    ARG    HB2    189     0.0236      1.008
   190         C9     12    ARG     CG    190    -0.0008      12.01
   191         HC     12    ARG    HG1    191      0.013      1.008
   192         HC     12    ARG    HG2    192      0.013      1.008
   193         CT     12    ARG     CD    193    -0.2518      12.01
   194         H1     12    ARG    HD1    194     0.2176      1.008
   195         H1     12    ARG    HD2    195     0.2176      1.008
   196         N2     12    ARG     NE    196    -0.6842      14.01
   197          H     12    ARG     HE    197     0.3943      1.008
   198         CA     12    ARG     CZ    198      1.035      12.01
   199         N2     12    ARG    NH1    199     -0.812      14.01
   200          H     12    ARG   HH11    200     0.3861      1.008
   201          H     12    ARG   HH12    201     0.3861      1.008
   202         N2     12    ARG    NH2    202     -0.812      14.01
   203          H     12    ARG   HH21    203     0.3861      1.008
   204          H     12    ARG   HH22    204     0.3861      1.008
   205          C     12    ARG      C    205     0.5973      12.01
   206         OB     12    ARG      O    206    -0.5679         16   ; qtot 4
; residue  13 LYS rtp LYS  q +1.0
   207          N     13    LYS      N    207    -0.4157      14.01
   208         HB     13    LYS      H    208      0.272      1.008
   209         CT     13    LYS     CA    209     0.1059      12.01
   210         H1     13    LYS     HA    210     0.0788      1.008
   211         CT     13    LYS     CB    211    -0.1484      12.01
   212         HC     13    LYS    HB1    212     0.0634      1.008
   213         HC     13    LYS    HB2    213     0.0634      1.008
   214         C9     13    LYS     CG    214     0.0174      12.01
   215         HC     13    LYS    HG1    215     0.0223      1.008
   216         HC     13    LYS    HG2    216     0.0223      1.008
   217         CT     13    LYS     CD    217    -0.0991      12.01
   218         HC     13    LYS    HD1    218     0.0425      1.008
   219         HC     13    LYS    HD2    219     0.0425      1.008
   220         CT     13    LYS     CE    220      0.235      12.01
   221         HP     13    LYS    HE1    221     0.0519      1.008
   222         HP     13    LYS    HE2    222     0.0519      1.008
   223         N3     13    LYS     NZ    223    -0.5941      14.01
   224          H     13    LYS    HZ1    224     0.3862      1.008
   225          H     13    LYS    HZ2    225     0.3862      1.008
   226          H     13    LYS    HZ3    226     0.3862      1.008
   227          C     13    LYS      C    227     0.5973      12.01
   228         OB     13    LYS      O    228    -0.5679         16   ; qtot 5
; residue  14 PHE rtp PHE  q  0.0
   229          N     14    PHE      N    229    -0.4157      14.01
   230         HB     14    PHE      H    230     0.2719      1.008
   231         CT     14    PHE     CA    231    -0.0024      12.01
   232         H1     14    PHE     HA    232     0.0978      1.008
   233         CT     14    PHE     CB    233    -0.0343      12.01
   234         HC     14    PHE    HB1    234     0.0295      1.008
   235         HC     14    PHE    HB2    235     0.0295      1.008
   236         CA     14    PHE     CG    236     0.0118      12.01
   237         CA     14    PHE    CD1    237    -0.1256      12.01
   238         HA     14    PHE    HD1    238      0.133      1.008
   239         CA     14    PHE    CE1    239    -0.1704      12.01
   240         HA     14    PHE    HE1    240      0.143      1.008
   241         CA     14    PHE     CZ    241    -0.1072      12.01
   242         HA     14    PHE     HZ    242     0.1297      1.008
   243         CA     14    PHE    CE2    243    -0.1704      12.01
   244         HA     14    PHE    HE2    244      0.143      1.008
   245         CA     14    PHE    CD2    245    -0.1256      12.01
   246         HA     14    PHE    HD2    246      0.133      1.008
   247          C     14    PHE      C    247     0.5973      12.01
   248         OB     14    PHE      O    248    -0.5679         16   ; qtot 5
; residue  15 HIS rtp HIE  q  0.0
   249          N     15    HIS      N    249    -0.4157      14.01
   250         HB     15    HIS      H    250     0.2719      1.008
   251         CT     15    HIS     CA    251    -0.0581      12.01
   252         H1     15    HIS     HA    252      0.136      1.008
   253         CT     15    HIS     CB    253    -0.0074      12.01
   254         HC     15    HIS    HB1    254     0.0367      1.008
   255         HC     15    HIS    HB2    255     0.0367      1.008
   256         CC     15    HIS     CG    256     0.1868      12.01
   257         NB     15    HIS    ND1    257    -0.5432      14.01
   258         CR     15    HIS    CE1    258     0.1635      12.01
   259         H5     15    HIS    HE1    259     0.1435      1.008
   260         NA     15    HIS    NE2    260    -0.2795      14.01
   261          H     15    HIS    HE2    261     0.3339      1.008
   262         CW     15    HIS    CD2    262    -0.2207      12.01
   263         H4     15    HIS    HD2    263     0.1862      1.008
   264          C     15    HIS      C    264     0.5973      12.01
   265         OB     15    HIS      O    265    -0.5679         16   ; qtot 5
; residue  16 GLU rtp GLU  q -1.0
   266          N     16    GLU      N    266    -0.4157      14.01
   267         HB     16    GLU      H    267     0.2719      1.008
   268         CT     16    GLU     CA    268    -0.2276      12.01
   269         H1     16    GLU     HA    269     0.1545      1.008
   270         CT     16    GLU     CB    270      0.116      12.01
   271         HC     16    GLU    HB1    271    -0.0062      1.008
   272         HC     16    GLU    HB2    272    -0.0062      1.008
   273         C9     16    GLU     CG    273    -0.0818      12.01
   274         HC     16    GLU    HG1    274    -0.0061      1.008
   275         HC     16    GLU    HG2    275    -0.0061      1.008
   276          C     16    GLU     CD    276     0.7286      12.01
   277         O2     16    GLU    OE1    277    -0.7753         16
   278         O2     16    GLU    OE2    278    -0.7753         16
   279          C     16    GLU      C    279     0.5973      12.01
   280         OB     16    GLU      O    280     -0.568         16   ; qtot 4
; residue  17 LYS rtp LYS  q +1.0
   281          N     17    LYS      N    281    -0.4157      14.01
   282         HB     17    LYS      H    282      0.272      1.008
   283         CT     17    LYS     CA    283     0.1059      12.01
   284         H1     17    LYS     HA    284     0.0788      1.008
   285         CT     17    LYS     CB    285    -0.1484      12.01
   286         HC     17    LYS    HB1    286     0.0634      1.008
   287         HC     17    LYS    HB2    287     0.0634      1.008
   288         C9     17    LYS     CG    288     0.0174      12.01
   289         HC     17    LYS    HG1    289     0.0223      1.008
   290         HC     17    LYS    HG2    290     0.0223      1.008
   291         CT     17    LYS     CD    291    -0.0991      12.01
   292         HC     17    LYS    HD1    292     0.0425      1.008
   293         HC     17    LYS    HD2    293     0.0425      1.008
   294         CT     17    LYS     CE    294      0.235      12.01
   295         HP     17    LYS    HE1    295     0.0519      1.008
   296         HP     17    LYS    HE2    296     0.0519      1.008
   297         N3     17    LYS     NZ    297    -0.5941      14.01
   298          H     17    LYS    HZ1    298     0.3862      1.008
   299          H     17    LYS    HZ2    299     0.3862      1.008
   300          H     17    LYS    HZ3    300     0.3862      1.008
   301          C     17    LYS      C    301     0.5973      12.01
   302         OB     17    LYS      O    302    -0.5679         16   ; qtot 5
; residue  18 HIS rtp HIE  q  0.0
   303          N     18    HIS      N    303    -0.4157      14.01
   304         HB     18    HIS      H    304     0.2719      1.008
   305         CT     18    HIS     CA    305    -0.0581      12.01
   306         H1     18    HIS     HA    306      0.136      1.008
   307         CT     18    HIS     CB    307    -0.0074      12.01
   308         HC     18    HIS    HB1    308     0.0367      1.008
   309         HC     18    HIS    HB2    309     0.0367      1.008
   310         CC     18    HIS     CG    310     0.1868      12.01
   311         NB     18    HIS    ND1    311    -0.5432      14.01
   312         CR     18    HIS    CE1    312     0.1635      12.01
   313         H5     18    HIS    HE1    313     0.1435      1.008
   314         NA     18    HIS    NE2    314    -0.2795      14.01
   315          H     18    HIS    HE2    315     0.3339      1.008
   316         CW     18    HIS    CD2    316    -0.2207      12.01
   317         H4     18    HIS    HD2    317     0.1862      1.008
   318          C     18    HIS      C    318     0.5973      12.01
   319         OB     18    HIS      O    319    -0.5679         16   ; qtot 5
; residue  19 HIS rtp HIE  q  0.0
   320          N     19    HIS      N    320    -0.4157      14.01
   321         HB     19    HIS      H    321     0.2719      1.008
   322         CT     19    HIS     CA    322    -0.0581      12.01
   323         H1     19    HIS     HA    323      0.136      1.008
   324         CT     19    HIS     CB    324    -0.0074      12.01
   325         HC     19    HIS    HB1    325     0.0367      1.008
   326         HC     19    HIS    HB2    326     0.0367      1.008
   327         CC     19    HIS     CG    327     0.1868      12.01
   328         NB     19    HIS    ND1    328    -0.5432      14.01
   329         CR     19    HIS    CE1    329     0.1635      12.01
   330         H5     19    HIS    HE1    330     0.1435      1.008
   331         NA     19    HIS    NE2    331    -0.2795      14.01
   332          H     19    HIS    HE2    332     0.3339      1.008
   333         CW     19    HIS    CD2    333    -0.2207      12.01
   334         H4     19    HIS    HD2    334     0.1862      1.008
   335          C     19    HIS      C    335     0.5973      12.01
   336         OB     19    HIS      O    336    -0.5679         16   ; qtot 5
; residue  20 SER rtp SER  q  0.0
   337          N     20    SER      N    337    -0.4157      14.01
   338         HB     20    SER      H    338     0.2719      1.008
   339         CT     20    SER     CA    339    -0.0249      12.01
   340         H1     20    SER     HA    340     0.0843      1.008
   341         C8     20    SER     CB    341     0.2117      12.01
   342         H1     20    SER    HB1    342     0.0352      1.008
   343         H1     20    SER    HB2    343     0.0352      1.008
   344         OH     20    SER     OG    344    -0.6546         16
   345         HO     20    SER     HG    345     0.4275      1.008
   346          C     20    SER      C    346     0.5973      12.01
   347         OB     20    SER      O    347    -0.5679         16   ; qtot 5
; residue  21 HIS rtp HIE  q  0.0
   348          N     21    HIS      N    348    -0.4157      14.01
   349         HB     21    HIS      H    349     0.2719      1.008
   350         CT     21    HIS     CA    350    -0.0581      12.01
   351         H1     21    HIS     HA    351      0.136      1.008
   352         CT     21    HIS     CB    352    -0.0074      12.01
   353         HC     21    HIS    HB1    353     0.0367      1.008
   354         HC     21    HIS    HB2    354     0.0367      1.008
   355         CC     21    HIS     CG    355     0.1868      12.01
   356         NB     21    HIS    ND1    356    -0.5432      14.01
   357         CR     21    HIS    CE1    357     0.1635      12.01
   358         H5     21    HIS    HE1    358     0.1435      1.008
   359         NA     21    HIS    NE2    359    -0.2795      14.01
   360          H     21    HIS    HE2    360     0.3339      1.008
   361         CW     21    HIS    CD2    361    -0.2207      12.01
   362         H4     21    HIS    HD2    362     0.1862      1.008
   363          C     21    HIS      C    363     0.5973      12.01
   364         OB     21    HIS      O    364    -0.5679         16   ; qtot 5
; residue  22 ARG rtp ARG  q +1.0
   365          N     22    ARG      N    365    -0.4157      14.01
   366         HB     22    ARG      H    366      0.272      1.008
   367         CT     22    ARG     CA    367     0.0539      12.01
   368         H1     22    ARG     HA    368     0.0866      1.008
   369         CT     22    ARG     CB    369     0.0525      12.01
   370         HC     22    ARG    HB1    370     0.0236      1.008
   371         HC     22    ARG    HB2    371     0.0236      1.008
   372         C9     22    ARG     CG    372    -0.0008      12.01
   373         HC     22    ARG    HG1    373      0.013      1.008
   374         HC     22    ARG    HG2    374      0.013      1.008
   375         CT     22    ARG     CD    375    -0.2518      12.01
   376         H1     22    ARG    HD1    376     0.2176      1.008
   377         H1     22    ARG    HD2    377     0.2176      1.008
   378         N2     22    ARG     NE    378    -0.6842      14.01
   379          H     22    ARG     HE    379     0.3943      1.008
   380         CA     22    ARG     CZ    380      1.035      12.01
   381         N2     22    ARG    NH1    381     -0.812      14.01
   382          H     22    ARG   HH11    382     0.3861      1.008
   383          H     22    ARG   HH12    383     0.3861      1.008
   384         N2     22    ARG    NH2    384     -0.812      14.01
   385          H     22    ARG   HH21    385     0.3861      1.008
   386          H     22    ARG   HH22    386     0.3861      1.008
   387          C     22    ARG      C    387     0.5973      12.01
   388         OB     22    ARG      O    388    -0.5679         16   ; qtot 6
; residue  23 GLY rtp GLY  q  0.0
   389          N     23    GLY      N    389    -0.4157      14.01
   390         HB     23    GLY      H    390     0.2719      1.008
   391         C1     23    GLY     CA    391    -0.0252      12.01
   392         H1     23    GLY    HA1    392     0.0698      1.008
   393         H1     23    GLY    HA2    393     0.0698      1.008
   394          C     23    GLY      C    394     0.5973      12.01
   395         OB     23    GLY      O    395    -0.5679         16   ; qtot 6
; residue  24 TYR rtp CTYR q -1.0
   396          N     24    TYR      N    396    -0.3821      14.01
   397         HB     24    TYR      H    397     0.2681      1.008
   398         CT     24    TYR     CA    398    -0.2015      12.01
   399         H1     24    TYR     HA    399     0.1092      1.008
   400         CT     24    TYR     CB    400    -0.0752      12.01
   401         HC     24    TYR    HB1    401      0.049      1.008
   402         HC     24    TYR    HB2    402      0.049      1.008
   403         CA     24    TYR     CG    403     0.0243      12.01
   404         CA     24    TYR    CD1    404    -0.1922      12.01
   405         HA     24    TYR    HD1    405      0.178      1.008
   406         CA     24    TYR    CE1    406    -0.2458      12.01
   407         HA     24    TYR    HE1    407     0.1673      1.008
   408          C     24    TYR     CZ    408     0.3395      12.01
   409         OH     24    TYR     OH    409    -0.5643         16
   410         HO     24    TYR     HH    410     0.4017      1.008
   411         CA     24    TYR    CE2    411    -0.2458      12.01
   412         HA     24    TYR    HE2    412     0.1673      1.008
   413         CA     24    TYR    CD2    413    -0.1922      12.01
   414         HA     24    TYR    HD2    414      0.178      1.008
   415          C     24    TYR      C    415     0.7817      12.01
   416         O2     24    TYR    OC1    416     -0.807         16
   417         O2     24    TYR    OC2    417     -0.807         16   ; qtot 5

[ bonds ]
;  ai    aj funct            c0            c1            c2            c3
    1     2     1 
    1     3     1 
    1     4     1 
    1     5     1 
    5     6     1 
    5     7     1 
    5    13     1 
    7     8     1 
    7     9     1 
    7    10     1 
   10    11     1 
   10    12     1 
   13    14     1 
   13    15     1 
   15    16     1 
   15    17     1 
   17    18     1 
   17    19     1 
   17    24     1 
   19    20     1 
   19    21     1 
   19    22     1 
   22    23     1 
   24    25     1 
   24    26     1 
   26    27     1 
   26    28     1 
   28    29     1 
   28    30     1 
   28    41     1 
   30    31     1 
   30    32     1 
   30    33     1 
   33    34     1 
   33    39     1 
   34    35     1 
   35    36     1 
   35    37     1 
   37    38     1 
   37    39     1 
   39    40     1 
   41    42     1 
   41    43     1 
   43    44     1 
   43    45     1 
   45    46     1 
   45    47     1 
   45    51     1 
   47    48     1 
   47    49     1 
   47    50     1 
   51    52     1 
   51    53     1 
   53    54     1 
   53    55     1 
   55    56     1 
   55    57     1 
   55    73     1 
   57    58     1 
   57    59     1 
   57    60     1 
   60    61     1 
   60    62     1 
   60    63     1 
   63    64     1 
   63    65     1 
   63    66     1 
   66    67     1 
   66    68     1 
   66    69     1 
   69    70     1 
   69    71     1 
   69    72     1 
   73    74     1 
   73    75     1 
   75    76     1 
   75    77     1 
   77    78     1 
   77    79     1 
   77    97     1 
   79    80     1 
   79    81     1 
   79    82     1 
   82    83     1 
   82    84     1 
   82    85     1 
   85    86     1 
   85    87     1 
   85    88     1 
   88    89     1 
   88    90     1 
   90    91     1 
   90    94     1 
   91    92     1 
   91    93     1 
   94    95     1 
   94    96     1 
   97    98     1 
   97    99     1 
   99   100     1 
   99   101     1 
  101   102     1 
  101   103     1 
  101   114     1 
  103   104     1 
  103   105     1 
  103   106     1 
  106   107     1 
  106   112     1 
  107   108     1 
  108   109     1 
  108   110     1 
  110   111     1 
  110   112     1 
  112   113     1 
  114   115     1 
  114   116     1 
  116   117     1 
  116   118     1 
  118   119     1 
  118   120     1 
  118   131     1 
  120   121     1 
  120   122     1 
  120   123     1 
  123   124     1 
  123   129     1 
  124   125     1 
  125   126     1 
  125   127     1 
  127   128     1 
  127   129     1 
  129   130     1 
  131   132     1 
  131   133     1 
  133   134     1 
  133   135     1 
  135   136     1 
  135   137     1 
  135   138     1 
  138   139     1 
  138   140     1 
  140   141     1 
  140   142     1 
  142   143     1 
  142   144     1 
  142   159     1 
  144   145     1 
  144   146     1 
  144   147     1 
  147   148     1 
  147   157     1 
  148   149     1 
  148   150     1 
  150   151     1 
  150   152     1 
  152   153     1 
  152   155     1 
  153   154     1 
  155   156     1 
  155   157     1 
  157   158     1 
  159   160     1 
  159   161     1 
  161   162     1 
  161   163     1 
  163   164     1 
  163   165     1 
  163   181     1 
  165   166     1 
  165   167     1 
  165   168     1 
  168   169     1 
  168   170     1 
  168   171     1 
  171   172     1 
  171   173     1 
  171   174     1 
  174   175     1 
  174   176     1 
  174   177     1 
  177   178     1 
  177   179     1 
  177   180     1 
  181   182     1 
  181   183     1 
  183   184     1 
  183   185     1 
  185   186     1 
  185   187     1 
  185   205     1 
  187   188     1 
  187   189     1 
  187   190     1 
  190   191     1 
  190   192     1 
  190   193     1 
  193   194     1 
  193   195     1 
  193   196     1 
  196   197     1 
  196   198     1 
  198   199     1 
  198   202     1 
  199   200     1 
  199   201     1 
  202   203     1 
  202   204     1 
  205   206     1 
  205   207     1 
  207   208     1 
  207   209     1 
  209   210     1 
  209   211     1 
  209   227     1 
  211   212     1 
  211   213     1 
  211   214     1 
  214   215     1 
  214   216     1 
  214   217     1 
  217   218     1 
  217   219     1 
  217   220     1 
  220   221     1 
  220   222     1 
  220   223     1 
  223   224     1 
  223   225     1 
  223   226     1 
  227   228     1 
  227   229     1 
  229   230     1 
  229   231     1 
  231   232     1 
  231   233     1 
  231   247     1 
  233   234     1 
  233   235     1 
  233   236     1 
  236   237     1 
  236   245     1 
  237   238     1 
  237   239     1 
  239   240     1 
  239   241     1 
  241   242     1 
  241   243     1 
  243   244     1 
  243   245     1 
  245   246     1 
  247   248     1 
  247   249     1 
  249   250     1 
  249   251     1 
  251   252     1 
  251   253     1 
  251   264     1 
  253   254     1 
  253   255     1 
  253   256     1 
  256   257     1 
  256   262     1 
  257   258     1 
  258   259     1 
  258   260     1 
  260   261     1 
  260   262     1 
  262   263     1 
  264   265     1 
  264   266     1 
  266   267     1 
  266   268     1 
  268   269     1 
  268   270     1 
  268   279     1 
  270   271     1 
  270   272     1 
  270   273     1 
  273   274     1 
  273   275     1 
  273   276     1 
  276   277     1 
  276   278     1 
  279   280     1 
  279   281     1 
  281   282     1 
  281   283     1 
  283   284     1 
  283   285     1 
  283   301     1 
  285   286     1 
  285   287     1 
  285   288     1 
  288   289     1 
  288   290     1 
  288   291     1 
  291   292     1 
  291   293     1 
  291   294     1 
  294   295     1 
  294   296     1 
  294   297     1 
  297   298     1 
  297   299     1 
  297   300     1 
  301   302     1 
  301   303     1 
  303   304     1 
  303   305     1 
  305   306     1 
  305   307     1 
  305   318     1 
  307   308     1 
  307   309     1 
  307   310     1 
  310   311     1 
  310   316     1 
  311   312     1 
  312   313     1 
  312   314     1 
  314   315     1 
  314   316     1 
  316   317     1 
  318   319     1 
  318   320     1 
  320   321     1 
  320   322     1 
  322   323     1 
  322   324     1 
  322   335     1 
  324   325     1 
  324   326     1 
  324   327     1 
  327   328     1 
  327   333     1 
  328   329     1 
  329   330     1 
  329   331     1 
  331   332     1 
  331   333     1 
  333   334     1 
  335   336     1 
  335   337     1 
  337   338     1 
  337   339     1 
  339   340     1 
  339   341     1 
  339   346     1 
  341   342     1 
  341   343     1 
  341   344     1 
  344   345     1 
  346   347     1 
  346   348     1 
  348   349     1 
  348   350     1 
  350   351     1 
  350   352     1 
  350   363     1 
  352   353     1 
  352   354     1 
  352   355     1 
  355   356     1 
  355   361     1 
  356   357     1 
  357   358     1 
  357   359     1 
  359   360     1 
  359   361     1 
  361   362     1 
  363   364     1 
  363   365     1 
  365   366     1 
  365   367     1 
  367   368     1 
  367   369     1 
  367   387     1 
  369   370     1 
  369   371     1 
  369   372     1 
  372   373     1 
  372   374     1 
  372   375     1 
  375   376     1 
  375   377     1 
  375   378     1 
  378   379     1 
  378   380     1 
  380   381     1 
  380   384     1 
  381   382     1 
  381   383     1 
  384   385     1 
  384   386     1 
  387   388     1 
  387   389     1 
  389   390     1 
  389   391     1 
  391   392     1 
  391   393     1 
  391   394     1 
  394   395     1 
  394   396     1 
  396   397     1 
  396   398     1 
  398   399     1 
  398   400     1 
  398   415     1 
  400   401     1 
  400   402     1 
  400   403     1 
  403   404     1 
  403   413     1 
  404   405     1 
  404   406     1 
  406   407     1 
  406   408     1 
  408   409     1 
  408   411     1 
  409   410     1 
  411   412     1 
  411   413     1 
  413   414     1 
  415   416     1 
  415   417     1 

[ pairs ]
;  ai    aj funct            c0            c1            c2            c3
    1     8     1 
    1     9     1 
    1    10     1 
    1    14     1 
    1    15     1 
    2     6     1 
    2     7     1 
    2    13     1 
    3     6     1 
    3     7     1 
    3    13     1 
    4     6     1 
    4     7     1 
    4    13     1 
    5    11     1 
    5    12     1 
    5    16     1 
    5    17     1 
    6     8     1 
    6     9     1 
    6    10     1 
    6    14     1 
    6    15     1 
    7    14     1 
    7    15     1 
    8    11     1 
    8    12     1 
    8    13     1 
    9    11     1 
    9    12     1 
    9    13     1 
   10    13     1 
   13    18     1 
   13    19     1 
   13    24     1 
   14    16     1 
   14    17     1 
   15    20     1 
   15    21     1 
   15    22     1 
   15    25     1 
   15    26     1 
   16    18     1 
   16    19     1 
   16    24     1 
   17    23     1 
   17    27     1 
   17    28     1 
   18    20     1 
   18    21     1 
   18    22     1 
   18    25     1 
   18    26     1 
   19    25     1 
   19    26     1 
   20    23     1 
   20    24     1 
   21    23     1 
   21    24     1 
   22    24     1 
   24    29     1 
   24    30     1 
   24    41     1 
   25    27     1 
   25    28     1 
   26    31     1 
   26    32     1 
   26    33     1 
   26    42     1 
   26    43     1 
   27    29     1 
   27    30     1 
   27    41     1 
   28    34     1 
   28    39     1 
   28    44     1 
   28    45     1 
   29    31     1 
   29    32     1 
   29    33     1 
   29    42     1 
   29    43     1 
   30    35     1 
   30    37     1 
   30    40     1 
   30    42     1 
   30    43     1 
   31    34     1 
   31    39     1 
   31    41     1 
   32    34     1 
   32    39     1 
   32    41     1 
   33    36     1 
   33    38     1 
   33    41     1 
   34    38     1 
   34    40     1 
   35    40     1 
   36    38     1 
   36    39     1 
   38    40     1 
   41    46     1 
   41    47     1 
   41    51     1 
   42    44     1 
   42    45     1 
   43    48     1 
   43    49     1 
   43    50     1 
   43    52     1 
   43    53     1 
   44    46     1 
   44    47     1 
   44    51     1 
   45    54     1 
   45    55     1 
   46    48     1 
   46    49     1 
   46    50     1 
   46    52     1 
   46    53     1 
   47    52     1 
   47    53     1 
   48    51     1 
   49    51     1 
   50    51     1 
   51    56     1 
   51    57     1 
   51    73     1 
   52    54     1 
   52    55     1 
   53    58     1 
   53    59     1 
   53    60     1 
   53    74     1 
   53    75     1 
   54    56     1 
   54    57     1 
   54    73     1 
   55    61     1 
   55    62     1 
   55    63     1 
   55    76     1 
   55    77     1 
   56    58     1 
   56    59     1 
   56    60     1 
   56    74     1 
   56    75     1 
   57    64     1 
   57    65     1 
   57    66     1 
   57    74     1 
   57    75     1 
   58    61     1 
   58    62     1 
   58    63     1 
   58    73     1 
   59    61     1 
   59    62     1 
   59    63     1 
   59    73     1 
   60    67     1 
   60    68     1 
   60    69     1 
   60    73     1 
   61    64     1 
   61    65     1 
   61    66     1 
   62    64     1 
   62    65     1 
   62    66     1 
   63    70     1 
   63    71     1 
   63    72     1 
   64    67     1 
   64    68     1 
   64    69     1 
   65    67     1 
   65    68     1 
   65    69     1 
   67    70     1 
   67    71     1 
   67    72     1 
   68    70     1 
   68    71     1 
   68    72     1 
   73    78     1 
   73    79     1 
   73    97     1 
   74    76     1 
   74    77     1 
   75    80     1 
   75    81     1 
   75    82     1 
   75    98     1 
   75    99     1 
   76    78     1 
   76    79     1 
   76    97     1 
   77    83     1 
   77    84     1 
   77    85     1 
   77   100     1 
   77   101     1 
   78    80     1 
   78    81     1 
   78    82     1 
   78    98     1 
   78    99     1 
   79    86     1 
   79    87     1 
   79    88     1 
   79    98     1 
   79    99     1 
   80    83     1 
   80    84     1 
   80    85     1 
   80    97     1 
   81    83     1 
   81    84     1 
   81    85     1 
   81    97     1 
   82    89     1 
   82    90     1 
   82    97     1 
   83    86     1 
   83    87     1 
   83    88     1 
   84    86     1 
   84    87     1 
   84    88     1 
   85    91     1 
   85    94     1 
   86    89     1 
   86    90     1 
   87    89     1 
   87    90     1 
   88    92     1 
   88    93     1 
   88    95     1 
   88    96     1 
   89    91     1 
   89    94     1 
   91    95     1 
   91    96     1 
   92    94     1 
   93    94     1 
   97   102     1 
   97   103     1 
   97   114     1 
   98   100     1 
   98   101     1 
   99   104     1 
   99   105     1 
   99   106     1 
   99   115     1 
   99   116     1 
  100   102     1 
  100   103     1 
  100   114     1 
  101   107     1 
  101   112     1 
  101   117     1 
  101   118     1 
  102   104     1 
  102   105     1 
  102   106     1 
  102   115     1 
  102   116     1 
  103   108     1 
  103   110     1 
  103   113     1 
  103   115     1 
  103   116     1 
  104   107     1 
  104   112     1 
  104   114     1 
  105   107     1 
  105   112     1 
  105   114     1 
  106   109     1 
  106   111     1 
  106   114     1 
  107   111     1 
  107   113     1 
  108   113     1 
  109   111     1 
  109   112     1 
  111   113     1 
  114   119     1 
  114   120     1 
  114   131     1 
  115   117     1 
  115   118     1 
  116   121     1 
  116   122     1 
  116   123     1 
  116   132     1 
  116   133     1 
  117   119     1 
  117   120     1 
  117   131     1 
  118   124     1 
  118   129     1 
  118   134     1 
  118   135     1 
  119   121     1 
  119   122     1 
  119   123     1 
  119   132     1 
  119   133     1 
  120   125     1 
  120   127     1 
  120   130     1 
  120   132     1 
  120   133     1 
  121   124     1 
  121   129     1 
  121   131     1 
  122   124     1 
  122   129     1 
  122   131     1 
  123   126     1 
  123   128     1 
  123   131     1 
  124   128     1 
  124   130     1 
  125   130     1 
  126   128     1 
  126   129     1 
  128   130     1 
  131   136     1 
  131   137     1 
  131   138     1 
  132   134     1 
  132   135     1 
  133   139     1 
  133   140     1 
  134   136     1 
  134   137     1 
  134   138     1 
  135   141     1 
  135   142     1 
  136   139     1 
  136   140     1 
  137   139     1 
  137   140     1 
  138   143     1 
  138   144     1 
  138   159     1 
  139   141     1 
  139   142     1 
  140   145     1 
  140   146     1 
  140   147     1 
  140   160     1 
  140   161     1 
  141   143     1 
  141   144     1 
  141   159     1 
  142   148     1 
  142   157     1 
  142   162     1 
  142   163     1 
  143   145     1 
  143   146     1 
  143   147     1 
  143   160     1 
  143   161     1 
  144   149     1 
  144   150     1 
  144   155     1 
  144   158     1 
  144   160     1 
  144   161     1 
  145   148     1 
  145   157     1 
  145   159     1 
  146   148     1 
  146   157     1 
  146   159     1 
  147   151     1 
  147   152     1 
  147   156     1 
  147   159     1 
  148   153     1 
  148   155     1 
  148   158     1 
  149   151     1 
  149   152     1 
  149   157     1 
  150   154     1 
  150   156     1 
  150   157     1 
  151   153     1 
  151   155     1 
  152   158     1 
  153   156     1 
  153   157     1 
  154   155     1 
  156   158     1 
  159   164     1 
  159   165     1 
  159   181     1 
  160   162     1 
  160   163     1 
  161   166     1 
  161   167     1 
  161   168     1 
  161   182     1 
  161   183     1 
  162   164     1 
  162   165     1 
  162   181     1 
  163   169     1 
  163   170     1 
  163   171     1 
  163   184     1 
  163   185     1 
  164   166     1 
  164   167     1 
  164   168     1 
  164   182     1 
  164   183     1 
  165   172     1 
  165   173     1 
  165   174     1 
  165   182     1 
  165   183     1 
  166   169     1 
  166   170     1 
  166   171     1 
  166   181     1 
  167   169     1 
  167   170     1 
  167   171     1 
  167   181     1 
  168   175     1 
  168   176     1 
  168   177     1 
  168   181     1 
  169   172     1 
  169   173     1 
  169   174     1 
  170   172     1 
  170   173     1 
  170   174     1 
  171   178     1 
  171   179     1 
  171   180     1 
  172   175     1 
  172   176     1 
  172   177     1 
  173   175     1 
  173   176     1 
  173   177     1 
  175   178     1 
  175   179     1 
  175   180     1 
  176   178     1 
  176   179     1 
  176   180     1 
  181   186     1 
  181   187     1 
  181   205     1 
  182   184     1 
  182   185     1 
  183   188     1 
  183   189     1 
  183   190     1 
  183   206     1 
  183   207     1 
  184   186     1 
  184   187     1 
  184   205     1 
  185   191     1 
  185   192     1 
  185   193     1 
  185   208     1 
  185   209     1 
  186   188     1 
  186   189     1 
  186   190     1 
  186   206     1 
  186   207     1 
  187   194     1 
  187   195     1 
  187   196     1 
  187   206     1 
  187   207     1 
  188   191     1 
  188   192     1 
  188   193     1 
  188   205     1 
  189   191     1 
  189   192     1 
  189   193     1 
  189   205     1 
  190   197     1 
  190   198     1 
  190   205     1 
  191   194     1 
  191   195     1 
  191   196     1 
  192   194     1 
  192   195     1 
  192   196     1 
  193   199     1 
  193   202     1 
  194   197     1 
  194   198     1 
  195   197     1 
  195   198     1 
  196   200     1 
  196   201     1 
  196   203     1 
  196   204     1 
  197   199     1 
  197   202     1 
  199   203     1 
  199   204     1 
  200   202     1 
  201   202     1 
  205   210     1 
  205   211     1 
  205   227     1 
  206   208     1 
  206   209     1 
  207   212     1 
  207   213     1 
  207   214     1 
  207   228     1 
  207   229     1 
  208   210     1 
  208   211     1 
  208   227     1 
  209   215     1 
  209   216     1 
  209   217     1 
  209   230     1 
  209   231     1 
  210   212     1 
  210   213     1 
  210   214     1 
  210   228     1 
  210   229     1 
  211   218     1 
  211   219     1 
  211   220     1 
  211   228     1 
  211   229     1 
  212   215     1 
  212   216     1 
  212   217     1 
  212   227     1 
  213   215     1 
  213   216     1 
  213   217     1 
  213   227     1 
  214   221     1 
  214   222     1 
  214   223     1 
  214   227     1 
  215   218     1 
  215   219     1 
  215   220     1 
  216   218     1 
  216   219     1 
  216   220     1 
  217   224     1 
  217   225     1 
  217   226     1 
  218   221     1 
  218   222     1 
  218   223     1 
  219   221     1 
  219   222     1 
  219   223     1 
  221   224     1 
  221   225     1 
  221   226     1 
  222   224     1 
  222   225     1 
  222   226     1 
  227   232     1 
  227   233     1 
  227   247     1 
  228   230     1 
  228   231     1 
  229   234     1 
  229   235     1 
  229   236     1 
  229   248     1 
  229   249     1 
  230   232     1 
  230   233     1 
  230   247     1 
  231   237     1 
  231   245     1 
  231   250     1 
  231   251     1 
  232   234     1 
  232   235     1 
  232   236     1 
  232   248     1 
  232   249     1 
  233   238     1 
  233   239     1 
  233   243     1 
  233   246     1 
  233   248     1 
  233   249     1 
  234   237     1 
  234   245     1 
  234   247     1 
  235   237     1 
  235   245     1 
  235   247     1 
  236   240     1 
  236   241     1 
  236   244     1 
  236   247     1 
  237   242     1 
  237   243     1 
  237   246     1 
  238   240     1 
  238   241     1 
  238   245     1 
  239   244     1 
  239   245     1 
  240   242     1 
  240   243     1 
  241   246     1 
  242   244     1 
  242   245     1 
  244   246     1 
  247   252     1 
  247   253     1 
  247   264     1 
  248   250     1 
  248   251     1 
  249   254     1 
  249   255     1 
  249   256     1 
  249   265     1 
  249   266     1 
  250   252     1 
  250   253     1 
  250   264     1 
  251   257     1 
  251   262     1 
  251   267     1 
  251   268     1 
  252   254     1 
  252   255     1 
  252   256     1 
  252   265     1 
  252   266     1 
  253   258     1 
  253   260     1 
  253   263     1 
  253   265     1 
  253   266     1 
  254   257     1 
  254   262     1 
  254   264     1 
  255   257     1 
  255   262     1 
  255   264     1 
  256   259     1 
  256   261     1 
  256   264     1 
  257   261     1 
  257   263     1 
  258   263     1 
  259   261     1 
  259   262     1 
  261   263     1 
  264   269     1 
  264   270     1 
  264   279     1 
  265   267     1 
  265   268     1 
  266   271     1 
  266   272     1 
  266   273     1 
  266   280     1 
  266   281     1 
  267   269     1 
  267   270     1 
  267   279     1 
  268   274     1 
  268   275     1 
  268   276     1 
  268   282     1 
  268   283     1 
  269   271     1 
  269   272     1 
  269   273     1 
  269   280     1 
  269   281     1 
  270   277     1 
  270   278     1 
  270   280     1 
  270   281     1 
  271   274     1 
  271   275     1 
  271   276     1 
  271   279     1 
  272   274     1 
  272   275     1 
  272   276     1 
  272   279     1 
  273   279     1 
  274   277     1 
  274   278     1 
  275   277     1 
  275   278     1 
  279   284     1 
  279   285     1 
  279   301     1 
  280   282     1 
  280   283     1 
  281   286     1 
  281   287     1 
  281   288     1 
  281   302     1 
  281   303     1 
  282   284     1 
  282   285     1 
  282   301     1 
  283   289     1 
  283   290     1 
  283   291     1 
  283   304     1 
  283   305     1 
  284   286     1 
  284   287     1 
  284   288     1 
  284   302     1 
  284   303     1 
  285   292     1 
  285   293     1 
  285   294     1 
  285   302     1 
  285   303     1 
  286   289     1 
  286   290     1 
  286   291     1 
  286   301     1 
  287   289     1 
  287   290     1 
  287   291     1 
  287   301     1 
  288   295     1 
  288   296     1 
  288   297     1 
  288   301     1 
  289   292     1 
  289   293     1 
  289   294     1 
  290   292     1 
  290   293     1 
  290   294     1 
  291   298     1 
  291   299     1 
  291   300     1 
  292   295     1 
  292   296     1 
  292   297     1 
  293   295     1 
  293   296     1 
  293   297     1 
  295   298     1 
  295   299     1 
  295   300     1 
  296   298     1 
  296   299     1 
  296   300     1 
  301   306     1 
  301   307     1 
  301   318     1 
  302   304     1 
  302   305     1 
  303   308     1 
  303   309     1 
  303   310     1 
  303   319     1 
  303   320     1 
  304   306     1 
  304   307     1 
  304   318     1 
  305   311     1 
  305   316     1 
  305   321     1 
  305   322     1 
  306   308     1 
  306   309     1 
  306   310     1 
  306   319     1 
  306   320     1 
  307   312     1 
  307   314     1 
  307   317     1 
  307   319     1 
  307   320     1 
  308   311     1 
  308   316     1 
  308   318     1 
  309   311     1 
  309   316     1 
  309   318     1 
  310   313     1 
  310   315     1 
  310   318     1 
  311   315     1 
  311   317     1 
  312   317     1 
  313   315     1 
  313   316     1 
  315   317     1 
  318   323     1 
  318   324     1 
  318   335     1 
  319   321     1 
  319   322     1 
  320   325     1 
  320   326     1 
  320   327     1 
  320   336     1 
  320   337     1 
  321   323     1 
  321   324     1 
  321   335     1 
  322   328     1 
  322   333     1 
  322   338     1 
  322   339     1 
  323   325     1 
  323   326     1 
  323   327     1 
  323   336     1 
  323   337     1 
  324   329     1 
  324   331     1 
  324   334     1 
  324   336     1 
  324   337     1 
  325   328     1 
  325   333     1 
  325   335     1 
  326   328     1 
  326   333     1 
  326   335     1 
  327   330     1 
  327   332     1 
  327   335     1 
  328   332     1 
  328   334     1 
  329   334     1 
  330   332     1 
  330   333     1 
  332   334     1 
  335   340     1 
  335   341     1 
  335   346     1 
  336   338     1 
  336   339     1 
  337   342     1 
  337   343     1 
  337   344     1 
  337   347     1 
  337   348     1 
  338   340     1 
  338   341     1 
  338   346     1 
  339   345     1 
  339   349     1 
  339   350     1 
  340   342     1 
  340   343     1 
  340   344     1 
  340   347     1 
  340   348     1 
  341   347     1 
  341   348     1 
  342   345     1 
  342   346     1 
  343   345     1 
  343   346     1 
  344   346     1 
  346   351     1 
  346   352     1 
  346   363     1 
  347   349     1 
  347   350     1 
  348   353     1 
  348   354     1 
  348   355     1 
  348   364     1 
  348   365     1 
  349   351     1 
  349   352     1 
  349   363     1 
  350   356     1 
  350   361     1 
  350   366     1 
  350   367     1 
  351   353     1 
  351   354     1 
  351   355     1 
  351   364     1 
  351   365     1 
  352   357     1 
  352   359     1 
  352   362     1 
  352   364     1 
  352   365     1 
  353   356     1 
  353   361     1 
  353   363     1 
  354   356     1 
  354   361     1 
  354   363     1 
  355   358     1 
  355   360     1 
  355   363     1 
  356   360     1 
  356   362     1 
  357   362     1 
  358   360     1 
  358   361     1 
  360   362     1 
  363   368     1 
  363   369     1 
  363   387     1 
  364   366     1 
  364   367     1 
  365   370     1 
  365   371     1 
  365   372     1 
  365   388     1 
  365   389     1 
  366   368     1 
  366   369     1 
  366   387     1 
  367   373     1 
  367   374     1 
  367   375     1 
  367   390     1 
  367   391     1 
  368   370     1 
  368   371     1 
  368   372     1 
  368   388     1 
  368   389     1 
  369   376     1 
  369   377     1 
  369   378     1 
  369   388     1 
  369   389     1 
  370   373     1 
  370   374     1 
  370   375     1 
  370   387     1 
  371   373     1 
  371   374     1 
  371   375     1 
  371   387     1 
  372   379     1 
  372   380     1 
  372   387     1 
  373   376     1 
  373   377     1 
  373   378     1 
  374   376     1 
  374   377     1 
  374   378     1 
  375   381     1 
  375   384     1 
  376   379     1 
  376   380     1 
  377   379     1 
  377   380     1 
  378   382     1 
  378   383     1 
  378   385     1 
  378   386     1 
  379   381     1 
  379   384     1 
  381   385     1 
  381   386     1 
  382   384     1 
  383   384     1 
  387   392     1 
  387   393     1 
  387   394     1 
  388   390     1 
  388   391     1 
  389   395     1 
  389   396     1 
  390   392     1 
  390   393     1 
  390   394     1 
  391   397     1 
  391   398     1 
  392   395     1 
  392   396     1 
  393   395     1 
  393   396     1 
  394   399     1 
  394   400     1 
  394   415     1 
  395   397     1 
  395   398     1 
  396   401     1 
  396   402     1 
  396   403     1 
  396   416     1 
  396   417     1 
  397   399     1 
  397   400     1 
  397   415     1 
  398   404     1 
  398   413     1 
  399   401     1 
  399   402     1 
  399   403     1 
  399   416     1 
  399   417     1 
  400   405     1 
  400   406     1 
  400   411     1 
  400   414     1 
  400   416     1 
  400   417     1 
  401   404     1 
  401   413     1 
  401   415     1 
  402   404     1 
  402   413     1 
  402   415     1 
  403   407     1 
  403   408     1 
  403   412     1 
  403   415     1 
  404   409     1 
  404   411     1 
  404   414     1 
  405   407     1 
  405   408     1 
  405   413     1 
  406   410     1 
  406   412     1 
  406   413     1 
  407   409     1 
  407   411     1 
  408   414     1 
  409   412     1 
  409   413     1 
  410   411     1 
  412   414     1 

[ angles ]
;  ai    aj    ak funct            c0            c1            c2            c3
    2     1     3     1 
    2     1     4     1 
    2     1     5     1 
    3     1     4     1 
    3     1     5     1 
    4     1     5     1 
    1     5     6     1 
    1     5     7     1 
    1     5    13     1 
    6     5     7     1 
    6     5    13     1 
    7     5    13     1 
    5     7     8     1 
    5     7     9     1 
    5     7    10     1 
    8     7     9     1 
    8     7    10     1 
    9     7    10     1 
    7    10    11     1 
    7    10    12     1 
   11    10    12     1 
    5    13    14     1 
    5    13    15     1 
   14    13    15     1 
   13    15    16     1 
   13    15    17     1 
   16    15    17     1 
   15    17    18     1 
   15    17    19     1 
   15    17    24     1 
   18    17    19     1 
   18    17    24     1 
   19    17    24     1 
   17    19    20     1 
   17    19    21     1 
   17    19    22     1 
   20    19    21     1 
   20    19    22     1 
   21    19    22     1 
   19    22    23     1 
   17    24    25     1 
   17    24    26     1 
   25    24    26     1 
   24    26    27     1 
   24    26    28     1 
   27    26    28     1 
   26    28    29     1 
   26    28    30     1 
   26    28    41     1 
   29    28    30     1 
   29    28    41     1 
   30    28    41     1 
   28    30    31     1 
   28    30    32     1 
   28    30    33     1 
   31    30    32     1 
   31    30    33     1 
   32    30    33     1 
   30    33    34     1 
   30    33    39     1 
   34    33    39     1 
   33    34    35     1 
   34    35    36     1 
   34    35    37     1 
   36    35    37     1 
   35    37    38     1 
   35    37    39     1 
   38    37    39     1 
   33    39    37     1 
   33    39    40     1 
   37    39    40     1 
   28    41    42     1 
   28    41    43     1 
   42    41    43     1 
   41    43    44     1 
   41    43    45     1 
   44    43    45     1 
   43    45    46     1 
   43    45    47     1 
   43    45    51     1 
   46    45    47     1 
   46    45    51     1 
   47    45    51     1 
   45    47    48     1 
   45    47    49     1 
   45    47    50     1 
   48    47    49     1 
   48    47    50     1 
   49    47    50     1 
   45    51    52     1 
   45    51    53     1 
   52    51    53     1 
   51    53    54     1 
   51    53    55     1 
   54    53    55     1 
   53    55    56     1 
   53    55    57     1 
   53    55    73     1 
   56    55    57     1 
   56    55    73     1 
   57    55    73     1 
   55    57    58     1 
   55    57    59     1 
   55    57    60     1 
   58    57    59     1 
   58    57    60     1 
   59    57    60     1 
   57    60    61     1 
   57    60    62     1 
   57    60    63     1 
   61    60    62     1 
   61    60    63     1 
   62    60    63     1 
   60    63    64     1 
   60    63    65     1 
   60    63    66     1 
   64    63    65     1 
   64    63    66     1 
   65    63    66     1 
   63    66    67     1 
   63    66    68     1 
   63    66    69     1 
   67    66    68     1 
   67    66    69     1 
   68    66    69     1 
   66    69    70     1 
   66    69    71     1 
   66    69    72     1 
   70    69    71     1 
   70    69    72     1 
   71    69    72     1 
   55    73    74     1 
   55    73    75     1 
   74    73    75     1 
   73    75    76     1 
   73    75    77     1 
   76    75    77     1 
   75    77    78     1 
   75    77    79     1 
   75    77    97     1 
   78    77    79     1 
   78    77    97     1 
   79    77    97     1 
   77    79    80     1 
   77    79    81     1 
   77    79    82     1 
   80    79    81     1 
   80    79    82     1 
   81    79    82     1 
   79    82    83     1 
   79    82    84     1 
   79    82    85     1 
   83    82    84     1 
   83    82    85     1 
   84    82    85     1 
   82    85    86     1 
   82    85    87     1 
   82    85    88     1 
   86    85    87     1 
   86    85    88     1 
   87    85    88     1 
   85    88    89     1 
   85    88    90     1 
   89    88    90     1 
   88    90    91     1 
   88    90    94     1 
   91    90    94     1 
   90    91    92     1 
   90    91    93     1 
   92    91    93     1 
   90    94    95     1 
   90    94    96     1 
   95    94    96     1 
   77    97    98     1 
   77    97    99     1 
   98    97    99     1 
   97    99   100     1 
   97    99   101     1 
  100    99   101     1 
   99   101   102     1 
   99   101   103     1 
   99   101   114     1 
  102   101   103     1 
  102   101   114     1 
  103   101   114     1 
  101   103   104     1 
  101   103   105     1 
  101   103   106     1 
  104   103   105     1 
  104   103   106     1 
  105   103   106     1 
  103   106   107     1 
  103   106   112     1 
  107   106   112     1 
  106   107   108     1 
  107   108   109     1 
  107   108   110     1 
  109   108   110     1 
  108   110   111     1 
  108   110   112     1 
  111   110   112     1 
  106   112   110     1 
  106   112   113     1 
  110   112   113     1 
  101   114   115     1 
  101   114   116     1 
  115   114   116     1 
  114   116   117     1 
  114   116   118     1 
  117   116   118     1 
  116   118   119     1 
  116   118   120     1 
  116   118   131     1 
  119   118   120     1 
  119   118   131     1 
  120   118   131     1 
  118   120   121     1 
  118   120   122     1 
  118   120   123     1 
  121   120   122     1 
  121   120   123     1 
  122   120   123     1 
  120   123   124     1 
  120   123   129     1 
  124   123   129     1 
  123   124   125     1 
  124   125   126     1 
  124   125   127     1 
  126   125   127     1 
  125   127   128     1 
  125   127   129     1 
  128   127   129     1 
  123   129   127     1 
  123   129   130     1 
  127   129   130     1 
  118   131   132     1 
  118   131   133     1 
  132   131   133     1 
  131   133   134     1 
  131   133   135     1 
  134   133   135     1 
  133   135   136     1 
  133   135   137     1 
  133   135   138     1 
  136   135   137     1 
  136   135   138     1 
  137   135   138     1 
  135   138   139     1 
  135   138   140     1 
  139   138   140     1 
  138   140   141     1 
  138   140   142     1 
  141   140   142     1 
  140   142   143     1 
  140   142   144     1 
  140   142   159     1 
  143   142   144     1 
  143   142   159     1 
  144   142   159     1 
  142   144   145     1 
  142   144   146     1 
  142   144   147     1 
  145   144   146     1 
  145   144   147     1 
  146   144   147     1 
  144   147   148     1 
  144   147   157     1 
  148   147   157     1 
  147   148   149     1 
  147   148   150     1 
  149   148   150     1 
  148   150   151     1 
  148   150   152     1 
  151   150   152     1 
  150   152   153     1 
  150   152   155     1 
  153   152   155     1 
  152   153   154     1 
  152   155   156     1 
  152   155   157     1 
  156   155   157     1 
  147   157   155     1 
  147   157   158     1 
  155   157   158     1 
  142   159   160     1 
  142   159   161     1 
  160   159   161     1 
  159   161   162     1 
  159   161   163     1 
  162   161   163     1 
  161   163   164     1 
  161   163   165     1 
  161   163   181     1 
  164   163   165     1 
  164   163   181     1 
  165   163   181     1 
  163   165   166     1 
  163   165   167     1 
  163   165   168     1 
  166   165   167     1 
  166   165   168     1 
  167   165   168     1 
  165   168   169     1 
  165   168   170     1 
  165   168   171     1 
  169   168   170     1 
  169   168   171     1 
  170   168   171     1 
  168   171   172     1 
  168   171   173     1 
  168   171   174     1 
  172   171   173     1 
  172   171   174     1 
  173   171   174     1 
  171   174   175     1 
  171   174   176     1 
  171   174   177     1 
  175   174   176     1 
  175   174   177     1 
  176   174   177     1 
  174   177   178     1 
  174   177   179     1 
  174   177   180     1 
  178   177   179     1 
  178   177   180     1 
  179   177   180     1 
  163   181   182     1 
  163   181   183     1 
  182   181   183     1 
  181   183   184     1 
  181   183   185     1 
  184   183   185     1 
  183   185   186     1 
  183   185   187     1 
  183   185   205     1 
  186   185   187     1 
  186   185   205     1 
  187   185   205     1 
  185   187   188     1 
  185   187   189     1 
  185   187   190     1 
  188   187   189     1 
  188   187   190     1 
  189   187   190     1 
  187   190   191     1 
  187   190   192     1 
  187   190   193     1 
  191   190   192     1 
  191   190   193     1 
  192   190   193     1 
  190   193   194     1 
  190   193   195     1 
  190   193   196     1 
  194   193   195     1 
  194   193   196     1 
  195   193   196     1 
  193   196   197     1 
  193   196   198     1 
  197   196   198     1 
  196   198   199     1 
  196   198   202     1 
  199   198   202     1 
  198   199   200     1 
  198   199   201     1 
  200   199   201     1 
  198   202   203     1 
  198   202   204     1 
  203   202   204     1 
  185   205   206     1 
  185   205   207     1 
  206   205   207     1 
  205   207   208     1 
  205   207   209     1 
  208   207   209     1 
  207   209   210     1 
  207   209   211     1 
  207   209   227     1 
  210   209   211     1 
  210   209   227     1 
  211   209   227     1 
  209   211   212     1 
  209   211   213     1 
  209   211   214     1 
  212   211   213     1 
  212   211   214     1 
  213   211   214     1 
  211   214   215     1 
  211   214   216     1 
  211   214   217     1 
  215   214   216     1 
  215   214   217     1 
  216   214   217     1 
  214   217   218     1 
  214   217   219     1 
  214   217   220     1 
  218   217   219     1 
  218   217   220     1 
  219   217   220     1 
  217   220   221     1 
  217   220   222     1 
  217   220   223     1 
  221   220   222     1 
  221   220   223     1 
  222   220   223     1 
  220   223   224     1 
  220   223   225     1 
  220   223   226     1 
  224   223   225     1 
  224   223   226     1 
  225   223   226     1 
  209   227   228     1 
  209   227   229     1 
  228   227   229     1 
  227   229   230     1 
  227   229   231     1 
  230   229   231     1 
  229   231   232     1 
  229   231   233     1 
  229   231   247     1 
  232   231   233     1 
  232   231   247     1 
  233   231   247     1 
  231   233   234     1 
  231   233   235     1 
  231   233   236     1 
  234   233   235     1 
  234   233   236     1 
  235   233   236     1 
  233   236   237     1 
  233   236   245     1 
  237   236   245     1 
  236   237   238     1 
  236   237   239     1 
  238   237   239     1 
  237   239   240     1 
  237   239   241     1 
  240   239   241     1 
  239   241   242     1 
  239   241   243     1 
  242   241   243     1 
  241   243   244     1 
  241   243   245     1 
  244   243   245     1 
  236   245   243     1 
  236   245   246     1 
  243   245   246     1 
  231   247   248     1 
  231   247   249     1 
  248   247   249     1 
  247   249   250     1 
  247   249   251     1 
  250   249   251     1 
  249   251   252     1 
  249   251   253     1 
  249   251   264     1 
  252   251   253     1 
  252   251   264     1 
  253   251   264     1 
  251   253   254     1 
  251   253   255     1 
  251   253   256     1 
  254   253   255     1 
  254   253   256     1 
  255   253   256     1 
  253   256   257     1 
  253   256   262     1 
  257   256   262     1 
  256   257   258     1 
  257   258   259     1 
  257   258   260     1 
  259   258   260     1 
  258   260   261     1 
  258   260   262     1 
  261   260   262     1 
  256   262   260     1 
  256   262   263     1 
  260   262   263     1 
  251   264   265     1 
  251   264   266     1 
  265   264   266     1 
  264   266   267     1 
  264   266   268     1 
  267   266   268     1 
  266   268   269     1 
  266   268   270     1 
  266   268   279     1 
  269   268   270     1 
  269   268   279     1 
  270   268   279     1 
  268   270   271     1 
  268   270   272     1 
  268   270   273     1 
  271   270   272     1 
  271   270   273     1 
  272   270   273     1 
  270   273   274     1 
  270   273   275     1 
  270   273   276     1 
  274   273   275     1 
  274   273   276     1 
  275   273   276     1 
  273   276   277     1 
  273   276   278     1 
  277   276   278     1 
  268   279   280     1 
  268   279   281     1 
  280   279   281     1 
  279   281   282     1 
  279   281   283     1 
  282   281   283     1 
  281   283   284     1 
  281   283   285     1 
  281   283   301     1 
  284   283   285     1 
  284   283   301     1 
  285   283   301     1 
  283   285   286     1 
  283   285   287     1 
  283   285   288     1 
  286   285   287     1 
  286   285   288     1 
  287   285   288     1 
  285   288   289     1 
  285   288   290     1 
  285   288   291     1 
  289   288   290     1 
  289   288   291     1 
  290   288   291     1 
  288   291   292     1 
  288   291   293     1 
  288   291   294     1 
  292   291   293     1 
  292   291   294     1 
  293   291   294     1 
  291   294   295     1 
  291   294   296     1 
  291   294   297     1 
  295   294   296     1 
  295   294   297     1 
  296   294   297     1 
  294   297   298     1 
  294   297   299     1 
  294   297   300     1 
  298   297   299     1 
  298   297   300     1 
  299   297   300     1 
  283   301   302     1 
  283   301   303     1 
  302   301   303     1 
  301   303   304     1 
  301   303   305     1 
  304   303   305     1 
  303   305   306     1 
  303   305   307     1 
  303   305   318     1 
  306   305   307     1 
  306   305   318     1 
  307   305   318     1 
  305   307   308     1 
  305   307   309     1 
  305   307   310     1 
  308   307   309     1 
  308   307   310     1 
  309   307   310     1 
  307   310   311     1 
  307   310   316     1 
  311   310   316     1 
  310   311   312     1 
  311   312   313     1 
  311   312   314     1 
  313   312   314     1 
  312   314   315     1 
  312   314   316     1 
  315   314   316     1 
  310   316   314     1 
  310   316   317     1 
  314   316   317     1 
  305   318   319     1 
  305   318   320     1 
  319   318   320     1 
  318   320   321     1 
  318   320   322     1 
  321   320   322     1 
  320   322   323     1 
  320   322   324     1 
  320   322   335     1 
  323   322   324     1 
  323   322   335     1 
  324   322   335     1 
  322   324   325     1 
  322   324   326     1 
  322   324   327     1 
  325   324   326     1 
  325   324   327     1 
  326   324   327     1 
  324   327   328     1 
  324   327   333     1 
  328   327   333     1 
  327   328   329     1 
  328   329   330     1 
  328   329   331     1 
  330   329   331     1 
  329   331   332     1 
  329   331   333     1 
  332   331   333     1 
  327   333   331     1 
  327   333   334     1 
  331   333   334     1 
  322   335   336     1 
  322   335   337     1 
  336   335   337     1 
  335   337   338     1 
  335   337   339     1 
  338   337   339     1 
  337   339   340     1 
  337   339   341     1 
  337   339   346     1 
  340   339   341     1 
  340   339   346     1 
  341   339   346     1 
  339   341   342     1 
  339   341   343     1 
  339   341   344     1 
  342   341   343     1 
  342   341   344     1 
  343   341   344     1 
  341   344   345     1 
  339   346   347     1 
  339   346   348     1 
  347   346   348     1 
  346   348   349     1 
  346   348   350     1 
  349   348   350     1 
  348   350   351     1 
  348   350   352     1 
  348   350   363     1 
  351   350   352     1 
  351   350   363     1 
  352   350   363     1 
  350   352   353     1 
  350   352   354     1 
  350   352   355     1 
  353   352   354     1 
  353   352   355     1 
  354   352   355     1 
  352   355   356     1 
  352   355   361     1 
  356   355   361     1 
  355   356   357     1 
  356   357   358     1 
  356   357   359     1 
  358   357   359     1 
  357   359   360     1 
  357   359   361     1 
  360   359   361     1 
  355   361   359     1 
  355   361   362     1 
  359   361   362     1 
  350   363   364     1 
  350   363   365     1 
  364   363   365     1 
  363   365   366     1 
  363   365   367     1 
  366   365   367     1 
  365   367   368     1 
  365   367   369     1 
  365   367   387     1 
  368   367   369     1 
  368   367   387     1 
  369   367   387     1 
  367   369   370     1 
  367   369   371     1 
  367   369   372     1 
  370   369   371     1 
  370   369   372     1 
  371   369   372     1 
  369   372   373     1 
  369   372   374     1 
  369   372   375     1 
  373   372   374     1 
  373   372   375     1 
  374   372   375     1 
  372   375   376     1 
  372   375   377     1 
  372   375   378     1 
  376   375   377     1 
  376   375   378     1 
  377   375   378     1 
  375   378   379     1 
  375   378   380     1 
  379   378   380     1 
  378   380   381     1 
  378   380   384     1 
  381   380   384     1 
  380   381   382     1 
  380   381   383     1 
  382   381   383     1 
  380   384   385     1 
  380   384   386     1 
  385   384   386     1 
  367   387   388     1 
  367   387   389     1 
  388   387   389     1 
  387   389   390     1 
  387   389   391     1 
  390   389   391     1 
  389   391   392     1 
  389   391   393     1 
  389   391   394     1 
  392   391   393     1 
  392   391   394     1 
  393   391   394     1 
  391   394   395     1 
  391   394   396     1 
  395   394   396     1 
  394   396   397     1 
  394   396   398     1 
  397   396   398     1 
  396   398   399     1 
  396   398   400     1 
  396   398   415     1 
  399   398   400     1 
  399   398   415     1 
  400   398   415     1 
  398   400   401     1 
  398   400   402     1 
  398   400   403     1 
  401   400   402     1 
  401   400   403     1 
  402   400   403     1 
  400   403   404     1 
  400   403   413     1 
  404   403   413     1 
  403   404   405     1 
  403   404   406     1 
  405   404   406     1 
  404   406   407     1 
  404   406   408     1 
  407   406   408     1 
  406   408   409     1 
  406   408   411     1 
  409   408   411     1 
  408   409   410     1 
  408   411   412     1 
  408   411   413     1 
  412   411   413     1 
  403   413   411     1 
  403   413   414     1 
  411   413   414     1 
  398   415   416     1 
  398   415   417     1 
  416   415   417     1 

[ dihedrals ]
;  ai    aj    ak    al funct            c0            c1            c2            c3            c4            c5
    2     1     5     6     9 
    2     1     5     7     9 
    2     1     5    13     9 
    3     1     5     6     9 
    3     1     5     7     9 
    3     1     5    13     9 
    4     1     5     6     9 
    4     1     5     7     9 
    4     1     5    13     9 
    1     5     7     8     9 
    1     5     7     9     9 
    1     5     7    10     9 
    6     5     7     8     9 
    6     5     7     9     9 
    6     5     7    10     9 
   13     5     7     8     9 
   13     5     7     9     9 
   13     5     7    10     9 
    1     5    13    14     9 
    1     5    13    15     9 
    6     5    13    14     9 
    6     5    13    15     9 
    7     5    13    14     9 
    7     5    13    15     9 
    5     7    10    11     9 
    5     7    10    12     9 
    8     7    10    11     9 
    8     7    10    12     9 
    9     7    10    11     9 
    9     7    10    12     9 
    5    13    15    16     9 
    5    13    15    17     9 
   14    13    15    16     9 
   14    13    15    17     9 
   13    15    17    18     9 
   13    15    17    19     9 
   13    15    17    24     9 
   16    15    17    18     9 
   16    15    17    19     9 
   16    15    17    24     9 
   15    17    19    20     9 
   15    17    19    21     9 
   15    17    19    22     9 
   18    17    19    20     9 
   18    17    19    21     9 
   18    17    19    22     9 
   24    17    19    20     9 
   24    17    19    21     9 
   24    17    19    22     9 
   15    17    24    25     9 
   15    17    24    26     9 
   18    17    24    25     9 
   18    17    24    26     9 
   19    17    24    25     9 
   19    17    24    26     9 
   17    19    22    23     9 
   20    19    22    23     9 
   21    19    22    23     9 
   17    24    26    27     9 
   17    24    26    28     9 
   25    24    26    27     9 
   25    24    26    28     9 
   24    26    28    29     9 
   24    26    28    30     9 
   24    26    28    41     9 
   27    26    28    29     9 
   27    26    28    30     9 
   27    26    28    41     9 
   26    28    30    31     9 
   26    28    30    32     9 
   26    28    30    33     9 
   29    28    30    31     9 
   29    28    30    32     9 
   29    28    30    33     9 
   41    28    30    31     9 
   41    28    30    32     9 
   41    28    30    33     9 
   26    28    41    42     9 
   26    28    41    43     9 
   29    28    41    42     9 
   29    28    41    43     9 
   30    28    41    42     9 
   30    28    41    43     9 
   28    30    33    34     9 
   28    30    33    39     9 
   31    30    33    34     9 
   31    30    33    39     9 
   32    30    33    34     9 
   32    30    33    39     9 
   30    33    34    35     9 
   39    33    34    35     9 
   30    33    39    37     9 
   30    33    39    40     9 
   34    33    39    37     9 
   34    33    39    40     9 
   33    34    35    36     9 
   33    34    35    37     9 
   34    35    37    38     9 
   34    35    37    39     9 
   36    35    37    38     9 
   36    35    37    39     9 
   35    37    39    33     9 
   35    37    39    40     9 
   38    37    39    33     9 
   38    37    39    40     9 
   28    41    43    44     9 
   28    41    43    45     9 
   42    41    43    44     9 
   42    41    43    45     9 
   41    43    45    46     9 
   41    43    45    47     9 
   41    43    45    51     9 
   44    43    45    46     9 
   44    43    45    47     9 
   44    43    45    51     9 
   43    45    47    48     9 
   43    45    47    49     9 
   43    45    47    50     9 
   46    45    47    48     9 
   46    45    47    49     9 
   46    45    47    50     9 
   51    45    47    48     9 
   51    45    47    49     9 
   51    45    47    50     9 
   43    45    51    52     9 
   43    45    51    53     9 
   46    45    51    52     9 
   46    45    51    53     9 
   47    45    51    52     9 
   47    45    51    53     9 
   45    51    53    54     9 
   45    51    53    55     9 
   52    51    53    54     9 
   52    51    53    55     9 
   51    53    55    56     9 
   51    53    55    57     9 
   51    53    55    73     9 
   54    53    55    56     9 
   54    53    55    57     9 
   54    53    55    73     9 
   53    55    57    58     9 
   53    55    57    59     9 
   53    55    57    60     9 
   56    55    57    58     9 
   56    55    57    59     9 
   56    55    57    60     9 
   73    55    57    58     9 
   73    55    57    59     9 
   73    55    57    60     9 
   53    55    73    74     9 
   53    55    73    75     9 
   56    55    73    74     9 
   56    55    73    75     9 
   57    55    73    74     9 
   57    55    73    75     9 
   55    57    60    61     9 
   55    57    60    62     9 
   55    57    60    63     9 
   58    57    60    61     9 
   58    57    60    62     9 
   58    57    60    63     9 
   59    57    60    61     9 
   59    57    60    62     9 
   59    57    60    63     9 
   57    60    63    64     9 
   57    60    63    65     9 
   57    60    63    66     9 
   61    60    63    64     9 
   61    60    63    65     9 
   61    60    63    66     9 
   62    60    63    64     9 
   62    60    63    65     9 
   62    60    63    66     9 
   60    63    66    67     9 
   60    63    66    68     9 
   60    63    66    69     9 
   64    63    66    67     9 
   64    63    66    68     9 
   64    63    66    69     9 
   65    63    66    67     9 
   65    63    66    68     9 
   65    63    66    69     9 
   63    66    69    70     9 
   63    66    69    71     9 
   63    66    69    72     9 
   67    66    69    70     9 
   67    66    69    71     9 
   67    66    69    72     9 
   68    66    69    70     9 
   68    66    69    71     9 
   68    66    69    72     9 
   55    73    75    76     9 
   55    73    75    77     9 
   74    73    75    76     9 
   74    73    75    77     9 
   73    75    77    78     9 
   73    75    77    79     9 
   73    75    77    97     9 
   76    75    77    78     9 
   76    75    77    79     9 
   76    75    77    97     9 
   75    77    79    80     9 
   75    77    79    81     9 
   75    77    79    82     9 
   78    77    79    80     9 
   78    77    79    81     9 
   78    77    79    82     9 
   97    77    79    80     9 
   97    77    79    81     9 
   97    77    79    82     9 
   75    77    97    98     9 
   75    77    97    99     9 
   78    77    97    98     9 
   78    77    97    99     9 
   79    77    97    98     9 
   79    77    97    99     9 
   77    79    82    83     9 
   77    79    82    84     9 
   77    79    82    85     9 
   80    79    82    83     9 
   80    79    82    84     9 
   80    79    82    85     9 
   81    79    82    83     9 
   81    79    82    84     9 
   81    79    82    85     9 
   79    82    85    86     9 
   79    82    85    87     9 
   79    82    85    88     9 
   83    82    85    86     9 
   83    82    85    87     9 
   83    82    85    88     9 
   84    82    85    86     9 
   84    82    85    87     9 
   84    82    85    88     9 
   82    85    88    89     9 
   82    85    88    90     9 
   86    85    88    89     9 
   86    85    88    90     9 
   87    85    88    89     9 
   87    85    88    90     9 
   85    88    90    91     9 
   85    88    90    94     9 
   89    88    90    91     9 
   89    88    90    94     9 
   88    90    91    92     9 
   88    90    91    93     9 
   94    90    91    92     9 
   94    90    91    93     9 
   88    90    94    95     9 
   88    90    94    96     9 
   91    90    94    95     9 
   91    90    94    96     9 
   77    97    99   100     9 
   77    97    99   101     9 
   98    97    99   100     9 
   98    97    99   101     9 
   97    99   101   102     9 
   97    99   101   103     9 
   97    99   101   114     9 
  100    99   101   102     9 
  100    99   101   103     9 
  100    99   101   114     9 
   99   101   103   104     9 
   99   101   103   105     9 
   99   101   103   106     9 
  102   101   103   104     9 
  102   101   103   105     9 
  102   101   103   106     9 
  114   101   103   104     9 
  114   101   103   105     9 
  114   101   103   106     9 
   99   101   114   115     9 
   99   101   114   116     9 
  102   101   114   115     9 
  102   101   114   116     9 
  103   101   114   115     9 
  103   101   114   116     9 
  101   103   106   107     9 
  101   103   106   112     9 
  104   103   106   107     9 
  104   103   106   112     9 
  105   103   106   107     9 
  105   103   106   112     9 
  103   106   107   108     9 
  112   106   107   108     9 
  103   106   112   110     9 
  103   106   112   113     9 
  107   106   112   110     9 
  107   106   112   113     9 
  106   107   108   109     9 
  106   107   108   110     9 
  107   108   110   111     9 
  107   108   110   112     9 
  109   108   110   111     9 
  109   108   110   112     9 
  108   110   112   106     9 
  108   110   112   113     9 
  111   110   112   106     9 
  111   110   112   113     9 
  101   114   116   117     9 
  101   114   116   118     9 
  115   114   116   117     9 
  115   114   116   118     9 
  114   116   118   119     9 
  114   116   118   120     9 
  114   116   118   131     9 
  117   116   118   119     9 
  117   116   118   120     9 
  117   116   118   131     9 
  116   118   120   121     9 
  116   118   120   122     9 
  116   118   120   123     9 
  119   118   120   121     9 
  119   118   120   122     9 
  119   118   120   123     9 
  131   118   120   121     9 
  131   118   120   122     9 
  131   118   120   123     9 
  116   118   131   132     9 
  116   118   131   133     9 
  119   118   131   132     9 
  119   118   131   133     9 
  120   118   131   132     9 
  120   118   131   133     9 
  118   120   123   124     9 
  118   120   123   129     9 
  121   120   123   124     9 
  121   120   123   129     9 
  122   120   123   124     9 
  122   120   123   129     9 
  120   123   124   125     9 
  129   123   124   125     9 
  120   123   129   127     9 
  120   123   129   130     9 
  124   123   129   127     9 
  124   123   129   130     9 
  123   124   125   126     9 
  123   124   125   127     9 
  124   125   127   128     9 
  124   125   127   129     9 
  126   125   127   128     9 
  126   125   127   129     9 
  125   127   129   123     9 
  125   127   129   130     9 
  128   127   129   123     9 
  128   127   129   130     9 
  118   131   133   134     9 
  118   131   133   135     9 
  132   131   133   134     9 
  132   131   133   135     9 
  131   133   135   136     9 
  131   133   135   137     9 
  131   133   135   138     9 
  134   133   135   136     9 
  134   133   135   137     9 
  134   133   135   138     9 
  133   135   138   139     9 
  133   135   138   140     9 
  136   135   138   139     9 
  136   135   138   140     9 
  137   135   138   139     9 
  137   135   138   140     9 
  135   138   140   141     9 
  135   138   140   142     9 
  139   138   140   141     9 
  139   138   140   142     9 
  138   140   142   143     9 
  138   140   142   144     9 
  138   140   142   159     9 
  141   140   142   143     9 
  141   140   142   144     9 
  141   140   142   159     9 
  140   142   144   145     9 
  140   142   144   146     9 
  140   142   144   147     9 
  143   142   144   145     9 
  143   142   144   146     9 
  143   142   144   147     9 
  159   142   144   145     9 
  159   142   144   146     9 
  159   142   144   147     9 
  140   142   159   160     9 
  140   142   159   161     9 
  143   142   159   160     9 
  143   142   159   161     9 
  144   142   159   160     9 
  144   142   159   161     9 
  142   144   147   148     9 
  142   144   147   157     9 
  145   144   147   148     9 
  145   144   147   157     9 
  146   144   147   148     9 
  146   144   147   157     9 
  144   147   148   149     9 
  144   147   148   150     9 
  157   147   148   149     9 
  157   147   148   150     9 
  144   147   157   155     9 
  144   147   157   158     9 
  148   147   157   155     9 
  148   147   157   158     9 
  147   148   150   151     9 
  147   148   150   152     9 
  149   148   150   151     9 
  149   148   150   152     9 
  148   150   152   153     9 
  148   150   152   155     9 
  151   150   152   153     9 
  151   150   152   155     9 
  150   152   153   154     9 
  155   152   153   154     9 
  150   152   155   156     9 
  150   152   155   157     9 
  153   152   155   156     9 
  153   152   155   157     9 
  152   155   157   147     9 
  152   155   157   158     9 
  156   155   157   147     9 
  156   155   157   158     9 
  142   159   161   162     9 
  142   159   161   163     9 
  160   159   161   162     9 
  160   159   161   163     9 
  159   161   163   164     9 
  159   161   163   165     9 
  159   161   163   181     9 
  162   161   163   164     9 
  162   161   163   165     9 
  162   161   163   181     9 
  161   163   165   166     9 
  161   163   165   167     9 
  161   163   165   168     9 
  164   163   165   166     9 
  164   163   165   167     9 
  164   163   165   168     9 
  181   163   165   166     9 
  181   163   165   167     9 
  181   163   165   168     9 
  161   163   181   182     9 
  161   163   181   183     9 
  164   163   181   182     9 
  164   163   181   183     9 
  165   163   181   182     9 
  165   163   181   183     9 
  163   165   168   169     9 
  163   165   168   170     9 
  163   165   168   171     9 
  166   165   168   169     9 
  166   165   168   170     9 
  166   165   168   171     9 
  167   165   168   169     9 
  167   165   168   170     9 
  167   165   168   171     9 
  165   168   171   172     9 
  165   168   171   173     9 
  165   168   171   174     9 
  169   168   171   172     9 
  169   168   171   173     9 
  169   168   171   174     9 
  170   168   171   172     9 
  170   168   171   173     9 
  170   168   171   174     9 
  168   171   174   175     9 
  168   171   174   176     9 
  168   171   174   177     9 
  172   171   174   175     9 
  172   171   174   176     9 
  172   171   174   177     9 
  173   171   174   175     9 
  173   171   174   176     9 
  173   171   174   177     9 
  171   174   177   178     9 
  171   174   177   179     9 
  171   174   177   180     9 
  175   174   177   178     9 
  175   174   177   179     9 
  175   174   177   180     9 
  176   174   177   178     9 
  176   174   177   179     9 
  176   174   177   180     9 
  163   181   183   184     9 
  163   181   183   185     9 
  182   181   183   184     9 
  182   181   183   185     9 
  181   183   185   186     9 
  181   183   185   187     9 
  181   183   185   205     9 
  184   183   185   186     9 
  184   183   185   187     9 
  184   183   185   205     9 
  183   185   187   188     9 
  183   185   187   189     9 
  183   185   187   190     9 
  186   185   187   188     9 
  186   185   187   189     9 
  186   185   187   190     9 
  205   185   187   188     9 
  205   185   187   189     9 
  205   185   187   190     9 
  183   185   205   206     9 
  183   185   205   207     9 
  186   185   205   206     9 
  186   185   205   207     9 
  187   185   205   206     9 
  187   185   205   207     9 
  185   187   190   191     9 
  185   187   190   192     9 
  185   187   190   193     9 
  188   187   190   191     9 
  188   187   190   192     9 
  188   187   190   193     9 
  189   187   190   191     9 
  189   187   190   192     9 
  189   187   190   193     9 
  187   190   193   194     9 
  187   190   193   195     9 
  187   190   193   196     9 
  191   190   193   194     9 
  191   190   193   195     9 
  191   190   193   196     9 
  192   190   193   194     9 
  192   190   193   195     9 
  192   190   193   196     9 
  190   193   196   197     9 
  190   193   196   198     9 
  194   193   196   197     9 
  194   193   196   198     9 
  195   193   196   197     9 
  195   193   196   198     9 
  193   196   198   199     9 
  193   196   198   202     9 
  197   196   198   199     9 
  197   196   198   202     9 
  196   198   199   200     9 
  196   198   199   201     9 
  202   198   199   200     9 
  202   198   199   201     9 
  196   198   202   203     9 
  196   198   202   204     9 
  199   198   202   203     9 
  199   198   202   204     9 
  185   205   207   208     9 
  185   205   207   209     9 
  206   205   207   208     9 
  206   205   207   209     9 
  205   207   209   210     9 
  205   207   209   211     9 
  205   207   209   227     9 
  208   207   209   210     9 
  208   207   209   211     9 
  208   207   209   227     9 
  207   209   211   212     9 
  207   209   211   213     9 
  207   209   211   214     9 
  210   209   211   212     9 
  210   209   211   213     9 
  210   209   211   214     9 
  227   209   211   212     9 
  227   209   211   213     9 
  227   209   211   214     9 
  207   209   227   228     9 
  207   209   227   229     9 
  210   209   227   228     9 
  210   209   227   229     9 
  211   209   227   228     9 
  211   209   227   229     9 
  209   211   214   215     9 
  209   211   214   216     9 
  209   211   214   217     9 
  212   211   214   215     9 
  212   211   214   216     9 
  212   211   214   217     9 
  213   211   214   215     9 
  213   211   214   216     9 
  213   211   214   217     9 
  211   214   217   218     9 
  211   214   217   219     9 
  211   214   217   220     9 
  215   214   217   218     9 
  215   214   217   219     9 
  215   214   217   220     9 
  216   214   217   218     9 
  216   214   217   219     9 
  216   214   217   220     9 
  214   217   220   221     9 
  214   217   220   222     9 
  214   217   220   223     9 
  218   217   220   221     9 
  218   217   220   222     9 
  218   217   220   223     9 
  219   217   220   221     9 
  219   217   220   222     9 
  219   217   220   223     9 
  217   220   223   224     9 
  217   220   223   225     9 
  217   220   223   226     9 
  221   220   223   224     9 
  221   220   223   225     9 
  221   220   223   226     9 
  222   220   223   224     9 
  222   220   223   225     9 
  222   220   223   226     9 
  209   227   229   230     9 
  209   227   229   231     9 
  228   227   229   230     9 
  228   227   229   231     9 
  227   229   231   232     9 
  227   229   231   233     9 
  227   229   231   247     9 
  230   229   231   232     9 
  230   229   231   233     9 
  230   229   231   247     9 
  229   231   233   234     9 
  229   231   233   235     9 
  229   231   233   236     9 
  232   231   233   234     9 
  232   231   233   235     9 
  232   231   233   236     9 
  247   231   233   234     9 
  247   231   233   235     9 
  247   231   233   236     9 
  229   231   247   248     9 
  229   231   247   249     9 
  232   231   247   248     9 
  232   231   247   249     9 
  233   231   247   248     9 
  233   231   247   249     9 
  231   233   236   237     9 
  231   233   236   245     9 
  234   233   236   237     9 
  234   233   236   245     9 
  235   233   236   237     9 
  235   233   236   245     9 
  233   236   237   238     9 
  233   236   237   239     9 
  245   236   237   238     9 
  245   236   237   239     9 
  233   236   245   243     9 
  233   236   245   246     9 
  237   236   245   243     9 
  237   236   245   246     9 
  236   237   239   240     9 
  236   237   239   241     9 
  238   237   239   240     9 
  238   237   239   241     9 
  237   239   241   242     9 
  237   239   241   243     9 
  240   239   241   242     9 
  240   239   241   243     9 
  239   241   243   244     9 
  239   241   243   245     9 
  242   241   243   244     9 
  242   241   243   245     9 
  241   243   245   236     9 
  241   243   245   246     9 
  244   243   245   236     9 
  244   243   245   246     9 
  231   247   249   250     9 
  231   247   249   251     9 
  248   247   249   250     9 
  248   247   249   251     9 
  247   249   251   252     9 
  247   249   251   253     9 
  247   249   251   264     9 
  250   249   251   252     9 
  250   249   251   253     9 
  250   249   251   264     9 
  249   251   253   254     9 
  249   251   253   255     9 
  249   251   253   256     9 
  252   251   253   254     9 
  252   251   253   255     9 
  252   251   253   256     9 
  264   251   253   254     9 
  264   251   253   255     9 
  264   251   253   256     9 
  249   251   264   265     9 
  249   251   264   266     9 
  252   251   264   265     9 
  252   251   264   266     9 
  253   251   264   265     9 
  253   251   264   266     9 
  251   253   256   257     9 
  251   253   256   262     9 
  254   253   256   257     9 
  254   253   256   262     9 
  255   253   256   257     9 
  255   253   256   262     9 
  253   256   257   258     9 
  262   256   257   258     9 
  253   256   262   260     9 
  253   256   262   263     9 
  257   256   262   260     9 
  257   256   262   263     9 
  256   257   258   259     9 
  256   257   258   260     9 
  257   258   260   261     9 
  257   258   260   262     9 
  259   258   260   261     9 
  259   258   260   262     9 
  258   260   262   256     9 
  258   260   262   263     9 
  261   260   262   256     9 
  261   260   262   263     9 
  251   264   266   267     9 
  251   264   266   268     9 
  265   264   266   267     9 
  265   264   266   268     9 
  264   266   268   269     9 
  264   266   268   270     9 
  264   266   268   279     9 
  267   266   268   269     9 
  267   266   268   270     9 
  267   266   268   279     9 
  266   268   270   271     9 
  266   268   270   272     9 
  266   268   270   273     9 
  269   268   270   271     9 
  269   268   270   272     9 
  269   268   270   273     9 
  279   268   270   271     9 
  279   268   270   272     9 
  279   268   270   273     9 
  266   268   279   280     9 
  266   268   279   281     9 
  269   268   279   280     9 
  269   268   279   281     9 
  270   268   279   280     9 
  270   268   279   281     9 
  268   270   273   274     9 
  268   270   273   275     9 
  268   270   273   276     9 
  271   270   273   274     9 
  271   270   273   275     9 
  271   270   273   276     9 
  272   270   273   274     9 
  272   270   273   275     9 
  272   270   273   276     9 
  270   273   276   277     9 
  270   273   276   278     9 
  274   273   276   277     9 
  274   273   276   278     9 
  275   273   276   277     9 
  275   273   276   278     9 
  268   279   281   282     9 
  268   279   281   283     9 
  280   279   281   282     9 
  280   279   281   283     9 
  279   281   283   284     9 
  279   281   283   285     9 
  279   281   283   301     9 
  282   281   283   284     9 
  282   281   283   285     9 
  282   281   283   301     9 
  281   283   285   286     9 
  281   283   285   287     9 
  281   283   285   288     9 
  284   283   285   286     9 
  284   283   285   287     9 
  284   283   285   288     9 
  301   283   285   286     9 
  301   283   285   287     9 
  301   283   285   288     9 
  281   283   301   302     9 
  281   283   301   303     9 
  284   283   301   302     9 
  284   283   301   303     9 
  285   283   301   302     9 
  285   283   301   303     9 
  283   285   288   289     9 
  283   285   288   290     9 
  283   285   288   291     9 
  286   285   288   289     9 
  286   285   288   290     9 
  286   285   288   291     9 
  287   285   288   289     9 
  287   285   288   290     9 
  287   285   288   291     9 
  285   288   291   292     9 
  285   288   291   293     9 
  285   288   291   294     9 
  289   288   291   292     9 
  289   288   291   293     9 
  289   288   291   294     9 
  290   288   291   292     9 
  290   288   291   293     9 
  290   288   291   294     9 
  288   291   294   295     9 
  288   291   294   296     9 
  288   291   294   297     9 
  292   291   294   295     9 
  292   291   294   296     9 
  292   291   294   297     9 
  293   291   294   295     9 
  293   291   294   296     9 
  293   291   294   297     9 
  291   294   297   298     9 
  291   294   297   299     9 
  291   294   297   300     9 
  295   294   297   298     9 
  295   294   297   299     9 
  295   294   297   300     9 
  296   294   297   298     9 
  296   294   297   299     9 
  296   294   297   300     9 
  283   301   303   304     9 
  283   301   303   305     9 
  302   301   303   304     9 
  302   301   303   305     9 
  301   303   305   306     9 
  301   303   305   307     9 
  301   303   305   318     9 
  304   303   305   306     9 
  304   303   305   307     9 
  304   303   305   318     9 
  303   305   307   308     9 
  303   305   307   309     9 
  303   305   307   310     9 
  306   305   307   308     9 
  306   305   307   309     9 
  306   305   307   310     9 
  318   305   307   308     9 
  318   305   307   309     9 
  318   305   307   310     9 
  303   305   318   319     9 
  303   305   318   320     9 
  306   305   318   319     9 
  306   305   318   320     9 
  307   305   318   319     9 
  307   305   318   320     9 
  305   307   310   311     9 
  305   307   310   316     9 
  308   307   310   311     9 
  308   307   310   316     9 
  309   307   310   311     9 
  309   307   310   316     9 
  307   310   311   312     9 
  316   310   311   312     9 
  307   310   316   314     9 
  307   310   316   317     9 
  311   310   316   314     9 
  311   310   316   317     9 
  310   311   312   313     9 
  310   311   312   314     9 
  311   312   314   315     9 
  311   312   314   316     9 
  313   312   314   315     9 
  313   312   314   316     9 
  312   314   316   310     9 
  312   314   316   317     9 
  315   314   316   310     9 
  315   314   316   317     9 
  305   318   320   321     9 
  305   318   320   322     9 
  319   318   320   321     9 
  319   318   320   322     9 
  318   320   322   323     9 
  318   320   322   324     9 
  318   320   322   335     9 
  321   320   322   323     9 
  321   320   322   324     9 
  321   320   322   335     9 
  320   322   324   325     9 
  320   322   324   326     9 
  320   322   324   327     9 
  323   322   324   325     9 
  323   322   324   326     9 
  323   322   324   327     9 
  335   322   324   325     9 
  335   322   324   326     9 
  335   322   324   327     9 
  320   322   335   336     9 
  320   322   335   337     9 
  323   322   335   336     9 
  323   322   335   337     9 
  324   322   335   336     9 
  324   322   335   337     9 
  322   324   327   328     9 
  322   324   327   333     9 
  325   324   327   328     9 
  325   324   327   333     9 
  326   324   327   328     9 
  326   324   327   333     9 
  324   327   328   329     9 
  333   327   328   329     9 
  324   327   333   331     9 
  324   327   333   334     9 
  328   327   333   331     9 
  328   327   333   334     9 
  327   328   329   330     9 
  327   328   329   331     9 
  328   329   331   332     9 
  328   329   331   333     9 
  330   329   331   332     9 
  330   329   331   333     9 
  329   331   333   327     9 
  329   331   333   334     9 
  332   331   333   327     9 
  332   331   333   334     9 
  322   335   337   338     9 
  322   335   337   339     9 
  336   335   337   338     9 
  336   335   337   339     9 
  335   337   339   340     9 
  335   337   339   341     9 
  335   337   339   346     9 
  338   337   339   340     9 
  338   337   339   341     9 
  338   337   339   346     9 
  337   339   341   342     9 
  337   339   341   343     9 
  337   339   341   344     9 
  340   339   341   342     9 
  340   339   341   343     9 
  340   339   341   344     9 
  346   339   341   342     9 
  346   339   341   343     9 
  346   339   341   344     9 
  337   339   346   347     9 
  337   339   346   348     9 
  340   339   346   347     9 
  340   339   346   348     9 
  341   339   346   347     9 
  341   339   346   348     9 
  339   341   344   345     9 
  342   341   344   345     9 
  343   341   344   345     9 
  339   346   348   349     9 
  339   346   348   350     9 
  347   346   348   349     9 
  347   346   348   350     9 
  346   348   350   351     9 
  346   348   350   352     9 
  346   348   350   363     9 
  349   348   350   351     9 
  349   348   350   352     9 
  349   348   350   363     9 
  348   350   352   353     9 
  348   350   352   354     9 
  348   350   352   355     9 
  351   350   352   353     9 
  351   350   352   354     9 
  351   350   352   355     9 
  363   350   352   353     9 
  363   350   352   354     9 
  363   350   352   355     9 
  348   350   363   364     9 
  348   350   363   365     9 
  351   350   363   364     9 
  351   350   363   365     9 
  352   350   363   364     9 
  352   350   363   365     9 
  350   352   355   356     9 
  350   352   355   361     9 
  353   352   355   356     9 
  353   352   355   361     9 
  354   352   355   356     9 
  354   352   355   361     9 
  352   355   356   357     9 
  361   355   356   357     9 
  352   355   361   359     9 
  352   355   361   362     9 
  356   355   361   359     9 
  356   355   361   362     9 
  355   356   357   358     9 
  355   356   357   359     9 
  356   357   359   360     9 
  356   357   359   361     9 
  358   357   359   360     9 
  358   357   359   361     9 
  357   359   361   355     9 
  357   359   361   362     9 
  360   359   361   355     9 
  360   359   361   362     9 
  350   363   365   366     9 
  350   363   365   367     9 
  364   363   365   366     9 
  364   363   365   367     9 
  363   365   367   368     9 
  363   365   367   369     9 
  363   365   367   387     9 
  366   365   367   368     9 
  366   365   367   369     9 
  366   365   367   387     9 
  365   367   369   370     9 
  365   367   369   371     9 
  365   367   369   372     9 
  368   367   369   370     9 
  368   367   369   371     9 
  368   367   369   372     9 
  387   367   369   370     9 
  387   367   369   371     9 
  387   367   369   372     9 
  365   367   387   388     9 
  365   367   387   389     9 
  368   367   387   388     9 
  368   367   387   389     9 
  369   367   387   388     9 
  369   367   387   389     9 
  367   369   372   373     9 
  367   369   372   374     9 
  367   369   372   375     9 
  370   369   372   373     9 
  370   369   372   374     9 
  370   369   372   375     9 
  371   369   372   373     9 
  371   369   372   374     9 
  371   369   372   375     9 
  369   372   375   376     9 
  369   372   375   377     9 
  369   372   375   378     9 
  373   372   375   376     9 
  373   372   375   377     9 
  373   372   375   378     9 
  374   372   375   376     9 
  374   372   375   377     9 
  374   372   375   378     9 
  372   375   378   379     9 
  372   375   378   380     9 
  376   375   378   379     9 
  376   375   378   380     9 
  377   375   378   379     9 
  377   375   378   380     9 
  375   378   380   381     9 
  375   378   380   384     9 
  379   378   380   381     9 
  379   378   380   384     9 
  378   380   381   382     9 
  378   380   381   383     9 
  384   380   381   382     9 
  384   380   381   383     9 
  378   380   384   385     9 
  378   380   384   386     9 
  381   380   384   385     9 
  381   380   384   386     9 
  367   387   389   390     9 
  367   387   389   391     9 
  388   387   389   390     9 
  388   387   389   391     9 
  387   389   391   392     9 
  387   389   391   393     9 
  387   389   391   394     9 
  390   389   391   392     9 
  390   389   391   393     9 
  390   389   391   394     9 
  389   391   394   395     9 
  389   391   394   396     9 
  392   391   394   395     9 
  392   391   394   396     9 
  393   391   394   395     9 
  393   391   394   396     9 
  391   394   396   397     9 
  391   394   396   398     9 
  395   394   396   397     9 
  395   394   396   398     9 
  394   396   398   399     9 
  394   396   398   400     9 
  394   396   398   415     9 
  397   396   398   399     9 
  397   396   398   400     9 
  397   396   398   415     9 
  396   398   400   401     9 
  396   398   400   402     9 
  396   398   400   403     9 
  399   398   400   401     9 
  399   398   400   402     9 
  399   398   400   403     9 
  415   398   400   401     9 
  415   398   400   402     9 
  415   398   400   403     9 
  396   398   415   416     9 
  396   398   415   417     9 
  399   398   415   416     9 
  399   398   415   417     9 
  400   398   415   416     9 
  400   398   415   417     9 
  398   400   403   404     9 
  398   400   403   413     9 
  401   400   403   404     9 
  401   400   403   413     9 
  402   400   403   404     9 
  402   400   403   413     9 
  400   403   404   405     9 
  400   403   404   406     9 
  413   403   404   405     9 
  413   403   404   406     9 
  400   403   413   411     9 
  400   403   413   414     9 
  404   403   413   411     9 
  404   403   413   414     9 
  403   404   406   407     9 
  403   404   406   408     9 
  405   404   406   407     9 
  405   404   406   408     9 
  404   406   408   409     9 
  404   406   408   411     9 
  407   406   408   409     9 
  407   406   408   411     9 
  406   408   409   410     9 
  411   408   409   410     9 
  406   408   411   412     9 
  406   408   411   413     9 
  409   408   411   412     9 
  409   408   411   413     9 
  408   411   413   403     9 
  408   411   413   414     9 
  412   411   413   403     9 
  412   411   413   414     9 

[ dihedrals ]
;  ai    aj    ak    al funct            c0            c1            c2            c3
    5    15    13    14     4 
    7    11    10    12     4 
   13    17    15    16     4 
   13    15    17    24     4    90.0        1.67360    2
   15    17    24    26     4    160.888      2.71960    1
   15    17    24    26     4    90.0        -0.0460    5
   15    17    24    26     4    90.0        0.1046     4
   15    17    24    26     4    90.0        0.3138     2
   15    17    24    26     4    90.0        -1.0669    1
   15    17    24    26     4    90.0        0.2385     3
   17    26    24    25     4 
   24    28    26    27     4 
   24    26    28    41     4    90.0        1.67360    2
   26    28    41    43     4    160.888      2.71960    1
   26    28    41    43     4    90.0        -1.0669    1
   26    28    41    43     4    90.0        0.3138     2
   26    28    41    43     4    90.0        0.2385     3
   26    28    41    43     4    90.0        0.1046     4
   26    28    41    43     4    90.0        -0.0460    5
   28    43    41    42     4 
   30    39    33    34     4 
   33    37    39    40     4 
   34    37    35    36     4 
   35    39    37    38     4 
   41    45    43    44     4 
   41    43    45    51     4    90.0        1.67360    2
   43    45    51    53     4    160.888      2.71960    1
   43    45    51    53     4    90.0        -1.0669    1
   43    45    51    53     4    90.0        0.3138     2
   43    45    51    53     4    90.0        0.2385     3
   43    45    51    53     4    90.0        0.1046     4
   43    45    51    53     4    90.0        -0.0460    5
   45    53    51    52     4 
   51    55    53    54     4 
   51    53    55    73     4    90.0        1.67360    2
   53    55    73    75     4    90.0        -1.0669    1
   53    55    73    75     4    90.0        -0.0460    5
   53    55    73    75     4    90.0        0.1046     4
   53    55    73    75     4    90.0        0.3138     2
   53    55    73    75     4    160.888      2.71960    1
   53    55    73    75     4    90.0        0.2385     3
   55    75    73    74     4 
   73    77    75    76     4 
   73    75    77    97     4    90.0        1.67360    2
   75    77    97    99     4    160.888      2.71960    1
   75    77    97    99     4    90.0        -1.0669    1
   75    77    97    99     4    90.0        0.3138     2
   75    77    97    99     4    90.0        0.2385     3
   75    77    97    99     4    90.0        0.1046     4
   75    77    97    99     4    90.0        -0.0460    5
   77    99    97    98     4 
   85    90    88    89     4 
   88    91    90    94     4 
   90    92    91    93     4 
   90    95    94    96     4 
   97   101    99   100     4 
   97    99   101   114     4    90.0        1.67360    2
   99   101   114   116     4    160.888      2.71960    1
   99   101   114   116     4    90.0        -1.0669    1
   99   101   114   116     4    90.0        0.3138     2
   99   101   114   116     4    90.0        0.2385     3
   99   101   114   116     4    90.0        0.1046     4
   99   101   114   116     4    90.0        -0.0460    5
  101   116   114   115     4 
  103   112   106   107     4 
  106   110   112   113     4 
  107   110   108   109     4 
  108   112   110   111     4 
  114   118   116   117     4 
  114   116   118   131     4    90.0        1.67360    2
  116   118   131   133     4    160.888      2.71960    1
  116   118   131   133     4    90.0        -1.0669    1
  116   118   131   133     4    90.0        0.3138     2
  116   118   131   133     4    90.0        0.2385     3
  116   118   131   133     4    90.0        0.1046     4
  116   118   131   133     4    90.0        -0.0460    5
  118   133   131   132     4 
  120   129   123   124     4 
  123   127   129   130     4 
  124   127   125   126     4 
  125   129   127   128     4 
  131   135   133   134     4 
  135   140   138   139     4 
  138   142   140   141     4 
  138   140   142   159     4    90.0        1.67360    2
  140   142   159   161     4    90.0        0.2385     3
  140   142   159   161     4    90.0        -0.0460    5
  140   142   159   161     4    90.0        0.1046     4
  140   142   159   161     4    90.0        0.3138     2
  140   142   159   161     4    90.0        -1.0669    1
  140   142   159   161     4    160.888      2.71960    1
  142   161   159   160     4 
  144   147   157   148     4 
  147   150   148   149     4 
  147   155   157   158     4 
  148   152   150   151     4 
  150   155   152   153     4 
  152   157   155   156     4 
  159   163   161   162     4 
  159   161   163   181     4    90.0        1.67360    2
  161   163   181   183     4    160.888      2.71960    1
  161   163   181   183     4    90.0        -1.0669    1
  161   163   181   183     4    90.0        0.3138     2
  161   163   181   183     4    90.0        0.2385     3
  161   163   181   183     4    90.0        0.1046     4
  161   163   181   183     4    90.0        -0.0460    5
  163   183   181   182     4 
  181   185   183   184     4 
  181   183   185   205     4    90.0        1.67360    2
  183   185   205   207     4    90.0        0.3138     2
  183   185   205   207     4    90.0        -0.0460    5
  183   185   205   207     4    90.0        0.1046     4
  183   185   205   207     4    90.0        0.2385     3
  183   185   205   207     4    90.0        -1.0669    1
  183   185   205   207     4    160.888      2.71960    1
  185   207   205   206     4 
  193   198   196   197     4 
  196   199   198   202     4 
  198   200   199   201     4 
  198   203   202   204     4 
  205   209   207   208     4 
  205   207   209   227     4    90.0        1.67360    2
  207   209   227   229     4    90.0        -0.0460    5
  207   209   227   229     4    90.0        0.1046     4
  207   209   227   229     4    90.0        0.2385     3
  207   209   227   229     4    90.0        -1.0669    1
  207   209   227   229     4    90.0        0.3138     2
  207   209   227   229     4    160.888      2.71960    1
  209   229   227   228     4 
  227   231   229   230     4 
  227   229   231   247     4    90.0        1.67360    2
  229   231   247   249     4    160.888      2.71960    1
  229   231   247   249     4    90.0        -1.0669    1
  229   231   247   249     4    90.0        0.3138     2
  229   231   247   249     4    90.0        0.2385     3
  229   231   247   249     4    90.0        0.1046     4
  229   231   247   249     4    90.0        -0.0460    5
  231   249   247   248     4 
  233   236   245   237     4 
  236   239   237   238     4 
  236   243   245   246     4 
  237   241   239   240     4 
  239   243   241   242     4 
  241   245   243   244     4 
  247   251   249   250     4 
  247   249   251   264     4    90.0        1.67360    2
  249   251   264   266     4    90.0        0.1046     4
  249   251   264   266     4    90.0        -0.0460    5
  249   251   264   266     4    90.0        0.2385     3
  249   251   264   266     4    90.0        0.3138     2
  249   251   264   266     4    90.0        -1.0669    1
  249   251   264   266     4    160.888      2.71960    1
  251   266   264   265     4 
  253   262   256   257     4 
  256   260   262   263     4 
  257   260   258   259     4 
  258   262   260   261     4 
  264   268   266   267     4 
  264   266   268   279     4    90.0        1.67360    2
  266   268   279   281     4    90.0        0.3138     2
  266   268   279   281     4    90.0        0.2385     3
  266   268   279   281     4    90.0        0.1046     4
  266   268   279   281     4    90.0        -0.0460    5
  266   268   279   281     4    160.888      2.71960    1
  266   268   279   281     4    90.0        -1.0669    1
  268   281   279   280     4 
  273   277   276   278     4 
  279   283   281   282     4 
  279   281   283   301     4    90.0        1.67360    2
  281   283   301   303     4    90.0        -0.0460    5
  281   283   301   303     4    90.0        0.1046     4
  281   283   301   303     4    90.0        0.2385     3
  281   283   301   303     4    90.0        0.3138     2
  281   283   301   303     4    90.0        -1.0669    1
  281   283   301   303     4    160.888      2.71960    1
  283   303   301   302     4 
  301   305   303   304     4 
  301   303   305   318     4    90.0        1.67360    2
  303   305   318   320     4    160.888      2.71960    1
  303   305   318   320     4    90.0        -1.0669    1
  303   305   318   320     4    90.0        0.3138     2
  303   305   318   320     4    90.0        0.2385     3
  303   305   318   320     4    90.0        0.1046     4
  303   305   318   320     4    90.0        -0.0460    5
  305   320   318   319     4 
  307   316   310   311     4 
  310   314   316   317     4 
  311   314   312   313     4 
  312   316   314   315     4 
  318   322   320   321     4 
  318   320   322   335     4    90.0        1.67360    2
  320   322   335   337     4    160.888      2.71960    1
  320   322   335   337     4    90.0        -1.0669    1
  320   322   335   337     4    90.0        0.3138     2
  320   322   335   337     4    90.0        0.2385     3
  320   322   335   337     4    90.0        0.1046     4
  320   322   335   337     4    90.0        -0.0460    5
  322   337   335   336     4 
  324   333   327   328     4 
  327   331   333   334     4 
  328   331   329   330     4 
  329   333   331   332     4 
  335   339   337   338     4 
  335   337   339   346     4    90.0        1.67360    2
  337   339   346   348     4    160.888      2.71960    1
  337   339   346   348     4    90.0        -1.0669    1
  337   339   346   348     4    90.0        0.3138     2
  337   339   346   348     4    90.0        0.2385     3
  337   339   346   348     4    90.0        0.1046     4
  337   339   346   348     4    90.0        -0.0460    5
  339   348   346   347     4 
  346   350   348   349     4 
  346   348   350   363     4    90.0        1.67360    2
  348   350   363   365     4    90.0        -0.0460    5
  348   350   363   365     4    90.0        0.1046     4
  348   350   363   365     4    90.0        0.3138     2
  348   350   363   365     4    90.0        -1.0669    1
  348   350   363   365     4    160.888      2.71960    1
  348   350   363   365     4    90.0        0.2385     3
  350   365   363   364     4 
  352   361   355   356     4 
  355   359   361   362     4 
  356   359   357   358     4 
  357   361   359   360     4 
  363   367   365   366     4 
  363   365   367   387     4    90.0        1.67360    2
  365   367   387   389     4    90.0        -1.0669    1
  365   367   387   389     4    90.0        0.3138     2
  365   367   387   389     4    90.0        0.2385     3
  365   367   387   389     4    90.0        0.1046     4
  365   367   387   389     4    90.0        -0.0460    5
  365   367   387   389     4    160.888      2.71960    1
  367   389   387   388     4 
  375   380   378   379     4 
  378   381   380   384     4 
  380   382   381   383     4 
  380   385   384   386     4 
  387   391   389   390     4 
  391   396   394   395     4 
  394   398   396   397     4 
  394   396   398   415     4    90.0        1.67360    2
  398   416   415   417     4 
  400   403   413   404     4 
  403   406   404   405     4 
  403   411   413   414     4 
  404   408   406   407     4 
  406   411   408   409     4 
  408   413   411   412     4 

; Include Position restraint file
#ifdef POSRES
#include "posre.itp"
#endif

; Include water topology
#include "./a99SBdisp.ff/a99SBdisp_water.itp"

#ifdef POSRES_WATER
; Position restraint for each water oxygen
[ position_restraints ]
;  i funct       fcx        fcy        fcz
   1    1       1000       1000       1000
#endif

; Include topology for ions
#include "./a99SBdisp.ff/ions.itp"

[ system ]
; Name
Protein in water

[ molecules ]
; Compound        #mols
Protein_chain_A     1
SOL         10779
NA               31
CL               36
