Great Red Oystrich Makes All Chemists Sane
62361
    1ASP      N    1   6.802   6.968   1.651
    1ASP     H1    2   6.896   6.951   1.623
    1ASP     H2    3   6.742   6.961   1.571
    1ASP     H3    4   6.795   7.060   1.689
    1ASP     CA    5   6.761   6.869   1.751
    1ASP     HA    6   6.765   6.778   1.711
    1ASP     CB    7   6.859   6.872   1.869
    1ASP    HB1    8   6.840   6.952   1.926
    1ASP    HB2    9   6.953   6.877   1.834
    1ASP     CG   10   6.842   6.746   1.952
    1ASP    OD1   11   6.807   6.644   1.888
    1ASP    OD2   12   6.859   6.756   2.075
    1ASP      C   13   6.618   6.899   1.791
    1ASP      O   14   6.586   7.012   1.826
    2SER      N   15   6.528   6.806   1.760
    2SER     HN   16   6.561   6.712   1.746
    2SER     CA   17   6.385   6.832   1.747
    2SER     HA   18   6.377   6.911   1.687
    2SER     CB   19   6.317   6.711   1.684
    2SER    HB1   20   6.217   6.721   1.685
    2SER    HB2   21   6.341   6.626   1.732
    2SER     OG   22   6.359   6.700   1.550
    2SER    HG1   23   6.315   6.621   1.507
    2SER      C   24   6.323   6.868   1.882
    2SER      O   25   6.295   6.782   1.964
    3HIS      N   26   6.290   6.997   1.896
    3HIS     HN   27   6.332   7.059   1.829
    3HIS     CA   28   6.203   7.060   1.995
    3HIS     HA   29   6.240   7.035   2.085
    3HIS     CB   30   6.210   7.213   1.971
    3HIS    HB1   31   6.119   7.247   1.951
    3HIS    HB2   32   6.270   7.231   1.893
    3HIS    ND1   33   6.246   7.267   2.221
    3HIS     CG   34   6.264   7.293   2.087
    3HIS    CE1   35   6.311   7.362   2.290
    3HIS    HE1   36   6.315   7.367   2.390
    3HIS    NE2   37   6.367   7.450   2.206
    3HIS    HE2   38   6.420   7.531   2.232
    3HIS    CD2   39   6.338   7.407   2.077
    3HIS    HD2   40   6.367   7.452   1.992
    3HIS      C   41   6.058   7.008   1.993
    3HIS      O   42   5.961   7.081   2.014
    4ALA      N   43   6.039   6.880   1.963
    4ALA     HN   44   6.119   6.820   1.959
    4ALA     CA   45   5.910   6.822   1.937
    4ALA     HA   46   5.842   6.868   1.995
    4ALA     CB   47   5.876   6.845   1.789
    4ALA    HB1   48   5.875   6.943   1.770
    4ALA    HB2   49   5.944   6.800   1.732
    4ALA    HB3   50   5.785   6.807   1.769
    4ALA      C   51   5.912   6.675   1.976
    4ALA      O   52   5.960   6.591   1.899
    5LYS      N   53   5.847   6.647   2.088
    5LYS     HN   54   5.865   6.706   2.167
    5LYS     CA   55   5.750   6.538   2.109
    5LYS     HA   56   5.665   6.589   2.124
    5LYS     CB   57   5.729   6.447   1.985
    5LYS    HB1   58   5.674   6.368   2.012
    5LYS    HB2   59   5.818   6.416   1.953
    5LYS     CG   60   5.657   6.521   1.870
    5LYS    HG1   61   5.694   6.613   1.863
    5LYS    HG2   62   5.559   6.525   1.891
    5LYS     CD   63   5.673   6.452   1.734
    5LYS    HD1   64   5.770   6.436   1.716
    5LYS    HD2   65   5.625   6.364   1.735
    5LYS     CE   66   5.615   6.541   1.622
    5LYS    HE1   67   5.667   6.626   1.618
    5LYS    HE2   68   5.519   6.561   1.642
    5LYS     NZ   69   5.621   6.476   1.489
    5LYS    HZ1   70   5.583   6.537   1.420
    5LYS    HZ2   71   5.717   6.456   1.466
    5LYS    HZ3   72   5.569   6.390   1.491
    5LYS      C   73   5.779   6.457   2.236
    5LYS      O   74   5.860   6.366   2.238
    6ARG      N   75   5.692   6.481   2.334
    6ARG     HN   76   5.666   6.577   2.351
    6ARG     CA   77   5.631   6.378   2.419
    6ARG     HA   78   5.563   6.431   2.469
    6ARG     CB   79   5.574   6.265   2.329
    6ARG    HB1   80   5.534   6.196   2.389
    6ARG    HB2   81   5.650   6.225   2.278
    6ARG     CG   82   5.467   6.302   2.227
    6ARG    HG1   83   5.496   6.382   2.174
    6ARG    HG2   84   5.381   6.322   2.274
    6ARG     CD   85   5.450   6.180   2.135
    6ARG    HD1   86   5.447   6.097   2.190
    6ARG    HD2   87   5.526   6.176   2.071
    6ARG     NE   88   5.325   6.189   2.058
    6ARG     HE   89   5.257   6.255   2.090
    6ARG     CZ   90   5.295   6.118   1.950
    6ARG    NH1   91   5.381   6.039   1.892
    6ARG   HH11   92   5.473   6.030   1.929
    6ARG   HH12   93   5.354   5.987   1.811
    6ARG    NH2   94   5.175   6.126   1.899
    6ARG   HH21   95   5.107   6.186   1.941
    6ARG   HH22   96   5.152   6.073   1.818
    6ARG      C   97   5.721   6.314   2.524
    6ARG      O   98   5.743   6.195   2.515
    7HIS      N   99   5.760   6.383   2.631
    7HIS     HN  100   5.762   6.483   2.628
    7HIS     CA  101   5.800   6.314   2.754
    7HIS     HA  102   5.757   6.224   2.750
    7HIS     CB  103   5.953   6.288   2.757
    7HIS    HB1  104   5.985   6.299   2.851
    7HIS    HB2  105   5.997   6.355   2.698
    7HIS    ND1  106   5.968   6.090   2.588
    7HIS     CG  107   5.994   6.149   2.710
    7HIS    CE1  108   6.012   5.964   2.588
    7HIS    HE1  109   6.002   5.899   2.512
    7HIS    NE2  110   6.071   5.938   2.705
    7HIS    HE2  111   6.114   5.851   2.732
    7HIS    CD2  112   6.062   6.054   2.782
    7HIS    HD2  113   6.100   6.066   2.874
    7HIS      C  114   5.743   6.384   2.879
    7HIS      O  115   5.797   6.480   2.931
    8HIS      N  116   5.628   6.334   2.926
    8HIS     HN  117   5.558   6.307   2.859
    8HIS     CA  118   5.598   6.318   3.069
    8HIS     HA  119   5.499   6.302   3.063
    8HIS     CB  120   5.680   6.198   3.120
    8HIS    HB1  121   5.675   6.195   3.220
    8HIS    HB2  122   5.776   6.209   3.092
    8HIS    ND1  123   5.502   6.019   3.084
    8HIS     CG  124   5.629   6.068   3.065
    8HIS    CE1  125   5.494   5.900   3.023
    8HIS    HE1  126   5.413   5.841   3.021
    8HIS    NE2  127   5.611   5.871   2.965
    8HIS    HE2  128   5.631   5.788   2.911
    8HIS    CD2  129   5.699   5.976   2.991
    8HIS    HD2  130   5.794   5.983   2.962
    8HIS      C  131   5.595   6.437   3.167
    8HIS      O  132   5.620   6.418   3.285
    9GLY      N  133   5.550   6.556   3.126
    9GLY     HN  134   5.535   6.572   3.028
    9GLY     CA  135   5.523   6.665   3.222
    9GLY    HA1  136   5.586   6.653   3.298
    9GLY    HA2  137   5.544   6.751   3.175
    9GLY      C  138   5.380   6.673   3.277
    9GLY      O  139   5.357   6.735   3.381
   10TYR      N  140   5.281   6.612   3.212
   10TYR     HN  141   5.305   6.547   3.139
   10TYR     CA  142   5.139   6.635   3.241
   10TYR     HA  143   5.136   6.732   3.264
   10TYR     CB  144   5.053   6.607   3.117
   10TYR    HB1  145   5.089   6.661   3.041
   10TYR    HB2  146   4.959   6.636   3.136
   10TYR     CG  147   5.050   6.462   3.075
   10TYR    CD1  148   5.139   6.415   2.976
   10TYR    HD1  149   5.203   6.479   2.933
   10TYR    CE1  150   5.137   6.280   2.937
   10TYR    HE1  151   5.200   6.247   2.866
   10TYR     CZ  152   5.046   6.191   2.998
   10TYR     OH  153   5.045   6.060   2.963
   10TYR     HH  154   4.975   6.012   3.016
   10TYR    CD2  155   4.958   6.373   3.134
   10TYR    HD2  156   4.894   6.406   3.204
   10TYR    CE2  157   4.957   6.237   3.097
   10TYR    HE2  158   4.893   6.174   3.140
   10TYR      C  159   5.085   6.563   3.367
   10TYR      O  160   4.966   6.571   3.396
   11LYS      N  161   5.171   6.497   3.446
   11LYS     HN  162   5.265   6.484   3.415
   11LYS     CA  163   5.132   6.443   3.578
   11LYS     HA  164   5.037   6.413   3.567
   11LYS     CB  165   5.215   6.319   3.616
   11LYS    HB1  166   5.200   6.300   3.713
   11LYS    HB2  167   5.312   6.340   3.601
   11LYS     CG  168   5.178   6.194   3.535
   11LYS    HG1  169   5.212   6.204   3.441
   11LYS    HG2  170   5.079   6.184   3.534
   11LYS     CD  171   5.242   6.070   3.599
   11LYS    HD1  172   5.341   6.080   3.598
   11LYS    HD2  173   5.210   6.062   3.694
   11LYS     CE  174   5.203   5.943   3.523
   11LYS    HE1  175   5.234   5.950   3.428
   11LYS    HE2  176   5.104   5.932   3.525
   11LYS     NZ  177   5.265   5.821   3.583
   11LYS    HZ1  178   5.237   5.741   3.531
   11LYS    HZ2  179   5.364   5.830   3.581
   11LYS    HZ3  180   5.234   5.812   3.678
   11LYS      C  181   5.135   6.552   3.685
   11LYS      O  182   5.194   6.533   3.792
   12ARG      N  183   5.068   6.665   3.661
   12ARG     HN  184   5.036   6.683   3.568
   12ARG     CA  185   5.039   6.762   3.767
   12ARG     HA  186   5.120   6.776   3.824
   12ARG     CB  187   5.009   6.900   3.705
   12ARG    HB1  188   4.910   6.913   3.699
   12ARG    HB2  189   5.048   6.904   3.613
   12ARG     CG  190   5.069   7.013   3.789
   12ARG    HG1  191   5.169   7.009   3.782
   12ARG    HG2  192   5.042   6.999   3.885
   12ARG     CD  193   5.023   7.153   3.746
   12ARG    HD1  194   5.047   7.168   3.650
   12ARG    HD2  195   5.067   7.222   3.803
   12ARG     NE  196   4.877   7.169   3.759
   12ARG     HE  197   4.823   7.086   3.772
   12ARG     CZ  198   4.809   7.282   3.755
   12ARG    NH1  199   4.868   7.398   3.742
   12ARG   HH11  200   4.967   7.403   3.735
   12ARG   HH12  201   4.813   7.482   3.740
   12ARG    NH2  202   4.679   7.281   3.765
   12ARG   HH21  203   4.630   7.195   3.775
   12ARG   HH22  204   4.628   7.367   3.762
   12ARG      C  205   4.928   6.703   3.855
   12ARG      O  206   4.811   6.736   3.840
   13LYS      N  207   4.964   6.605   3.939
   13LYS     HN  208   5.061   6.583   3.944
   13LYS     CA  209   4.873   6.529   4.026
   13LYS     HA  210   4.791   6.507   3.973
   13LYS     CB  211   4.940   6.395   4.065
   13LYS    HB1  212   4.999   6.411   4.144
   13LYS    HB2  213   4.995   6.363   3.988
   13LYS     CG  214   4.840   6.283   4.103
   13LYS    HG1  215   4.787   6.259   4.021
   13LYS    HG2  216   4.778   6.318   4.173
   13LYS     CD  217   4.910   6.157   4.155
   13LYS    HD1  218   4.983   6.131   4.092
   13LYS    HD2  219   4.950   6.177   4.245
   13LYS     CE  220   4.812   6.040   4.169
   13LYS    HE1  221   4.788   6.005   4.078
   13LYS    HE2  222   4.729   6.071   4.216
   13LYS     NZ  223   4.869   5.927   4.247
   13LYS    HZ1  224   4.802   5.853   4.253
   13LYS    HZ2  225   4.952   5.893   4.201
   13LYS    HZ3  226   4.893   5.958   4.339
   13LYS      C  227   4.827   6.615   4.145
   13LYS      O  228   4.848   6.578   4.259
   14PHE      N  229   4.767   6.730   4.117
   14PHE     HN  230   4.770   6.764   4.023
   14PHE     CA  231   4.695   6.811   4.216
   14PHE     HA  232   4.748   6.810   4.301
   14PHE     CB  233   4.685   6.958   4.169
   14PHE    HB1  234   4.597   6.995   4.199
   14PHE    HB2  235   4.690   6.960   4.069
   14PHE     CG  236   4.793   7.049   4.222
   14PHE    CD1  237   4.771   7.126   4.338
   14PHE    HD1  238   4.683   7.120   4.386
   14PHE    CE1  239   4.871   7.212   4.387
   14PHE    HE1  240   4.855   7.266   4.469
   14PHE     CZ  241   4.994   7.222   4.320
   14PHE     HZ  242   5.065   7.284   4.354
   14PHE    CD2  243   4.917   7.058   4.157
   14PHE    HD2  244   4.935   7.002   4.076
   14PHE    CE2  245   5.018   7.145   4.204
   14PHE    HE2  246   5.105   7.151   4.156
   14PHE      C  247   4.558   6.747   4.240
   14PHE      O  248   4.459   6.789   4.181
   15HIS      N  249   4.553   6.644   4.323
   15HIS     HN  250   4.637   6.594   4.343
   15HIS     CA  251   4.428   6.600   4.388
   15HIS     HA  252   4.353   6.642   4.338
   15HIS     CB  253   4.406   6.448   4.376
   15HIS    HB1  254   4.323   6.424   4.426
   15HIS    HB2  255   4.485   6.401   4.416
   15HIS    ND1  256   4.494   6.358   4.153
   15HIS     CG  257   4.392   6.401   4.234
   15HIS    CE1  258   4.441   6.323   4.034
   15HIS    HE1  259   4.494   6.288   3.957
   15HIS    NE2  260   4.309   6.340   4.035
   15HIS    HE2  261   4.246   6.321   3.960
   15HIS    CD2  262   4.276   6.391   4.161
   15HIS    HD2  263   4.184   6.415   4.193
   15HIS      C  264   4.427   6.651   4.533
   15HIS      O  265   4.398   6.577   4.627
   16GLU      N  266   4.464   6.777   4.551
   16GLU     HN  267   4.504   6.826   4.474
   16GLU     CA  268   4.448   6.848   4.677
   16GLU     HA  269   4.441   6.783   4.752
   16GLU     CB  270   4.573   6.934   4.703
   16GLU    HB1  271   4.576   7.009   4.636
   16GLU    HB2  272   4.655   6.877   4.693
   16GLU     CG  273   4.572   6.995   4.844
   16GLU    HG1  274   4.562   6.921   4.911
   16GLU    HG2  275   4.495   7.058   4.852
   16GLU     CD  276   4.702   7.071   4.870
   16GLU    OE1  277   4.695   7.195   4.880
   16GLU    OE2  278   4.807   7.003   4.876
   16GLU      C  279   4.319   6.929   4.666
   16GLU      O  280   4.318   7.031   4.597
   17LYS      N  281   4.211   6.875   4.723
   17LYS     HN  282   4.206   6.775   4.724
   17LYS     CA  283   4.096   6.946   4.785
   17LYS     HA  284   4.126   6.964   4.879
   17LYS     CB  285   4.066   7.082   4.719
   17LYS    HB1  286   4.030   7.065   4.627
   17LYS    HB2  287   4.151   7.134   4.712
   17LYS     CG  288   3.965   7.169   4.794
   17LYS    HG1  289   3.992   7.177   4.890
   17LYS    HG2  290   3.874   7.127   4.789
   17LYS     CD  291   3.961   7.308   4.729
   17LYS    HD1  292   4.054   7.341   4.716
   17LYS    HD2  293   3.915   7.302   4.640
   17LYS     CE  294   3.884   7.408   4.817
   17LYS    HE1  295   3.927   7.413   4.907
   17LYS    HE2  296   3.789   7.378   4.826
   17LYS     NZ  297   3.885   7.544   4.757
   17LYS    HZ1  298   3.835   7.606   4.816
   17LYS    HZ2  299   3.980   7.576   4.748
   17LYS    HZ3  300   3.842   7.541   4.667
   17LYS      C  301   3.971   6.857   4.788
   17LYS      O  302   3.884   6.867   4.702
   18HIS      N  303   3.958   6.777   4.893
   18HIS     HN  304   4.039   6.751   4.945
   18HIS     CA  305   3.828   6.725   4.937
   18HIS     HA  306   3.759   6.759   4.872
   18HIS     CB  307   3.821   6.572   4.927
   18HIS    HB1  308   3.738   6.540   4.973
   18HIS    HB2  309   3.902   6.533   4.973
   18HIS    ND1  310   3.709   6.511   4.703
   18HIS     CG  311   3.820   6.522   4.784
   18HIS    CE1  312   3.749   6.463   4.584
   18HIS    HE1  313   3.688   6.446   4.506
   18HIS    NE2  314   3.881   6.443   4.584
   18HIS    HE2  315   3.936   6.408   4.508
   18HIS    CD2  316   3.927   6.480   4.711
   18HIS    HD2  317   4.022   6.475   4.743
   18HIS      C  318   3.794   6.784   5.075
   18HIS      O  319   3.787   6.714   5.175
   19HIS      N  320   3.773   6.916   5.080
   19HIS     HN  321   3.802   6.971   5.002
   19HIS     CA  322   3.710   6.985   5.193
   19HIS     HA  323   3.732   6.930   5.274
   19HIS     CB  324   3.767   7.126   5.212
   19HIS    HB1  325   3.703   7.180   5.266
   19HIS    HB2  326   3.778   7.168   5.122
   19HIS    ND1  327   3.923   7.100   5.413
   19HIS     CG  328   3.900   7.129   5.281
   19HIS    CE1  329   4.053   7.122   5.438
   19HIS    HE1  330   4.097   7.109   5.527
   19HIS    NE2  331   4.115   7.165   5.327
   19HIS    HE2  332   4.212   7.188   5.318
   19HIS    CD2  333   4.018   7.170   5.227
   19HIS    HD2  334   4.033   7.199   5.132
   19HIS      C  335   3.557   6.988   5.177
   19HIS      O  336   3.496   7.094   5.170
   20SER      N  337   3.494   6.872   5.165
   20SER     HN  338   3.547   6.788   5.154
   20SER     CA  339   3.348   6.865   5.167
   20SER     HA  340   3.317   6.941   5.223
   20SER     CB  341   3.286   6.883   5.027
   20SER    HB1  342   3.289   6.979   5.000
   20SER    HB2  343   3.192   6.850   5.026
   20SER     OG  344   3.355   6.811   4.927
   20SER    HG1  345   3.311   6.826   4.838
   20SER      C  346   3.305   6.734   5.232
   20SER      O  347   3.306   6.630   5.168
   21HIS      N  348   3.279   6.740   5.363
   21HIS     HN  349   3.345   6.787   5.422
   21HIS     CA  350   3.159   6.684   5.429
   21HIS     HA  351   3.091   6.756   5.416
   21HIS     CB  352   3.103   6.557   5.360
   21HIS    HB1  353   3.157   6.478   5.388
   21HIS    HB2  354   3.110   6.569   5.261
   21HIS    ND1  355   2.863   6.615   5.437
   21HIS     CG  356   2.959   6.527   5.392
   21HIS    CE1  357   2.744   6.554   5.433
   21HIS    HE1  358   2.658   6.594   5.462
   21HIS    NE2  359   2.758   6.430   5.384
   21HIS    HE2  360   2.685   6.363   5.369
   21HIS    CD2  361   2.894   6.412   5.357
   21HIS    HD2  362   2.936   6.330   5.319
   21HIS      C  363   3.184   6.661   5.579
   21HIS      O  364   3.197   6.549   5.627
   22ARG      N  365   3.190   6.769   5.657
   22ARG     HN  366   3.223   6.855   5.619
   22ARG     CA  367   3.150   6.764   5.799
   22ARG     HA  368   3.094   6.683   5.814
   22ARG     CB  369   3.270   6.744   5.893
   22ARG    HB1  370   3.321   6.829   5.902
   22ARG    HB2  371   3.330   6.673   5.855
   22ARG     CG  372   3.221   6.699   6.032
   22ARG    HG1  373   3.161   6.620   6.021
   22ARG    HG2  374   3.172   6.774   6.075
   22ARG     CD  375   3.339   6.659   6.121
   22ARG    HD1  376   3.408   6.731   6.120
   22ARG    HD2  377   3.379   6.574   6.089
   22ARG     NE  378   3.295   6.639   6.260
   22ARG     HE  379   3.198   6.654   6.279
   22ARG     CZ  380   3.370   6.604   6.363
   22ARG    NH1  381   3.496   6.574   6.350
   22ARG   HH11  382   3.539   6.578   6.260
   22ARG   HH12  383   3.550   6.548   6.430
   22ARG    NH2  384   3.318   6.598   6.483
   22ARG   HH21  385   3.222   6.621   6.497
   22ARG   HH22  386   3.375   6.571   6.560
   22ARG      C  387   3.064   6.887   5.827
   22ARG      O  388   3.106   6.982   5.891
   23GLY      N  389   2.949   6.888   5.759
   23GLY     HN  390   2.941   6.827   5.680
   23GLY     CA  391   2.836   6.971   5.795
   23GLY    HA1  392   2.870   7.056   5.837
   23GLY    HA2  393   2.785   6.994   5.712
   23GLY      C  394   2.750   6.892   5.892
   23GLY      O  395   2.725   6.775   5.865
   24TYR      N  396   2.709   6.960   5.999
   24TYR     HN  397   2.730   7.058   5.999
   24TYR     CA  398   2.637   6.912   6.119
   24TYR     HA  399   2.610   6.998   6.162
   24TYR     CB  400   2.509   6.836   6.082
   24TYR    HB1  401   2.460   6.813   6.166
   24TYR    HB2  402   2.534   6.752   6.033
   24TYR     CG  403   2.417   6.918   5.993
   24TYR    CD1  404   2.335   7.016   6.051
   24TYR    HD1  405   2.335   7.030   6.150
   24TYR    CE1  406   2.252   7.096   5.969
   24TYR    HE1  407   2.193   7.166   6.010
   24TYR     CZ  408   2.253   7.077   5.829
   24TYR     OH  409   2.174   7.154   5.749
   24TYR     HH  410   2.187   7.127   5.654
   24TYR    CD2  411   2.417   6.899   5.853
   24TYR    HD2  412   2.474   6.828   5.813
   24TYR    CE2  413   2.335   6.979   5.771
   24TYR    HE2  414   2.336   6.966   5.672
   24TYR      C  415   2.724   6.847   6.227
   24TYR    OT1  416   2.858   6.840   6.203
   24TYR    OT2  417   2.661   6.802   6.338
   25SOL     OW  418   0.230   0.628   0.113
   25SOL    HW1  419   0.137   0.626   0.150
   25SOL    HW2  420   0.231   0.589   0.021
   26SOL     OW  421   0.225   0.275   0.996
   26SOL    HW1  422   0.260   0.258   1.088
   26SOL    HW2  423   0.137   0.230   0.984
   27SOL     OW  424   0.019   0.368   0.647
   27SOL    HW1  425  -0.063   0.411   0.686
   27SOL    HW2  426  -0.009   0.295   0.584
   28SOL     OW  427   0.569   1.275   1.165
   28SOL    HW1  428   0.476   1.268   1.128
   28SOL    HW2  429   0.580   1.364   1.209
   29SOL     OW  430   1.555   1.511   0.703
   29SOL    HW1  431   1.498   1.495   0.784
   29SOL    HW2  432   1.496   1.521   0.623
   30SOL     OW  433   1.135   0.703   0.717
   30SOL    HW1  434   1.192   0.781   0.692
   30SOL    HW2  435   1.075   0.729   0.793
   31SOL     OW  436   1.755   0.607   0.231
   31SOL    HW1  437   1.743   0.594   0.132
   31SOL    HW2  438   1.725   0.526   0.280
   32SOL     OW  439   0.768   1.144   1.023
   32SOL    HW1  440   0.690   1.161   1.083
   32SOL    HW2  441   0.802   1.231   0.987
   33SOL     OW  442   0.850   0.798   1.823
   33SOL    HW1  443   0.846   0.874   1.888
   33SOL    HW2  444   0.872   0.834   1.732
   34SOL     OW  445   0.685   1.012   0.665
   34SOL    HW1  446   0.754   0.996   0.735
   34SOL    HW2  447   0.612   1.069   0.703
   35SOL     OW  448   0.686   1.161   1.803
   35SOL    HW1  449   0.746   1.240   1.817
   35SOL    HW2  450   0.600   1.192   1.762
   36SOL     OW  451   0.335   1.435   1.061
   36SOL    HW1  452   0.257   1.404   1.008
   36SOL    HW2  453   0.393   1.493   1.004
   37SOL     OW  454   1.460   1.505   1.339
   37SOL    HW1  455   1.484   1.599   1.365
   37SOL    HW2  456   1.444   1.451   1.421
   38SOL     OW  457   0.438   0.392   1.499
   38SOL    HW1  458   0.520   0.336   1.508
   38SOL    HW2  459   0.357   0.334   1.503
   39SOL     OW  460   1.603   0.447   0.737
   39SOL    HW1  461   1.529   0.493   0.687
   39SOL    HW2  462   1.654   0.515   0.790
   40SOL     OW  463   0.231   1.713   0.483
   40SOL    HW1  464   0.265   1.790   0.537
   40SOL    HW2  465   0.275   1.713   0.393
   41SOL     OW  466   1.127   1.341   1.690
   41SOL    HW1  467   1.174   1.341   1.778
   41SOL    HW2  468   1.079   1.254   1.679
   42SOL     OW  469   0.230   1.434   0.538
   42SOL    HW1  470   0.204   1.530   0.538
   42SOL    HW2  471   0.159   1.380   0.583
   43SOL     OW  472   0.240   1.091   0.886
   43SOL    HW1  473   0.254   1.007   0.938
   43SOL    HW2  474   0.185   1.155   0.941
   44SOL     OW  475   0.620   1.786   1.439
   44SOL    HW1  476   0.528   1.769   1.474
   44SOL    HW2  477   0.648   1.878   1.465
   45SOL     OW  478   0.606   0.964   0.123
   45SOL    HW1  479   0.613   1.048   0.069
   45SOL    HW2  480   0.652   0.977   0.211
   46SOL     OW  481   1.594   0.114   1.480
   46SOL    HW1  482   1.576   0.181   1.408
   46SOL    HW2  483   1.591   0.160   1.569
   47SOL     OW  484   0.122   0.643   0.563
   47SOL    HW1  485   0.077   0.555   0.580
   47SOL    HW2  486   0.121   0.697   0.647
   48SOL     OW  487   1.842   1.767   0.359
   48SOL    HW1  488   1.896   1.738   0.439
   48SOL    HW2  489   1.872   1.857   0.330
   49SOL     OW  490   0.027   1.596   0.117
   49SOL    HW1  491   0.008   1.500   0.138
   49SOL    HW2  492  -0.006   1.654   0.192
   50SOL     OW  493   1.689   0.922   0.612
   50SOL    HW1  494   1.784   0.893   0.620
   50SOL    HW2  495   1.681   0.987   0.537
   51SOL     OW  496   1.641   1.108   0.432
   51SOL    HW1  497   1.727   1.110   0.380
   51SOL    HW2  498   1.655   1.155   0.520
   52SOL     OW  499   0.113   0.737   1.597
   52SOL    HW1  500   0.201   0.724   1.642
   52SOL    HW2  501   0.100   0.834   1.575
   53SOL     OW  502   0.613   1.365   0.726
   53SOL    HW1  503   0.564   1.278   0.735
   53SOL    HW2  504   0.590   1.408   0.639
   54SOL     OW  505   1.293   1.228   1.423
   54SOL    HW1  506   1.330   1.155   1.365
   54SOL    HW2  507   1.345   1.233   1.508
   55SOL     OW  508   0.809   0.004   0.502
   55SOL    HW1  509   0.849   0.095   0.493
   55SOL    HW2  510   0.709   0.012   0.508
   56SOL     OW  511   0.197   0.976   1.264
   56SOL    HW1  512   0.286   0.931   1.250
   56SOL    HW2  513   0.124   0.911   1.245
   57SOL     OW  514   1.525   0.999   0.190
   57SOL    HW1  515   1.462   0.923   0.203
   57SOL    HW2  516   1.573   1.017   0.276
   58SOL     OW  517   1.187   1.792   1.616
   58SOL    HW1  518   1.211   1.852   1.540
   58SOL    HW2  519   1.194   1.697   1.586
   59SOL     OW  520   0.317   0.251   1.801
   59SOL    HW1  521   0.388   0.322   1.807
   59SOL    HW2  522   0.229   0.290   1.829
   60SOL     OW  523   1.466   1.417   0.953
   60SOL    HW1  524   1.407   1.423   1.033
   60SOL    HW2  525   1.451   1.329   0.907
   61SOL     OW  526   1.667   1.714   0.572
   61SOL    HW1  527   1.626   1.691   0.484
   61SOL    HW2  528   1.649   1.640   0.637
   62SOL     OW  529   0.598   0.729   0.270
   62SOL    HW1  530   0.622   0.798   0.202
   62SOL    HW2  531   0.520   0.762   0.324
   63SOL     OW  532   1.281   0.345   0.944
   63SOL    HW1  533   1.195   0.295   0.931
   63SOL    HW2  534   1.343   0.291   1.000
   64SOL     OW  535   1.576   1.662   0.307
   64SOL    HW1  536   1.665   1.708   0.310
   64SOL    HW2  537   1.555   1.638   0.212
   65SOL     OW  538   0.807   0.605   1.465
   65SOL    HW1  539   0.760   0.602   1.554
   65SOL    HW2  540   0.756   0.550   1.399
   66SOL     OW  541   1.394   0.469   1.674
   66SOL    HW1  542   1.374   0.512   1.762
   66SOL    HW2  543   1.472   0.407   1.683
   67SOL     OW  544   0.973   0.890   1.572
   67SOL    HW1  545   1.019   0.806   1.543
   67SOL    HW2  546   0.917   0.924   1.497
   68SOL     OW  547   0.991   0.410   1.242
   68SOL    HW1  548   0.914   0.444   1.296
   68SOL    HW2  549   0.957   0.359   1.163
   69SOL     OW  550   1.041   0.701   0.429
   69SOL    HW1  551   1.067   0.697   0.525
   69SOL    HW2  552   0.956   0.650   0.415
   70SOL     OW  553   0.076   0.811   0.789
   70SOL    HW1  554   0.175   0.799   0.798
   70SOL    HW2  555   0.052   0.906   0.810
   71SOL     OW  556   0.130   1.821   1.571
   71SOL    HW1  557   0.120   1.806   1.670
   71SOL    HW2  558   0.044   1.857   1.535
   72SOL     OW  559   0.865   0.348   0.195
   72SOL    HW1  560   0.924   0.411   0.146
   72SOL    HW2  561   0.884   0.254   0.166
   73SOL     OW  562   1.719   0.585   1.831
   73SOL    HW1  563   1.693   0.674   1.795
   73SOL    HW2  564   1.717   0.517   1.758
   74SOL     OW  565   1.362   1.144   0.545
   74SOL    HW1  566   1.445   1.115   0.497
   74SOL    HW2  567   1.313   1.211   0.489
   75SOL     OW  568   0.550   0.196   0.885
   75SOL    HW1  569   0.545   0.191   0.985
   75SOL    HW2  570   0.552   0.292   0.856
   76SOL     OW  571   1.008   1.456   0.477
   76SOL    HW1  572   0.962   1.528   0.425
   76SOL    HW2  573   1.004   1.476   0.575
   77SOL     OW  574   0.351   1.801   0.853
   77SOL    HW1  575   0.401   1.715   0.859
   77SOL    HW2  576   0.416   1.878   0.850
   78SOL     OW  577   1.795   1.066   0.873
   78SOL    HW1  578   1.733   1.051   0.797
   78SOL    HW2  579   1.743   1.077   0.958
   79SOL     OW  580   1.227   1.550   1.506
   79SOL    HW1  581   1.233   1.473   1.570
   79SOL    HW2  582   1.175   1.524   1.426
   80SOL     OW  583   0.321   0.943   0.242
   80SOL    HW1  584   0.403   0.982   0.200
   80SOL    HW2  585   0.294   0.861   0.193
   81SOL     OW  586   1.458   0.735   0.728
   81SOL    HW1  587   1.453   0.670   0.803
   81SOL    HW2  588   1.538   0.794   0.741
   82SOL     OW  589   0.461   1.266   1.727
   82SOL    HW1  590   0.411   1.267   1.641
   82SOL    HW2  591   0.398   1.248   1.803
   83SOL     OW  592   1.111   1.776   0.237
   83SOL    HW1  593   1.051   1.714   0.287
   83SOL    HW2  594   1.142   1.732   0.152
   84SOL     OW  595   0.202   0.285   1.498
   84SOL    HW1  596   0.122   0.345   1.485
   84SOL    HW2  597   0.192   0.236   1.584
   85SOL     OW  598   1.632   1.377   0.081
   85SOL    HW1  599   1.600   1.471   0.071
   85SOL    HW2  600   1.556   1.314   0.069
   86SOL     OW  601   0.464   1.743   0.323
   86SOL    HW1  602   0.497   1.782   0.409
   86SOL    HW2  603   0.540   1.736   0.258
   87SOL     OW  604   1.400   0.107   0.426
   87SOL    HW1  605   1.376   0.070   0.336
   87SOL    HW2  606   1.499   0.123   0.430
   88SOL     OW  607   0.249   1.785   1.241
   88SOL    HW1  608   0.306   1.720   1.291
   88SOL    HW2  609   0.233   1.752   1.148
   89SOL     OW  610   0.940   1.698   0.904
   89SOL    HW1  611   1.020   1.641   0.925
   89SOL    HW2  612   0.891   1.658   0.827
   90SOL     OW  613   0.382   0.700   0.480
   90SOL    HW1  614   0.427   0.610   0.477
   90SOL    HW2  615   0.288   0.689   0.513
   91SOL     OW  616   1.547   0.222   1.729
   91SOL    HW1  617   1.542   0.259   1.821
   91SOL    HW2  618   1.475   0.153   1.717
   92SOL     OW  619   0.614   0.122   0.117
   92SOL    HW1  620   0.712   0.100   0.124
   92SOL    HW2  621   0.583   0.105   0.024
   93SOL     OW  622   0.781   0.264   1.749
   93SOL    HW1  623   0.848   0.203   1.792
   93SOL    HW2  624   0.708   0.283   1.814
   94SOL     OW  625   0.888   1.514   1.195
   94SOL    HW1  626   0.865   1.489   1.101
   94SOL    HW2  627   0.949   1.445   1.234
   95SOL     OW  628   1.351   0.590   1.433
   95SOL    HW1  629   1.379   0.547   1.518
   95SOL    HW2  630   1.376   0.686   1.434
   96SOL     OW  631   0.803   1.402   0.924
   96SOL    HW1  632   0.893   1.416   0.882
   96SOL    HW2  633   0.732   1.404   0.853
   97SOL     OW  634   0.922   0.503   0.899
   97SOL    HW1  635   0.897   0.494   0.803
   97SOL    HW2  636   0.970   0.421   0.930
   98SOL     OW  637   0.539   0.064   0.512
   98SOL    HW1  638   0.458   0.065   0.570
   98SOL    HW2  639   0.542   0.147   0.457
   99SOL     OW  640   1.434   1.188   0.041
   99SOL    HW1  641   1.466   1.112   0.098
   99SOL    HW2  642   1.342   1.215   0.071
  100SOL     OW  643   0.297   0.035   0.171
  100SOL    HW1  644   0.346   0.119   0.150
  100SOL    HW2  645   0.359  -0.030   0.216
  101SOL     OW  646   0.935   0.236   0.480
  101SOL    HW1  647   0.887   0.277   0.402
  101SOL    HW2  648   1.034   0.234   0.461
  102SOL     OW  649   1.076   0.683   1.464
  102SOL    HW1  650   0.996   0.622   1.467
  102SOL    HW2  651   1.157   0.630   1.440
  103SOL     OW  652   1.227   1.570   0.793
  103SOL    HW1  653   1.248   1.644   0.728
  103SOL    HW2  654   1.295   1.570   0.866
  104SOL     OW  655   0.459   1.152   0.741
  104SOL    HW1  656   0.388   1.125   0.806
  104SOL    HW2  657   0.433   1.124   0.648
  105SOL     OW  658   1.271   1.797   0.591
  105SOL    HW1  659   1.315   1.861   0.527
  105SOL    HW2  660   1.221   1.849   0.661
  106SOL     OW  661   1.032   0.549   0.016
  106SOL    HW1  662   0.991   0.631  -0.023
  106SOL    HW2  663   1.096   0.575   0.089
  107SOL     OW  664   0.078   0.556   1.386
  107SOL    HW1  665   0.170   0.555   1.345
  107SOL    HW2  666   0.072   0.630   1.453
  108SOL     OW  667   0.561   0.222   1.147
  108SOL    HW1  668   0.599   0.138   1.184
  108SOL    HW2  669   0.473   0.241   1.191
  109SOL     OW  670   0.866   0.454   0.642
  109SOL    HW1  671   0.834   0.526   0.580
  109SOL    HW2  672   0.890   0.373   0.589
  110SOL     OW  673   1.017   0.039   0.753
  110SOL    HW1  674   0.945   0.044   0.684
  110SOL    HW2  675   0.993  -0.030   0.822
  111SOL     OW  676   1.429   1.173   0.867
  111SOL    HW1  677   1.374   1.089   0.860
  111SOL    HW2  678   1.455   1.202   0.775
  112SOL     OW  679   1.466   0.590   0.992
  112SOL    HW1  680   1.436   0.495   0.999
  112SOL    HW2  681   1.539   0.606   1.058
  113SOL     OW  682   1.857   0.833   0.377
  113SOL    HW1  683   1.899   0.769   0.441
  113SOL    HW2  684   1.819   0.782   0.299
  114SOL     OW  685   0.488   1.385   0.174
  114SOL    HW1  686   0.401   1.370   0.221
  114SOL    HW2  687   0.471   1.411   0.079
  115SOL     OW  688   1.664   1.280   0.657
  115SOL    HW1  689   1.763   1.288   0.671
  115SOL    HW2  690   1.619   1.364   0.688
  116SOL     OW  691   1.390   0.575   0.078
  116SOL    HW1  692   1.336   0.554   0.159
  116SOL    HW2  693   1.481   0.534   0.087
  117SOL     OW  694   0.527   0.256   0.328
  117SOL    HW1  695   0.554   0.197   0.253
  117SOL    HW2  696   0.527   0.351   0.297
  118SOL     OW  697   1.754   1.223   1.588
  118SOL    HW1  698   1.845   1.184   1.575
  118SOL    HW2  699   1.762   1.319   1.612
  119SOL     OW  700   1.064   1.347   1.340
  119SOL    HW1  701   0.984   1.324   1.395
  119SOL    HW2  702   1.147   1.321   1.389
  120SOL     OW  703   1.592   1.629   1.625
  120SOL    HW1  704   1.619   1.663   1.535
  120SOL    HW2  705   1.671   1.591   1.671
  121SOL     OW  706   1.111   1.195   1.100
  121SOL    HW1  707   1.071   1.239   1.181
  121SOL    HW2  708   1.070   1.232   1.017
  122SOL     OW  709   1.638   1.099   1.079
  122SOL    HW1  710   1.643   1.180   1.138
  122SOL    HW2  711   1.552   1.101   1.028
  123SOL     OW  712   0.915   0.089   1.402
  123SOL    HW1  713   0.940   0.069   1.307
  123SOL    HW2  714   0.987   0.145   1.444
  124SOL     OW  715   0.980   1.116   1.719
  124SOL    HW1  716   0.881   1.122   1.729
  124SOL    HW2  717   1.003   1.036   1.663
  125SOL     OW  718   0.705   1.050   0.368
  125SOL    HW1  719   0.691   1.057   0.467
  125SOL    HW2  720   0.789   0.999   0.350
  126SOL     OW  721   0.410   0.813   1.251
  126SOL    HW1  722   0.496   0.825   1.301
  126SOL    HW2  723   0.368   0.726   1.278
  127SOL     OW  724   1.274   0.386   1.262
  127SOL    HW1  725   1.295   0.460   1.326
  127SOL    HW2  726   1.185   0.403   1.219
  128SOL     OW  727   0.064   1.564   1.331
  128SOL    HW1  728   0.018   1.646   1.297
  128SOL    HW2  729   0.162   1.583   1.340
  129SOL     OW  730   0.367   1.100   0.501
  129SOL    HW1  731   0.360   1.183   0.445
  129SOL    HW2  732   0.371   1.020   0.441
  130SOL     OW  733   0.566   0.537   0.865
  130SOL    HW1  734   0.578   0.603   0.791
  130SOL    HW2  735   0.612   0.571   0.948
  131SOL     OW  736   1.252   1.348   0.388
  131SOL    HW1  737   1.302   1.425   0.428
  131SOL    HW2  738   1.157   1.350   0.420
  132SOL     OW  739   1.272   1.445   1.142
  132SOL    HW1  740   1.319   1.458   1.229
  132SOL    HW2  741   1.206   1.371   1.151
  133SOL     OW  742   1.582   0.639   0.472
  133SOL    HW1  743   1.551   0.700   0.545
  133SOL    HW2  744   1.632   0.691   0.403
  134SOL     OW  745   0.354   1.510   1.329
  134SOL    HW1  746   0.333   1.466   1.242
  134SOL    HW2  747   0.451   1.536   1.332
  135SOL     OW  748   0.402   0.751   1.598
  135SOL    HW1  749   0.470   0.806   1.551
  135SOL    HW2  750   0.442   0.663   1.625
  136SOL     OW  751   1.587   0.779   1.670
  136SOL    HW1  752   1.495   0.817   1.665
  136SOL    HW2  753   1.647   0.826   1.605
  137SOL     OW  754   1.013   0.105   1.770
  137SOL    HW1  755   1.019   0.190   1.718
  137SOL    HW2  756   1.045   0.029   1.713
  138SOL     OW  757   0.504   0.050   1.740
  138SOL    HW1  758   0.462  -0.007   1.670
  138SOL    HW2  759   0.438   0.119   1.772
  139SOL     OW  760   0.573   0.870   1.029
  139SOL    HW1  761   0.617   0.959   1.020
  139SOL    HW2  762   0.510   0.870   1.106
  140SOL     OW  763   1.360   0.862   1.045
  140SOL    HW1  764   1.285   0.862   0.979
  140SOL    HW2  765   1.397   0.770   1.054
  141SOL     OW  766   1.209   0.525   0.275
  141SOL    HW1  767   1.222   0.441   0.329
  141SOL    HW2  768   1.180   0.599   0.335
  142SOL     OW  769   0.307   0.213   1.231
  142SOL    HW1  770   0.284   0.250   1.321
  142SOL    HW2  771   0.277   0.118   1.225
  143SOL     OW  772   0.037   1.310   1.282
  143SOL    HW1  773   0.090   1.261   1.350
  143SOL    HW2  774   0.059   1.408   1.287
  144SOL     OW  775   0.732   0.634   1.064
  144SOL    HW1  776   0.791   0.608   0.988
  144SOL    HW2  777   0.704   0.730   1.053
  145SOL     OW  778   1.728   0.935   1.854
  145SOL    HW1  779   1.682   0.928   1.765
  145SOL    HW2  780   1.666   0.979   1.920
  146SOL     OW  781   0.307   0.063   0.618
  146SOL    HW1  782   0.296   0.157   0.651
  146SOL    HW2  783   0.302   0.000   0.695
  147SOL     OW  784   1.622   0.367   0.374
  147SOL    HW1  785   1.624   0.291   0.438
  147SOL    HW2  786   1.574   0.444   0.414
  148SOL     OW  787   1.023   0.766   0.966
  148SOL    HW1  788   1.038   0.787   1.062
  148SOL    HW2  789   0.993   0.671   0.957
  149SOL     OW  790   0.980   1.573   1.700
  149SOL    HW1  791   0.960   1.617   1.612
  149SOL    HW2  792   1.019   1.482   1.684
  150SOL     OW  793   1.859   1.518   1.605
  150SOL    HW1  794   1.873   1.545   1.510
  150SOL    HW2  795   1.942   1.540   1.658
  151SOL     OW  796   0.350   0.898   1.804
  151SOL    HW1  797   0.426   0.942   1.852
  151SOL    HW2  798   0.385   0.851   1.722
  152SOL     OW  799   1.540   0.274   0.125
  152SOL    HW1  800   1.479   0.199   0.148
  152SOL    HW2  801   1.562   0.326   0.208
  153SOL     OW  802   1.303   0.838   0.042
  153SOL    HW1  803   1.337   0.745   0.057
  153SOL    HW2  804   1.321   0.865  -0.053
  154SOL     OW  805   1.068   1.333   0.849
  154SOL    HW1  806   1.075   1.249   0.794
  154SOL    HW2  807   1.130   1.402   0.813
  155SOL     OW  808   0.319   0.810   0.949
  155SOL    HW1  809   0.412   0.846   0.954
  155SOL    HW2  810   0.313   0.725   1.001
  156SOL     OW  811   0.339   0.509   1.006
  156SOL    HW1  812   0.287   0.426   0.989
  156SOL    HW2  813   0.416   0.514   0.942
  157SOL     OW  814   1.138   0.380   1.678
  157SOL    HW1  815   1.093   0.443   1.742
  157SOL    HW2  816   1.231   0.411   1.661
  158SOL     OW  817   1.160   0.207   1.477
  158SOL    HW1  818   1.160   0.271   1.554
  158SOL    HW2  819   1.188   0.255   1.394
  159SOL     OW  820   0.008   1.326   0.200
  159SOL    HW1  821  -0.085   1.347   0.169
  159SOL    HW2  822   0.018   1.227   0.213
  160SOL     OW  823   0.088   1.801   0.927
  160SOL    HW1  824   0.046   1.715   0.900
  160SOL    HW2  825   0.182   1.804   0.893
  161SOL     OW  826   0.504   1.568   0.910
  161SOL    HW1  827   0.570   1.642   0.919
  161SOL    HW2  828   0.548   1.489   0.868
  162SOL     OW  829   1.002   0.796   1.238
  162SOL    HW1  830   1.043   0.764   1.324
  162SOL    HW2  831   0.906   0.769   1.235
  163SOL     OW  832   0.040   0.544   1.114
  163SOL    HW1  833   0.125   0.511   1.073
  163SOL    HW2  834   0.053   0.559   1.212
  164SOL     OW  835   0.189   0.520   1.722
  164SOL    HW1  836   0.248   0.480   1.652
  164SOL    HW2  837   0.131   0.591   1.681
  165SOL     OW  838   1.369   0.950   1.660
  165SOL    HW1  839   1.408   1.039   1.680
  165SOL    HW2  840   1.379   0.930   1.563
  166SOL     OW  841   0.815   0.572   0.325
  166SOL    HW1  842   0.822   0.483   0.279
  166SOL    HW2  843   0.721   0.606   0.317
  167SOL     OW  844   1.657   0.604   1.206
  167SOL    HW1  845   1.619   0.535   1.268
  167SOL    HW2  846   1.739   0.568   1.162
  168SOL     OW  847   0.252   1.564   1.744
  168SOL    HW1  848   0.222   1.621   1.820
  168SOL    HW2  849   0.245   1.467   1.770
  169SOL     OW  850   0.671   0.464   1.269
  169SOL    HW1  851   0.637   0.375   1.239
  169SOL    HW2  852   0.697   0.518   1.189
  170SOL     OW  853   0.930   1.678   1.465
  170SOL    HW1  854   0.906   1.660   1.370
  170SOL    HW2  855   0.960   1.772   1.475
  171SOL     OW  856   0.473   0.500   0.191
  171SOL    HW1  857   0.534   0.580   0.195
  171SOL    HW2  858   0.378   0.531   0.198
  172SOL     OW  859   0.159   1.137   1.466
  172SOL    HW1  860   0.181   1.076   1.542
  172SOL    HW2  861   0.169   1.088   1.380
  173SOL     OW  862   1.347   1.059   1.234
  173SOL    HW1  863   1.371   0.996   1.160
  173SOL    HW2  864   1.257   1.099   1.216
  174SOL     OW  865   1.302   0.855   0.309
  174SOL    HW1  866   1.216   0.824   0.351
  174SOL    HW2  867   1.298   0.841   0.210
  175SOL     OW  868   1.759   1.747   1.154
  175SOL    HW1  869   1.820   1.777   1.081
  175SOL    HW2  870   1.721   1.658   1.132
  176SOL     OW  871   1.252   1.731   1.128
  176SOL    HW1  872   1.336   1.736   1.074
  176SOL    HW2  873   1.229   1.635   1.146
  177SOL     OW  874   0.083   1.258   1.022
  177SOL    HW1  875   0.078   1.257   1.122
  177SOL    HW2  876   0.000   1.217   0.984
  178SOL     OW  877   0.688   1.662   1.716
  178SOL    HW1  878   0.632   1.743   1.725
  178SOL    HW2  879   0.740   1.666   1.630
  179SOL     OW  880   0.903   0.086   0.133
  179SOL    HW1  881   0.954   0.087   0.047
  179SOL    HW2  882   0.959   0.044   0.204
  180SOL     OW  883   1.726   0.135   0.523
  180SOL    HW1  884   1.799   0.118   0.456
  180SOL    HW2  885   1.695   0.048   0.561
  181SOL     OW  886   1.388   1.573   0.477
  181SOL    HW1  887   1.455   1.585   0.403
  181SOL    HW2  888   1.348   1.662   0.500
  182SOL     OW  889   0.130   1.794   1.851
  182SOL    HW1  890   0.089   1.720   1.904
  182SOL    HW2  891   0.194   1.845   1.909
  183SOL     OW  892   1.280   0.927   0.672
  183SOL    HW1  893   1.340   0.846   0.674
  183SOL    HW2  894   1.320   0.996   0.612
  184SOL     OW  895   0.830   1.273   1.422
  184SOL    HW1  896   0.825   1.306   1.517
  184SOL    HW2  897   0.744   1.292   1.376
  185SOL     OW  898   0.672   1.616   0.154
  185SOL    HW1  899   0.681   1.626   0.055
  185SOL    HW2  900   0.632   1.527   0.175
  186SOL     OW  901   1.650   1.720   1.394
  186SOL    HW1  902   1.703   1.730   1.310
  186SOL    HW2  903   1.623   1.810   1.428
  187SOL     OW  904   1.841   0.175   0.963
  187SOL    HW1  905   1.880   0.090   0.927
  187SOL    HW2  906   1.743   0.177   0.944
  188SOL     OW  907   0.263   0.326   0.720
  188SOL    HW1  908   0.184   0.377   0.686
  188SOL    HW2  909   0.254   0.311   0.818
  189SOL     OW  910   1.194   1.612   0.031
  189SOL    HW1  911   1.200   1.519   0.068
  189SOL    HW2  912   1.135   1.612  -0.049
  190SOL     OW  913   0.822   1.002   1.372
  190SOL    HW1  914   0.862   1.001   1.280
  190SOL    HW2  915   0.832   1.094   1.412
  191SOL     OW  916   0.916   0.910   0.291
  191SOL    HW1  917   0.979   0.948   0.223
  191SOL    HW2  918   0.956   0.827   0.330
  192SOL     OW  919   1.504   1.607   0.044
  192SOL    HW1  920   1.412   1.644   0.051
  192SOL    HW2  921   1.542   1.627  -0.046
  193SOL     OW  922   0.372   1.288   1.490
  193SOL    HW1  923   0.359   1.381   1.456
  193SOL    HW2  924   0.288   1.236   1.477
  194SOL     OW  925   1.614   1.292   1.289
  194SOL    HW1  926   1.674   1.295   1.369
  194SOL    HW2  927   1.539   1.356   1.302
  195SOL     OW  928   1.039   1.098   0.696
  195SOL    HW1  929   0.969   1.051   0.750
  195SOL    HW2  930   1.098   1.030   0.653
  196SOL     OW  931   1.014   0.236   0.971
  196SOL    HW1  932   1.006   0.200   0.878
  196SOL    HW2  933   1.012   0.160   1.036
  197SOL     OW  934   0.590   1.487   0.491
  197SOL    HW1  935   0.632   1.429   0.421
  197SOL    HW2  936   0.546   1.566   0.447
  198SOL     OW  937   1.709   0.385   1.381
  198SOL    HW1  938   1.782   0.454   1.385
  198SOL    HW2  939   1.737   0.310   1.322
  199SOL     OW  940   0.255   1.348   0.290
  199SOL    HW1  941   0.159   1.349   0.263
  199SOL    HW2  942   0.267   1.401   0.374
  200SOL     OW  943   0.105   1.013   1.726
  200SOL    HW1  944   0.028   0.980   1.780
  200SOL    HW2  945   0.190   0.983   1.768
  201SOL     OW  946   0.672   0.203   1.489
  201SOL    HW1  947   0.762   0.187   1.449
  201SOL    HW2  948   0.680   0.208   1.588
  202SOL     OW  949   0.075   0.345   0.033
  202SOL    HW1  950  -0.017   0.317   0.004
  202SOL    HW2  951   0.106   0.422  -0.023
  203SOL     OW  952   1.440   0.856   1.398
  203SOL    HW1  953   1.383   0.908   1.335
  203SOL    HW2  954   1.536   0.868   1.374
  204SOL     OW  955   0.072   0.166   0.318
  204SOL    HW1  956   0.055   0.249   0.264
  204SOL    HW2  957   0.162   0.129   0.296
  205SOL     OW  958   1.183   1.335   0.119
  205SOL    HW1  959   1.084   1.324   0.121
  205SOL    HW2  960   1.217   1.350   0.212
  206SOL     OW  961   0.613   0.842   1.431
  206SOL    HW1  962   0.669   0.923   1.414
  206SOL    HW2  963   0.672   0.762   1.434
  207SOL     OW  964   1.493   1.767   0.959
  207SOL    HW1  965   1.526   1.831   0.890
  207SOL    HW2  966   1.559   1.761   1.034
  208SOL     OW  967   0.716   0.565   1.708
  208SOL    HW1  968   0.735   0.630   1.782
  208SOL    HW2  969   0.776   0.485   1.717
  209SOL     OW  970   1.450   1.220   1.633
  209SOL    HW1  971   1.441   1.210   1.732
  209SOL    HW2  972   1.546   1.213   1.607
  210SOL     OW  973   0.390   1.741   1.560
  210SOL    HW1  974   0.299   1.782   1.558
  210SOL    HW2  975   0.383   1.647   1.592
  211SOL     OW  976   1.674   0.883   1.254
  211SOL    HW1  977   1.647   0.794   1.217
  211SOL    HW2  978   1.675   0.951   1.181
  212SOL     OW  979   1.225   0.325   0.449
  212SOL    HW1  980   1.290   0.251   0.438
  212SOL    HW2  981   1.245   0.375   0.533
  213SOL     OW  982   0.594   0.745   0.652
  213SOL    HW1  983   0.644   0.830   0.633
  213SOL    HW2  984   0.506   0.747   0.604
  214SOL     OW  985   1.777   0.342   1.642
  214SOL    HW1  986   1.760   0.373   1.548
  214SOL    HW2  987   1.693   0.305   1.680
  215SOL     OW  988   1.730   0.934   1.517
  215SOL    HW1  989   1.768   1.025   1.532
  215SOL    HW2  990   1.722   0.917   1.418
  216SOL     OW  991   0.859   1.374   0.016
  216SOL    HW1  992   0.813   1.389   0.104
  216SOL    HW2  993   0.903   1.459  -0.014
  217SOL     OW  994   0.661   1.790   0.953
  217SOL    HW1  995   0.615   1.878   0.940
  217SOL    HW2  996   0.760   1.802   0.946
  218SOL     OW  997   0.859   0.956   0.861
  218SOL    HW1  998   0.913   0.887   0.909
  218SOL    HW2  999   0.827   1.025   0.927
  219SOL     OW 1000   1.083   0.984   0.087
  219SOL    HW1 1001   1.060   1.037   0.005
  219SOL    HW2 1002   1.164   0.928   0.068
  220SOL     OW 1003   1.861   1.569   0.851
  220SOL    HW1 1004   1.790   1.557   0.781
  220SOL    HW2 1005   1.862   1.490   0.911
  221SOL     OW 1006   0.221   1.314   1.844
  221SOL    HW1 1007   0.156   1.241   1.823
  221SOL    HW2 1008   0.225   1.328   1.942
  222SOL     OW 1009   0.079   1.240   0.653
  222SOL    HW1 1010   0.078   1.193   0.741
  222SOL    HW2 1011   0.161   1.212   0.602
  223SOL     OW 1012   0.672   1.391   1.624
  223SOL    HW1 1013   0.594   1.341   1.662
  223SOL    HW2 1014   0.669   1.486   1.655
  224SOL     OW 1015   1.824   0.192   1.227
  224SOL    HW1 1016   1.820   0.102   1.271
  224SOL    HW2 1017   1.827   0.181   1.128
  225SOL     OW 1018   0.428   0.424   0.520
  225SOL    HW1 1019   0.458   0.352   0.458
  225SOL    HW2 1020   0.389   0.384   0.603
  226SOL     OW 1021   1.705   1.487   1.104
  226SOL    HW1 1022   1.612   1.462   1.077
  226SOL    HW2 1023   1.731   1.437   1.186
  227SOL     OW 1024   0.317   0.547   1.280
  227SOL    HW1 1025   0.355   0.488   1.352
  227SOL    HW2 1026   0.357   0.521   1.192
  228SOL     OW 1027   0.812   1.586   0.687
  228SOL    HW1 1028   0.844   1.596   0.593
  228SOL    HW2 1029   0.733   1.524   0.689
  229SOL     OW 1030   1.424   0.214   1.112
  229SOL    HW1 1031   1.476   0.149   1.167
  229SOL    HW2 1032   1.375   0.277   1.173
  230SOL     OW 1033   1.001   0.034   1.154
  230SOL    HW1 1034   0.938  -0.038   1.123
  230SOL    HW2 1035   1.094  -0.002   1.154
  231SOL     OW 1036   0.770   1.330   0.301
  231SOL    HW1 1037   0.724   1.243   0.318
  231SOL    HW2 1038   0.861   1.327   0.342
  232SOL     OW 1039   0.618   1.567   1.284
  232SOL    HW1 1040   0.613   1.649   1.341
  232SOL    HW2 1041   0.707   1.564   1.239
  233SOL     OW 1042   1.352   0.052   0.168
  233SOL    HW1 1043   1.387   0.011   0.084
  233SOL    HW2 1044   1.262   0.014   0.188
  234SOL     OW 1045   1.300   0.453   0.691
  234SOL    HW1 1046   1.241   0.533   0.695
  234SOL    HW2 1047   1.315   0.418   0.784
  235SOL     OW 1048   1.593   0.221   0.882
  235SOL    HW1 1049   1.509   0.220   0.936
  235SOL    HW2 1050   1.595   0.304   0.826
  236SOL     OW 1051   0.039   1.077   0.300
  236SOL    HW1 1052   0.138   1.066   0.291
  236SOL    HW2 1053  -0.001   0.991   0.332
  237SOL     OW 1054   0.875   1.646   0.337
  237SOL    HW1 1055   0.798   1.611   0.283
  237SOL    HW2 1056   0.843   1.717   0.399
  238SOL     OW 1057   0.230   0.628   1.975
  238SOL    HW1 1058   0.137   0.626   2.012
  238SOL    HW2 1059   0.231   0.589   1.883
  239SOL     OW 1060   0.225   0.275   2.858
  239SOL    HW1 1061   0.260   0.258   2.950
  239SOL    HW2 1062   0.137   0.230   2.846
  240SOL     OW 1063   0.019   0.368   2.509
  240SOL    HW1 1064  -0.063   0.411   2.548
  240SOL    HW2 1065  -0.009   0.295   2.446
  241SOL     OW 1066   0.569   1.275   3.027
  241SOL    HW1 1067   0.476   1.268   2.990
  241SOL    HW2 1068   0.580   1.364   3.071
  242SOL     OW 1069   1.555   1.511   2.565
  242SOL    HW1 1070   1.498   1.495   2.646
  242SOL    HW2 1071   1.496   1.521   2.485
  243SOL     OW 1072   1.135   0.703   2.579
  243SOL    HW1 1073   1.192   0.781   2.554
  243SOL    HW2 1074   1.075   0.729   2.655
  244SOL     OW 1075   1.755   0.607   2.093
  244SOL    HW1 1076   1.743   0.594   1.994
  244SOL    HW2 1077   1.725   0.526   2.142
  245SOL     OW 1078   0.768   1.144   2.885
  245SOL    HW1 1079   0.690   1.161   2.945
  245SOL    HW2 1080   0.802   1.231   2.849
  246SOL     OW 1081   0.850   0.798   3.685
  246SOL    HW1 1082   0.846   0.874   3.750
  246SOL    HW2 1083   0.872   0.834   3.594
  247SOL     OW 1084   0.685   1.012   2.527
  247SOL    HW1 1085   0.754   0.996   2.597
  247SOL    HW2 1086   0.612   1.069   2.565
  248SOL     OW 1087   0.686   1.161   3.665
  248SOL    HW1 1088   0.746   1.240   3.679
  248SOL    HW2 1089   0.600   1.192   3.624
  249SOL     OW 1090   0.335   1.435   2.923
  249SOL    HW1 1091   0.257   1.404   2.870
  249SOL    HW2 1092   0.393   1.493   2.866
  250SOL     OW 1093   1.460   1.505   3.201
  250SOL    HW1 1094   1.484   1.599   3.227
  250SOL    HW2 1095   1.444   1.451   3.283
  251SOL     OW 1096   0.438   0.392   3.361
  251SOL    HW1 1097   0.520   0.336   3.370
  251SOL    HW2 1098   0.357   0.334   3.365
  252SOL     OW 1099   1.603   0.447   2.599
  252SOL    HW1 1100   1.529   0.493   2.549
  252SOL    HW2 1101   1.654   0.515   2.652
  253SOL     OW 1102   0.231   1.713   2.345
  253SOL    HW1 1103   0.265   1.790   2.399
  253SOL    HW2 1104   0.275   1.713   2.255
  254SOL     OW 1105   1.127   1.341   3.552
  254SOL    HW1 1106   1.174   1.341   3.640
  254SOL    HW2 1107   1.079   1.254   3.541
  255SOL     OW 1108   0.230   1.434   2.400
  255SOL    HW1 1109   0.204   1.530   2.400
  255SOL    HW2 1110   0.159   1.380   2.445
  256SOL     OW 1111   0.240   1.091   2.748
  256SOL    HW1 1112   0.254   1.007   2.800
  256SOL    HW2 1113   0.185   1.155   2.803
  257SOL     OW 1114   0.620   1.786   3.301
  257SOL    HW1 1115   0.528   1.769   3.336
  257SOL    HW2 1116   0.648   1.878   3.327
  258SOL     OW 1117   0.606   0.964   1.985
  258SOL    HW1 1118   0.613   1.048   1.931
  258SOL    HW2 1119   0.652   0.977   2.073
  259SOL     OW 1120   1.594   0.114   3.342
  259SOL    HW1 1121   1.576   0.181   3.270
  259SOL    HW2 1122   1.591   0.160   3.431
  260SOL     OW 1123   0.122   0.643   2.425
  260SOL    HW1 1124   0.077   0.555   2.442
  260SOL    HW2 1125   0.121   0.697   2.509
  261SOL     OW 1126   1.842   1.767   2.221
  261SOL    HW1 1127   1.896   1.738   2.301
  261SOL    HW2 1128   1.872   1.857   2.192
  262SOL     OW 1129   0.027   1.596   1.979
  262SOL    HW1 1130   0.008   1.500   2.000
  262SOL    HW2 1131  -0.006   1.654   2.054
  263SOL     OW 1132   1.689   0.922   2.474
  263SOL    HW1 1133   1.784   0.893   2.482
  263SOL    HW2 1134   1.681   0.987   2.399
  264SOL     OW 1135   1.641   1.108   2.294
  264SOL    HW1 1136   1.727   1.110   2.242
  264SOL    HW2 1137   1.655   1.155   2.382
  265SOL     OW 1138   0.113   0.737   3.459
  265SOL    HW1 1139   0.201   0.724   3.504
  265SOL    HW2 1140   0.100   0.834   3.437
  266SOL     OW 1141   0.613   1.365   2.588
  266SOL    HW1 1142   0.564   1.278   2.597
  266SOL    HW2 1143   0.590   1.408   2.501
  267SOL     OW 1144   1.293   1.228   3.285
  267SOL    HW1 1145   1.330   1.155   3.227
  267SOL    HW2 1146   1.345   1.233   3.370
  268SOL     OW 1147   0.809   0.004   2.364
  268SOL    HW1 1148   0.849   0.095   2.355
  268SOL    HW2 1149   0.709   0.012   2.370
  269SOL     OW 1150   0.197   0.976   3.126
  269SOL    HW1 1151   0.286   0.931   3.112
  269SOL    HW2 1152   0.124   0.911   3.107
  270SOL     OW 1153   1.525   0.999   2.052
  270SOL    HW1 1154   1.462   0.923   2.065
  270SOL    HW2 1155   1.573   1.017   2.138
  271SOL     OW 1156   1.187   1.792   3.478
  271SOL    HW1 1157   1.211   1.852   3.402
  271SOL    HW2 1158   1.194   1.697   3.448
  272SOL     OW 1159   0.317   0.251   3.663
  272SOL    HW1 1160   0.388   0.322   3.669
  272SOL    HW2 1161   0.229   0.290   3.691
  273SOL     OW 1162   1.466   1.417   2.815
  273SOL    HW1 1163   1.407   1.423   2.895
  273SOL    HW2 1164   1.451   1.329   2.769
  274SOL     OW 1165   1.667   1.714   2.434
  274SOL    HW1 1166   1.626   1.691   2.346
  274SOL    HW2 1167   1.649   1.640   2.499
  275SOL     OW 1168   0.598   0.729   2.132
  275SOL    HW1 1169   0.622   0.798   2.064
  275SOL    HW2 1170   0.520   0.762   2.186
  276SOL     OW 1171   1.281   0.345   2.806
  276SOL    HW1 1172   1.195   0.295   2.793
  276SOL    HW2 1173   1.343   0.291   2.862
  277SOL     OW 1174   1.576   1.662   2.169
  277SOL    HW1 1175   1.665   1.708   2.172
  277SOL    HW2 1176   1.555   1.638   2.074
  278SOL     OW 1177   0.807   0.605   3.327
  278SOL    HW1 1178   0.760   0.602   3.416
  278SOL    HW2 1179   0.756   0.550   3.261
  279SOL     OW 1180   1.394   0.469   3.536
  279SOL    HW1 1181   1.374   0.512   3.624
  279SOL    HW2 1182   1.472   0.407   3.545
  280SOL     OW 1183   0.973   0.890   3.434
  280SOL    HW1 1184   1.019   0.806   3.405
  280SOL    HW2 1185   0.917   0.924   3.359
  281SOL     OW 1186   0.991   0.410   3.104
  281SOL    HW1 1187   0.914   0.444   3.158
  281SOL    HW2 1188   0.957   0.359   3.025
  282SOL     OW 1189   1.041   0.701   2.291
  282SOL    HW1 1190   1.067   0.697   2.387
  282SOL    HW2 1191   0.956   0.650   2.277
  283SOL     OW 1192   0.076   0.811   2.651
  283SOL    HW1 1193   0.175   0.799   2.660
  283SOL    HW2 1194   0.052   0.906   2.672
  284SOL     OW 1195   0.130   1.821   3.433
  284SOL    HW1 1196   0.120   1.806   3.532
  284SOL    HW2 1197   0.044   1.857   3.397
  285SOL     OW 1198   0.865   0.348   2.057
  285SOL    HW1 1199   0.924   0.411   2.008
  285SOL    HW2 1200   0.884   0.254   2.028
  286SOL     OW 1201   1.719   0.585   3.693
  286SOL    HW1 1202   1.693   0.674   3.657
  286SOL    HW2 1203   1.717   0.517   3.620
  287SOL     OW 1204   1.362   1.144   2.407
  287SOL    HW1 1205   1.445   1.115   2.359
  287SOL    HW2 1206   1.313   1.211   2.351
  288SOL     OW 1207   0.550   0.196   2.747
  288SOL    HW1 1208   0.545   0.191   2.847
  288SOL    HW2 1209   0.552   0.292   2.718
  289SOL     OW 1210   1.008   1.456   2.339
  289SOL    HW1 1211   0.962   1.528   2.287
  289SOL    HW2 1212   1.004   1.476   2.437
  290SOL     OW 1213   0.351   1.801   2.715
  290SOL    HW1 1214   0.401   1.715   2.721
  290SOL    HW2 1215   0.416   1.878   2.712
  291SOL     OW 1216   1.795   1.066   2.735
  291SOL    HW1 1217   1.733   1.051   2.659
  291SOL    HW2 1218   1.743   1.077   2.820
  292SOL     OW 1219   1.227   1.550   3.368
  292SOL    HW1 1220   1.233   1.473   3.432
  292SOL    HW2 1221   1.175   1.524   3.288
  293SOL     OW 1222   0.321   0.943   2.104
  293SOL    HW1 1223   0.403   0.982   2.062
  293SOL    HW2 1224   0.294   0.861   2.055
  294SOL     OW 1225   1.458   0.735   2.590
  294SOL    HW1 1226   1.453   0.670   2.665
  294SOL    HW2 1227   1.538   0.794   2.603
  295SOL     OW 1228   0.461   1.266   3.589
  295SOL    HW1 1229   0.411   1.267   3.503
  295SOL    HW2 1230   0.398   1.248   3.665
  296SOL     OW 1231   1.111   1.776   2.099
  296SOL    HW1 1232   1.051   1.714   2.149
  296SOL    HW2 1233   1.142   1.732   2.014
  297SOL     OW 1234   0.202   0.285   3.360
  297SOL    HW1 1235   0.122   0.345   3.347
  297SOL    HW2 1236   0.192   0.236   3.446
  298SOL     OW 1237   1.632   1.377   1.943
  298SOL    HW1 1238   1.600   1.471   1.933
  298SOL    HW2 1239   1.556   1.314   1.931
  299SOL     OW 1240   0.464   1.743   2.185
  299SOL    HW1 1241   0.497   1.782   2.271
  299SOL    HW2 1242   0.540   1.736   2.120
  300SOL     OW 1243   1.400   0.107   2.288
  300SOL    HW1 1244   1.376   0.070   2.198
  300SOL    HW2 1245   1.499   0.123   2.292
  301SOL     OW 1246   0.249   1.785   3.103
  301SOL    HW1 1247   0.306   1.720   3.153
  301SOL    HW2 1248   0.233   1.752   3.010
  302SOL     OW 1249   0.940   1.698   2.766
  302SOL    HW1 1250   1.020   1.641   2.787
  302SOL    HW2 1251   0.891   1.658   2.689
  303SOL     OW 1252   0.382   0.700   2.342
  303SOL    HW1 1253   0.427   0.610   2.339
  303SOL    HW2 1254   0.288   0.689   2.375
  304SOL     OW 1255   1.547   0.222   3.591
  304SOL    HW1 1256   1.542   0.259   3.683
  304SOL    HW2 1257   1.475   0.153   3.579
  305SOL     OW 1258   0.614   0.122   1.979
  305SOL    HW1 1259   0.712   0.100   1.986
  305SOL    HW2 1260   0.583   0.105   1.886
  306SOL     OW 1261   0.781   0.264   3.611
  306SOL    HW1 1262   0.848   0.203   3.654
  306SOL    HW2 1263   0.708   0.283   3.676
  307SOL     OW 1264   0.888   1.514   3.057
  307SOL    HW1 1265   0.865   1.489   2.963
  307SOL    HW2 1266   0.949   1.445   3.096
  308SOL     OW 1267   1.351   0.590   3.295
  308SOL    HW1 1268   1.379   0.547   3.380
  308SOL    HW2 1269   1.376   0.686   3.296
  309SOL     OW 1270   0.803   1.402   2.786
  309SOL    HW1 1271   0.893   1.416   2.744
  309SOL    HW2 1272   0.732   1.404   2.715
  310SOL     OW 1273   0.922   0.503   2.761
  310SOL    HW1 1274   0.897   0.494   2.665
  310SOL    HW2 1275   0.970   0.421   2.792
  311SOL     OW 1276   0.539   0.064   2.374
  311SOL    HW1 1277   0.458   0.065   2.432
  311SOL    HW2 1278   0.542   0.147   2.319
  312SOL     OW 1279   1.434   1.188   1.903
  312SOL    HW1 1280   1.466   1.112   1.960
  312SOL    HW2 1281   1.342   1.215   1.933
  313SOL     OW 1282   0.297   0.035   2.033
  313SOL    HW1 1283   0.346   0.119   2.012
  313SOL    HW2 1284   0.359  -0.030   2.078
  314SOL     OW 1285   0.935   0.236   2.342
  314SOL    HW1 1286   0.887   0.277   2.264
  314SOL    HW2 1287   1.034   0.234   2.323
  315SOL     OW 1288   1.076   0.683   3.326
  315SOL    HW1 1289   0.996   0.622   3.329
  315SOL    HW2 1290   1.157   0.630   3.302
  316SOL     OW 1291   1.227   1.570   2.655
  316SOL    HW1 1292   1.248   1.644   2.590
  316SOL    HW2 1293   1.295   1.570   2.728
  317SOL     OW 1294   0.459   1.152   2.603
  317SOL    HW1 1295   0.388   1.125   2.668
  317SOL    HW2 1296   0.433   1.124   2.510
  318SOL     OW 1297   1.271   1.797   2.453
  318SOL    HW1 1298   1.315   1.861   2.389
  318SOL    HW2 1299   1.221   1.849   2.523
  319SOL     OW 1300   1.032   0.549   1.878
  319SOL    HW1 1301   0.991   0.631   1.839
  319SOL    HW2 1302   1.096   0.575   1.951
  320SOL     OW 1303   0.078   0.556   3.248
  320SOL    HW1 1304   0.170   0.555   3.207
  320SOL    HW2 1305   0.072   0.630   3.315
  321SOL     OW 1306   0.561   0.222   3.009
  321SOL    HW1 1307   0.599   0.138   3.046
  321SOL    HW2 1308   0.473   0.241   3.053
  322SOL     OW 1309   0.866   0.454   2.504
  322SOL    HW1 1310   0.834   0.526   2.442
  322SOL    HW2 1311   0.890   0.373   2.451
  323SOL     OW 1312   1.017   0.039   2.615
  323SOL    HW1 1313   0.945   0.044   2.546
  323SOL    HW2 1314   0.993  -0.030   2.684
  324SOL     OW 1315   1.429   1.173   2.729
  324SOL    HW1 1316   1.374   1.089   2.722
  324SOL    HW2 1317   1.455   1.202   2.637
  325SOL     OW 1318   1.466   0.590   2.854
  325SOL    HW1 1319   1.436   0.495   2.861
  325SOL    HW2 1320   1.539   0.606   2.920
  326SOL     OW 1321   1.857   0.833   2.239
  326SOL    HW1 1322   1.899   0.769   2.303
  326SOL    HW2 1323   1.819   0.782   2.161
  327SOL     OW 1324   0.488   1.385   2.036
  327SOL    HW1 1325   0.401   1.370   2.083
  327SOL    HW2 1326   0.471   1.411   1.941
  328SOL     OW 1327   1.664   1.280   2.519
  328SOL    HW1 1328   1.763   1.288   2.533
  328SOL    HW2 1329   1.619   1.364   2.550
  329SOL     OW 1330   1.390   0.575   1.940
  329SOL    HW1 1331   1.336   0.554   2.021
  329SOL    HW2 1332   1.481   0.534   1.949
  330SOL     OW 1333   0.527   0.256   2.190
  330SOL    HW1 1334   0.554   0.197   2.115
  330SOL    HW2 1335   0.527   0.351   2.159
  331SOL     OW 1336   1.754   1.223   3.450
  331SOL    HW1 1337   1.845   1.184   3.437
  331SOL    HW2 1338   1.762   1.319   3.474
  332SOL     OW 1339   1.064   1.347   3.202
  332SOL    HW1 1340   0.984   1.324   3.257
  332SOL    HW2 1341   1.147   1.321   3.251
  333SOL     OW 1342   1.592   1.629   3.487
  333SOL    HW1 1343   1.619   1.663   3.397
  333SOL    HW2 1344   1.671   1.591   3.533
  334SOL     OW 1345   1.111   1.195   2.962
  334SOL    HW1 1346   1.071   1.239   3.043
  334SOL    HW2 1347   1.070   1.232   2.879
  335SOL     OW 1348   1.638   1.099   2.941
  335SOL    HW1 1349   1.643   1.180   3.000
  335SOL    HW2 1350   1.552   1.101   2.890
  336SOL     OW 1351   0.915   0.089   3.264
  336SOL    HW1 1352   0.940   0.069   3.169
  336SOL    HW2 1353   0.987   0.145   3.306
  337SOL     OW 1354   0.980   1.116   3.581
  337SOL    HW1 1355   0.881   1.122   3.591
  337SOL    HW2 1356   1.003   1.036   3.525
  338SOL     OW 1357   0.705   1.050   2.230
  338SOL    HW1 1358   0.691   1.057   2.329
  338SOL    HW2 1359   0.789   0.999   2.212
  339SOL     OW 1360   0.410   0.813   3.113
  339SOL    HW1 1361   0.496   0.825   3.163
  339SOL    HW2 1362   0.368   0.726   3.140
  340SOL     OW 1363   1.274   0.386   3.124
  340SOL    HW1 1364   1.295   0.460   3.188
  340SOL    HW2 1365   1.185   0.403   3.081
  341SOL     OW 1366   0.064   1.564   3.193
  341SOL    HW1 1367   0.018   1.646   3.159
  341SOL    HW2 1368   0.162   1.583   3.202
  342SOL     OW 1369   0.367   1.100   2.363
  342SOL    HW1 1370   0.360   1.183   2.307
  342SOL    HW2 1371   0.371   1.020   2.303
  343SOL     OW 1372   0.566   0.537   2.727
  343SOL    HW1 1373   0.578   0.603   2.653
  343SOL    HW2 1374   0.612   0.571   2.810
  344SOL     OW 1375   1.252   1.348   2.250
  344SOL    HW1 1376   1.302   1.425   2.290
  344SOL    HW2 1377   1.157   1.350   2.282
  345SOL     OW 1378   1.272   1.445   3.004
  345SOL    HW1 1379   1.319   1.458   3.091
  345SOL    HW2 1380   1.206   1.371   3.013
  346SOL     OW 1381   1.582   0.639   2.334
  346SOL    HW1 1382   1.551   0.700   2.407
  346SOL    HW2 1383   1.632   0.691   2.265
  347SOL     OW 1384   0.354   1.510   3.191
  347SOL    HW1 1385   0.333   1.466   3.104
  347SOL    HW2 1386   0.451   1.536   3.194
  348SOL     OW 1387   0.402   0.751   3.460
  348SOL    HW1 1388   0.470   0.806   3.413
  348SOL    HW2 1389   0.442   0.663   3.487
  349SOL     OW 1390   1.587   0.779   3.532
  349SOL    HW1 1391   1.495   0.817   3.527
  349SOL    HW2 1392   1.647   0.826   3.467
  350SOL     OW 1393   1.013   0.105   3.632
  350SOL    HW1 1394   1.019   0.190   3.580
  350SOL    HW2 1395   1.045   0.029   3.575
  351SOL     OW 1396   0.504   0.050   3.602
  351SOL    HW1 1397   0.462  -0.007   3.532
  351SOL    HW2 1398   0.438   0.119   3.634
  352SOL     OW 1399   0.573   0.870   2.891
  352SOL    HW1 1400   0.617   0.959   2.882
  352SOL    HW2 1401   0.510   0.870   2.968
  353SOL     OW 1402   1.360   0.862   2.907
  353SOL    HW1 1403   1.285   0.862   2.841
  353SOL    HW2 1404   1.397   0.770   2.916
  354SOL     OW 1405   1.209   0.525   2.137
  354SOL    HW1 1406   1.222   0.441   2.191
  354SOL    HW2 1407   1.180   0.599   2.197
  355SOL     OW 1408   0.307   0.213   3.093
  355SOL    HW1 1409   0.284   0.250   3.183
  355SOL    HW2 1410   0.277   0.118   3.087
  356SOL     OW 1411   0.037   1.310   3.144
  356SOL    HW1 1412   0.090   1.261   3.212
  356SOL    HW2 1413   0.059   1.408   3.149
  357SOL     OW 1414   0.732   0.634   2.926
  357SOL    HW1 1415   0.791   0.608   2.850
  357SOL    HW2 1416   0.704   0.730   2.915
  358SOL     OW 1417   1.728   0.935   3.716
  358SOL    HW1 1418   1.682   0.928   3.627
  358SOL    HW2 1419   1.666   0.979   3.782
  359SOL     OW 1420   0.307   0.063   2.480
  359SOL    HW1 1421   0.296   0.157   2.513
  359SOL    HW2 1422   0.302   0.000   2.557
  360SOL     OW 1423   1.622   0.367   2.236
  360SOL    HW1 1424   1.624   0.291   2.300
  360SOL    HW2 1425   1.574   0.444   2.276
  361SOL     OW 1426   1.023   0.766   2.828
  361SOL    HW1 1427   1.038   0.787   2.924
  361SOL    HW2 1428   0.993   0.671   2.819
  362SOL     OW 1429   0.980   1.573   3.562
  362SOL    HW1 1430   0.960   1.617   3.474
  362SOL    HW2 1431   1.019   1.482   3.546
  363SOL     OW 1432   1.859   1.518   3.467
  363SOL    HW1 1433   1.873   1.545   3.372
  363SOL    HW2 1434   1.942   1.540   3.520
  364SOL     OW 1435   0.350   0.898   3.666
  364SOL    HW1 1436   0.426   0.942   3.714
  364SOL    HW2 1437   0.385   0.851   3.584
  365SOL     OW 1438   1.540   0.274   1.987
  365SOL    HW1 1439   1.479   0.199   2.010
  365SOL    HW2 1440   1.562   0.326   2.070
  366SOL     OW 1441   1.303   0.838   1.904
  366SOL    HW1 1442   1.337   0.745   1.919
  366SOL    HW2 1443   1.321   0.865   1.809
  367SOL     OW 1444   1.068   1.333   2.711
  367SOL    HW1 1445   1.075   1.249   2.656
  367SOL    HW2 1446   1.130   1.402   2.675
  368SOL     OW 1447   0.319   0.810   2.811
  368SOL    HW1 1448   0.412   0.846   2.816
  368SOL    HW2 1449   0.313   0.725   2.863
  369SOL     OW 1450   0.339   0.509   2.868
  369SOL    HW1 1451   0.287   0.426   2.851
  369SOL    HW2 1452   0.416   0.514   2.804
  370SOL     OW 1453   1.138   0.380   3.540
  370SOL    HW1 1454   1.093   0.443   3.604
  370SOL    HW2 1455   1.231   0.411   3.523
  371SOL     OW 1456   1.160   0.207   3.339
  371SOL    HW1 1457   1.160   0.271   3.416
  371SOL    HW2 1458   1.188   0.255   3.256
  372SOL     OW 1459   0.008   1.326   2.062
  372SOL    HW1 1460  -0.085   1.347   2.031
  372SOL    HW2 1461   0.018   1.227   2.075
  373SOL     OW 1462   0.088   1.801   2.789
  373SOL    HW1 1463   0.046   1.715   2.762
  373SOL    HW2 1464   0.182   1.804   2.755
  374SOL     OW 1465   0.504   1.568   2.772
  374SOL    HW1 1466   0.570   1.642   2.781
  374SOL    HW2 1467   0.548   1.489   2.730
  375SOL     OW 1468   1.002   0.796   3.100
  375SOL    HW1 1469   1.043   0.764   3.186
  375SOL    HW2 1470   0.906   0.769   3.097
  376SOL     OW 1471   0.040   0.544   2.976
  376SOL    HW1 1472   0.125   0.511   2.935
  376SOL    HW2 1473   0.053   0.559   3.074
  377SOL     OW 1474   0.189   0.520   3.584
  377SOL    HW1 1475   0.248   0.480   3.514
  377SOL    HW2 1476   0.131   0.591   3.543
  378SOL     OW 1477   1.369   0.950   3.522
  378SOL    HW1 1478   1.408   1.039   3.542
  378SOL    HW2 1479   1.379   0.930   3.425
  379SOL     OW 1480   0.815   0.572   2.187
  379SOL    HW1 1481   0.822   0.483   2.141
  379SOL    HW2 1482   0.721   0.606   2.179
  380SOL     OW 1483   1.657   0.604   3.068
  380SOL    HW1 1484   1.619   0.535   3.130
  380SOL    HW2 1485   1.739   0.568   3.024
  381SOL     OW 1486   0.252   1.564   3.606
  381SOL    HW1 1487   0.222   1.621   3.682
  381SOL    HW2 1488   0.245   1.467   3.632
  382SOL     OW 1489   0.671   0.464   3.131
  382SOL    HW1 1490   0.637   0.375   3.101
  382SOL    HW2 1491   0.697   0.518   3.051
  383SOL     OW 1492   0.930   1.678   3.327
  383SOL    HW1 1493   0.906   1.660   3.232
  383SOL    HW2 1494   0.960   1.772   3.337
  384SOL     OW 1495   0.473   0.500   2.053
  384SOL    HW1 1496   0.534   0.580   2.057
  384SOL    HW2 1497   0.378   0.531   2.060
  385SOL     OW 1498   0.159   1.137   3.328
  385SOL    HW1 1499   0.181   1.076   3.404
  385SOL    HW2 1500   0.169   1.088   3.242
  386SOL     OW 1501   1.347   1.059   3.096
  386SOL    HW1 1502   1.371   0.996   3.022
  386SOL    HW2 1503   1.257   1.099   3.078
  387SOL     OW 1504   1.302   0.855   2.171
  387SOL    HW1 1505   1.216   0.824   2.213
  387SOL    HW2 1506   1.298   0.841   2.072
  388SOL     OW 1507   1.759   1.747   3.016
  388SOL    HW1 1508   1.820   1.777   2.943
  388SOL    HW2 1509   1.721   1.658   2.994
  389SOL     OW 1510   1.252   1.731   2.990
  389SOL    HW1 1511   1.336   1.736   2.936
  389SOL    HW2 1512   1.229   1.635   3.008
  390SOL     OW 1513   0.083   1.258   2.884
  390SOL    HW1 1514   0.078   1.257   2.984
  390SOL    HW2 1515   0.000   1.217   2.846
  391SOL     OW 1516   0.688   1.662   3.578
  391SOL    HW1 1517   0.632   1.743   3.587
  391SOL    HW2 1518   0.740   1.666   3.492
  392SOL     OW 1519   1.726   0.135   2.385
  392SOL    HW1 1520   1.799   0.118   2.318
  392SOL    HW2 1521   1.695   0.048   2.423
  393SOL     OW 1522   1.388   1.573   2.339
  393SOL    HW1 1523   1.455   1.585   2.265
  393SOL    HW2 1524   1.348   1.662   2.362
  394SOL     OW 1525   0.130   1.794   3.713
  394SOL    HW1 1526   0.089   1.720   3.766
  394SOL    HW2 1527   0.194   1.845   3.771
  395SOL     OW 1528   1.280   0.927   2.534
  395SOL    HW1 1529   1.340   0.846   2.536
  395SOL    HW2 1530   1.320   0.996   2.474
  396SOL     OW 1531   0.830   1.273   3.284
  396SOL    HW1 1532   0.825   1.306   3.379
  396SOL    HW2 1533   0.744   1.292   3.238
  397SOL     OW 1534   0.672   1.616   2.016
  397SOL    HW1 1535   0.681   1.626   1.917
  397SOL    HW2 1536   0.632   1.527   2.037
  398SOL     OW 1537   1.650   1.720   3.256
  398SOL    HW1 1538   1.703   1.730   3.172
  398SOL    HW2 1539   1.623   1.810   3.290
  399SOL     OW 1540   1.841   0.175   2.825
  399SOL    HW1 1541   1.880   0.090   2.789
  399SOL    HW2 1542   1.743   0.177   2.806
  400SOL     OW 1543   0.263   0.326   2.582
  400SOL    HW1 1544   0.184   0.377   2.548
  400SOL    HW2 1545   0.254   0.311   2.680
  401SOL     OW 1546   1.194   1.612   1.893
  401SOL    HW1 1547   1.200   1.519   1.930
  401SOL    HW2 1548   1.135   1.612   1.813
  402SOL     OW 1549   0.822   1.002   3.234
  402SOL    HW1 1550   0.862   1.001   3.142
  402SOL    HW2 1551   0.832   1.094   3.274
  403SOL     OW 1552   0.916   0.910   2.153
  403SOL    HW1 1553   0.979   0.948   2.085
  403SOL    HW2 1554   0.956   0.827   2.192
  404SOL     OW 1555   1.504   1.607   1.906
  404SOL    HW1 1556   1.412   1.644   1.913
  404SOL    HW2 1557   1.542   1.627   1.816
  405SOL     OW 1558   0.372   1.288   3.352
  405SOL    HW1 1559   0.359   1.381   3.318
  405SOL    HW2 1560   0.288   1.236   3.339
  406SOL     OW 1561   1.614   1.292   3.151
  406SOL    HW1 1562   1.674   1.295   3.231
  406SOL    HW2 1563   1.539   1.356   3.164
  407SOL     OW 1564   1.039   1.098   2.558
  407SOL    HW1 1565   0.969   1.051   2.612
  407SOL    HW2 1566   1.098   1.030   2.515
  408SOL     OW 1567   1.014   0.236   2.833
  408SOL    HW1 1568   1.006   0.200   2.740
  408SOL    HW2 1569   1.012   0.160   2.898
  409SOL     OW 1570   0.590   1.487   2.353
  409SOL    HW1 1571   0.632   1.429   2.283
  409SOL    HW2 1572   0.546   1.566   2.309
  410SOL     OW 1573   1.709   0.385   3.243
  410SOL    HW1 1574   1.782   0.454   3.247
  410SOL    HW2 1575   1.737   0.310   3.184
  411SOL     OW 1576   0.255   1.348   2.152
  411SOL    HW1 1577   0.159   1.349   2.125
  411SOL    HW2 1578   0.267   1.401   2.236
  412SOL     OW 1579   0.105   1.013   3.588
  412SOL    HW1 1580   0.028   0.980   3.642
  412SOL    HW2 1581   0.190   0.983   3.630
  413SOL     OW 1582   0.672   0.203   3.351
  413SOL    HW1 1583   0.762   0.187   3.311
  413SOL    HW2 1584   0.680   0.208   3.450
  414SOL     OW 1585   0.075   0.345   1.895
  414SOL    HW1 1586  -0.017   0.317   1.866
  414SOL    HW2 1587   0.106   0.422   1.839
  415SOL     OW 1588   1.440   0.856   3.260
  415SOL    HW1 1589   1.383   0.908   3.197
  415SOL    HW2 1590   1.536   0.868   3.236
  416SOL     OW 1591   0.072   0.166   2.180
  416SOL    HW1 1592   0.055   0.249   2.126
  416SOL    HW2 1593   0.162   0.129   2.158
  417SOL     OW 1594   1.183   1.335   1.981
  417SOL    HW1 1595   1.084   1.324   1.983
  417SOL    HW2 1596   1.217   1.350   2.074
  418SOL     OW 1597   0.613   0.842   3.293
  418SOL    HW1 1598   0.669   0.923   3.276
  418SOL    HW2 1599   0.672   0.762   3.296
  419SOL     OW 1600   1.493   1.767   2.821
  419SOL    HW1 1601   1.526   1.831   2.752
  419SOL    HW2 1602   1.559   1.761   2.896
  420SOL     OW 1603   0.716   0.565   3.570
  420SOL    HW1 1604   0.735   0.630   3.644
  420SOL    HW2 1605   0.776   0.485   3.579
  421SOL     OW 1606   1.450   1.220   3.495
  421SOL    HW1 1607   1.441   1.210   3.594
  421SOL    HW2 1608   1.546   1.213   3.469
  422SOL     OW 1609   0.390   1.741   3.422
  422SOL    HW1 1610   0.299   1.782   3.420
  422SOL    HW2 1611   0.383   1.647   3.454
  423SOL     OW 1612   1.674   0.883   3.116
  423SOL    HW1 1613   1.647   0.794   3.079
  423SOL    HW2 1614   1.675   0.951   3.043
  424SOL     OW 1615   1.225   0.325   2.311
  424SOL    HW1 1616   1.290   0.251   2.300
  424SOL    HW2 1617   1.245   0.375   2.395
  425SOL     OW 1618   0.594   0.745   2.514
  425SOL    HW1 1619   0.644   0.830   2.495
  425SOL    HW2 1620   0.506   0.747   2.466
  426SOL     OW 1621   1.777   0.342   3.504
  426SOL    HW1 1622   1.760   0.373   3.410
  426SOL    HW2 1623   1.693   0.305   3.542
  427SOL     OW 1624   1.730   0.934   3.379
  427SOL    HW1 1625   1.768   1.025   3.394
  427SOL    HW2 1626   1.722   0.917   3.280
  428SOL     OW 1627   0.859   1.374   1.878
  428SOL    HW1 1628   0.813   1.389   1.966
  428SOL    HW2 1629   0.903   1.459   1.848
  429SOL     OW 1630   0.661   1.790   2.815
  429SOL    HW1 1631   0.615   1.878   2.802
  429SOL    HW2 1632   0.760   1.802   2.808
  430SOL     OW 1633   0.859   0.956   2.723
  430SOL    HW1 1634   0.913   0.887   2.771
  430SOL    HW2 1635   0.827   1.025   2.789
  431SOL     OW 1636   1.083   0.984   1.949
  431SOL    HW1 1637   1.060   1.037   1.867
  431SOL    HW2 1638   1.164   0.928   1.930
  432SOL     OW 1639   1.861   1.569   2.713
  432SOL    HW1 1640   1.790   1.557   2.643
  432SOL    HW2 1641   1.862   1.490   2.773
  433SOL     OW 1642   0.221   1.314   3.706
  433SOL    HW1 1643   0.156   1.241   3.685
  433SOL    HW2 1644   0.225   1.328   3.804
  434SOL     OW 1645   0.079   1.240   2.515
  434SOL    HW1 1646   0.078   1.193   2.603
  434SOL    HW2 1647   0.161   1.212   2.464
  435SOL     OW 1648   0.672   1.391   3.486
  435SOL    HW1 1649   0.594   1.341   3.524
  435SOL    HW2 1650   0.669   1.486   3.517
  436SOL     OW 1651   1.824   0.192   3.089
  436SOL    HW1 1652   1.820   0.102   3.133
  436SOL    HW2 1653   1.827   0.181   2.990
  437SOL     OW 1654   0.428   0.424   2.382
  437SOL    HW1 1655   0.458   0.352   2.320
  437SOL    HW2 1656   0.389   0.384   2.465
  438SOL     OW 1657   1.705   1.487   2.966
  438SOL    HW1 1658   1.612   1.462   2.939
  438SOL    HW2 1659   1.731   1.437   3.048
  439SOL     OW 1660   0.317   0.547   3.142
  439SOL    HW1 1661   0.355   0.488   3.214
  439SOL    HW2 1662   0.357   0.521   3.054
  440SOL     OW 1663   0.812   1.586   2.549
  440SOL    HW1 1664   0.844   1.596   2.455
  440SOL    HW2 1665   0.733   1.524   2.551
  441SOL     OW 1666   1.424   0.214   2.974
  441SOL    HW1 1667   1.476   0.149   3.029
  441SOL    HW2 1668   1.375   0.277   3.035
  442SOL     OW 1669   1.001   0.034   3.016
  442SOL    HW1 1670   0.938  -0.038   2.985
  442SOL    HW2 1671   1.094  -0.002   3.016
  443SOL     OW 1672   0.770   1.330   2.163
  443SOL    HW1 1673   0.724   1.243   2.180
  443SOL    HW2 1674   0.861   1.327   2.204
  444SOL     OW 1675   0.618   1.567   3.146
  444SOL    HW1 1676   0.613   1.649   3.203
  444SOL    HW2 1677   0.707   1.564   3.101
  445SOL     OW 1678   1.352   0.052   2.030
  445SOL    HW1 1679   1.387   0.011   1.946
  445SOL    HW2 1680   1.262   0.014   2.050
  446SOL     OW 1681   1.300   0.453   2.553
  446SOL    HW1 1682   1.241   0.533   2.557
  446SOL    HW2 1683   1.315   0.418   2.646
  447SOL     OW 1684   1.593   0.221   2.744
  447SOL    HW1 1685   1.509   0.220   2.798
  447SOL    HW2 1686   1.595   0.304   2.688
  448SOL     OW 1687   0.039   1.077   2.162
  448SOL    HW1 1688   0.138   1.066   2.153
  448SOL    HW2 1689  -0.001   0.991   2.194
  449SOL     OW 1690   0.875   1.646   2.199
  449SOL    HW1 1691   0.798   1.611   2.145
  449SOL    HW2 1692   0.843   1.717   2.261
  450SOL     OW 1693   0.230   0.628   3.837
  450SOL    HW1 1694   0.137   0.626   3.874
  450SOL    HW2 1695   0.231   0.589   3.745
  451SOL     OW 1696   0.225   0.275   4.720
  451SOL    HW1 1697   0.260   0.258   4.812
  451SOL    HW2 1698   0.137   0.230   4.708
  452SOL     OW 1699   0.019   0.368   4.371
  452SOL    HW1 1700  -0.063   0.411   4.410
  452SOL    HW2 1701  -0.009   0.295   4.308
  453SOL     OW 1702   0.569   1.275   4.889
  453SOL    HW1 1703   0.476   1.268   4.852
  453SOL    HW2 1704   0.580   1.364   4.933
  454SOL     OW 1705   1.555   1.511   4.427
  454SOL    HW1 1706   1.498   1.495   4.508
  454SOL    HW2 1707   1.496   1.521   4.347
  455SOL     OW 1708   1.135   0.703   4.441
  455SOL    HW1 1709   1.192   0.781   4.416
  455SOL    HW2 1710   1.075   0.729   4.517
  456SOL     OW 1711   1.755   0.607   3.955
  456SOL    HW1 1712   1.743   0.594   3.856
  456SOL    HW2 1713   1.725   0.526   4.004
  457SOL     OW 1714   0.768   1.144   4.747
  457SOL    HW1 1715   0.690   1.161   4.807
  457SOL    HW2 1716   0.802   1.231   4.711
  458SOL     OW 1717   0.850   0.798   5.547
  458SOL    HW1 1718   0.846   0.874   5.612
  458SOL    HW2 1719   0.872   0.834   5.456
  459SOL     OW 1720   0.685   1.012   4.389
  459SOL    HW1 1721   0.754   0.996   4.459
  459SOL    HW2 1722   0.612   1.069   4.427
  460SOL     OW 1723   0.686   1.161   5.527
  460SOL    HW1 1724   0.746   1.240   5.541
  460SOL    HW2 1725   0.600   1.192   5.486
  461SOL     OW 1726   0.335   1.435   4.785
  461SOL    HW1 1727   0.257   1.404   4.732
  461SOL    HW2 1728   0.393   1.493   4.728
  462SOL     OW 1729   1.460   1.505   5.063
  462SOL    HW1 1730   1.484   1.599   5.089
  462SOL    HW2 1731   1.444   1.451   5.145
  463SOL     OW 1732   0.438   0.392   5.223
  463SOL    HW1 1733   0.520   0.336   5.232
  463SOL    HW2 1734   0.357   0.334   5.227
  464SOL     OW 1735   1.603   0.447   4.461
  464SOL    HW1 1736   1.529   0.493   4.411
  464SOL    HW2 1737   1.654   0.515   4.514
  465SOL     OW 1738   0.231   1.713   4.207
  465SOL    HW1 1739   0.265   1.790   4.261
  465SOL    HW2 1740   0.275   1.713   4.117
  466SOL     OW 1741   1.127   1.341   5.414
  466SOL    HW1 1742   1.174   1.341   5.502
  466SOL    HW2 1743   1.079   1.254   5.403
  467SOL     OW 1744   0.230   1.434   4.262
  467SOL    HW1 1745   0.204   1.530   4.262
  467SOL    HW2 1746   0.159   1.380   4.307
  468SOL     OW 1747   0.240   1.091   4.610
  468SOL    HW1 1748   0.254   1.007   4.662
  468SOL    HW2 1749   0.185   1.155   4.665
  469SOL     OW 1750   0.620   1.786   5.163
  469SOL    HW1 1751   0.528   1.769   5.198
  469SOL    HW2 1752   0.648   1.878   5.189
  470SOL     OW 1753   0.606   0.964   3.847
  470SOL    HW1 1754   0.613   1.048   3.793
  470SOL    HW2 1755   0.652   0.977   3.935
  471SOL     OW 1756   1.594   0.114   5.204
  471SOL    HW1 1757   1.576   0.181   5.132
  471SOL    HW2 1758   1.591   0.160   5.293
  472SOL     OW 1759   0.122   0.643   4.287
  472SOL    HW1 1760   0.077   0.555   4.304
  472SOL    HW2 1761   0.121   0.697   4.371
  473SOL     OW 1762   1.842   1.767   4.083
  473SOL    HW1 1763   1.896   1.738   4.163
  473SOL    HW2 1764   1.872   1.857   4.054
  474SOL     OW 1765   0.027   1.596   3.841
  474SOL    HW1 1766   0.008   1.500   3.862
  474SOL    HW2 1767  -0.006   1.654   3.916
  475SOL     OW 1768   1.689   0.922   4.336
  475SOL    HW1 1769   1.784   0.893   4.344
  475SOL    HW2 1770   1.681   0.987   4.261
  476SOL     OW 1771   1.641   1.108   4.156
  476SOL    HW1 1772   1.727   1.110   4.104
  476SOL    HW2 1773   1.655   1.155   4.244
  477SOL     OW 1774   0.113   0.737   5.321
  477SOL    HW1 1775   0.201   0.724   5.366
  477SOL    HW2 1776   0.100   0.834   5.299
  478SOL     OW 1777   0.613   1.365   4.450
  478SOL    HW1 1778   0.564   1.278   4.459
  478SOL    HW2 1779   0.590   1.408   4.363
  479SOL     OW 1780   1.293   1.228   5.147
  479SOL    HW1 1781   1.330   1.155   5.089
  479SOL    HW2 1782   1.345   1.233   5.232
  480SOL     OW 1783   0.809   0.004   4.226
  480SOL    HW1 1784   0.849   0.095   4.217
  480SOL    HW2 1785   0.709   0.012   4.232
  481SOL     OW 1786   0.197   0.976   4.988
  481SOL    HW1 1787   0.286   0.931   4.974
  481SOL    HW2 1788   0.124   0.911   4.969
  482SOL     OW 1789   1.525   0.999   3.914
  482SOL    HW1 1790   1.462   0.923   3.927
  482SOL    HW2 1791   1.573   1.017   4.000
  483SOL     OW 1792   1.187   1.792   5.340
  483SOL    HW1 1793   1.211   1.852   5.264
  483SOL    HW2 1794   1.194   1.697   5.310
  484SOL     OW 1795   0.317   0.251   5.525
  484SOL    HW1 1796   0.388   0.322   5.531
  484SOL    HW2 1797   0.229   0.290   5.553
  485SOL     OW 1798   1.466   1.417   4.677
  485SOL    HW1 1799   1.407   1.423   4.757
  485SOL    HW2 1800   1.451   1.329   4.631
  486SOL     OW 1801   1.667   1.714   4.296
  486SOL    HW1 1802   1.626   1.691   4.208
  486SOL    HW2 1803   1.649   1.640   4.361
  487SOL     OW 1804   0.598   0.729   3.994
  487SOL    HW1 1805   0.622   0.798   3.926
  487SOL    HW2 1806   0.520   0.762   4.048
  488SOL     OW 1807   1.281   0.345   4.668
  488SOL    HW1 1808   1.195   0.295   4.655
  488SOL    HW2 1809   1.343   0.291   4.724
  489SOL     OW 1810   1.576   1.662   4.031
  489SOL    HW1 1811   1.665   1.708   4.034
  489SOL    HW2 1812   1.555   1.638   3.936
  490SOL     OW 1813   0.807   0.605   5.189
  490SOL    HW1 1814   0.760   0.602   5.278
  490SOL    HW2 1815   0.756   0.550   5.123
  491SOL     OW 1816   1.394   0.469   5.398
  491SOL    HW1 1817   1.374   0.512   5.486
  491SOL    HW2 1818   1.472   0.407   5.407
  492SOL     OW 1819   0.973   0.890   5.296
  492SOL    HW1 1820   1.019   0.806   5.267
  492SOL    HW2 1821   0.917   0.924   5.221
  493SOL     OW 1822   0.991   0.410   4.966
  493SOL    HW1 1823   0.914   0.444   5.020
  493SOL    HW2 1824   0.957   0.359   4.887
  494SOL     OW 1825   1.041   0.701   4.153
  494SOL    HW1 1826   1.067   0.697   4.249
  494SOL    HW2 1827   0.956   0.650   4.139
  495SOL     OW 1828   0.076   0.811   4.513
  495SOL    HW1 1829   0.175   0.799   4.522
  495SOL    HW2 1830   0.052   0.906   4.534
  496SOL     OW 1831   0.130   1.821   5.295
  496SOL    HW1 1832   0.120   1.806   5.394
  496SOL    HW2 1833   0.044   1.857   5.259
  497SOL     OW 1834   0.865   0.348   3.919
  497SOL    HW1 1835   0.924   0.411   3.870
  497SOL    HW2 1836   0.884   0.254   3.890
  498SOL     OW 1837   1.719   0.585   5.555
  498SOL    HW1 1838   1.693   0.674   5.519
  498SOL    HW2 1839   1.717   0.517   5.482
  499SOL     OW 1840   1.362   1.144   4.269
  499SOL    HW1 1841   1.445   1.115   4.221
  499SOL    HW2 1842   1.313   1.211   4.213
  500SOL     OW 1843   0.550   0.196   4.609
  500SOL    HW1 1844   0.545   0.191   4.709
  500SOL    HW2 1845   0.552   0.292   4.580
  501SOL     OW 1846   1.008   1.456   4.201
  501SOL    HW1 1847   0.962   1.528   4.149
  501SOL    HW2 1848   1.004   1.476   4.299
  502SOL     OW 1849   0.351   1.801   4.577
  502SOL    HW1 1850   0.401   1.715   4.583
  502SOL    HW2 1851   0.416   1.878   4.574
  503SOL     OW 1852   1.795   1.066   4.597
  503SOL    HW1 1853   1.733   1.051   4.521
  503SOL    HW2 1854   1.743   1.077   4.682
  504SOL     OW 1855   1.227   1.550   5.230
  504SOL    HW1 1856   1.233   1.473   5.294
  504SOL    HW2 1857   1.175   1.524   5.150
  505SOL     OW 1858   0.321   0.943   3.966
  505SOL    HW1 1859   0.403   0.982   3.924
  505SOL    HW2 1860   0.294   0.861   3.917
  506SOL     OW 1861   1.458   0.735   4.452
  506SOL    HW1 1862   1.453   0.670   4.527
  506SOL    HW2 1863   1.538   0.794   4.465
  507SOL     OW 1864   0.461   1.266   5.451
  507SOL    HW1 1865   0.411   1.267   5.365
  507SOL    HW2 1866   0.398   1.248   5.527
  508SOL     OW 1867   1.111   1.776   3.961
  508SOL    HW1 1868   1.051   1.714   4.011
  508SOL    HW2 1869   1.142   1.732   3.876
  509SOL     OW 1870   0.202   0.285   5.222
  509SOL    HW1 1871   0.122   0.345   5.209
  509SOL    HW2 1872   0.192   0.236   5.308
  510SOL     OW 1873   1.632   1.377   3.805
  510SOL    HW1 1874   1.600   1.471   3.795
  510SOL    HW2 1875   1.556   1.314   3.793
  511SOL     OW 1876   0.464   1.743   4.047
  511SOL    HW1 1877   0.497   1.782   4.133
  511SOL    HW2 1878   0.540   1.736   3.982
  512SOL     OW 1879   1.400   0.107   4.150
  512SOL    HW1 1880   1.376   0.070   4.060
  512SOL    HW2 1881   1.499   0.123   4.154
  513SOL     OW 1882   0.249   1.785   4.965
  513SOL    HW1 1883   0.306   1.720   5.015
  513SOL    HW2 1884   0.233   1.752   4.872
  514SOL     OW 1885   0.940   1.698   4.628
  514SOL    HW1 1886   1.020   1.641   4.649
  514SOL    HW2 1887   0.891   1.658   4.551
  515SOL     OW 1888   0.382   0.700   4.204
  515SOL    HW1 1889   0.427   0.610   4.201
  515SOL    HW2 1890   0.288   0.689   4.237
  516SOL     OW 1891   1.547   0.222   5.453
  516SOL    HW1 1892   1.542   0.259   5.545
  516SOL    HW2 1893   1.475   0.153   5.441
  517SOL     OW 1894   0.614   0.122   3.841
  517SOL    HW1 1895   0.712   0.100   3.848
  517SOL    HW2 1896   0.583   0.105   3.748
  518SOL     OW 1897   0.781   0.264   5.473
  518SOL    HW1 1898   0.848   0.203   5.516
  518SOL    HW2 1899   0.708   0.283   5.538
  519SOL     OW 1900   0.888   1.514   4.919
  519SOL    HW1 1901   0.865   1.489   4.825
  519SOL    HW2 1902   0.949   1.445   4.958
  520SOL     OW 1903   1.351   0.590   5.157
  520SOL    HW1 1904   1.379   0.547   5.242
  520SOL    HW2 1905   1.376   0.686   5.158
  521SOL     OW 1906   0.803   1.402   4.648
  521SOL    HW1 1907   0.893   1.416   4.606
  521SOL    HW2 1908   0.732   1.404   4.577
  522SOL     OW 1909   0.922   0.503   4.623
  522SOL    HW1 1910   0.897   0.494   4.527
  522SOL    HW2 1911   0.970   0.421   4.654
  523SOL     OW 1912   0.539   0.064   4.236
  523SOL    HW1 1913   0.458   0.065   4.294
  523SOL    HW2 1914   0.542   0.147   4.181
  524SOL     OW 1915   1.434   1.188   3.765
  524SOL    HW1 1916   1.466   1.112   3.822
  524SOL    HW2 1917   1.342   1.215   3.795
  525SOL     OW 1918   0.297   0.035   3.895
  525SOL    HW1 1919   0.346   0.119   3.874
  525SOL    HW2 1920   0.359  -0.030   3.940
  526SOL     OW 1921   0.935   0.236   4.204
  526SOL    HW1 1922   0.887   0.277   4.126
  526SOL    HW2 1923   1.034   0.234   4.185
  527SOL     OW 1924   1.076   0.683   5.188
  527SOL    HW1 1925   0.996   0.622   5.191
  527SOL    HW2 1926   1.157   0.630   5.164
  528SOL     OW 1927   1.227   1.570   4.517
  528SOL    HW1 1928   1.248   1.644   4.452
  528SOL    HW2 1929   1.295   1.570   4.590
  529SOL     OW 1930   0.459   1.152   4.465
  529SOL    HW1 1931   0.388   1.125   4.530
  529SOL    HW2 1932   0.433   1.124   4.372
  530SOL     OW 1933   1.271   1.797   4.315
  530SOL    HW1 1934   1.315   1.861   4.251
  530SOL    HW2 1935   1.221   1.849   4.385
  531SOL     OW 1936   1.032   0.549   3.740
  531SOL    HW1 1937   0.991   0.631   3.701
  531SOL    HW2 1938   1.096   0.575   3.813
  532SOL     OW 1939   0.078   0.556   5.110
  532SOL    HW1 1940   0.170   0.555   5.069
  532SOL    HW2 1941   0.072   0.630   5.177
  533SOL     OW 1942   0.561   0.222   4.871
  533SOL    HW1 1943   0.599   0.138   4.908
  533SOL    HW2 1944   0.473   0.241   4.915
  534SOL     OW 1945   0.866   0.454   4.366
  534SOL    HW1 1946   0.834   0.526   4.304
  534SOL    HW2 1947   0.890   0.373   4.313
  535SOL     OW 1948   1.017   0.039   4.477
  535SOL    HW1 1949   0.945   0.044   4.408
  535SOL    HW2 1950   0.993  -0.030   4.546
  536SOL     OW 1951   1.429   1.173   4.591
  536SOL    HW1 1952   1.374   1.089   4.584
  536SOL    HW2 1953   1.455   1.202   4.499
  537SOL     OW 1954   1.466   0.590   4.716
  537SOL    HW1 1955   1.436   0.495   4.723
  537SOL    HW2 1956   1.539   0.606   4.782
  538SOL     OW 1957   1.857   0.833   4.101
  538SOL    HW1 1958   1.899   0.769   4.165
  538SOL    HW2 1959   1.819   0.782   4.023
  539SOL     OW 1960   0.488   1.385   3.898
  539SOL    HW1 1961   0.401   1.370   3.945
  539SOL    HW2 1962   0.471   1.411   3.803
  540SOL     OW 1963   1.664   1.280   4.381
  540SOL    HW1 1964   1.763   1.288   4.395
  540SOL    HW2 1965   1.619   1.364   4.412
  541SOL     OW 1966   1.390   0.575   3.802
  541SOL    HW1 1967   1.336   0.554   3.883
  541SOL    HW2 1968   1.481   0.534   3.811
  542SOL     OW 1969   0.527   0.256   4.052
  542SOL    HW1 1970   0.554   0.197   3.977
  542SOL    HW2 1971   0.527   0.351   4.021
  543SOL     OW 1972   1.754   1.223   5.312
  543SOL    HW1 1973   1.845   1.184   5.299
  543SOL    HW2 1974   1.762   1.319   5.336
  544SOL     OW 1975   1.064   1.347   5.064
  544SOL    HW1 1976   0.984   1.324   5.119
  544SOL    HW2 1977   1.147   1.321   5.113
  545SOL     OW 1978   1.592   1.629   5.349
  545SOL    HW1 1979   1.619   1.663   5.259
  545SOL    HW2 1980   1.671   1.591   5.395
  546SOL     OW 1981   1.111   1.195   4.824
  546SOL    HW1 1982   1.071   1.239   4.905
  546SOL    HW2 1983   1.070   1.232   4.741
  547SOL     OW 1984   1.638   1.099   4.803
  547SOL    HW1 1985   1.643   1.180   4.862
  547SOL    HW2 1986   1.552   1.101   4.752
  548SOL     OW 1987   0.915   0.089   5.126
  548SOL    HW1 1988   0.940   0.069   5.031
  548SOL    HW2 1989   0.987   0.145   5.168
  549SOL     OW 1990   0.980   1.116   5.443
  549SOL    HW1 1991   0.881   1.122   5.453
  549SOL    HW2 1992   1.003   1.036   5.387
  550SOL     OW 1993   0.705   1.050   4.092
  550SOL    HW1 1994   0.691   1.057   4.191
  550SOL    HW2 1995   0.789   0.999   4.074
  551SOL     OW 1996   0.410   0.813   4.975
  551SOL    HW1 1997   0.496   0.825   5.025
  551SOL    HW2 1998   0.368   0.726   5.002
  552SOL     OW 1999   1.274   0.386   4.986
  552SOL    HW1 2000   1.295   0.460   5.050
  552SOL    HW2 2001   1.185   0.403   4.943
  553SOL     OW 2002   0.064   1.564   5.055
  553SOL    HW1 2003   0.018   1.646   5.021
  553SOL    HW2 2004   0.162   1.583   5.064
  554SOL     OW 2005   0.367   1.100   4.225
  554SOL    HW1 2006   0.360   1.183   4.169
  554SOL    HW2 2007   0.371   1.020   4.165
  555SOL     OW 2008   0.566   0.537   4.589
  555SOL    HW1 2009   0.578   0.603   4.515
  555SOL    HW2 2010   0.612   0.571   4.672
  556SOL     OW 2011   1.252   1.348   4.112
  556SOL    HW1 2012   1.302   1.425   4.152
  556SOL    HW2 2013   1.157   1.350   4.144
  557SOL     OW 2014   1.272   1.445   4.866
  557SOL    HW1 2015   1.319   1.458   4.953
  557SOL    HW2 2016   1.206   1.371   4.875
  558SOL     OW 2017   1.582   0.639   4.196
  558SOL    HW1 2018   1.551   0.700   4.269
  558SOL    HW2 2019   1.632   0.691   4.127
  559SOL     OW 2020   0.354   1.510   5.053
  559SOL    HW1 2021   0.333   1.466   4.966
  559SOL    HW2 2022   0.451   1.536   5.056
  560SOL     OW 2023   0.402   0.751   5.322
  560SOL    HW1 2024   0.470   0.806   5.275
  560SOL    HW2 2025   0.442   0.663   5.349
  561SOL     OW 2026   1.587   0.779   5.394
  561SOL    HW1 2027   1.495   0.817   5.389
  561SOL    HW2 2028   1.647   0.826   5.329
  562SOL     OW 2029   1.013   0.105   5.494
  562SOL    HW1 2030   1.019   0.190   5.442
  562SOL    HW2 2031   1.045   0.029   5.437
  563SOL     OW 2032   0.504   0.050   5.464
  563SOL    HW1 2033   0.462  -0.007   5.394
  563SOL    HW2 2034   0.438   0.119   5.496
  564SOL     OW 2035   0.573   0.870   4.753
  564SOL    HW1 2036   0.617   0.959   4.744
  564SOL    HW2 2037   0.510   0.870   4.830
  565SOL     OW 2038   1.360   0.862   4.769
  565SOL    HW1 2039   1.285   0.862   4.703
  565SOL    HW2 2040   1.397   0.770   4.778
  566SOL     OW 2041   1.209   0.525   3.999
  566SOL    HW1 2042   1.222   0.441   4.053
  566SOL    HW2 2043   1.180   0.599   4.059
  567SOL     OW 2044   0.307   0.213   4.955
  567SOL    HW1 2045   0.284   0.250   5.045
  567SOL    HW2 2046   0.277   0.118   4.949
  568SOL     OW 2047   0.037   1.310   5.006
  568SOL    HW1 2048   0.090   1.261   5.074
  568SOL    HW2 2049   0.059   1.408   5.011
  569SOL     OW 2050   0.732   0.634   4.788
  569SOL    HW1 2051   0.791   0.608   4.712
  569SOL    HW2 2052   0.704   0.730   4.777
  570SOL     OW 2053   1.728   0.935   5.578
  570SOL    HW1 2054   1.682   0.928   5.489
  570SOL    HW2 2055   1.666   0.979   5.644
  571SOL     OW 2056   0.307   0.063   4.342
  571SOL    HW1 2057   0.296   0.157   4.375
  571SOL    HW2 2058   0.302   0.000   4.419
  572SOL     OW 2059   1.622   0.367   4.098
  572SOL    HW1 2060   1.624   0.291   4.162
  572SOL    HW2 2061   1.574   0.444   4.138
  573SOL     OW 2062   1.023   0.766   4.690
  573SOL    HW1 2063   1.038   0.787   4.786
  573SOL    HW2 2064   0.993   0.671   4.681
  574SOL     OW 2065   0.980   1.573   5.424
  574SOL    HW1 2066   0.960   1.617   5.336
  574SOL    HW2 2067   1.019   1.482   5.408
  575SOL     OW 2068   1.859   1.518   5.329
  575SOL    HW1 2069   1.873   1.545   5.234
  575SOL    HW2 2070   1.942   1.540   5.382
  576SOL     OW 2071   0.350   0.898   5.528
  576SOL    HW1 2072   0.426   0.942   5.576
  576SOL    HW2 2073   0.385   0.851   5.446
  577SOL     OW 2074   1.540   0.274   3.849
  577SOL    HW1 2075   1.479   0.199   3.872
  577SOL    HW2 2076   1.562   0.326   3.932
  578SOL     OW 2077   1.303   0.838   3.766
  578SOL    HW1 2078   1.337   0.745   3.781
  578SOL    HW2 2079   1.321   0.865   3.671
  579SOL     OW 2080   1.068   1.333   4.573
  579SOL    HW1 2081   1.075   1.249   4.518
  579SOL    HW2 2082   1.130   1.402   4.537
  580SOL     OW 2083   0.319   0.810   4.673
  580SOL    HW1 2084   0.412   0.846   4.678
  580SOL    HW2 2085   0.313   0.725   4.725
  581SOL     OW 2086   0.339   0.509   4.730
  581SOL    HW1 2087   0.287   0.426   4.713
  581SOL    HW2 2088   0.416   0.514   4.666
  582SOL     OW 2089   1.138   0.380   5.402
  582SOL    HW1 2090   1.093   0.443   5.466
  582SOL    HW2 2091   1.231   0.411   5.385
  583SOL     OW 2092   1.160   0.207   5.201
  583SOL    HW1 2093   1.160   0.271   5.278
  583SOL    HW2 2094   1.188   0.255   5.118
  584SOL     OW 2095   0.008   1.326   3.924
  584SOL    HW1 2096  -0.085   1.347   3.893
  584SOL    HW2 2097   0.018   1.227   3.937
  585SOL     OW 2098   0.088   1.801   4.651
  585SOL    HW1 2099   0.046   1.715   4.624
  585SOL    HW2 2100   0.182   1.804   4.617
  586SOL     OW 2101   0.504   1.568   4.634
  586SOL    HW1 2102   0.570   1.642   4.643
  586SOL    HW2 2103   0.548   1.489   4.592
  587SOL     OW 2104   1.002   0.796   4.962
  587SOL    HW1 2105   1.043   0.764   5.048
  587SOL    HW2 2106   0.906   0.769   4.959
  588SOL     OW 2107   0.040   0.544   4.838
  588SOL    HW1 2108   0.125   0.511   4.797
  588SOL    HW2 2109   0.053   0.559   4.936
  589SOL     OW 2110   0.189   0.520   5.446
  589SOL    HW1 2111   0.248   0.480   5.376
  589SOL    HW2 2112   0.131   0.591   5.405
  590SOL     OW 2113   1.369   0.950   5.384
  590SOL    HW1 2114   1.408   1.039   5.404
  590SOL    HW2 2115   1.379   0.930   5.287
  591SOL     OW 2116   0.815   0.572   4.049
  591SOL    HW1 2117   0.822   0.483   4.003
  591SOL    HW2 2118   0.721   0.606   4.041
  592SOL     OW 2119   1.657   0.604   4.930
  592SOL    HW1 2120   1.619   0.535   4.992
  592SOL    HW2 2121   1.739   0.568   4.886
  593SOL     OW 2122   0.252   1.564   5.468
  593SOL    HW1 2123   0.222   1.621   5.544
  593SOL    HW2 2124   0.245   1.467   5.494
  594SOL     OW 2125   0.671   0.464   4.993
  594SOL    HW1 2126   0.637   0.375   4.963
  594SOL    HW2 2127   0.697   0.518   4.913
  595SOL     OW 2128   0.930   1.678   5.189
  595SOL    HW1 2129   0.906   1.660   5.094
  595SOL    HW2 2130   0.960   1.772   5.199
  596SOL     OW 2131   0.473   0.500   3.915
  596SOL    HW1 2132   0.534   0.580   3.919
  596SOL    HW2 2133   0.378   0.531   3.922
  597SOL     OW 2134   0.159   1.137   5.190
  597SOL    HW1 2135   0.181   1.076   5.266
  597SOL    HW2 2136   0.169   1.088   5.104
  598SOL     OW 2137   1.347   1.059   4.958
  598SOL    HW1 2138   1.371   0.996   4.884
  598SOL    HW2 2139   1.257   1.099   4.940
  599SOL     OW 2140   1.302   0.855   4.033
  599SOL    HW1 2141   1.216   0.824   4.075
  599SOL    HW2 2142   1.298   0.841   3.934
  600SOL     OW 2143   1.759   1.747   4.878
  600SOL    HW1 2144   1.820   1.777   4.805
  600SOL    HW2 2145   1.721   1.658   4.856
  601SOL     OW 2146   1.252   1.731   4.852
  601SOL    HW1 2147   1.336   1.736   4.798
  601SOL    HW2 2148   1.229   1.635   4.870
  602SOL     OW 2149   0.083   1.258   4.746
  602SOL    HW1 2150   0.078   1.257   4.846
  602SOL    HW2 2151   0.000   1.217   4.708
  603SOL     OW 2152   0.688   1.662   5.440
  603SOL    HW1 2153   0.632   1.743   5.449
  603SOL    HW2 2154   0.740   1.666   5.354
  604SOL     OW 2155   1.726   0.135   4.247
  604SOL    HW1 2156   1.799   0.118   4.180
  604SOL    HW2 2157   1.695   0.048   4.285
  605SOL     OW 2158   1.388   1.573   4.201
  605SOL    HW1 2159   1.455   1.585   4.127
  605SOL    HW2 2160   1.348   1.662   4.224
  606SOL     OW 2161   0.130   1.794   5.575
  606SOL    HW1 2162   0.089   1.720   5.628
  606SOL    HW2 2163   0.194   1.845   5.633
  607SOL     OW 2164   1.280   0.927   4.396
  607SOL    HW1 2165   1.340   0.846   4.398
  607SOL    HW2 2166   1.320   0.996   4.336
  608SOL     OW 2167   0.830   1.273   5.146
  608SOL    HW1 2168   0.825   1.306   5.241
  608SOL    HW2 2169   0.744   1.292   5.100
  609SOL     OW 2170   0.672   1.616   3.878
  609SOL    HW1 2171   0.681   1.626   3.779
  609SOL    HW2 2172   0.632   1.527   3.899
  610SOL     OW 2173   1.650   1.720   5.118
  610SOL    HW1 2174   1.703   1.730   5.034
  610SOL    HW2 2175   1.623   1.810   5.152
  611SOL     OW 2176   1.841   0.175   4.687
  611SOL    HW1 2177   1.880   0.090   4.651
  611SOL    HW2 2178   1.743   0.177   4.668
  612SOL     OW 2179   0.263   0.326   4.444
  612SOL    HW1 2180   0.184   0.377   4.410
  612SOL    HW2 2181   0.254   0.311   4.542
  613SOL     OW 2182   1.194   1.612   3.755
  613SOL    HW1 2183   1.200   1.519   3.792
  613SOL    HW2 2184   1.135   1.612   3.675
  614SOL     OW 2185   0.822   1.002   5.096
  614SOL    HW1 2186   0.862   1.001   5.004
  614SOL    HW2 2187   0.832   1.094   5.136
  615SOL     OW 2188   0.916   0.910   4.015
  615SOL    HW1 2189   0.979   0.948   3.947
  615SOL    HW2 2190   0.956   0.827   4.054
  616SOL     OW 2191   1.504   1.607   3.768
  616SOL    HW1 2192   1.412   1.644   3.775
  616SOL    HW2 2193   1.542   1.627   3.678
  617SOL     OW 2194   0.372   1.288   5.214
  617SOL    HW1 2195   0.359   1.381   5.180
  617SOL    HW2 2196   0.288   1.236   5.201
  618SOL     OW 2197   1.614   1.292   5.013
  618SOL    HW1 2198   1.674   1.295   5.093
  618SOL    HW2 2199   1.539   1.356   5.026
  619SOL     OW 2200   1.039   1.098   4.420
  619SOL    HW1 2201   0.969   1.051   4.474
  619SOL    HW2 2202   1.098   1.030   4.377
  620SOL     OW 2203   1.014   0.236   4.695
  620SOL    HW1 2204   1.006   0.200   4.602
  620SOL    HW2 2205   1.012   0.160   4.760
  621SOL     OW 2206   0.590   1.487   4.215
  621SOL    HW1 2207   0.632   1.429   4.145
  621SOL    HW2 2208   0.546   1.566   4.171
  622SOL     OW 2209   1.709   0.385   5.105
  622SOL    HW1 2210   1.782   0.454   5.109
  622SOL    HW2 2211   1.737   0.310   5.046
  623SOL     OW 2212   0.255   1.348   4.014
  623SOL    HW1 2213   0.159   1.349   3.987
  623SOL    HW2 2214   0.267   1.401   4.098
  624SOL     OW 2215   0.105   1.013   5.450
  624SOL    HW1 2216   0.028   0.980   5.504
  624SOL    HW2 2217   0.190   0.983   5.492
  625SOL     OW 2218   0.672   0.203   5.213
  625SOL    HW1 2219   0.762   0.187   5.173
  625SOL    HW2 2220   0.680   0.208   5.312
  626SOL     OW 2221   0.075   0.345   3.757
  626SOL    HW1 2222  -0.017   0.317   3.728
  626SOL    HW2 2223   0.106   0.422   3.701
  627SOL     OW 2224   1.440   0.856   5.122
  627SOL    HW1 2225   1.383   0.908   5.059
  627SOL    HW2 2226   1.536   0.868   5.098
  628SOL     OW 2227   0.072   0.166   4.042
  628SOL    HW1 2228   0.055   0.249   3.988
  628SOL    HW2 2229   0.162   0.129   4.020
  629SOL     OW 2230   1.183   1.335   3.843
  629SOL    HW1 2231   1.084   1.324   3.845
  629SOL    HW2 2232   1.217   1.350   3.936
  630SOL     OW 2233   0.613   0.842   5.155
  630SOL    HW1 2234   0.669   0.923   5.138
  630SOL    HW2 2235   0.672   0.762   5.158
  631SOL     OW 2236   1.493   1.767   4.683
  631SOL    HW1 2237   1.526   1.831   4.614
  631SOL    HW2 2238   1.559   1.761   4.758
  632SOL     OW 2239   0.716   0.565   5.432
  632SOL    HW1 2240   0.735   0.630   5.506
  632SOL    HW2 2241   0.776   0.485   5.441
  633SOL     OW 2242   1.450   1.220   5.357
  633SOL    HW1 2243   1.441   1.210   5.456
  633SOL    HW2 2244   1.546   1.213   5.331
  634SOL     OW 2245   0.390   1.741   5.284
  634SOL    HW1 2246   0.299   1.782   5.282
  634SOL    HW2 2247   0.383   1.647   5.316
  635SOL     OW 2248   1.674   0.883   4.978
  635SOL    HW1 2249   1.647   0.794   4.941
  635SOL    HW2 2250   1.675   0.951   4.905
  636SOL     OW 2251   1.225   0.325   4.173
  636SOL    HW1 2252   1.290   0.251   4.162
  636SOL    HW2 2253   1.245   0.375   4.257
  637SOL     OW 2254   0.594   0.745   4.376
  637SOL    HW1 2255   0.644   0.830   4.357
  637SOL    HW2 2256   0.506   0.747   4.328
  638SOL     OW 2257   1.777   0.342   5.366
  638SOL    HW1 2258   1.760   0.373   5.272
  638SOL    HW2 2259   1.693   0.305   5.404
  639SOL     OW 2260   1.730   0.934   5.241
  639SOL    HW1 2261   1.768   1.025   5.256
  639SOL    HW2 2262   1.722   0.917   5.142
  640SOL     OW 2263   0.859   1.374   3.740
  640SOL    HW1 2264   0.813   1.389   3.828
  640SOL    HW2 2265   0.903   1.459   3.710
  641SOL     OW 2266   0.661   1.790   4.677
  641SOL    HW1 2267   0.615   1.878   4.664
  641SOL    HW2 2268   0.760   1.802   4.670
  642SOL     OW 2269   0.859   0.956   4.585
  642SOL    HW1 2270   0.913   0.887   4.633
  642SOL    HW2 2271   0.827   1.025   4.651
  643SOL     OW 2272   1.083   0.984   3.811
  643SOL    HW1 2273   1.060   1.037   3.729
  643SOL    HW2 2274   1.164   0.928   3.792
  644SOL     OW 2275   1.861   1.569   4.575
  644SOL    HW1 2276   1.790   1.557   4.505
  644SOL    HW2 2277   1.862   1.490   4.635
  645SOL     OW 2278   0.221   1.314   5.568
  645SOL    HW1 2279   0.156   1.241   5.547
  645SOL    HW2 2280   0.225   1.328   5.666
  646SOL     OW 2281   0.079   1.240   4.377
  646SOL    HW1 2282   0.078   1.193   4.465
  646SOL    HW2 2283   0.161   1.212   4.326
  647SOL     OW 2284   0.672   1.391   5.348
  647SOL    HW1 2285   0.594   1.341   5.386
  647SOL    HW2 2286   0.669   1.486   5.379
  648SOL     OW 2287   1.824   0.192   4.951
  648SOL    HW1 2288   1.820   0.102   4.995
  648SOL    HW2 2289   1.827   0.181   4.852
  649SOL     OW 2290   0.428   0.424   4.244
  649SOL    HW1 2291   0.458   0.352   4.182
  649SOL    HW2 2292   0.389   0.384   4.327
  650SOL     OW 2293   1.705   1.487   4.828
  650SOL    HW1 2294   1.612   1.462   4.801
  650SOL    HW2 2295   1.731   1.437   4.910
  651SOL     OW 2296   0.317   0.547   5.004
  651SOL    HW1 2297   0.355   0.488   5.076
  651SOL    HW2 2298   0.357   0.521   4.916
  652SOL     OW 2299   0.812   1.586   4.411
  652SOL    HW1 2300   0.844   1.596   4.317
  652SOL    HW2 2301   0.733   1.524   4.413
  653SOL     OW 2302   1.424   0.214   4.836
  653SOL    HW1 2303   1.476   0.149   4.891
  653SOL    HW2 2304   1.375   0.277   4.897
  654SOL     OW 2305   1.001   0.034   4.878
  654SOL    HW1 2306   0.938  -0.038   4.847
  654SOL    HW2 2307   1.094  -0.002   4.878
  655SOL     OW 2308   0.770   1.330   4.025
  655SOL    HW1 2309   0.724   1.243   4.042
  655SOL    HW2 2310   0.861   1.327   4.066
  656SOL     OW 2311   0.618   1.567   5.008
  656SOL    HW1 2312   0.613   1.649   5.065
  656SOL    HW2 2313   0.707   1.564   4.963
  657SOL     OW 2314   1.352   0.052   3.892
  657SOL    HW1 2315   1.387   0.011   3.808
  657SOL    HW2 2316   1.262   0.014   3.912
  658SOL     OW 2317   1.300   0.453   4.415
  658SOL    HW1 2318   1.241   0.533   4.419
  658SOL    HW2 2319   1.315   0.418   4.508
  659SOL     OW 2320   1.593   0.221   4.606
  659SOL    HW1 2321   1.509   0.220   4.660
  659SOL    HW2 2322   1.595   0.304   4.550
  660SOL     OW 2323   0.039   1.077   4.024
  660SOL    HW1 2324   0.138   1.066   4.015
  660SOL    HW2 2325  -0.001   0.991   4.056
  661SOL     OW 2326   0.875   1.646   4.061
  661SOL    HW1 2327   0.798   1.611   4.007
  661SOL    HW2 2328   0.843   1.717   4.123
  662SOL     OW 2329   0.230   0.628   5.699
  662SOL    HW1 2330   0.137   0.626   5.736
  662SOL    HW2 2331   0.231   0.589   5.607
  663SOL     OW 2332   0.225   0.275   6.582
  663SOL    HW1 2333   0.260   0.258   6.674
  663SOL    HW2 2334   0.137   0.230   6.570
  664SOL     OW 2335   0.019   0.368   6.233
  664SOL    HW1 2336  -0.063   0.411   6.272
  664SOL    HW2 2337  -0.009   0.295   6.170
  665SOL     OW 2338   0.569   1.275   6.751
  665SOL    HW1 2339   0.476   1.268   6.714
  665SOL    HW2 2340   0.580   1.364   6.795
  666SOL     OW 2341   1.555   1.511   6.289
  666SOL    HW1 2342   1.498   1.495   6.370
  666SOL    HW2 2343   1.496   1.521   6.209
  667SOL     OW 2344   1.135   0.703   6.303
  667SOL    HW1 2345   1.192   0.781   6.278
  667SOL    HW2 2346   1.075   0.729   6.379
  668SOL     OW 2347   1.755   0.607   5.817
  668SOL    HW1 2348   1.743   0.594   5.718
  668SOL    HW2 2349   1.725   0.526   5.866
  669SOL     OW 2350   0.768   1.144   6.609
  669SOL    HW1 2351   0.690   1.161   6.669
  669SOL    HW2 2352   0.802   1.231   6.573
  670SOL     OW 2353   0.850   0.798   7.409
  670SOL    HW1 2354   0.846   0.874   7.474
  670SOL    HW2 2355   0.872   0.834   7.318
  671SOL     OW 2356   0.685   1.012   6.251
  671SOL    HW1 2357   0.754   0.996   6.321
  671SOL    HW2 2358   0.612   1.069   6.289
  672SOL     OW 2359   0.686   1.161   7.389
  672SOL    HW1 2360   0.746   1.240   7.403
  672SOL    HW2 2361   0.600   1.192   7.348
  673SOL     OW 2362   0.335   1.435   6.647
  673SOL    HW1 2363   0.257   1.404   6.594
  673SOL    HW2 2364   0.393   1.493   6.590
  674SOL     OW 2365   1.460   1.505   6.925
  674SOL    HW1 2366   1.484   1.599   6.951
  674SOL    HW2 2367   1.444   1.451   7.007
  675SOL     OW 2368   0.438   0.392   7.085
  675SOL    HW1 2369   0.520   0.336   7.094
  675SOL    HW2 2370   0.357   0.334   7.089
  676SOL     OW 2371   1.603   0.447   6.323
  676SOL    HW1 2372   1.529   0.493   6.273
  676SOL    HW2 2373   1.654   0.515   6.376
  677SOL     OW 2374   0.231   1.713   6.069
  677SOL    HW1 2375   0.265   1.790   6.123
  677SOL    HW2 2376   0.275   1.713   5.979
  678SOL     OW 2377   1.127   1.341   7.276
  678SOL    HW1 2378   1.174   1.341   7.364
  678SOL    HW2 2379   1.079   1.254   7.265
  679SOL     OW 2380   0.230   1.434   6.124
  679SOL    HW1 2381   0.204   1.530   6.124
  679SOL    HW2 2382   0.159   1.380   6.169
  680SOL     OW 2383   0.240   1.091   6.472
  680SOL    HW1 2384   0.254   1.007   6.524
  680SOL    HW2 2385   0.185   1.155   6.527
  681SOL     OW 2386   0.620   1.786   7.025
  681SOL    HW1 2387   0.528   1.769   7.060
  681SOL    HW2 2388   0.648   1.878   7.051
  682SOL     OW 2389   0.606   0.964   5.709
  682SOL    HW1 2390   0.613   1.048   5.655
  682SOL    HW2 2391   0.652   0.977   5.797
  683SOL     OW 2392   1.594   0.114   7.066
  683SOL    HW1 2393   1.576   0.181   6.994
  683SOL    HW2 2394   1.591   0.160   7.155
  684SOL     OW 2395   0.122   0.643   6.149
  684SOL    HW1 2396   0.077   0.555   6.166
  684SOL    HW2 2397   0.121   0.697   6.233
  685SOL     OW 2398   1.842   1.767   5.945
  685SOL    HW1 2399   1.896   1.738   6.025
  685SOL    HW2 2400   1.872   1.857   5.916
  686SOL     OW 2401   0.027   1.596   5.703
  686SOL    HW1 2402   0.008   1.500   5.724
  686SOL    HW2 2403  -0.006   1.654   5.778
  687SOL     OW 2404   1.689   0.922   6.198
  687SOL    HW1 2405   1.784   0.893   6.206
  687SOL    HW2 2406   1.681   0.987   6.123
  688SOL     OW 2407   1.641   1.108   6.018
  688SOL    HW1 2408   1.727   1.110   5.966
  688SOL    HW2 2409   1.655   1.155   6.106
  689SOL     OW 2410   0.113   0.737   7.183
  689SOL    HW1 2411   0.201   0.724   7.228
  689SOL    HW2 2412   0.100   0.834   7.161
  690SOL     OW 2413   0.613   1.365   6.312
  690SOL    HW1 2414   0.564   1.278   6.321
  690SOL    HW2 2415   0.590   1.408   6.225
  691SOL     OW 2416   1.293   1.228   7.009
  691SOL    HW1 2417   1.330   1.155   6.951
  691SOL    HW2 2418   1.345   1.233   7.094
  692SOL     OW 2419   0.809   0.004   6.088
  692SOL    HW1 2420   0.849   0.095   6.079
  692SOL    HW2 2421   0.709   0.012   6.094
  693SOL     OW 2422   0.197   0.976   6.850
  693SOL    HW1 2423   0.286   0.931   6.836
  693SOL    HW2 2424   0.124   0.911   6.831
  694SOL     OW 2425   1.525   0.999   5.776
  694SOL    HW1 2426   1.462   0.923   5.789
  694SOL    HW2 2427   1.573   1.017   5.862
  695SOL     OW 2428   1.187   1.792   7.202
  695SOL    HW1 2429   1.211   1.852   7.126
  695SOL    HW2 2430   1.194   1.697   7.172
  696SOL     OW 2431   0.317   0.251   7.387
  696SOL    HW1 2432   0.388   0.322   7.393
  696SOL    HW2 2433   0.229   0.290   7.415
  697SOL     OW 2434   1.466   1.417   6.539
  697SOL    HW1 2435   1.407   1.423   6.619
  697SOL    HW2 2436   1.451   1.329   6.493
  698SOL     OW 2437   1.667   1.714   6.158
  698SOL    HW1 2438   1.626   1.691   6.070
  698SOL    HW2 2439   1.649   1.640   6.223
  699SOL     OW 2440   0.598   0.729   5.856
  699SOL    HW1 2441   0.622   0.798   5.788
  699SOL    HW2 2442   0.520   0.762   5.910
  700SOL     OW 2443   1.281   0.345   6.530
  700SOL    HW1 2444   1.195   0.295   6.517
  700SOL    HW2 2445   1.343   0.291   6.586
  701SOL     OW 2446   1.576   1.662   5.893
  701SOL    HW1 2447   1.665   1.708   5.896
  701SOL    HW2 2448   1.555   1.638   5.798
  702SOL     OW 2449   0.807   0.605   7.051
  702SOL    HW1 2450   0.760   0.602   7.140
  702SOL    HW2 2451   0.756   0.550   6.985
  703SOL     OW 2452   1.394   0.469   7.260
  703SOL    HW1 2453   1.374   0.512   7.348
  703SOL    HW2 2454   1.472   0.407   7.269
  704SOL     OW 2455   0.973   0.890   7.158
  704SOL    HW1 2456   1.019   0.806   7.129
  704SOL    HW2 2457   0.917   0.924   7.083
  705SOL     OW 2458   0.991   0.410   6.828
  705SOL    HW1 2459   0.914   0.444   6.882
  705SOL    HW2 2460   0.957   0.359   6.749
  706SOL     OW 2461   1.041   0.701   6.015
  706SOL    HW1 2462   1.067   0.697   6.111
  706SOL    HW2 2463   0.956   0.650   6.001
  707SOL     OW 2464   0.076   0.811   6.375
  707SOL    HW1 2465   0.175   0.799   6.384
  707SOL    HW2 2466   0.052   0.906   6.396
  708SOL     OW 2467   0.130   1.821   7.157
  708SOL    HW1 2468   0.120   1.806   7.256
  708SOL    HW2 2469   0.044   1.857   7.121
  709SOL     OW 2470   0.865   0.348   5.781
  709SOL    HW1 2471   0.924   0.411   5.732
  709SOL    HW2 2472   0.884   0.254   5.752
  710SOL     OW 2473   1.719   0.585   7.417
  710SOL    HW1 2474   1.693   0.674   7.381
  710SOL    HW2 2475   1.717   0.517   7.344
  711SOL     OW 2476   1.362   1.144   6.131
  711SOL    HW1 2477   1.445   1.115   6.083
  711SOL    HW2 2478   1.313   1.211   6.075
  712SOL     OW 2479   0.550   0.196   6.471
  712SOL    HW1 2480   0.545   0.191   6.571
  712SOL    HW2 2481   0.552   0.292   6.442
  713SOL     OW 2482   1.008   1.456   6.063
  713SOL    HW1 2483   0.962   1.528   6.011
  713SOL    HW2 2484   1.004   1.476   6.161
  714SOL     OW 2485   0.351   1.801   6.439
  714SOL    HW1 2486   0.401   1.715   6.445
  714SOL    HW2 2487   0.416   1.878   6.436
  715SOL     OW 2488   1.795   1.066   6.459
  715SOL    HW1 2489   1.733   1.051   6.383
  715SOL    HW2 2490   1.743   1.077   6.544
  716SOL     OW 2491   1.227   1.550   7.092
  716SOL    HW1 2492   1.233   1.473   7.156
  716SOL    HW2 2493   1.175   1.524   7.012
  717SOL     OW 2494   0.321   0.943   5.828
  717SOL    HW1 2495   0.403   0.982   5.786
  717SOL    HW2 2496   0.294   0.861   5.779
  718SOL     OW 2497   1.458   0.735   6.314
  718SOL    HW1 2498   1.453   0.670   6.389
  718SOL    HW2 2499   1.538   0.794   6.327
  719SOL     OW 2500   0.461   1.266   7.313
  719SOL    HW1 2501   0.411   1.267   7.227
  719SOL    HW2 2502   0.398   1.248   7.389
  720SOL     OW 2503   1.111   1.776   5.823
  720SOL    HW1 2504   1.051   1.714   5.873
  720SOL    HW2 2505   1.142   1.732   5.738
  721SOL     OW 2506   0.202   0.285   7.084
  721SOL    HW1 2507   0.122   0.345   7.071
  721SOL    HW2 2508   0.192   0.236   7.170
  722SOL     OW 2509   1.632   1.377   5.667
  722SOL    HW1 2510   1.600   1.471   5.657
  722SOL    HW2 2511   1.556   1.314   5.655
  723SOL     OW 2512   0.464   1.743   5.909
  723SOL    HW1 2513   0.497   1.782   5.995
  723SOL    HW2 2514   0.540   1.736   5.844
  724SOL     OW 2515   1.400   0.107   6.012
  724SOL    HW1 2516   1.376   0.070   5.922
  724SOL    HW2 2517   1.499   0.123   6.016
  725SOL     OW 2518   0.249   1.785   6.827
  725SOL    HW1 2519   0.306   1.720   6.877
  725SOL    HW2 2520   0.233   1.752   6.734
  726SOL     OW 2521   0.940   1.698   6.490
  726SOL    HW1 2522   1.020   1.641   6.511
  726SOL    HW2 2523   0.891   1.658   6.413
  727SOL     OW 2524   0.382   0.700   6.066
  727SOL    HW1 2525   0.427   0.610   6.063
  727SOL    HW2 2526   0.288   0.689   6.099
  728SOL     OW 2527   1.547   0.222   7.315
  728SOL    HW1 2528   1.542   0.259   7.407
  728SOL    HW2 2529   1.475   0.153   7.303
  729SOL     OW 2530   0.614   0.122   5.703
  729SOL    HW1 2531   0.712   0.100   5.710
  729SOL    HW2 2532   0.583   0.105   5.610
  730SOL     OW 2533   0.781   0.264   7.335
  730SOL    HW1 2534   0.848   0.203   7.378
  730SOL    HW2 2535   0.708   0.283   7.400
  731SOL     OW 2536   0.888   1.514   6.781
  731SOL    HW1 2537   0.865   1.489   6.687
  731SOL    HW2 2538   0.949   1.445   6.820
  732SOL     OW 2539   1.351   0.590   7.019
  732SOL    HW1 2540   1.379   0.547   7.104
  732SOL    HW2 2541   1.376   0.686   7.020
  733SOL     OW 2542   0.803   1.402   6.510
  733SOL    HW1 2543   0.893   1.416   6.468
  733SOL    HW2 2544   0.732   1.404   6.439
  734SOL     OW 2545   0.922   0.503   6.485
  734SOL    HW1 2546   0.897   0.494   6.389
  734SOL    HW2 2547   0.970   0.421   6.516
  735SOL     OW 2548   0.539   0.064   6.098
  735SOL    HW1 2549   0.458   0.065   6.156
  735SOL    HW2 2550   0.542   0.147   6.043
  736SOL     OW 2551   1.434   1.188   5.627
  736SOL    HW1 2552   1.466   1.112   5.684
  736SOL    HW2 2553   1.342   1.215   5.657
  737SOL     OW 2554   0.297   0.035   5.757
  737SOL    HW1 2555   0.346   0.119   5.736
  737SOL    HW2 2556   0.359  -0.030   5.802
  738SOL     OW 2557   0.935   0.236   6.066
  738SOL    HW1 2558   0.887   0.277   5.988
  738SOL    HW2 2559   1.034   0.234   6.047
  739SOL     OW 2560   1.076   0.683   7.050
  739SOL    HW1 2561   0.996   0.622   7.053
  739SOL    HW2 2562   1.157   0.630   7.026
  740SOL     OW 2563   1.227   1.570   6.379
  740SOL    HW1 2564   1.248   1.644   6.314
  740SOL    HW2 2565   1.295   1.570   6.452
  741SOL     OW 2566   0.459   1.152   6.327
  741SOL    HW1 2567   0.388   1.125   6.392
  741SOL    HW2 2568   0.433   1.124   6.234
  742SOL     OW 2569   1.271   1.797   6.177
  742SOL    HW1 2570   1.315   1.861   6.113
  742SOL    HW2 2571   1.221   1.849   6.247
  743SOL     OW 2572   1.032   0.549   5.602
  743SOL    HW1 2573   0.991   0.631   5.563
  743SOL    HW2 2574   1.096   0.575   5.675
  744SOL     OW 2575   0.078   0.556   6.972
  744SOL    HW1 2576   0.170   0.555   6.931
  744SOL    HW2 2577   0.072   0.630   7.039
  745SOL     OW 2578   0.561   0.222   6.733
  745SOL    HW1 2579   0.599   0.138   6.770
  745SOL    HW2 2580   0.473   0.241   6.777
  746SOL     OW 2581   0.866   0.454   6.228
  746SOL    HW1 2582   0.834   0.526   6.166
  746SOL    HW2 2583   0.890   0.373   6.175
  747SOL     OW 2584   1.017   0.039   6.339
  747SOL    HW1 2585   0.945   0.044   6.270
  747SOL    HW2 2586   0.993  -0.030   6.408
  748SOL     OW 2587   1.429   1.173   6.453
  748SOL    HW1 2588   1.374   1.089   6.446
  748SOL    HW2 2589   1.455   1.202   6.361
  749SOL     OW 2590   1.466   0.590   6.578
  749SOL    HW1 2591   1.436   0.495   6.585
  749SOL    HW2 2592   1.539   0.606   6.644
  750SOL     OW 2593   1.857   0.833   5.963
  750SOL    HW1 2594   1.899   0.769   6.027
  750SOL    HW2 2595   1.819   0.782   5.885
  751SOL     OW 2596   0.488   1.385   5.760
  751SOL    HW1 2597   0.401   1.370   5.807
  751SOL    HW2 2598   0.471   1.411   5.665
  752SOL     OW 2599   1.664   1.280   6.243
  752SOL    HW1 2600   1.763   1.288   6.257
  752SOL    HW2 2601   1.619   1.364   6.274
  753SOL     OW 2602   1.390   0.575   5.664
  753SOL    HW1 2603   1.336   0.554   5.745
  753SOL    HW2 2604   1.481   0.534   5.673
  754SOL     OW 2605   0.527   0.256   5.914
  754SOL    HW1 2606   0.554   0.197   5.839
  754SOL    HW2 2607   0.527   0.351   5.883
  755SOL     OW 2608   1.754   1.223   7.174
  755SOL    HW1 2609   1.845   1.184   7.161
  755SOL    HW2 2610   1.762   1.319   7.198
  756SOL     OW 2611   1.064   1.347   6.926
  756SOL    HW1 2612   0.984   1.324   6.981
  756SOL    HW2 2613   1.147   1.321   6.975
  757SOL     OW 2614   1.592   1.629   7.211
  757SOL    HW1 2615   1.619   1.663   7.121
  757SOL    HW2 2616   1.671   1.591   7.257
  758SOL     OW 2617   1.111   1.195   6.686
  758SOL    HW1 2618   1.071   1.239   6.767
  758SOL    HW2 2619   1.070   1.232   6.603
  759SOL     OW 2620   1.638   1.099   6.665
  759SOL    HW1 2621   1.643   1.180   6.724
  759SOL    HW2 2622   1.552   1.101   6.614
  760SOL     OW 2623   0.915   0.089   6.988
  760SOL    HW1 2624   0.940   0.069   6.893
  760SOL    HW2 2625   0.987   0.145   7.030
  761SOL     OW 2626   0.980   1.116   7.305
  761SOL    HW1 2627   0.881   1.122   7.315
  761SOL    HW2 2628   1.003   1.036   7.249
  762SOL     OW 2629   0.705   1.050   5.954
  762SOL    HW1 2630   0.691   1.057   6.053
  762SOL    HW2 2631   0.789   0.999   5.936
  763SOL     OW 2632   0.410   0.813   6.837
  763SOL    HW1 2633   0.496   0.825   6.887
  763SOL    HW2 2634   0.368   0.726   6.864
  764SOL     OW 2635   1.274   0.386   6.848
  764SOL    HW1 2636   1.295   0.460   6.912
  764SOL    HW2 2637   1.185   0.403   6.805
  765SOL     OW 2638   0.064   1.564   6.917
  765SOL    HW1 2639   0.018   1.646   6.883
  765SOL    HW2 2640   0.162   1.583   6.926
  766SOL     OW 2641   0.367   1.100   6.087
  766SOL    HW1 2642   0.360   1.183   6.031
  766SOL    HW2 2643   0.371   1.020   6.027
  767SOL     OW 2644   0.566   0.537   6.451
  767SOL    HW1 2645   0.578   0.603   6.377
  767SOL    HW2 2646   0.612   0.571   6.534
  768SOL     OW 2647   1.252   1.348   5.974
  768SOL    HW1 2648   1.302   1.425   6.014
  768SOL    HW2 2649   1.157   1.350   6.006
  769SOL     OW 2650   1.272   1.445   6.728
  769SOL    HW1 2651   1.319   1.458   6.815
  769SOL    HW2 2652   1.206   1.371   6.737
  770SOL     OW 2653   1.582   0.639   6.058
  770SOL    HW1 2654   1.551   0.700   6.131
  770SOL    HW2 2655   1.632   0.691   5.989
  771SOL     OW 2656   0.354   1.510   6.915
  771SOL    HW1 2657   0.333   1.466   6.828
  771SOL    HW2 2658   0.451   1.536   6.918
  772SOL     OW 2659   0.402   0.751   7.184
  772SOL    HW1 2660   0.470   0.806   7.137
  772SOL    HW2 2661   0.442   0.663   7.211
  773SOL     OW 2662   1.587   0.779   7.256
  773SOL    HW1 2663   1.495   0.817   7.251
  773SOL    HW2 2664   1.647   0.826   7.191
  774SOL     OW 2665   1.013   0.105   7.356
  774SOL    HW1 2666   1.019   0.190   7.304
  774SOL    HW2 2667   1.045   0.029   7.299
  775SOL     OW 2668   0.504   0.050   7.326
  775SOL    HW1 2669   0.462  -0.007   7.256
  775SOL    HW2 2670   0.438   0.119   7.358
  776SOL     OW 2671   0.573   0.870   6.615
  776SOL    HW1 2672   0.617   0.959   6.606
  776SOL    HW2 2673   0.510   0.870   6.692
  777SOL     OW 2674   1.360   0.862   6.631
  777SOL    HW1 2675   1.285   0.862   6.565
  777SOL    HW2 2676   1.397   0.770   6.640
  778SOL     OW 2677   1.209   0.525   5.861
  778SOL    HW1 2678   1.222   0.441   5.915
  778SOL    HW2 2679   1.180   0.599   5.921
  779SOL     OW 2680   0.307   0.213   6.817
  779SOL    HW1 2681   0.284   0.250   6.907
  779SOL    HW2 2682   0.277   0.118   6.811
  780SOL     OW 2683   0.037   1.310   6.868
  780SOL    HW1 2684   0.090   1.261   6.936
  780SOL    HW2 2685   0.059   1.408   6.873
  781SOL     OW 2686   0.732   0.634   6.650
  781SOL    HW1 2687   0.791   0.608   6.574
  781SOL    HW2 2688   0.704   0.730   6.639
  782SOL     OW 2689   1.728   0.935   7.440
  782SOL    HW1 2690   1.682   0.928   7.351
  782SOL    HW2 2691   1.666   0.979   7.506
  783SOL     OW 2692   0.307   0.063   6.204
  783SOL    HW1 2693   0.296   0.157   6.237
  783SOL    HW2 2694   0.302   0.000   6.281
  784SOL     OW 2695   1.622   0.367   5.960
  784SOL    HW1 2696   1.624   0.291   6.024
  784SOL    HW2 2697   1.574   0.444   6.000
  785SOL     OW 2698   1.023   0.766   6.552
  785SOL    HW1 2699   1.038   0.787   6.648
  785SOL    HW2 2700   0.993   0.671   6.543
  786SOL     OW 2701   0.980   1.573   7.286
  786SOL    HW1 2702   0.960   1.617   7.198
  786SOL    HW2 2703   1.019   1.482   7.270
  787SOL     OW 2704   1.859   1.518   7.191
  787SOL    HW1 2705   1.873   1.545   7.096
  787SOL    HW2 2706   1.942   1.540   7.244
  788SOL     OW 2707   0.350   0.898   7.390
  788SOL    HW1 2708   0.426   0.942   7.438
  788SOL    HW2 2709   0.385   0.851   7.308
  789SOL     OW 2710   1.540   0.274   5.711
  789SOL    HW1 2711   1.479   0.199   5.734
  789SOL    HW2 2712   1.562   0.326   5.794
  790SOL     OW 2713   1.303   0.838   5.628
  790SOL    HW1 2714   1.337   0.745   5.643
  790SOL    HW2 2715   1.321   0.865   5.533
  791SOL     OW 2716   1.068   1.333   6.435
  791SOL    HW1 2717   1.075   1.249   6.380
  791SOL    HW2 2718   1.130   1.402   6.399
  792SOL     OW 2719   0.319   0.810   6.535
  792SOL    HW1 2720   0.412   0.846   6.540
  792SOL    HW2 2721   0.313   0.725   6.587
  793SOL     OW 2722   0.339   0.509   6.592
  793SOL    HW1 2723   0.287   0.426   6.575
  793SOL    HW2 2724   0.416   0.514   6.528
  794SOL     OW 2725   1.138   0.380   7.264
  794SOL    HW1 2726   1.093   0.443   7.328
  794SOL    HW2 2727   1.231   0.411   7.247
  795SOL     OW 2728   1.160   0.207   7.063
  795SOL    HW1 2729   1.160   0.271   7.140
  795SOL    HW2 2730   1.188   0.255   6.980
  796SOL     OW 2731   0.008   1.326   5.786
  796SOL    HW1 2732  -0.085   1.347   5.755
  796SOL    HW2 2733   0.018   1.227   5.799
  797SOL     OW 2734   0.088   1.801   6.513
  797SOL    HW1 2735   0.046   1.715   6.486
  797SOL    HW2 2736   0.182   1.804   6.479
  798SOL     OW 2737   0.504   1.568   6.496
  798SOL    HW1 2738   0.570   1.642   6.505
  798SOL    HW2 2739   0.548   1.489   6.454
  799SOL     OW 2740   1.002   0.796   6.824
  799SOL    HW1 2741   1.043   0.764   6.910
  799SOL    HW2 2742   0.906   0.769   6.821
  800SOL     OW 2743   0.040   0.544   6.700
  800SOL    HW1 2744   0.125   0.511   6.659
  800SOL    HW2 2745   0.053   0.559   6.798
  801SOL     OW 2746   0.189   0.520   7.308
  801SOL    HW1 2747   0.248   0.480   7.238
  801SOL    HW2 2748   0.131   0.591   7.267
  802SOL     OW 2749   1.369   0.950   7.246
  802SOL    HW1 2750   1.408   1.039   7.266
  802SOL    HW2 2751   1.379   0.930   7.149
  803SOL     OW 2752   0.815   0.572   5.911
  803SOL    HW1 2753   0.822   0.483   5.865
  803SOL    HW2 2754   0.721   0.606   5.903
  804SOL     OW 2755   1.657   0.604   6.792
  804SOL    HW1 2756   1.619   0.535   6.854
  804SOL    HW2 2757   1.739   0.568   6.748
  805SOL     OW 2758   0.252   1.564   7.330
  805SOL    HW1 2759   0.222   1.621   7.406
  805SOL    HW2 2760   0.245   1.467   7.356
  806SOL     OW 2761   0.671   0.464   6.855
  806SOL    HW1 2762   0.637   0.375   6.825
  806SOL    HW2 2763   0.697   0.518   6.775
  807SOL     OW 2764   0.930   1.678   7.051
  807SOL    HW1 2765   0.906   1.660   6.956
  807SOL    HW2 2766   0.960   1.772   7.061
  808SOL     OW 2767   0.473   0.500   5.777
  808SOL    HW1 2768   0.534   0.580   5.781
  808SOL    HW2 2769   0.378   0.531   5.784
  809SOL     OW 2770   0.159   1.137   7.052
  809SOL    HW1 2771   0.181   1.076   7.128
  809SOL    HW2 2772   0.169   1.088   6.966
  810SOL     OW 2773   1.347   1.059   6.820
  810SOL    HW1 2774   1.371   0.996   6.746
  810SOL    HW2 2775   1.257   1.099   6.802
  811SOL     OW 2776   1.302   0.855   5.895
  811SOL    HW1 2777   1.216   0.824   5.937
  811SOL    HW2 2778   1.298   0.841   5.796
  812SOL     OW 2779   1.759   1.747   6.740
  812SOL    HW1 2780   1.820   1.777   6.667
  812SOL    HW2 2781   1.721   1.658   6.718
  813SOL     OW 2782   1.252   1.731   6.714
  813SOL    HW1 2783   1.336   1.736   6.660
  813SOL    HW2 2784   1.229   1.635   6.732
  814SOL     OW 2785   0.083   1.258   6.608
  814SOL    HW1 2786   0.078   1.257   6.708
  814SOL    HW2 2787   0.000   1.217   6.570
  815SOL     OW 2788   0.688   1.662   7.302
  815SOL    HW1 2789   0.632   1.743   7.311
  815SOL    HW2 2790   0.740   1.666   7.216
  816SOL     OW 2791   1.726   0.135   6.109
  816SOL    HW1 2792   1.799   0.118   6.042
  816SOL    HW2 2793   1.695   0.048   6.147
  817SOL     OW 2794   1.388   1.573   6.063
  817SOL    HW1 2795   1.455   1.585   5.989
  817SOL    HW2 2796   1.348   1.662   6.086
  818SOL     OW 2797   0.130   1.794   7.437
  818SOL    HW1 2798   0.089   1.720   7.490
  818SOL    HW2 2799   0.194   1.845   7.495
  819SOL     OW 2800   1.280   0.927   6.258
  819SOL    HW1 2801   1.340   0.846   6.260
  819SOL    HW2 2802   1.320   0.996   6.198
  820SOL     OW 2803   0.830   1.273   7.008
  820SOL    HW1 2804   0.825   1.306   7.103
  820SOL    HW2 2805   0.744   1.292   6.962
  821SOL     OW 2806   0.672   1.616   5.740
  821SOL    HW1 2807   0.681   1.626   5.641
  821SOL    HW2 2808   0.632   1.527   5.761
  822SOL     OW 2809   1.650   1.720   6.980
  822SOL    HW1 2810   1.703   1.730   6.896
  822SOL    HW2 2811   1.623   1.810   7.014
  823SOL     OW 2812   1.841   0.175   6.549
  823SOL    HW1 2813   1.880   0.090   6.513
  823SOL    HW2 2814   1.743   0.177   6.530
  824SOL     OW 2815   0.263   0.326   6.306
  824SOL    HW1 2816   0.184   0.377   6.272
  824SOL    HW2 2817   0.254   0.311   6.404
  825SOL     OW 2818   1.194   1.612   5.617
  825SOL    HW1 2819   1.200   1.519   5.654
  825SOL    HW2 2820   1.135   1.612   5.537
  826SOL     OW 2821   0.822   1.002   6.958
  826SOL    HW1 2822   0.862   1.001   6.866
  826SOL    HW2 2823   0.832   1.094   6.998
  827SOL     OW 2824   0.916   0.910   5.877
  827SOL    HW1 2825   0.979   0.948   5.809
  827SOL    HW2 2826   0.956   0.827   5.916
  828SOL     OW 2827   1.504   1.607   5.630
  828SOL    HW1 2828   1.412   1.644   5.637
  828SOL    HW2 2829   1.542   1.627   5.540
  829SOL     OW 2830   0.372   1.288   7.076
  829SOL    HW1 2831   0.359   1.381   7.042
  829SOL    HW2 2832   0.288   1.236   7.063
  830SOL     OW 2833   1.614   1.292   6.875
  830SOL    HW1 2834   1.674   1.295   6.955
  830SOL    HW2 2835   1.539   1.356   6.888
  831SOL     OW 2836   1.039   1.098   6.282
  831SOL    HW1 2837   0.969   1.051   6.336
  831SOL    HW2 2838   1.098   1.030   6.239
  832SOL     OW 2839   1.014   0.236   6.557
  832SOL    HW1 2840   1.006   0.200   6.464
  832SOL    HW2 2841   1.012   0.160   6.622
  833SOL     OW 2842   0.590   1.487   6.077
  833SOL    HW1 2843   0.632   1.429   6.007
  833SOL    HW2 2844   0.546   1.566   6.033
  834SOL     OW 2845   1.709   0.385   6.967
  834SOL    HW1 2846   1.782   0.454   6.971
  834SOL    HW2 2847   1.737   0.310   6.908
  835SOL     OW 2848   0.255   1.348   5.876
  835SOL    HW1 2849   0.159   1.349   5.849
  835SOL    HW2 2850   0.267   1.401   5.960
  836SOL     OW 2851   0.105   1.013   7.312
  836SOL    HW1 2852   0.028   0.980   7.366
  836SOL    HW2 2853   0.190   0.983   7.354
  837SOL     OW 2854   0.672   0.203   7.075
  837SOL    HW1 2855   0.762   0.187   7.035
  837SOL    HW2 2856   0.680   0.208   7.174
  838SOL     OW 2857   0.075   0.345   5.619
  838SOL    HW1 2858  -0.017   0.317   5.590
  838SOL    HW2 2859   0.106   0.422   5.563
  839SOL     OW 2860   1.440   0.856   6.984
  839SOL    HW1 2861   1.383   0.908   6.921
  839SOL    HW2 2862   1.536   0.868   6.960
  840SOL     OW 2863   0.072   0.166   5.904
  840SOL    HW1 2864   0.055   0.249   5.850
  840SOL    HW2 2865   0.162   0.129   5.882
  841SOL     OW 2866   1.183   1.335   5.705
  841SOL    HW1 2867   1.084   1.324   5.707
  841SOL    HW2 2868   1.217   1.350   5.798
  842SOL     OW 2869   0.613   0.842   7.017
  842SOL    HW1 2870   0.669   0.923   7.000
  842SOL    HW2 2871   0.672   0.762   7.020
  843SOL     OW 2872   1.493   1.767   6.545
  843SOL    HW1 2873   1.526   1.831   6.476
  843SOL    HW2 2874   1.559   1.761   6.620
  844SOL     OW 2875   0.716   0.565   7.294
  844SOL    HW1 2876   0.735   0.630   7.368
  844SOL    HW2 2877   0.776   0.485   7.303
  845SOL     OW 2878   1.450   1.220   7.219
  845SOL    HW1 2879   1.441   1.210   7.318
  845SOL    HW2 2880   1.546   1.213   7.193
  846SOL     OW 2881   0.390   1.741   7.146
  846SOL    HW1 2882   0.299   1.782   7.144
  846SOL    HW2 2883   0.383   1.647   7.178
  847SOL     OW 2884   1.674   0.883   6.840
  847SOL    HW1 2885   1.647   0.794   6.803
  847SOL    HW2 2886   1.675   0.951   6.767
  848SOL     OW 2887   1.225   0.325   6.035
  848SOL    HW1 2888   1.290   0.251   6.024
  848SOL    HW2 2889   1.245   0.375   6.119
  849SOL     OW 2890   0.594   0.745   6.238
  849SOL    HW1 2891   0.644   0.830   6.219
  849SOL    HW2 2892   0.506   0.747   6.190
  850SOL     OW 2893   1.777   0.342   7.228
  850SOL    HW1 2894   1.760   0.373   7.134
  850SOL    HW2 2895   1.693   0.305   7.266
  851SOL     OW 2896   1.730   0.934   7.103
  851SOL    HW1 2897   1.768   1.025   7.118
  851SOL    HW2 2898   1.722   0.917   7.004
  852SOL     OW 2899   0.859   1.374   5.602
  852SOL    HW1 2900   0.813   1.389   5.690
  852SOL    HW2 2901   0.903   1.459   5.572
  853SOL     OW 2902   0.661   1.790   6.539
  853SOL    HW1 2903   0.615   1.878   6.526
  853SOL    HW2 2904   0.760   1.802   6.532
  854SOL     OW 2905   0.859   0.956   6.447
  854SOL    HW1 2906   0.913   0.887   6.495
  854SOL    HW2 2907   0.827   1.025   6.513
  855SOL     OW 2908   1.083   0.984   5.673
  855SOL    HW1 2909   1.060   1.037   5.591
  855SOL    HW2 2910   1.164   0.928   5.654
  856SOL     OW 2911   1.861   1.569   6.437
  856SOL    HW1 2912   1.790   1.557   6.367
  856SOL    HW2 2913   1.862   1.490   6.497
  857SOL     OW 2914   0.221   1.314   7.430
  857SOL    HW1 2915   0.156   1.241   7.409
  857SOL    HW2 2916   0.225   1.328   7.528
  858SOL     OW 2917   0.079   1.240   6.239
  858SOL    HW1 2918   0.078   1.193   6.327
  858SOL    HW2 2919   0.161   1.212   6.188
  859SOL     OW 2920   0.672   1.391   7.210
  859SOL    HW1 2921   0.594   1.341   7.248
  859SOL    HW2 2922   0.669   1.486   7.241
  860SOL     OW 2923   1.824   0.192   6.813
  860SOL    HW1 2924   1.820   0.102   6.857
  860SOL    HW2 2925   1.827   0.181   6.714
  861SOL     OW 2926   0.428   0.424   6.106
  861SOL    HW1 2927   0.458   0.352   6.044
  861SOL    HW2 2928   0.389   0.384   6.189
  862SOL     OW 2929   1.705   1.487   6.690
  862SOL    HW1 2930   1.612   1.462   6.663
  862SOL    HW2 2931   1.731   1.437   6.772
  863SOL     OW 2932   0.317   0.547   6.866
  863SOL    HW1 2933   0.355   0.488   6.938
  863SOL    HW2 2934   0.357   0.521   6.778
  864SOL     OW 2935   0.812   1.586   6.273
  864SOL    HW1 2936   0.844   1.596   6.179
  864SOL    HW2 2937   0.733   1.524   6.275
  865SOL     OW 2938   1.424   0.214   6.698
  865SOL    HW1 2939   1.476   0.149   6.753
  865SOL    HW2 2940   1.375   0.277   6.759
  866SOL     OW 2941   1.001   0.034   6.740
  866SOL    HW1 2942   0.938  -0.038   6.709
  866SOL    HW2 2943   1.094  -0.002   6.740
  867SOL     OW 2944   0.770   1.330   5.887
  867SOL    HW1 2945   0.724   1.243   5.904
  867SOL    HW2 2946   0.861   1.327   5.928
  868SOL     OW 2947   0.618   1.567   6.870
  868SOL    HW1 2948   0.613   1.649   6.927
  868SOL    HW2 2949   0.707   1.564   6.825
  869SOL     OW 2950   1.352   0.052   5.754
  869SOL    HW1 2951   1.387   0.011   5.670
  869SOL    HW2 2952   1.262   0.014   5.774
  870SOL     OW 2953   1.300   0.453   6.277
  870SOL    HW1 2954   1.241   0.533   6.281
  870SOL    HW2 2955   1.315   0.418   6.370
  871SOL     OW 2956   1.593   0.221   6.468
  871SOL    HW1 2957   1.509   0.220   6.522
  871SOL    HW2 2958   1.595   0.304   6.412
  872SOL     OW 2959   0.039   1.077   5.886
  872SOL    HW1 2960   0.138   1.066   5.877
  872SOL    HW2 2961  -0.001   0.991   5.918
  873SOL     OW 2962   0.875   1.646   5.923
  873SOL    HW1 2963   0.798   1.611   5.869
  873SOL    HW2 2964   0.843   1.717   5.985
  874SOL     OW 2965   0.230   0.628   7.561
  874SOL    HW1 2966   0.137   0.626   7.598
  874SOL    HW2 2967   0.231   0.589   7.469
  875SOL     OW 2968   1.755   0.607   7.679
  875SOL    HW1 2969   1.743   0.594   7.580
  875SOL    HW2 2970   1.725   0.526   7.728
  876SOL     OW 2971   0.231   1.713   7.931
  876SOL    HW1 2972   0.265   1.790   7.985
  876SOL    HW2 2973   0.275   1.713   7.841
  877SOL     OW 2974   0.606   0.964   7.571
  877SOL    HW1 2975   0.613   1.048   7.517
  877SOL    HW2 2976   0.652   0.977   7.659
  878SOL     OW 2977   1.842   1.767   7.807
  878SOL    HW1 2978   1.896   1.738   7.887
  878SOL    HW2 2979   1.872   1.857   7.778
  879SOL     OW 2980   0.027   1.596   7.565
  879SOL    HW1 2981   0.008   1.500   7.586
  879SOL    HW2 2982  -0.006   1.654   7.640
  880SOL     OW 2983   1.641   1.108   7.880
  880SOL    HW1 2984   1.727   1.110   7.828
  880SOL    HW2 2985   1.655   1.155   7.968
  881SOL     OW 2986   0.809   0.004   7.950
  881SOL    HW1 2987   0.849   0.095   7.941
  881SOL    HW2 2988   0.709   0.012   7.956
  882SOL     OW 2989   1.525   0.999   7.638
  882SOL    HW1 2990   1.462   0.923   7.651
  882SOL    HW2 2991   1.573   1.017   7.724
  883SOL     OW 2992   1.667   1.714   8.020
  883SOL    HW1 2993   1.626   1.691   7.932
  883SOL    HW2 2994   1.649   1.640   8.085
  884SOL     OW 2995   0.598   0.729   7.718
  884SOL    HW1 2996   0.622   0.798   7.650
  884SOL    HW2 2997   0.520   0.762   7.772
  885SOL     OW 2998   1.576   1.662   7.755
  885SOL    HW1 2999   1.665   1.708   7.758
  885SOL    HW2 3000   1.555   1.638   7.660
  886SOL     OW 3001   1.041   0.701   7.877
  886SOL    HW1 3002   1.067   0.697   7.973
  886SOL    HW2 3003   0.956   0.650   7.863
  887SOL     OW 3004   0.865   0.348   7.643
  887SOL    HW1 3005   0.924   0.411   7.594
  887SOL    HW2 3006   0.884   0.254   7.614
  888SOL     OW 3007   1.362   1.144   7.993
  888SOL    HW1 3008   1.445   1.115   7.945
  888SOL    HW2 3009   1.313   1.211   7.937
  889SOL     OW 3010   1.008   1.456   7.925
  889SOL    HW1 3011   0.962   1.528   7.873
  889SOL    HW2 3012   1.004   1.476   8.023
  890SOL     OW 3013   0.321   0.943   7.690
  890SOL    HW1 3014   0.403   0.982   7.648
  890SOL    HW2 3015   0.294   0.861   7.641
  891SOL     OW 3016   1.111   1.776   7.685
  891SOL    HW1 3017   1.051   1.714   7.735
  891SOL    HW2 3018   1.142   1.732   7.600
  892SOL     OW 3019   1.632   1.377   7.529
  892SOL    HW1 3020   1.600   1.471   7.519
  892SOL    HW2 3021   1.556   1.314   7.517
  893SOL     OW 3022   0.464   1.743   7.771
  893SOL    HW1 3023   0.497   1.782   7.857
  893SOL    HW2 3024   0.540   1.736   7.706
  894SOL     OW 3025   1.400   0.107   7.874
  894SOL    HW1 3026   1.376   0.070   7.784
  894SOL    HW2 3027   1.499   0.123   7.878
  895SOL     OW 3028   0.382   0.700   7.928
  895SOL    HW1 3029   0.427   0.610   7.925
  895SOL    HW2 3030   0.288   0.689   7.961
  896SOL     OW 3031   0.614   0.122   7.565
  896SOL    HW1 3032   0.712   0.100   7.572
  896SOL    HW2 3033   0.583   0.105   7.472
  897SOL     OW 3034   0.539   0.064   7.960
  897SOL    HW1 3035   0.458   0.065   8.018
  897SOL    HW2 3036   0.542   0.147   7.905
  898SOL     OW 3037   1.434   1.188   7.489
  898SOL    HW1 3038   1.466   1.112   7.546
  898SOL    HW2 3039   1.342   1.215   7.519
  899SOL     OW 3040   0.297   0.035   7.619
  899SOL    HW1 3041   0.346   0.119   7.598
  899SOL    HW2 3042   0.359  -0.030   7.664
  900SOL     OW 3043   0.935   0.236   7.928
  900SOL    HW1 3044   0.887   0.277   7.850
  900SOL    HW2 3045   1.034   0.234   7.909
  901SOL     OW 3046   1.032   0.549   7.464
  901SOL    HW1 3047   0.991   0.631   7.425
  901SOL    HW2 3048   1.096   0.575   7.537
  902SOL     OW 3049   1.857   0.833   7.825
  902SOL    HW1 3050   1.899   0.769   7.889
  902SOL    HW2 3051   1.819   0.782   7.747
  903SOL     OW 3052   0.488   1.385   7.622
  903SOL    HW1 3053   0.401   1.370   7.669
  903SOL    HW2 3054   0.471   1.411   7.527
  904SOL     OW 3055   1.390   0.575   7.526
  904SOL    HW1 3056   1.336   0.554   7.607
  904SOL    HW2 3057   1.481   0.534   7.535
  905SOL     OW 3058   0.527   0.256   7.776
  905SOL    HW1 3059   0.554   0.197   7.701
  905SOL    HW2 3060   0.527   0.351   7.745
  906SOL     OW 3061   0.705   1.050   7.816
  906SOL    HW1 3062   0.691   1.057   7.915
  906SOL    HW2 3063   0.789   0.999   7.798
  907SOL     OW 3064   0.367   1.100   7.949
  907SOL    HW1 3065   0.360   1.183   7.893
  907SOL    HW2 3066   0.371   1.020   7.889
  908SOL     OW 3067   1.252   1.348   7.836
  908SOL    HW1 3068   1.302   1.425   7.876
  908SOL    HW2 3069   1.157   1.350   7.868
  909SOL     OW 3070   1.582   0.639   7.920
  909SOL    HW1 3071   1.551   0.700   7.993
  909SOL    HW2 3072   1.632   0.691   7.851
  910SOL     OW 3073   1.209   0.525   7.723
  910SOL    HW1 3074   1.222   0.441   7.777
  910SOL    HW2 3075   1.180   0.599   7.783
  911SOL     OW 3076   1.622   0.367   7.822
  911SOL    HW1 3077   1.624   0.291   7.886
  911SOL    HW2 3078   1.574   0.444   7.862
  912SOL     OW 3079   1.540   0.274   7.573
  912SOL    HW1 3080   1.479   0.199   7.596
  912SOL    HW2 3081   1.562   0.326   7.656
  913SOL     OW 3082   1.303   0.838   7.490
  913SOL    HW1 3083   1.337   0.745   7.505
  913SOL    HW2 3084   1.321   0.865   7.395
  914SOL     OW 3085   0.008   1.326   7.648
  914SOL    HW1 3086  -0.085   1.347   7.617
  914SOL    HW2 3087   0.018   1.227   7.661
  915SOL     OW 3088   0.815   0.572   7.773
  915SOL    HW1 3089   0.822   0.483   7.727
  915SOL    HW2 3090   0.721   0.606   7.765
  916SOL     OW 3091   0.473   0.500   7.639
  916SOL    HW1 3092   0.534   0.580   7.643
  916SOL    HW2 3093   0.378   0.531   7.646
  917SOL     OW 3094   1.302   0.855   7.757
  917SOL    HW1 3095   1.216   0.824   7.799
  917SOL    HW2 3096   1.298   0.841   7.658
  918SOL     OW 3097   1.726   0.135   7.971
  918SOL    HW1 3098   1.799   0.118   7.904
  918SOL    HW2 3099   1.695   0.048   8.009
  919SOL     OW 3100   1.388   1.573   7.925
  919SOL    HW1 3101   1.455   1.585   7.851
  919SOL    HW2 3102   1.348   1.662   7.948
  920SOL     OW 3103   0.672   1.616   7.602
  920SOL    HW1 3104   0.681   1.626   7.503
  920SOL    HW2 3105   0.632   1.527   7.623
  921SOL     OW 3106   1.194   1.612   7.479
  921SOL    HW1 3107   1.200   1.519   7.516
  921SOL    HW2 3108   1.135   1.612   7.399
  922SOL     OW 3109   0.916   0.910   7.739
  922SOL    HW1 3110   0.979   0.948   7.671
  922SOL    HW2 3111   0.956   0.827   7.778
  923SOL     OW 3112   1.504   1.607   7.492
  923SOL    HW1 3113   1.412   1.644   7.499
  923SOL    HW2 3114   1.542   1.627   7.402
  924SOL     OW 3115   0.590   1.487   7.939
  924SOL    HW1 3116   0.632   1.429   7.869
  924SOL    HW2 3117   0.546   1.566   7.895
  925SOL     OW 3118   0.255   1.348   7.738
  925SOL    HW1 3119   0.159   1.349   7.711
  925SOL    HW2 3120   0.267   1.401   7.822
  926SOL     OW 3121   0.075   0.345   7.481
  926SOL    HW1 3122  -0.017   0.317   7.452
  926SOL    HW2 3123   0.106   0.422   7.425
  927SOL     OW 3124   0.072   0.166   7.766
  927SOL    HW1 3125   0.055   0.249   7.712
  927SOL    HW2 3126   0.162   0.129   7.744
  928SOL     OW 3127   1.183   1.335   7.567
  928SOL    HW1 3128   1.084   1.324   7.569
  928SOL    HW2 3129   1.217   1.350   7.660
  929SOL     OW 3130   1.225   0.325   7.897
  929SOL    HW1 3131   1.290   0.251   7.886
  929SOL    HW2 3132   1.245   0.375   7.981
  930SOL     OW 3133   0.859   1.374   7.464
  930SOL    HW1 3134   0.813   1.389   7.552
  930SOL    HW2 3135   0.903   1.459   7.434
  931SOL     OW 3136   1.083   0.984   7.535
  931SOL    HW1 3137   1.060   1.037   7.453
  931SOL    HW2 3138   1.164   0.928   7.516
  932SOL     OW 3139   0.428   0.424   7.968
  932SOL    HW1 3140   0.458   0.352   7.906
  932SOL    HW2 3141   0.389   0.384   8.051
  933SOL     OW 3142   0.770   1.330   7.749
  933SOL    HW1 3143   0.724   1.243   7.766
  933SOL    HW2 3144   0.861   1.327   7.790
  934SOL     OW 3145   1.352   0.052   7.616
  934SOL    HW1 3146   1.387   0.011   7.532
  934SOL    HW2 3147   1.262   0.014   7.636
  935SOL     OW 3148   0.039   1.077   7.748
  935SOL    HW1 3149   0.138   1.066   7.739
  935SOL    HW2 3150  -0.001   0.991   7.780
  936SOL     OW 3151   0.875   1.646   7.785
  936SOL    HW1 3152   0.798   1.611   7.731
  936SOL    HW2 3153   0.843   1.717   7.847
  937SOL     OW 3154   0.230   2.490   0.113
  937SOL    HW1 3155   0.137   2.488   0.150
  937SOL    HW2 3156   0.231   2.451   0.021
  938SOL     OW 3157   0.225   2.137   0.996
  938SOL    HW1 3158   0.260   2.120   1.088
  938SOL    HW2 3159   0.137   2.092   0.984
  939SOL     OW 3160   0.019   2.230   0.647
  939SOL    HW1 3161  -0.063   2.273   0.686
  939SOL    HW2 3162  -0.009   2.157   0.584
  940SOL     OW 3163   0.569   3.137   1.165
  940SOL    HW1 3164   0.476   3.130   1.128
  940SOL    HW2 3165   0.580   3.226   1.209
  941SOL     OW 3166   1.555   3.373   0.703
  941SOL    HW1 3167   1.498   3.357   0.784
  941SOL    HW2 3168   1.496   3.383   0.623
  942SOL     OW 3169   1.135   2.565   0.717
  942SOL    HW1 3170   1.192   2.643   0.692
  942SOL    HW2 3171   1.075   2.591   0.793
  943SOL     OW 3172   1.755   2.469   0.231
  943SOL    HW1 3173   1.743   2.456   0.132
  943SOL    HW2 3174   1.725   2.388   0.280
  944SOL     OW 3175   0.768   3.006   1.023
  944SOL    HW1 3176   0.690   3.023   1.083
  944SOL    HW2 3177   0.802   3.093   0.987
  945SOL     OW 3178   0.850   2.660   1.823
  945SOL    HW1 3179   0.846   2.736   1.888
  945SOL    HW2 3180   0.872   2.696   1.732
  946SOL     OW 3181   0.685   2.874   0.665
  946SOL    HW1 3182   0.754   2.858   0.735
  946SOL    HW2 3183   0.612   2.931   0.703
  947SOL     OW 3184   0.686   3.023   1.803
  947SOL    HW1 3185   0.746   3.102   1.817
  947SOL    HW2 3186   0.600   3.054   1.762
  948SOL     OW 3187   0.335   3.297   1.061
  948SOL    HW1 3188   0.257   3.266   1.008
  948SOL    HW2 3189   0.393   3.355   1.004
  949SOL     OW 3190   1.460   3.367   1.339
  949SOL    HW1 3191   1.484   3.461   1.365
  949SOL    HW2 3192   1.444   3.313   1.421
  950SOL     OW 3193   0.438   2.254   1.499
  950SOL    HW1 3194   0.520   2.198   1.508
  950SOL    HW2 3195   0.357   2.196   1.503
  951SOL     OW 3196   1.603   2.309   0.737
  951SOL    HW1 3197   1.529   2.355   0.687
  951SOL    HW2 3198   1.654   2.377   0.790
  952SOL     OW 3199   0.231   3.575   0.483
  952SOL    HW1 3200   0.265   3.652   0.537
  952SOL    HW2 3201   0.275   3.575   0.393
  953SOL     OW 3202   1.127   3.203   1.690
  953SOL    HW1 3203   1.174   3.203   1.778
  953SOL    HW2 3204   1.079   3.116   1.679
  954SOL     OW 3205   0.230   3.296   0.538
  954SOL    HW1 3206   0.204   3.392   0.538
  954SOL    HW2 3207   0.159   3.242   0.583
  955SOL     OW 3208   0.240   2.953   0.886
  955SOL    HW1 3209   0.254   2.869   0.938
  955SOL    HW2 3210   0.185   3.017   0.941
  956SOL     OW 3211   0.620   3.648   1.439
  956SOL    HW1 3212   0.528   3.631   1.474
  956SOL    HW2 3213   0.648   3.740   1.465
  957SOL     OW 3214   0.606   2.826   0.123
  957SOL    HW1 3215   0.613   2.910   0.069
  957SOL    HW2 3216   0.652   2.839   0.211
  958SOL     OW 3217   1.594   1.976   1.480
  958SOL    HW1 3218   1.576   2.043   1.408
  958SOL    HW2 3219   1.591   2.022   1.569
  959SOL     OW 3220   0.122   2.505   0.563
  959SOL    HW1 3221   0.077   2.417   0.580
  959SOL    HW2 3222   0.121   2.559   0.647
  960SOL     OW 3223   1.842   3.629   0.359
  960SOL    HW1 3224   1.896   3.600   0.439
  960SOL    HW2 3225   1.872   3.719   0.330
  961SOL     OW 3226   0.027   3.458   0.117
  961SOL    HW1 3227   0.008   3.362   0.138
  961SOL    HW2 3228  -0.006   3.516   0.192
  962SOL     OW 3229   1.689   2.784   0.612
  962SOL    HW1 3230   1.784   2.755   0.620
  962SOL    HW2 3231   1.681   2.849   0.537
  963SOL     OW 3232   1.641   2.970   0.432
  963SOL    HW1 3233   1.727   2.972   0.380
  963SOL    HW2 3234   1.655   3.017   0.520
  964SOL     OW 3235   0.113   2.599   1.597
  964SOL    HW1 3236   0.201   2.586   1.642
  964SOL    HW2 3237   0.100   2.696   1.575
  965SOL     OW 3238   0.613   3.227   0.726
  965SOL    HW1 3239   0.564   3.140   0.735
  965SOL    HW2 3240   0.590   3.270   0.639
  966SOL     OW 3241   1.293   3.090   1.423
  966SOL    HW1 3242   1.330   3.017   1.365
  966SOL    HW2 3243   1.345   3.095   1.508
  967SOL     OW 3244   0.809   1.866   0.502
  967SOL    HW1 3245   0.849   1.957   0.493
  967SOL    HW2 3246   0.709   1.874   0.508
  968SOL     OW 3247   0.197   2.838   1.264
  968SOL    HW1 3248   0.286   2.793   1.250
  968SOL    HW2 3249   0.124   2.773   1.245
  969SOL     OW 3250   1.525   2.861   0.190
  969SOL    HW1 3251   1.462   2.785   0.203
  969SOL    HW2 3252   1.573   2.879   0.276
  970SOL     OW 3253   1.187   3.654   1.616
  970SOL    HW1 3254   1.211   3.714   1.540
  970SOL    HW2 3255   1.194   3.559   1.586
  971SOL     OW 3256   0.317   2.113   1.801
  971SOL    HW1 3257   0.388   2.184   1.807
  971SOL    HW2 3258   0.229   2.152   1.829
  972SOL     OW 3259   1.466   3.279   0.953
  972SOL    HW1 3260   1.407   3.285   1.033
  972SOL    HW2 3261   1.451   3.191   0.907
  973SOL     OW 3262   1.667   3.576   0.572
  973SOL    HW1 3263   1.626   3.553   0.484
  973SOL    HW2 3264   1.649   3.502   0.637
  974SOL     OW 3265   0.598   2.591   0.270
  974SOL    HW1 3266   0.622   2.660   0.202
  974SOL    HW2 3267   0.520   2.624   0.324
  975SOL     OW 3268   1.281   2.207   0.944
  975SOL    HW1 3269   1.195   2.157   0.931
  975SOL    HW2 3270   1.343   2.153   1.000
  976SOL     OW 3271   1.576   3.524   0.307
  976SOL    HW1 3272   1.665   3.570   0.310
  976SOL    HW2 3273   1.555   3.500   0.212
  977SOL     OW 3274   0.807   2.467   1.465
  977SOL    HW1 3275   0.760   2.464   1.554
  977SOL    HW2 3276   0.756   2.412   1.399
  978SOL     OW 3277   1.394   2.331   1.674
  978SOL    HW1 3278   1.374   2.374   1.762
  978SOL    HW2 3279   1.472   2.269   1.683
  979SOL     OW 3280   0.973   2.752   1.572
  979SOL    HW1 3281   1.019   2.668   1.543
  979SOL    HW2 3282   0.917   2.786   1.497
  980SOL     OW 3283   0.991   2.272   1.242
  980SOL    HW1 3284   0.914   2.306   1.296
  980SOL    HW2 3285   0.957   2.221   1.163
  981SOL     OW 3286   1.041   2.563   0.429
  981SOL    HW1 3287   1.067   2.559   0.525
  981SOL    HW2 3288   0.956   2.512   0.415
  982SOL     OW 3289   0.076   2.673   0.789
  982SOL    HW1 3290   0.175   2.661   0.798
  982SOL    HW2 3291   0.052   2.768   0.810
  983SOL     OW 3292   0.130   3.683   1.571
  983SOL    HW1 3293   0.120   3.668   1.670
  983SOL    HW2 3294   0.044   3.719   1.535
  984SOL     OW 3295   0.865   2.210   0.195
  984SOL    HW1 3296   0.924   2.273   0.146
  984SOL    HW2 3297   0.884   2.116   0.166
  985SOL     OW 3298   1.719   2.447   1.831
  985SOL    HW1 3299   1.693   2.536   1.795
  985SOL    HW2 3300   1.717   2.379   1.758
  986SOL     OW 3301   1.362   3.006   0.545
  986SOL    HW1 3302   1.445   2.977   0.497
  986SOL    HW2 3303   1.313   3.073   0.489
  987SOL     OW 3304   0.550   2.058   0.885
  987SOL    HW1 3305   0.545   2.053   0.985
  987SOL    HW2 3306   0.552   2.154   0.856
  988SOL     OW 3307   1.008   3.318   0.477
  988SOL    HW1 3308   0.962   3.390   0.425
  988SOL    HW2 3309   1.004   3.338   0.575
  989SOL     OW 3310   0.351   3.663   0.853
  989SOL    HW1 3311   0.401   3.577   0.859
  989SOL    HW2 3312   0.416   3.740   0.850
  990SOL     OW 3313   1.795   2.928   0.873
  990SOL    HW1 3314   1.733   2.913   0.797
  990SOL    HW2 3315   1.743   2.939   0.958
  991SOL     OW 3316   1.227   3.412   1.506
  991SOL    HW1 3317   1.233   3.335   1.570
  991SOL    HW2 3318   1.175   3.386   1.426
  992SOL     OW 3319   0.321   2.805   0.242
  992SOL    HW1 3320   0.403   2.844   0.200
  992SOL    HW2 3321   0.294   2.723   0.193
  993SOL     OW 3322   1.458   2.597   0.728
  993SOL    HW1 3323   1.453   2.532   0.803
  993SOL    HW2 3324   1.538   2.656   0.741
  994SOL     OW 3325   0.461   3.128   1.727
  994SOL    HW1 3326   0.411   3.129   1.641
  994SOL    HW2 3327   0.398   3.110   1.803
  995SOL     OW 3328   1.111   3.638   0.237
  995SOL    HW1 3329   1.051   3.576   0.287
  995SOL    HW2 3330   1.142   3.594   0.152
  996SOL     OW 3331   0.202   2.147   1.498
  996SOL    HW1 3332   0.122   2.207   1.485
  996SOL    HW2 3333   0.192   2.098   1.584
  997SOL     OW 3334   1.632   3.239   0.081
  997SOL    HW1 3335   1.600   3.333   0.071
  997SOL    HW2 3336   1.556   3.176   0.069
  998SOL     OW 3337   0.464   3.605   0.323
  998SOL    HW1 3338   0.497   3.644   0.409
  998SOL    HW2 3339   0.540   3.598   0.258
  999SOL     OW 3340   1.400   1.969   0.426
  999SOL    HW1 3341   1.376   1.932   0.336
  999SOL    HW2 3342   1.499   1.985   0.430
 1000SOL     OW 3343   0.249   3.647   1.241
 1000SOL    HW1 3344   0.306   3.582   1.291
 1000SOL    HW2 3345   0.233   3.614   1.148
 1001SOL     OW 3346   0.940   3.560   0.904
 1001SOL    HW1 3347   1.020   3.503   0.925
 1001SOL    HW2 3348   0.891   3.520   0.827
 1002SOL     OW 3349   0.382   2.562   0.480
 1002SOL    HW1 3350   0.427   2.472   0.477
 1002SOL    HW2 3351   0.288   2.551   0.513
 1003SOL     OW 3352   1.547   2.084   1.729
 1003SOL    HW1 3353   1.542   2.121   1.821
 1003SOL    HW2 3354   1.475   2.015   1.717
 1004SOL     OW 3355   0.614   1.984   0.117
 1004SOL    HW1 3356   0.712   1.962   0.124
 1004SOL    HW2 3357   0.583   1.967   0.024
 1005SOL     OW 3358   0.781   2.126   1.749
 1005SOL    HW1 3359   0.848   2.065   1.792
 1005SOL    HW2 3360   0.708   2.145   1.814
 1006SOL     OW 3361   0.888   3.376   1.195
 1006SOL    HW1 3362   0.865   3.351   1.101
 1006SOL    HW2 3363   0.949   3.307   1.234
 1007SOL     OW 3364   1.351   2.452   1.433
 1007SOL    HW1 3365   1.379   2.409   1.518
 1007SOL    HW2 3366   1.376   2.548   1.434
 1008SOL     OW 3367   0.803   3.264   0.924
 1008SOL    HW1 3368   0.893   3.278   0.882
 1008SOL    HW2 3369   0.732   3.266   0.853
 1009SOL     OW 3370   0.922   2.365   0.899
 1009SOL    HW1 3371   0.897   2.356   0.803
 1009SOL    HW2 3372   0.970   2.283   0.930
 1010SOL     OW 3373   0.539   1.926   0.512
 1010SOL    HW1 3374   0.458   1.927   0.570
 1010SOL    HW2 3375   0.542   2.009   0.457
 1011SOL     OW 3376   1.434   3.050   0.041
 1011SOL    HW1 3377   1.466   2.974   0.098
 1011SOL    HW2 3378   1.342   3.077   0.071
 1012SOL     OW 3379   0.297   1.897   0.171
 1012SOL    HW1 3380   0.346   1.981   0.150
 1012SOL    HW2 3381   0.359   1.832   0.216
 1013SOL     OW 3382   0.935   2.098   0.480
 1013SOL    HW1 3383   0.887   2.139   0.402
 1013SOL    HW2 3384   1.034   2.096   0.461
 1014SOL     OW 3385   1.076   2.545   1.464
 1014SOL    HW1 3386   0.996   2.484   1.467
 1014SOL    HW2 3387   1.157   2.492   1.440
 1015SOL     OW 3388   1.227   3.432   0.793
 1015SOL    HW1 3389   1.248   3.506   0.728
 1015SOL    HW2 3390   1.295   3.432   0.866
 1016SOL     OW 3391   0.459   3.014   0.741
 1016SOL    HW1 3392   0.388   2.987   0.806
 1016SOL    HW2 3393   0.433   2.986   0.648
 1017SOL     OW 3394   1.271   3.659   0.591
 1017SOL    HW1 3395   1.315   3.723   0.527
 1017SOL    HW2 3396   1.221   3.711   0.661
 1018SOL     OW 3397   1.032   2.411   0.016
 1018SOL    HW1 3398   0.991   2.493  -0.023
 1018SOL    HW2 3399   1.096   2.437   0.089
 1019SOL     OW 3400   0.078   2.418   1.386
 1019SOL    HW1 3401   0.170   2.417   1.345
 1019SOL    HW2 3402   0.072   2.492   1.453
 1020SOL     OW 3403   0.561   2.084   1.147
 1020SOL    HW1 3404   0.599   2.000   1.184
 1020SOL    HW2 3405   0.473   2.103   1.191
 1021SOL     OW 3406   0.866   2.316   0.642
 1021SOL    HW1 3407   0.834   2.388   0.580
 1021SOL    HW2 3408   0.890   2.235   0.589
 1022SOL     OW 3409   1.017   1.901   0.753
 1022SOL    HW1 3410   0.945   1.906   0.684
 1022SOL    HW2 3411   0.993   1.832   0.822
 1023SOL     OW 3412   1.429   3.035   0.867
 1023SOL    HW1 3413   1.374   2.951   0.860
 1023SOL    HW2 3414   1.455   3.064   0.775
 1024SOL     OW 3415   1.466   2.452   0.992
 1024SOL    HW1 3416   1.436   2.357   0.999
 1024SOL    HW2 3417   1.539   2.468   1.058
 1025SOL     OW 3418   1.857   2.695   0.377
 1025SOL    HW1 3419   1.899   2.631   0.441
 1025SOL    HW2 3420   1.819   2.644   0.299
 1026SOL     OW 3421   0.488   3.247   0.174
 1026SOL    HW1 3422   0.401   3.232   0.221
 1026SOL    HW2 3423   0.471   3.273   0.079
 1027SOL     OW 3424   1.664   3.142   0.657
 1027SOL    HW1 3425   1.763   3.150   0.671
 1027SOL    HW2 3426   1.619   3.226   0.688
 1028SOL     OW 3427   1.390   2.437   0.078
 1028SOL    HW1 3428   1.336   2.416   0.159
 1028SOL    HW2 3429   1.481   2.396   0.087
 1029SOL     OW 3430   0.527   2.118   0.328
 1029SOL    HW1 3431   0.554   2.059   0.253
 1029SOL    HW2 3432   0.527   2.213   0.297
 1030SOL     OW 3433   1.754   3.085   1.588
 1030SOL    HW1 3434   1.845   3.046   1.575
 1030SOL    HW2 3435   1.762   3.181   1.612
 1031SOL     OW 3436   1.064   3.209   1.340
 1031SOL    HW1 3437   0.984   3.186   1.395
 1031SOL    HW2 3438   1.147   3.183   1.389
 1032SOL     OW 3439   1.592   3.491   1.625
 1032SOL    HW1 3440   1.619   3.525   1.535
 1032SOL    HW2 3441   1.671   3.453   1.671
 1033SOL     OW 3442   1.111   3.057   1.100
 1033SOL    HW1 3443   1.071   3.101   1.181
 1033SOL    HW2 3444   1.070   3.094   1.017
 1034SOL     OW 3445   1.638   2.961   1.079
 1034SOL    HW1 3446   1.643   3.042   1.138
 1034SOL    HW2 3447   1.552   2.963   1.028
 1035SOL     OW 3448   0.915   1.951   1.402
 1035SOL    HW1 3449   0.940   1.931   1.307
 1035SOL    HW2 3450   0.987   2.007   1.444
 1036SOL     OW 3451   0.980   2.978   1.719
 1036SOL    HW1 3452   0.881   2.984   1.729
 1036SOL    HW2 3453   1.003   2.898   1.663
 1037SOL     OW 3454   0.705   2.912   0.368
 1037SOL    HW1 3455   0.691   2.919   0.467
 1037SOL    HW2 3456   0.789   2.861   0.350
 1038SOL     OW 3457   0.410   2.675   1.251
 1038SOL    HW1 3458   0.496   2.687   1.301
 1038SOL    HW2 3459   0.368   2.588   1.278
 1039SOL     OW 3460   1.274   2.248   1.262
 1039SOL    HW1 3461   1.295   2.322   1.326
 1039SOL    HW2 3462   1.185   2.265   1.219
 1040SOL     OW 3463   0.064   3.426   1.331
 1040SOL    HW1 3464   0.018   3.508   1.297
 1040SOL    HW2 3465   0.162   3.445   1.340
 1041SOL     OW 3466   0.367   2.962   0.501
 1041SOL    HW1 3467   0.360   3.045   0.445
 1041SOL    HW2 3468   0.371   2.882   0.441
 1042SOL     OW 3469   0.566   2.399   0.865
 1042SOL    HW1 3470   0.578   2.465   0.791
 1042SOL    HW2 3471   0.612   2.433   0.948
 1043SOL     OW 3472   1.252   3.210   0.388
 1043SOL    HW1 3473   1.302   3.287   0.428
 1043SOL    HW2 3474   1.157   3.212   0.420
 1044SOL     OW 3475   1.272   3.307   1.142
 1044SOL    HW1 3476   1.319   3.320   1.229
 1044SOL    HW2 3477   1.206   3.233   1.151
 1045SOL     OW 3478   1.582   2.501   0.472
 1045SOL    HW1 3479   1.551   2.562   0.545
 1045SOL    HW2 3480   1.632   2.553   0.403
 1046SOL     OW 3481   0.354   3.372   1.329
 1046SOL    HW1 3482   0.333   3.328   1.242
 1046SOL    HW2 3483   0.451   3.398   1.332
 1047SOL     OW 3484   0.402   2.613   1.598
 1047SOL    HW1 3485   0.470   2.668   1.551
 1047SOL    HW2 3486   0.442   2.525   1.625
 1048SOL     OW 3487   1.587   2.641   1.670
 1048SOL    HW1 3488   1.495   2.679   1.665
 1048SOL    HW2 3489   1.647   2.688   1.605
 1049SOL     OW 3490   1.013   1.967   1.770
 1049SOL    HW1 3491   1.019   2.052   1.718
 1049SOL    HW2 3492   1.045   1.891   1.713
 1050SOL     OW 3493   0.504   1.912   1.740
 1050SOL    HW1 3494   0.462   1.855   1.670
 1050SOL    HW2 3495   0.438   1.981   1.772
 1051SOL     OW 3496   0.573   2.732   1.029
 1051SOL    HW1 3497   0.617   2.821   1.020
 1051SOL    HW2 3498   0.510   2.732   1.106
 1052SOL     OW 3499   1.360   2.724   1.045
 1052SOL    HW1 3500   1.285   2.724   0.979
 1052SOL    HW2 3501   1.397   2.632   1.054
 1053SOL     OW 3502   1.209   2.387   0.275
 1053SOL    HW1 3503   1.222   2.303   0.329
 1053SOL    HW2 3504   1.180   2.461   0.335
 1054SOL     OW 3505   0.307   2.075   1.231
 1054SOL    HW1 3506   0.284   2.112   1.321
 1054SOL    HW2 3507   0.277   1.980   1.225
 1055SOL     OW 3508   0.037   3.172   1.282
 1055SOL    HW1 3509   0.090   3.123   1.350
 1055SOL    HW2 3510   0.059   3.270   1.287
 1056SOL     OW 3511   0.732   2.496   1.064
 1056SOL    HW1 3512   0.791   2.470   0.988
 1056SOL    HW2 3513   0.704   2.592   1.053
 1057SOL     OW 3514   1.728   2.797   1.854
 1057SOL    HW1 3515   1.682   2.790   1.765
 1057SOL    HW2 3516   1.666   2.841   1.920
 1058SOL     OW 3517   0.307   1.925   0.618
 1058SOL    HW1 3518   0.296   2.019   0.651
 1058SOL    HW2 3519   0.302   1.862   0.695
 1059SOL     OW 3520   1.622   2.229   0.374
 1059SOL    HW1 3521   1.624   2.153   0.438
 1059SOL    HW2 3522   1.574   2.306   0.414
 1060SOL     OW 3523   1.023   2.628   0.966
 1060SOL    HW1 3524   1.038   2.649   1.062
 1060SOL    HW2 3525   0.993   2.533   0.957
 1061SOL     OW 3526   0.980   3.435   1.700
 1061SOL    HW1 3527   0.960   3.479   1.612
 1061SOL    HW2 3528   1.019   3.344   1.684
 1062SOL     OW 3529   1.859   3.380   1.605
 1062SOL    HW1 3530   1.873   3.407   1.510
 1062SOL    HW2 3531   1.942   3.402   1.658
 1063SOL     OW 3532   0.350   2.760   1.804
 1063SOL    HW1 3533   0.426   2.804   1.852
 1063SOL    HW2 3534   0.385   2.713   1.722
 1064SOL     OW 3535   1.540   2.136   0.125
 1064SOL    HW1 3536   1.479   2.061   0.148
 1064SOL    HW2 3537   1.562   2.188   0.208
 1065SOL     OW 3538   1.303   2.700   0.042
 1065SOL    HW1 3539   1.337   2.607   0.057
 1065SOL    HW2 3540   1.321   2.727  -0.053
 1066SOL     OW 3541   1.068   3.195   0.849
 1066SOL    HW1 3542   1.075   3.111   0.794
 1066SOL    HW2 3543   1.130   3.264   0.813
 1067SOL     OW 3544   0.319   2.672   0.949
 1067SOL    HW1 3545   0.412   2.708   0.954
 1067SOL    HW2 3546   0.313   2.587   1.001
 1068SOL     OW 3547   0.339   2.371   1.006
 1068SOL    HW1 3548   0.287   2.288   0.989
 1068SOL    HW2 3549   0.416   2.376   0.942
 1069SOL     OW 3550   1.138   2.242   1.678
 1069SOL    HW1 3551   1.093   2.305   1.742
 1069SOL    HW2 3552   1.231   2.273   1.661
 1070SOL     OW 3553   1.160   2.069   1.477
 1070SOL    HW1 3554   1.160   2.133   1.554
 1070SOL    HW2 3555   1.188   2.117   1.394
 1071SOL     OW 3556   0.008   3.188   0.200
 1071SOL    HW1 3557  -0.085   3.209   0.169
 1071SOL    HW2 3558   0.018   3.089   0.213
 1072SOL     OW 3559   0.088   3.663   0.927
 1072SOL    HW1 3560   0.046   3.577   0.900
 1072SOL    HW2 3561   0.182   3.666   0.893
 1073SOL     OW 3562   0.504   3.430   0.910
 1073SOL    HW1 3563   0.570   3.504   0.919
 1073SOL    HW2 3564   0.548   3.351   0.868
 1074SOL     OW 3565   1.002   2.658   1.238
 1074SOL    HW1 3566   1.043   2.626   1.324
 1074SOL    HW2 3567   0.906   2.631   1.235
 1075SOL     OW 3568   0.040   2.406   1.114
 1075SOL    HW1 3569   0.125   2.373   1.073
 1075SOL    HW2 3570   0.053   2.421   1.212
 1076SOL     OW 3571   0.189   2.382   1.722
 1076SOL    HW1 3572   0.248   2.342   1.652
 1076SOL    HW2 3573   0.131   2.453   1.681
 1077SOL     OW 3574   1.369   2.812   1.660
 1077SOL    HW1 3575   1.408   2.901   1.680
 1077SOL    HW2 3576   1.379   2.792   1.563
 1078SOL     OW 3577   0.815   2.434   0.325
 1078SOL    HW1 3578   0.822   2.345   0.279
 1078SOL    HW2 3579   0.721   2.468   0.317
 1079SOL     OW 3580   1.657   2.466   1.206
 1079SOL    HW1 3581   1.619   2.397   1.268
 1079SOL    HW2 3582   1.739   2.430   1.162
 1080SOL     OW 3583   0.252   3.426   1.744
 1080SOL    HW1 3584   0.222   3.483   1.820
 1080SOL    HW2 3585   0.245   3.329   1.770
 1081SOL     OW 3586   0.671   2.326   1.269
 1081SOL    HW1 3587   0.637   2.237   1.239
 1081SOL    HW2 3588   0.697   2.380   1.189
 1082SOL     OW 3589   0.930   3.540   1.465
 1082SOL    HW1 3590   0.906   3.522   1.370
 1082SOL    HW2 3591   0.960   3.634   1.475
 1083SOL     OW 3592   0.473   2.362   0.191
 1083SOL    HW1 3593   0.534   2.442   0.195
 1083SOL    HW2 3594   0.378   2.393   0.198
 1084SOL     OW 3595   0.159   2.999   1.466
 1084SOL    HW1 3596   0.181   2.938   1.542
 1084SOL    HW2 3597   0.169   2.950   1.380
 1085SOL     OW 3598   1.347   2.921   1.234
 1085SOL    HW1 3599   1.371   2.858   1.160
 1085SOL    HW2 3600   1.257   2.961   1.216
 1086SOL     OW 3601   1.302   2.717   0.309
 1086SOL    HW1 3602   1.216   2.686   0.351
 1086SOL    HW2 3603   1.298   2.703   0.210
 1087SOL     OW 3604   1.759   3.609   1.154
 1087SOL    HW1 3605   1.820   3.639   1.081
 1087SOL    HW2 3606   1.721   3.520   1.132
 1088SOL     OW 3607   1.252   3.593   1.128
 1088SOL    HW1 3608   1.336   3.598   1.074
 1088SOL    HW2 3609   1.229   3.497   1.146
 1089SOL     OW 3610   0.083   3.120   1.022
 1089SOL    HW1 3611   0.078   3.119   1.122
 1089SOL    HW2 3612   0.000   3.079   0.984
 1090SOL     OW 3613   0.688   3.524   1.716
 1090SOL    HW1 3614   0.632   3.605   1.725
 1090SOL    HW2 3615   0.740   3.528   1.630
 1091SOL     OW 3616   0.903   1.948   0.133
 1091SOL    HW1 3617   0.954   1.949   0.047
 1091SOL    HW2 3618   0.959   1.906   0.204
 1092SOL     OW 3619   1.726   1.997   0.523
 1092SOL    HW1 3620   1.799   1.980   0.456
 1092SOL    HW2 3621   1.695   1.910   0.561
 1093SOL     OW 3622   1.388   3.435   0.477
 1093SOL    HW1 3623   1.455   3.447   0.403
 1093SOL    HW2 3624   1.348   3.524   0.500
 1094SOL     OW 3625   0.130   3.656   1.851
 1094SOL    HW1 3626   0.089   3.582   1.904
 1094SOL    HW2 3627   0.194   3.707   1.909
 1095SOL     OW 3628   1.280   2.789   0.672
 1095SOL    HW1 3629   1.340   2.708   0.674
 1095SOL    HW2 3630   1.320   2.858   0.612
 1096SOL     OW 3631   0.830   3.135   1.422
 1096SOL    HW1 3632   0.825   3.168   1.517
 1096SOL    HW2 3633   0.744   3.154   1.376
 1097SOL     OW 3634   0.672   3.478   0.154
 1097SOL    HW1 3635   0.681   3.488   0.055
 1097SOL    HW2 3636   0.632   3.389   0.175
 1098SOL     OW 3637   1.650   3.582   1.394
 1098SOL    HW1 3638   1.703   3.592   1.310
 1098SOL    HW2 3639   1.623   3.672   1.428
 1099SOL     OW 3640   1.841   2.037   0.963
 1099SOL    HW1 3641   1.880   1.952   0.927
 1099SOL    HW2 3642   1.743   2.039   0.944
 1100SOL     OW 3643   0.263   2.188   0.720
 1100SOL    HW1 3644   0.184   2.239   0.686
 1100SOL    HW2 3645   0.254   2.173   0.818
 1101SOL     OW 3646   1.194   3.474   0.031
 1101SOL    HW1 3647   1.200   3.381   0.068
 1101SOL    HW2 3648   1.135   3.474  -0.049
 1102SOL     OW 3649   0.822   2.864   1.372
 1102SOL    HW1 3650   0.862   2.863   1.280
 1102SOL    HW2 3651   0.832   2.956   1.412
 1103SOL     OW 3652   0.916   2.772   0.291
 1103SOL    HW1 3653   0.979   2.810   0.223
 1103SOL    HW2 3654   0.956   2.689   0.330
 1104SOL     OW 3655   1.504   3.469   0.044
 1104SOL    HW1 3656   1.412   3.506   0.051
 1104SOL    HW2 3657   1.542   3.489  -0.046
 1105SOL     OW 3658   0.372   3.150   1.490
 1105SOL    HW1 3659   0.359   3.243   1.456
 1105SOL    HW2 3660   0.288   3.098   1.477
 1106SOL     OW 3661   1.614   3.154   1.289
 1106SOL    HW1 3662   1.674   3.157   1.369
 1106SOL    HW2 3663   1.539   3.218   1.302
 1107SOL     OW 3664   1.039   2.960   0.696
 1107SOL    HW1 3665   0.969   2.913   0.750
 1107SOL    HW2 3666   1.098   2.892   0.653
 1108SOL     OW 3667   1.014   2.098   0.971
 1108SOL    HW1 3668   1.006   2.062   0.878
 1108SOL    HW2 3669   1.012   2.022   1.036
 1109SOL     OW 3670   0.590   3.349   0.491
 1109SOL    HW1 3671   0.632   3.291   0.421
 1109SOL    HW2 3672   0.546   3.428   0.447
 1110SOL     OW 3673   1.709   2.247   1.381
 1110SOL    HW1 3674   1.782   2.316   1.385
 1110SOL    HW2 3675   1.737   2.172   1.322
 1111SOL     OW 3676   0.255   3.210   0.290
 1111SOL    HW1 3677   0.159   3.211   0.263
 1111SOL    HW2 3678   0.267   3.263   0.374
 1112SOL     OW 3679   0.105   2.875   1.726
 1112SOL    HW1 3680   0.028   2.842   1.780
 1112SOL    HW2 3681   0.190   2.845   1.768
 1113SOL     OW 3682   0.672   2.065   1.489
 1113SOL    HW1 3683   0.762   2.049   1.449
 1113SOL    HW2 3684   0.680   2.070   1.588
 1114SOL     OW 3685   0.075   2.207   0.033
 1114SOL    HW1 3686  -0.017   2.179   0.004
 1114SOL    HW2 3687   0.106   2.284  -0.023
 1115SOL     OW 3688   1.440   2.718   1.398
 1115SOL    HW1 3689   1.383   2.770   1.335
 1115SOL    HW2 3690   1.536   2.730   1.374
 1116SOL     OW 3691   0.072   2.028   0.318
 1116SOL    HW1 3692   0.055   2.111   0.264
 1116SOL    HW2 3693   0.162   1.991   0.296
 1117SOL     OW 3694   1.183   3.197   0.119
 1117SOL    HW1 3695   1.084   3.186   0.121
 1117SOL    HW2 3696   1.217   3.212   0.212
 1118SOL     OW 3697   0.613   2.704   1.431
 1118SOL    HW1 3698   0.669   2.785   1.414
 1118SOL    HW2 3699   0.672   2.624   1.434
 1119SOL     OW 3700   1.493   3.629   0.959
 1119SOL    HW1 3701   1.526   3.693   0.890
 1119SOL    HW2 3702   1.559   3.623   1.034
 1120SOL     OW 3703   0.716   2.427   1.708
 1120SOL    HW1 3704   0.735   2.492   1.782
 1120SOL    HW2 3705   0.776   2.347   1.717
 1121SOL     OW 3706   1.450   3.082   1.633
 1121SOL    HW1 3707   1.441   3.072   1.732
 1121SOL    HW2 3708   1.546   3.075   1.607
 1122SOL     OW 3709   0.390   3.603   1.560
 1122SOL    HW1 3710   0.299   3.644   1.558
 1122SOL    HW2 3711   0.383   3.509   1.592
 1123SOL     OW 3712   1.674   2.745   1.254
 1123SOL    HW1 3713   1.647   2.656   1.217
 1123SOL    HW2 3714   1.675   2.813   1.181
 1124SOL     OW 3715   1.225   2.187   0.449
 1124SOL    HW1 3716   1.290   2.113   0.438
 1124SOL    HW2 3717   1.245   2.237   0.533
 1125SOL     OW 3718   0.594   2.607   0.652
 1125SOL    HW1 3719   0.644   2.692   0.633
 1125SOL    HW2 3720   0.506   2.609   0.604
 1126SOL     OW 3721   1.777   2.204   1.642
 1126SOL    HW1 3722   1.760   2.235   1.548
 1126SOL    HW2 3723   1.693   2.167   1.680
 1127SOL     OW 3724   1.730   2.796   1.517
 1127SOL    HW1 3725   1.768   2.887   1.532
 1127SOL    HW2 3726   1.722   2.779   1.418
 1128SOL     OW 3727   0.859   3.236   0.016
 1128SOL    HW1 3728   0.813   3.251   0.104
 1128SOL    HW2 3729   0.903   3.321  -0.014
 1129SOL     OW 3730   0.661   3.652   0.953
 1129SOL    HW1 3731   0.615   3.740   0.940
 1129SOL    HW2 3732   0.760   3.664   0.946
 1130SOL     OW 3733   0.859   2.818   0.861
 1130SOL    HW1 3734   0.913   2.749   0.909
 1130SOL    HW2 3735   0.827   2.887   0.927
 1131SOL     OW 3736   1.083   2.846   0.087
 1131SOL    HW1 3737   1.060   2.899   0.005
 1131SOL    HW2 3738   1.164   2.790   0.068
 1132SOL     OW 3739   1.861   3.431   0.851
 1132SOL    HW1 3740   1.790   3.419   0.781
 1132SOL    HW2 3741   1.862   3.352   0.911
 1133SOL     OW 3742   0.221   3.176   1.844
 1133SOL    HW1 3743   0.156   3.103   1.823
 1133SOL    HW2 3744   0.225   3.190   1.942
 1134SOL     OW 3745   0.079   3.102   0.653
 1134SOL    HW1 3746   0.078   3.055   0.741
 1134SOL    HW2 3747   0.161   3.074   0.602
 1135SOL     OW 3748   0.672   3.253   1.624
 1135SOL    HW1 3749   0.594   3.203   1.662
 1135SOL    HW2 3750   0.669   3.348   1.655
 1136SOL     OW 3751   1.824   2.054   1.227
 1136SOL    HW1 3752   1.820   1.964   1.271
 1136SOL    HW2 3753   1.827   2.043   1.128
 1137SOL     OW 3754   0.428   2.286   0.520
 1137SOL    HW1 3755   0.458   2.214   0.458
 1137SOL    HW2 3756   0.389   2.246   0.603
 1138SOL     OW 3757   1.705   3.349   1.104
 1138SOL    HW1 3758   1.612   3.324   1.077
 1138SOL    HW2 3759   1.731   3.299   1.186
 1139SOL     OW 3760   0.317   2.409   1.280
 1139SOL    HW1 3761   0.355   2.350   1.352
 1139SOL    HW2 3762   0.357   2.383   1.192
 1140SOL     OW 3763   0.812   3.448   0.687
 1140SOL    HW1 3764   0.844   3.458   0.593
 1140SOL    HW2 3765   0.733   3.386   0.689
 1141SOL     OW 3766   1.424   2.076   1.112
 1141SOL    HW1 3767   1.476   2.011   1.167
 1141SOL    HW2 3768   1.375   2.139   1.173
 1142SOL     OW 3769   1.001   1.896   1.154
 1142SOL    HW1 3770   0.938   1.824   1.123
 1142SOL    HW2 3771   1.094   1.860   1.154
 1143SOL     OW 3772   0.770   3.192   0.301
 1143SOL    HW1 3773   0.724   3.105   0.318
 1143SOL    HW2 3774   0.861   3.189   0.342
 1144SOL     OW 3775   0.618   3.429   1.284
 1144SOL    HW1 3776   0.613   3.511   1.341
 1144SOL    HW2 3777   0.707   3.426   1.239
 1145SOL     OW 3778   1.352   1.914   0.168
 1145SOL    HW1 3779   1.387   1.873   0.084
 1145SOL    HW2 3780   1.262   1.876   0.188
 1146SOL     OW 3781   1.300   2.315   0.691
 1146SOL    HW1 3782   1.241   2.395   0.695
 1146SOL    HW2 3783   1.315   2.280   0.784
 1147SOL     OW 3784   1.593   2.083   0.882
 1147SOL    HW1 3785   1.509   2.082   0.936
 1147SOL    HW2 3786   1.595   2.166   0.826
 1148SOL     OW 3787   0.039   2.939   0.300
 1148SOL    HW1 3788   0.138   2.928   0.291
 1148SOL    HW2 3789  -0.001   2.853   0.332
 1149SOL     OW 3790   0.875   3.508   0.337
 1149SOL    HW1 3791   0.798   3.473   0.283
 1149SOL    HW2 3792   0.843   3.579   0.399
 1150SOL     OW 3793   0.230   2.490   1.975
 1150SOL    HW1 3794   0.137   2.488   2.012
 1150SOL    HW2 3795   0.231   2.451   1.883
 1151SOL     OW 3796   0.225   2.137   2.858
 1151SOL    HW1 3797   0.260   2.120   2.950
 1151SOL    HW2 3798   0.137   2.092   2.846
 1152SOL     OW 3799   0.019   2.230   2.509
 1152SOL    HW1 3800  -0.063   2.273   2.548
 1152SOL    HW2 3801  -0.009   2.157   2.446
 1153SOL     OW 3802   0.569   3.137   3.027
 1153SOL    HW1 3803   0.476   3.130   2.990
 1153SOL    HW2 3804   0.580   3.226   3.071
 1154SOL     OW 3805   1.555   3.373   2.565
 1154SOL    HW1 3806   1.498   3.357   2.646
 1154SOL    HW2 3807   1.496   3.383   2.485
 1155SOL     OW 3808   1.135   2.565   2.579
 1155SOL    HW1 3809   1.192   2.643   2.554
 1155SOL    HW2 3810   1.075   2.591   2.655
 1156SOL     OW 3811   1.755   2.469   2.093
 1156SOL    HW1 3812   1.743   2.456   1.994
 1156SOL    HW2 3813   1.725   2.388   2.142
 1157SOL     OW 3814   0.768   3.006   2.885
 1157SOL    HW1 3815   0.690   3.023   2.945
 1157SOL    HW2 3816   0.802   3.093   2.849
 1158SOL     OW 3817   0.850   2.660   3.685
 1158SOL    HW1 3818   0.846   2.736   3.750
 1158SOL    HW2 3819   0.872   2.696   3.594
 1159SOL     OW 3820   0.685   2.874   2.527
 1159SOL    HW1 3821   0.754   2.858   2.597
 1159SOL    HW2 3822   0.612   2.931   2.565
 1160SOL     OW 3823   0.686   3.023   3.665
 1160SOL    HW1 3824   0.746   3.102   3.679
 1160SOL    HW2 3825   0.600   3.054   3.624
 1161SOL     OW 3826   0.335   3.297   2.923
 1161SOL    HW1 3827   0.257   3.266   2.870
 1161SOL    HW2 3828   0.393   3.355   2.866
 1162SOL     OW 3829   1.460   3.367   3.201
 1162SOL    HW1 3830   1.484   3.461   3.227
 1162SOL    HW2 3831   1.444   3.313   3.283
 1163SOL     OW 3832   0.438   2.254   3.361
 1163SOL    HW1 3833   0.520   2.198   3.370
 1163SOL    HW2 3834   0.357   2.196   3.365
 1164SOL     OW 3835   1.603   2.309   2.599
 1164SOL    HW1 3836   1.529   2.355   2.549
 1164SOL    HW2 3837   1.654   2.377   2.652
 1165SOL     OW 3838   0.231   3.575   2.345
 1165SOL    HW1 3839   0.265   3.652   2.399
 1165SOL    HW2 3840   0.275   3.575   2.255
 1166SOL     OW 3841   1.127   3.203   3.552
 1166SOL    HW1 3842   1.174   3.203   3.640
 1166SOL    HW2 3843   1.079   3.116   3.541
 1167SOL     OW 3844   0.230   3.296   2.400
 1167SOL    HW1 3845   0.204   3.392   2.400
 1167SOL    HW2 3846   0.159   3.242   2.445
 1168SOL     OW 3847   0.240   2.953   2.748
 1168SOL    HW1 3848   0.254   2.869   2.800
 1168SOL    HW2 3849   0.185   3.017   2.803
 1169SOL     OW 3850   0.620   3.648   3.301
 1169SOL    HW1 3851   0.528   3.631   3.336
 1169SOL    HW2 3852   0.648   3.740   3.327
 1170SOL     OW 3853   0.606   2.826   1.985
 1170SOL    HW1 3854   0.613   2.910   1.931
 1170SOL    HW2 3855   0.652   2.839   2.073
 1171SOL     OW 3856   1.594   1.976   3.342
 1171SOL    HW1 3857   1.576   2.043   3.270
 1171SOL    HW2 3858   1.591   2.022   3.431
 1172SOL     OW 3859   0.122   2.505   2.425
 1172SOL    HW1 3860   0.077   2.417   2.442
 1172SOL    HW2 3861   0.121   2.559   2.509
 1173SOL     OW 3862   1.842   3.629   2.221
 1173SOL    HW1 3863   1.896   3.600   2.301
 1173SOL    HW2 3864   1.872   3.719   2.192
 1174SOL     OW 3865   0.027   3.458   1.979
 1174SOL    HW1 3866   0.008   3.362   2.000
 1174SOL    HW2 3867  -0.006   3.516   2.054
 1175SOL     OW 3868   1.689   2.784   2.474
 1175SOL    HW1 3869   1.784   2.755   2.482
 1175SOL    HW2 3870   1.681   2.849   2.399
 1176SOL     OW 3871   1.641   2.970   2.294
 1176SOL    HW1 3872   1.727   2.972   2.242
 1176SOL    HW2 3873   1.655   3.017   2.382
 1177SOL     OW 3874   0.113   2.599   3.459
 1177SOL    HW1 3875   0.201   2.586   3.504
 1177SOL    HW2 3876   0.100   2.696   3.437
 1178SOL     OW 3877   0.613   3.227   2.588
 1178SOL    HW1 3878   0.564   3.140   2.597
 1178SOL    HW2 3879   0.590   3.270   2.501
 1179SOL     OW 3880   1.293   3.090   3.285
 1179SOL    HW1 3881   1.330   3.017   3.227
 1179SOL    HW2 3882   1.345   3.095   3.370
 1180SOL     OW 3883   0.809   1.866   2.364
 1180SOL    HW1 3884   0.849   1.957   2.355
 1180SOL    HW2 3885   0.709   1.874   2.370
 1181SOL     OW 3886   0.197   2.838   3.126
 1181SOL    HW1 3887   0.286   2.793   3.112
 1181SOL    HW2 3888   0.124   2.773   3.107
 1182SOL     OW 3889   1.525   2.861   2.052
 1182SOL    HW1 3890   1.462   2.785   2.065
 1182SOL    HW2 3891   1.573   2.879   2.138
 1183SOL     OW 3892   1.187   3.654   3.478
 1183SOL    HW1 3893   1.211   3.714   3.402
 1183SOL    HW2 3894   1.194   3.559   3.448
 1184SOL     OW 3895   0.317   2.113   3.663
 1184SOL    HW1 3896   0.388   2.184   3.669
 1184SOL    HW2 3897   0.229   2.152   3.691
 1185SOL     OW 3898   1.466   3.279   2.815
 1185SOL    HW1 3899   1.407   3.285   2.895
 1185SOL    HW2 3900   1.451   3.191   2.769
 1186SOL     OW 3901   1.667   3.576   2.434
 1186SOL    HW1 3902   1.626   3.553   2.346
 1186SOL    HW2 3903   1.649   3.502   2.499
 1187SOL     OW 3904   0.598   2.591   2.132
 1187SOL    HW1 3905   0.622   2.660   2.064
 1187SOL    HW2 3906   0.520   2.624   2.186
 1188SOL     OW 3907   1.281   2.207   2.806
 1188SOL    HW1 3908   1.195   2.157   2.793
 1188SOL    HW2 3909   1.343   2.153   2.862
 1189SOL     OW 3910   1.576   3.524   2.169
 1189SOL    HW1 3911   1.665   3.570   2.172
 1189SOL    HW2 3912   1.555   3.500   2.074
 1190SOL     OW 3913   0.807   2.467   3.327
 1190SOL    HW1 3914   0.760   2.464   3.416
 1190SOL    HW2 3915   0.756   2.412   3.261
 1191SOL     OW 3916   1.394   2.331   3.536
 1191SOL    HW1 3917   1.374   2.374   3.624
 1191SOL    HW2 3918   1.472   2.269   3.545
 1192SOL     OW 3919   0.973   2.752   3.434
 1192SOL    HW1 3920   1.019   2.668   3.405
 1192SOL    HW2 3921   0.917   2.786   3.359
 1193SOL     OW 3922   0.991   2.272   3.104
 1193SOL    HW1 3923   0.914   2.306   3.158
 1193SOL    HW2 3924   0.957   2.221   3.025
 1194SOL     OW 3925   1.041   2.563   2.291
 1194SOL    HW1 3926   1.067   2.559   2.387
 1194SOL    HW2 3927   0.956   2.512   2.277
 1195SOL     OW 3928   0.076   2.673   2.651
 1195SOL    HW1 3929   0.175   2.661   2.660
 1195SOL    HW2 3930   0.052   2.768   2.672
 1196SOL     OW 3931   0.130   3.683   3.433
 1196SOL    HW1 3932   0.120   3.668   3.532
 1196SOL    HW2 3933   0.044   3.719   3.397
 1197SOL     OW 3934   0.865   2.210   2.057
 1197SOL    HW1 3935   0.924   2.273   2.008
 1197SOL    HW2 3936   0.884   2.116   2.028
 1198SOL     OW 3937   1.719   2.447   3.693
 1198SOL    HW1 3938   1.693   2.536   3.657
 1198SOL    HW2 3939   1.717   2.379   3.620
 1199SOL     OW 3940   1.362   3.006   2.407
 1199SOL    HW1 3941   1.445   2.977   2.359
 1199SOL    HW2 3942   1.313   3.073   2.351
 1200SOL     OW 3943   0.550   2.058   2.747
 1200SOL    HW1 3944   0.545   2.053   2.847
 1200SOL    HW2 3945   0.552   2.154   2.718
 1201SOL     OW 3946   1.008   3.318   2.339
 1201SOL    HW1 3947   0.962   3.390   2.287
 1201SOL    HW2 3948   1.004   3.338   2.437
 1202SOL     OW 3949   0.351   3.663   2.715
 1202SOL    HW1 3950   0.401   3.577   2.721
 1202SOL    HW2 3951   0.416   3.740   2.712
 1203SOL     OW 3952   1.795   2.928   2.735
 1203SOL    HW1 3953   1.733   2.913   2.659
 1203SOL    HW2 3954   1.743   2.939   2.820
 1204SOL     OW 3955   1.227   3.412   3.368
 1204SOL    HW1 3956   1.233   3.335   3.432
 1204SOL    HW2 3957   1.175   3.386   3.288
 1205SOL     OW 3958   0.321   2.805   2.104
 1205SOL    HW1 3959   0.403   2.844   2.062
 1205SOL    HW2 3960   0.294   2.723   2.055
 1206SOL     OW 3961   1.458   2.597   2.590
 1206SOL    HW1 3962   1.453   2.532   2.665
 1206SOL    HW2 3963   1.538   2.656   2.603
 1207SOL     OW 3964   0.461   3.128   3.589
 1207SOL    HW1 3965   0.411   3.129   3.503
 1207SOL    HW2 3966   0.398   3.110   3.665
 1208SOL     OW 3967   1.111   3.638   2.099
 1208SOL    HW1 3968   1.051   3.576   2.149
 1208SOL    HW2 3969   1.142   3.594   2.014
 1209SOL     OW 3970   0.202   2.147   3.360
 1209SOL    HW1 3971   0.122   2.207   3.347
 1209SOL    HW2 3972   0.192   2.098   3.446
 1210SOL     OW 3973   1.632   3.239   1.943
 1210SOL    HW1 3974   1.600   3.333   1.933
 1210SOL    HW2 3975   1.556   3.176   1.931
 1211SOL     OW 3976   0.464   3.605   2.185
 1211SOL    HW1 3977   0.497   3.644   2.271
 1211SOL    HW2 3978   0.540   3.598   2.120
 1212SOL     OW 3979   1.400   1.969   2.288
 1212SOL    HW1 3980   1.376   1.932   2.198
 1212SOL    HW2 3981   1.499   1.985   2.292
 1213SOL     OW 3982   0.249   3.647   3.103
 1213SOL    HW1 3983   0.306   3.582   3.153
 1213SOL    HW2 3984   0.233   3.614   3.010
 1214SOL     OW 3985   0.940   3.560   2.766
 1214SOL    HW1 3986   1.020   3.503   2.787
 1214SOL    HW2 3987   0.891   3.520   2.689
 1215SOL     OW 3988   0.382   2.562   2.342
 1215SOL    HW1 3989   0.427   2.472   2.339
 1215SOL    HW2 3990   0.288   2.551   2.375
 1216SOL     OW 3991   1.547   2.084   3.591
 1216SOL    HW1 3992   1.542   2.121   3.683
 1216SOL    HW2 3993   1.475   2.015   3.579
 1217SOL     OW 3994   0.614   1.984   1.979
 1217SOL    HW1 3995   0.712   1.962   1.986
 1217SOL    HW2 3996   0.583   1.967   1.886
 1218SOL     OW 3997   0.781   2.126   3.611
 1218SOL    HW1 3998   0.848   2.065   3.654
 1218SOL    HW2 3999   0.708   2.145   3.676
 1219SOL     OW 4000   0.888   3.376   3.057
 1219SOL    HW1 4001   0.865   3.351   2.963
 1219SOL    HW2 4002   0.949   3.307   3.096
 1220SOL     OW 4003   1.351   2.452   3.295
 1220SOL    HW1 4004   1.379   2.409   3.380
 1220SOL    HW2 4005   1.376   2.548   3.296
 1221SOL     OW 4006   0.803   3.264   2.786
 1221SOL    HW1 4007   0.893   3.278   2.744
 1221SOL    HW2 4008   0.732   3.266   2.715
 1222SOL     OW 4009   0.922   2.365   2.761
 1222SOL    HW1 4010   0.897   2.356   2.665
 1222SOL    HW2 4011   0.970   2.283   2.792
 1223SOL     OW 4012   0.539   1.926   2.374
 1223SOL    HW1 4013   0.458   1.927   2.432
 1223SOL    HW2 4014   0.542   2.009   2.319
 1224SOL     OW 4015   1.434   3.050   1.903
 1224SOL    HW1 4016   1.466   2.974   1.960
 1224SOL    HW2 4017   1.342   3.077   1.933
 1225SOL     OW 4018   0.297   1.897   2.033
 1225SOL    HW1 4019   0.346   1.981   2.012
 1225SOL    HW2 4020   0.359   1.832   2.078
 1226SOL     OW 4021   0.935   2.098   2.342
 1226SOL    HW1 4022   0.887   2.139   2.264
 1226SOL    HW2 4023   1.034   2.096   2.323
 1227SOL     OW 4024   1.076   2.545   3.326
 1227SOL    HW1 4025   0.996   2.484   3.329
 1227SOL    HW2 4026   1.157   2.492   3.302
 1228SOL     OW 4027   1.227   3.432   2.655
 1228SOL    HW1 4028   1.248   3.506   2.590
 1228SOL    HW2 4029   1.295   3.432   2.728
 1229SOL     OW 4030   0.459   3.014   2.603
 1229SOL    HW1 4031   0.388   2.987   2.668
 1229SOL    HW2 4032   0.433   2.986   2.510
 1230SOL     OW 4033   1.271   3.659   2.453
 1230SOL    HW1 4034   1.315   3.723   2.389
 1230SOL    HW2 4035   1.221   3.711   2.523
 1231SOL     OW 4036   1.032   2.411   1.878
 1231SOL    HW1 4037   0.991   2.493   1.839
 1231SOL    HW2 4038   1.096   2.437   1.951
 1232SOL     OW 4039   0.078   2.418   3.248
 1232SOL    HW1 4040   0.170   2.417   3.207
 1232SOL    HW2 4041   0.072   2.492   3.315
 1233SOL     OW 4042   0.561   2.084   3.009
 1233SOL    HW1 4043   0.599   2.000   3.046
 1233SOL    HW2 4044   0.473   2.103   3.053
 1234SOL     OW 4045   0.866   2.316   2.504
 1234SOL    HW1 4046   0.834   2.388   2.442
 1234SOL    HW2 4047   0.890   2.235   2.451
 1235SOL     OW 4048   1.017   1.901   2.615
 1235SOL    HW1 4049   0.945   1.906   2.546
 1235SOL    HW2 4050   0.993   1.832   2.684
 1236SOL     OW 4051   1.429   3.035   2.729
 1236SOL    HW1 4052   1.374   2.951   2.722
 1236SOL    HW2 4053   1.455   3.064   2.637
 1237SOL     OW 4054   1.466   2.452   2.854
 1237SOL    HW1 4055   1.436   2.357   2.861
 1237SOL    HW2 4056   1.539   2.468   2.920
 1238SOL     OW 4057   1.857   2.695   2.239
 1238SOL    HW1 4058   1.899   2.631   2.303
 1238SOL    HW2 4059   1.819   2.644   2.161
 1239SOL     OW 4060   0.488   3.247   2.036
 1239SOL    HW1 4061   0.401   3.232   2.083
 1239SOL    HW2 4062   0.471   3.273   1.941
 1240SOL     OW 4063   1.664   3.142   2.519
 1240SOL    HW1 4064   1.763   3.150   2.533
 1240SOL    HW2 4065   1.619   3.226   2.550
 1241SOL     OW 4066   1.390   2.437   1.940
 1241SOL    HW1 4067   1.336   2.416   2.021
 1241SOL    HW2 4068   1.481   2.396   1.949
 1242SOL     OW 4069   0.527   2.118   2.190
 1242SOL    HW1 4070   0.554   2.059   2.115
 1242SOL    HW2 4071   0.527   2.213   2.159
 1243SOL     OW 4072   1.754   3.085   3.450
 1243SOL    HW1 4073   1.845   3.046   3.437
 1243SOL    HW2 4074   1.762   3.181   3.474
 1244SOL     OW 4075   1.064   3.209   3.202
 1244SOL    HW1 4076   0.984   3.186   3.257
 1244SOL    HW2 4077   1.147   3.183   3.251
 1245SOL     OW 4078   1.592   3.491   3.487
 1245SOL    HW1 4079   1.619   3.525   3.397
 1245SOL    HW2 4080   1.671   3.453   3.533
 1246SOL     OW 4081   1.111   3.057   2.962
 1246SOL    HW1 4082   1.071   3.101   3.043
 1246SOL    HW2 4083   1.070   3.094   2.879
 1247SOL     OW 4084   1.638   2.961   2.941
 1247SOL    HW1 4085   1.643   3.042   3.000
 1247SOL    HW2 4086   1.552   2.963   2.890
 1248SOL     OW 4087   0.915   1.951   3.264
 1248SOL    HW1 4088   0.940   1.931   3.169
 1248SOL    HW2 4089   0.987   2.007   3.306
 1249SOL     OW 4090   0.980   2.978   3.581
 1249SOL    HW1 4091   0.881   2.984   3.591
 1249SOL    HW2 4092   1.003   2.898   3.525
 1250SOL     OW 4093   0.705   2.912   2.230
 1250SOL    HW1 4094   0.691   2.919   2.329
 1250SOL    HW2 4095   0.789   2.861   2.212
 1251SOL     OW 4096   0.410   2.675   3.113
 1251SOL    HW1 4097   0.496   2.687   3.163
 1251SOL    HW2 4098   0.368   2.588   3.140
 1252SOL     OW 4099   1.274   2.248   3.124
 1252SOL    HW1 4100   1.295   2.322   3.188
 1252SOL    HW2 4101   1.185   2.265   3.081
 1253SOL     OW 4102   0.064   3.426   3.193
 1253SOL    HW1 4103   0.018   3.508   3.159
 1253SOL    HW2 4104   0.162   3.445   3.202
 1254SOL     OW 4105   0.367   2.962   2.363
 1254SOL    HW1 4106   0.360   3.045   2.307
 1254SOL    HW2 4107   0.371   2.882   2.303
 1255SOL     OW 4108   0.566   2.399   2.727
 1255SOL    HW1 4109   0.578   2.465   2.653
 1255SOL    HW2 4110   0.612   2.433   2.810
 1256SOL     OW 4111   1.252   3.210   2.250
 1256SOL    HW1 4112   1.302   3.287   2.290
 1256SOL    HW2 4113   1.157   3.212   2.282
 1257SOL     OW 4114   1.272   3.307   3.004
 1257SOL    HW1 4115   1.319   3.320   3.091
 1257SOL    HW2 4116   1.206   3.233   3.013
 1258SOL     OW 4117   1.582   2.501   2.334
 1258SOL    HW1 4118   1.551   2.562   2.407
 1258SOL    HW2 4119   1.632   2.553   2.265
 1259SOL     OW 4120   0.354   3.372   3.191
 1259SOL    HW1 4121   0.333   3.328   3.104
 1259SOL    HW2 4122   0.451   3.398   3.194
 1260SOL     OW 4123   0.402   2.613   3.460
 1260SOL    HW1 4124   0.470   2.668   3.413
 1260SOL    HW2 4125   0.442   2.525   3.487
 1261SOL     OW 4126   1.587   2.641   3.532
 1261SOL    HW1 4127   1.495   2.679   3.527
 1261SOL    HW2 4128   1.647   2.688   3.467
 1262SOL     OW 4129   1.013   1.967   3.632
 1262SOL    HW1 4130   1.019   2.052   3.580
 1262SOL    HW2 4131   1.045   1.891   3.575
 1263SOL     OW 4132   0.504   1.912   3.602
 1263SOL    HW1 4133   0.462   1.855   3.532
 1263SOL    HW2 4134   0.438   1.981   3.634
 1264SOL     OW 4135   0.573   2.732   2.891
 1264SOL    HW1 4136   0.617   2.821   2.882
 1264SOL    HW2 4137   0.510   2.732   2.968
 1265SOL     OW 4138   1.360   2.724   2.907
 1265SOL    HW1 4139   1.285   2.724   2.841
 1265SOL    HW2 4140   1.397   2.632   2.916
 1266SOL     OW 4141   1.209   2.387   2.137
 1266SOL    HW1 4142   1.222   2.303   2.191
 1266SOL    HW2 4143   1.180   2.461   2.197
 1267SOL     OW 4144   0.307   2.075   3.093
 1267SOL    HW1 4145   0.284   2.112   3.183
 1267SOL    HW2 4146   0.277   1.980   3.087
 1268SOL     OW 4147   0.037   3.172   3.144
 1268SOL    HW1 4148   0.090   3.123   3.212
 1268SOL    HW2 4149   0.059   3.270   3.149
 1269SOL     OW 4150   0.732   2.496   2.926
 1269SOL    HW1 4151   0.791   2.470   2.850
 1269SOL    HW2 4152   0.704   2.592   2.915
 1270SOL     OW 4153   1.728   2.797   3.716
 1270SOL    HW1 4154   1.682   2.790   3.627
 1270SOL    HW2 4155   1.666   2.841   3.782
 1271SOL     OW 4156   0.307   1.925   2.480
 1271SOL    HW1 4157   0.296   2.019   2.513
 1271SOL    HW2 4158   0.302   1.862   2.557
 1272SOL     OW 4159   1.622   2.229   2.236
 1272SOL    HW1 4160   1.624   2.153   2.300
 1272SOL    HW2 4161   1.574   2.306   2.276
 1273SOL     OW 4162   1.023   2.628   2.828
 1273SOL    HW1 4163   1.038   2.649   2.924
 1273SOL    HW2 4164   0.993   2.533   2.819
 1274SOL     OW 4165   0.980   3.435   3.562
 1274SOL    HW1 4166   0.960   3.479   3.474
 1274SOL    HW2 4167   1.019   3.344   3.546
 1275SOL     OW 4168   1.859   3.380   3.467
 1275SOL    HW1 4169   1.873   3.407   3.372
 1275SOL    HW2 4170   1.942   3.402   3.520
 1276SOL     OW 4171   0.350   2.760   3.666
 1276SOL    HW1 4172   0.426   2.804   3.714
 1276SOL    HW2 4173   0.385   2.713   3.584
 1277SOL     OW 4174   1.540   2.136   1.987
 1277SOL    HW1 4175   1.479   2.061   2.010
 1277SOL    HW2 4176   1.562   2.188   2.070
 1278SOL     OW 4177   1.303   2.700   1.904
 1278SOL    HW1 4178   1.337   2.607   1.919
 1278SOL    HW2 4179   1.321   2.727   1.809
 1279SOL     OW 4180   1.068   3.195   2.711
 1279SOL    HW1 4181   1.075   3.111   2.656
 1279SOL    HW2 4182   1.130   3.264   2.675
 1280SOL     OW 4183   0.319   2.672   2.811
 1280SOL    HW1 4184   0.412   2.708   2.816
 1280SOL    HW2 4185   0.313   2.587   2.863
 1281SOL     OW 4186   0.339   2.371   2.868
 1281SOL    HW1 4187   0.287   2.288   2.851
 1281SOL    HW2 4188   0.416   2.376   2.804
 1282SOL     OW 4189   1.138   2.242   3.540
 1282SOL    HW1 4190   1.093   2.305   3.604
 1282SOL    HW2 4191   1.231   2.273   3.523
 1283SOL     OW 4192   1.160   2.069   3.339
 1283SOL    HW1 4193   1.160   2.133   3.416
 1283SOL    HW2 4194   1.188   2.117   3.256
 1284SOL     OW 4195   0.008   3.188   2.062
 1284SOL    HW1 4196  -0.085   3.209   2.031
 1284SOL    HW2 4197   0.018   3.089   2.075
 1285SOL     OW 4198   0.088   3.663   2.789
 1285SOL    HW1 4199   0.046   3.577   2.762
 1285SOL    HW2 4200   0.182   3.666   2.755
 1286SOL     OW 4201   0.504   3.430   2.772
 1286SOL    HW1 4202   0.570   3.504   2.781
 1286SOL    HW2 4203   0.548   3.351   2.730
 1287SOL     OW 4204   1.002   2.658   3.100
 1287SOL    HW1 4205   1.043   2.626   3.186
 1287SOL    HW2 4206   0.906   2.631   3.097
 1288SOL     OW 4207   0.040   2.406   2.976
 1288SOL    HW1 4208   0.125   2.373   2.935
 1288SOL    HW2 4209   0.053   2.421   3.074
 1289SOL     OW 4210   0.189   2.382   3.584
 1289SOL    HW1 4211   0.248   2.342   3.514
 1289SOL    HW2 4212   0.131   2.453   3.543
 1290SOL     OW 4213   1.369   2.812   3.522
 1290SOL    HW1 4214   1.408   2.901   3.542
 1290SOL    HW2 4215   1.379   2.792   3.425
 1291SOL     OW 4216   0.815   2.434   2.187
 1291SOL    HW1 4217   0.822   2.345   2.141
 1291SOL    HW2 4218   0.721   2.468   2.179
 1292SOL     OW 4219   1.657   2.466   3.068
 1292SOL    HW1 4220   1.619   2.397   3.130
 1292SOL    HW2 4221   1.739   2.430   3.024
 1293SOL     OW 4222   0.252   3.426   3.606
 1293SOL    HW1 4223   0.222   3.483   3.682
 1293SOL    HW2 4224   0.245   3.329   3.632
 1294SOL     OW 4225   0.671   2.326   3.131
 1294SOL    HW1 4226   0.637   2.237   3.101
 1294SOL    HW2 4227   0.697   2.380   3.051
 1295SOL     OW 4228   0.930   3.540   3.327
 1295SOL    HW1 4229   0.906   3.522   3.232
 1295SOL    HW2 4230   0.960   3.634   3.337
 1296SOL     OW 4231   0.473   2.362   2.053
 1296SOL    HW1 4232   0.534   2.442   2.057
 1296SOL    HW2 4233   0.378   2.393   2.060
 1297SOL     OW 4234   0.159   2.999   3.328
 1297SOL    HW1 4235   0.181   2.938   3.404
 1297SOL    HW2 4236   0.169   2.950   3.242
 1298SOL     OW 4237   1.347   2.921   3.096
 1298SOL    HW1 4238   1.371   2.858   3.022
 1298SOL    HW2 4239   1.257   2.961   3.078
 1299SOL     OW 4240   1.302   2.717   2.171
 1299SOL    HW1 4241   1.216   2.686   2.213
 1299SOL    HW2 4242   1.298   2.703   2.072
 1300SOL     OW 4243   1.759   3.609   3.016
 1300SOL    HW1 4244   1.820   3.639   2.943
 1300SOL    HW2 4245   1.721   3.520   2.994
 1301SOL     OW 4246   1.252   3.593   2.990
 1301SOL    HW1 4247   1.336   3.598   2.936
 1301SOL    HW2 4248   1.229   3.497   3.008
 1302SOL     OW 4249   0.083   3.120   2.884
 1302SOL    HW1 4250   0.078   3.119   2.984
 1302SOL    HW2 4251   0.000   3.079   2.846
 1303SOL     OW 4252   0.688   3.524   3.578
 1303SOL    HW1 4253   0.632   3.605   3.587
 1303SOL    HW2 4254   0.740   3.528   3.492
 1304SOL     OW 4255   1.726   1.997   2.385
 1304SOL    HW1 4256   1.799   1.980   2.318
 1304SOL    HW2 4257   1.695   1.910   2.423
 1305SOL     OW 4258   1.388   3.435   2.339
 1305SOL    HW1 4259   1.455   3.447   2.265
 1305SOL    HW2 4260   1.348   3.524   2.362
 1306SOL     OW 4261   0.130   3.656   3.713
 1306SOL    HW1 4262   0.089   3.582   3.766
 1306SOL    HW2 4263   0.194   3.707   3.771
 1307SOL     OW 4264   1.280   2.789   2.534
 1307SOL    HW1 4265   1.340   2.708   2.536
 1307SOL    HW2 4266   1.320   2.858   2.474
 1308SOL     OW 4267   0.830   3.135   3.284
 1308SOL    HW1 4268   0.825   3.168   3.379
 1308SOL    HW2 4269   0.744   3.154   3.238
 1309SOL     OW 4270   0.672   3.478   2.016
 1309SOL    HW1 4271   0.681   3.488   1.917
 1309SOL    HW2 4272   0.632   3.389   2.037
 1310SOL     OW 4273   1.650   3.582   3.256
 1310SOL    HW1 4274   1.703   3.592   3.172
 1310SOL    HW2 4275   1.623   3.672   3.290
 1311SOL     OW 4276   1.841   2.037   2.825
 1311SOL    HW1 4277   1.880   1.952   2.789
 1311SOL    HW2 4278   1.743   2.039   2.806
 1312SOL     OW 4279   0.263   2.188   2.582
 1312SOL    HW1 4280   0.184   2.239   2.548
 1312SOL    HW2 4281   0.254   2.173   2.680
 1313SOL     OW 4282   1.194   3.474   1.893
 1313SOL    HW1 4283   1.200   3.381   1.930
 1313SOL    HW2 4284   1.135   3.474   1.813
 1314SOL     OW 4285   0.822   2.864   3.234
 1314SOL    HW1 4286   0.862   2.863   3.142
 1314SOL    HW2 4287   0.832   2.956   3.274
 1315SOL     OW 4288   0.916   2.772   2.153
 1315SOL    HW1 4289   0.979   2.810   2.085
 1315SOL    HW2 4290   0.956   2.689   2.192
 1316SOL     OW 4291   1.504   3.469   1.906
 1316SOL    HW1 4292   1.412   3.506   1.913
 1316SOL    HW2 4293   1.542   3.489   1.816
 1317SOL     OW 4294   0.372   3.150   3.352
 1317SOL    HW1 4295   0.359   3.243   3.318
 1317SOL    HW2 4296   0.288   3.098   3.339
 1318SOL     OW 4297   1.614   3.154   3.151
 1318SOL    HW1 4298   1.674   3.157   3.231
 1318SOL    HW2 4299   1.539   3.218   3.164
 1319SOL     OW 4300   1.039   2.960   2.558
 1319SOL    HW1 4301   0.969   2.913   2.612
 1319SOL    HW2 4302   1.098   2.892   2.515
 1320SOL     OW 4303   1.014   2.098   2.833
 1320SOL    HW1 4304   1.006   2.062   2.740
 1320SOL    HW2 4305   1.012   2.022   2.898
 1321SOL     OW 4306   0.590   3.349   2.353
 1321SOL    HW1 4307   0.632   3.291   2.283
 1321SOL    HW2 4308   0.546   3.428   2.309
 1322SOL     OW 4309   1.709   2.247   3.243
 1322SOL    HW1 4310   1.782   2.316   3.247
 1322SOL    HW2 4311   1.737   2.172   3.184
 1323SOL     OW 4312   0.255   3.210   2.152
 1323SOL    HW1 4313   0.159   3.211   2.125
 1323SOL    HW2 4314   0.267   3.263   2.236
 1324SOL     OW 4315   0.105   2.875   3.588
 1324SOL    HW1 4316   0.028   2.842   3.642
 1324SOL    HW2 4317   0.190   2.845   3.630
 1325SOL     OW 4318   0.672   2.065   3.351
 1325SOL    HW1 4319   0.762   2.049   3.311
 1325SOL    HW2 4320   0.680   2.070   3.450
 1326SOL     OW 4321   0.075   2.207   1.895
 1326SOL    HW1 4322  -0.017   2.179   1.866
 1326SOL    HW2 4323   0.106   2.284   1.839
 1327SOL     OW 4324   1.440   2.718   3.260
 1327SOL    HW1 4325   1.383   2.770   3.197
 1327SOL    HW2 4326   1.536   2.730   3.236
 1328SOL     OW 4327   0.072   2.028   2.180
 1328SOL    HW1 4328   0.055   2.111   2.126
 1328SOL    HW2 4329   0.162   1.991   2.158
 1329SOL     OW 4330   1.183   3.197   1.981
 1329SOL    HW1 4331   1.084   3.186   1.983
 1329SOL    HW2 4332   1.217   3.212   2.074
 1330SOL     OW 4333   0.613   2.704   3.293
 1330SOL    HW1 4334   0.669   2.785   3.276
 1330SOL    HW2 4335   0.672   2.624   3.296
 1331SOL     OW 4336   1.493   3.629   2.821
 1331SOL    HW1 4337   1.526   3.693   2.752
 1331SOL    HW2 4338   1.559   3.623   2.896
 1332SOL     OW 4339   0.716   2.427   3.570
 1332SOL    HW1 4340   0.735   2.492   3.644
 1332SOL    HW2 4341   0.776   2.347   3.579
 1333SOL     OW 4342   1.450   3.082   3.495
 1333SOL    HW1 4343   1.441   3.072   3.594
 1333SOL    HW2 4344   1.546   3.075   3.469
 1334SOL     OW 4345   0.390   3.603   3.422
 1334SOL    HW1 4346   0.299   3.644   3.420
 1334SOL    HW2 4347   0.383   3.509   3.454
 1335SOL     OW 4348   1.674   2.745   3.116
 1335SOL    HW1 4349   1.647   2.656   3.079
 1335SOL    HW2 4350   1.675   2.813   3.043
 1336SOL     OW 4351   1.225   2.187   2.311
 1336SOL    HW1 4352   1.290   2.113   2.300
 1336SOL    HW2 4353   1.245   2.237   2.395
 1337SOL     OW 4354   0.594   2.607   2.514
 1337SOL    HW1 4355   0.644   2.692   2.495
 1337SOL    HW2 4356   0.506   2.609   2.466
 1338SOL     OW 4357   1.777   2.204   3.504
 1338SOL    HW1 4358   1.760   2.235   3.410
 1338SOL    HW2 4359   1.693   2.167   3.542
 1339SOL     OW 4360   1.730   2.796   3.379
 1339SOL    HW1 4361   1.768   2.887   3.394
 1339SOL    HW2 4362   1.722   2.779   3.280
 1340SOL     OW 4363   0.859   3.236   1.878
 1340SOL    HW1 4364   0.813   3.251   1.966
 1340SOL    HW2 4365   0.903   3.321   1.848
 1341SOL     OW 4366   0.661   3.652   2.815
 1341SOL    HW1 4367   0.615   3.740   2.802
 1341SOL    HW2 4368   0.760   3.664   2.808
 1342SOL     OW 4369   0.859   2.818   2.723
 1342SOL    HW1 4370   0.913   2.749   2.771
 1342SOL    HW2 4371   0.827   2.887   2.789
 1343SOL     OW 4372   1.083   2.846   1.949
 1343SOL    HW1 4373   1.060   2.899   1.867
 1343SOL    HW2 4374   1.164   2.790   1.930
 1344SOL     OW 4375   1.861   3.431   2.713
 1344SOL    HW1 4376   1.790   3.419   2.643
 1344SOL    HW2 4377   1.862   3.352   2.773
 1345SOL     OW 4378   0.221   3.176   3.706
 1345SOL    HW1 4379   0.156   3.103   3.685
 1345SOL    HW2 4380   0.225   3.190   3.804
 1346SOL     OW 4381   0.079   3.102   2.515
 1346SOL    HW1 4382   0.078   3.055   2.603
 1346SOL    HW2 4383   0.161   3.074   2.464
 1347SOL     OW 4384   0.672   3.253   3.486
 1347SOL    HW1 4385   0.594   3.203   3.524
 1347SOL    HW2 4386   0.669   3.348   3.517
 1348SOL     OW 4387   1.824   2.054   3.089
 1348SOL    HW1 4388   1.820   1.964   3.133
 1348SOL    HW2 4389   1.827   2.043   2.990
 1349SOL     OW 4390   0.428   2.286   2.382
 1349SOL    HW1 4391   0.458   2.214   2.320
 1349SOL    HW2 4392   0.389   2.246   2.465
 1350SOL     OW 4393   1.705   3.349   2.966
 1350SOL    HW1 4394   1.612   3.324   2.939
 1350SOL    HW2 4395   1.731   3.299   3.048
 1351SOL     OW 4396   0.317   2.409   3.142
 1351SOL    HW1 4397   0.355   2.350   3.214
 1351SOL    HW2 4398   0.357   2.383   3.054
 1352SOL     OW 4399   0.812   3.448   2.549
 1352SOL    HW1 4400   0.844   3.458   2.455
 1352SOL    HW2 4401   0.733   3.386   2.551
 1353SOL     OW 4402   1.424   2.076   2.974
 1353SOL    HW1 4403   1.476   2.011   3.029
 1353SOL    HW2 4404   1.375   2.139   3.035
 1354SOL     OW 4405   1.001   1.896   3.016
 1354SOL    HW1 4406   0.938   1.824   2.985
 1354SOL    HW2 4407   1.094   1.860   3.016
 1355SOL     OW 4408   0.770   3.192   2.163
 1355SOL    HW1 4409   0.724   3.105   2.180
 1355SOL    HW2 4410   0.861   3.189   2.204
 1356SOL     OW 4411   0.618   3.429   3.146
 1356SOL    HW1 4412   0.613   3.511   3.203
 1356SOL    HW2 4413   0.707   3.426   3.101
 1357SOL     OW 4414   1.352   1.914   2.030
 1357SOL    HW1 4415   1.387   1.873   1.946
 1357SOL    HW2 4416   1.262   1.876   2.050
 1358SOL     OW 4417   1.300   2.315   2.553
 1358SOL    HW1 4418   1.241   2.395   2.557
 1358SOL    HW2 4419   1.315   2.280   2.646
 1359SOL     OW 4420   1.593   2.083   2.744
 1359SOL    HW1 4421   1.509   2.082   2.798
 1359SOL    HW2 4422   1.595   2.166   2.688
 1360SOL     OW 4423   0.039   2.939   2.162
 1360SOL    HW1 4424   0.138   2.928   2.153
 1360SOL    HW2 4425  -0.001   2.853   2.194
 1361SOL     OW 4426   0.875   3.508   2.199
 1361SOL    HW1 4427   0.798   3.473   2.145
 1361SOL    HW2 4428   0.843   3.579   2.261
 1362SOL     OW 4429   0.230   2.490   3.837
 1362SOL    HW1 4430   0.137   2.488   3.874
 1362SOL    HW2 4431   0.231   2.451   3.745
 1363SOL     OW 4432   0.225   2.137   4.720
 1363SOL    HW1 4433   0.260   2.120   4.812
 1363SOL    HW2 4434   0.137   2.092   4.708
 1364SOL     OW 4435   0.019   2.230   4.371
 1364SOL    HW1 4436  -0.063   2.273   4.410
 1364SOL    HW2 4437  -0.009   2.157   4.308
 1365SOL     OW 4438   0.569   3.137   4.889
 1365SOL    HW1 4439   0.476   3.130   4.852
 1365SOL    HW2 4440   0.580   3.226   4.933
 1366SOL     OW 4441   1.555   3.373   4.427
 1366SOL    HW1 4442   1.498   3.357   4.508
 1366SOL    HW2 4443   1.496   3.383   4.347
 1367SOL     OW 4444   1.135   2.565   4.441
 1367SOL    HW1 4445   1.192   2.643   4.416
 1367SOL    HW2 4446   1.075   2.591   4.517
 1368SOL     OW 4447   1.755   2.469   3.955
 1368SOL    HW1 4448   1.743   2.456   3.856
 1368SOL    HW2 4449   1.725   2.388   4.004
 1369SOL     OW 4450   0.768   3.006   4.747
 1369SOL    HW1 4451   0.690   3.023   4.807
 1369SOL    HW2 4452   0.802   3.093   4.711
 1370SOL     OW 4453   0.850   2.660   5.547
 1370SOL    HW1 4454   0.846   2.736   5.612
 1370SOL    HW2 4455   0.872   2.696   5.456
 1371SOL     OW 4456   0.685   2.874   4.389
 1371SOL    HW1 4457   0.754   2.858   4.459
 1371SOL    HW2 4458   0.612   2.931   4.427
 1372SOL     OW 4459   0.686   3.023   5.527
 1372SOL    HW1 4460   0.746   3.102   5.541
 1372SOL    HW2 4461   0.600   3.054   5.486
 1373SOL     OW 4462   0.335   3.297   4.785
 1373SOL    HW1 4463   0.257   3.266   4.732
 1373SOL    HW2 4464   0.393   3.355   4.728
 1374SOL     OW 4465   1.460   3.367   5.063
 1374SOL    HW1 4466   1.484   3.461   5.089
 1374SOL    HW2 4467   1.444   3.313   5.145
 1375SOL     OW 4468   0.438   2.254   5.223
 1375SOL    HW1 4469   0.520   2.198   5.232
 1375SOL    HW2 4470   0.357   2.196   5.227
 1376SOL     OW 4471   1.603   2.309   4.461
 1376SOL    HW1 4472   1.529   2.355   4.411
 1376SOL    HW2 4473   1.654   2.377   4.514
 1377SOL     OW 4474   0.231   3.575   4.207
 1377SOL    HW1 4475   0.265   3.652   4.261
 1377SOL    HW2 4476   0.275   3.575   4.117
 1378SOL     OW 4477   1.127   3.203   5.414
 1378SOL    HW1 4478   1.174   3.203   5.502
 1378SOL    HW2 4479   1.079   3.116   5.403
 1379SOL     OW 4480   0.230   3.296   4.262
 1379SOL    HW1 4481   0.204   3.392   4.262
 1379SOL    HW2 4482   0.159   3.242   4.307
 1380SOL     OW 4483   0.240   2.953   4.610
 1380SOL    HW1 4484   0.254   2.869   4.662
 1380SOL    HW2 4485   0.185   3.017   4.665
 1381SOL     OW 4486   0.620   3.648   5.163
 1381SOL    HW1 4487   0.528   3.631   5.198
 1381SOL    HW2 4488   0.648   3.740   5.189
 1382SOL     OW 4489   0.606   2.826   3.847
 1382SOL    HW1 4490   0.613   2.910   3.793
 1382SOL    HW2 4491   0.652   2.839   3.935
 1383SOL     OW 4492   1.594   1.976   5.204
 1383SOL    HW1 4493   1.576   2.043   5.132
 1383SOL    HW2 4494   1.591   2.022   5.293
 1384SOL     OW 4495   0.122   2.505   4.287
 1384SOL    HW1 4496   0.077   2.417   4.304
 1384SOL    HW2 4497   0.121   2.559   4.371
 1385SOL     OW 4498   1.842   3.629   4.083
 1385SOL    HW1 4499   1.896   3.600   4.163
 1385SOL    HW2 4500   1.872   3.719   4.054
 1386SOL     OW 4501   0.027   3.458   3.841
 1386SOL    HW1 4502   0.008   3.362   3.862
 1386SOL    HW2 4503  -0.006   3.516   3.916
 1387SOL     OW 4504   1.689   2.784   4.336
 1387SOL    HW1 4505   1.784   2.755   4.344
 1387SOL    HW2 4506   1.681   2.849   4.261
 1388SOL     OW 4507   1.641   2.970   4.156
 1388SOL    HW1 4508   1.727   2.972   4.104
 1388SOL    HW2 4509   1.655   3.017   4.244
 1389SOL     OW 4510   0.113   2.599   5.321
 1389SOL    HW1 4511   0.201   2.586   5.366
 1389SOL    HW2 4512   0.100   2.696   5.299
 1390SOL     OW 4513   0.613   3.227   4.450
 1390SOL    HW1 4514   0.564   3.140   4.459
 1390SOL    HW2 4515   0.590   3.270   4.363
 1391SOL     OW 4516   1.293   3.090   5.147
 1391SOL    HW1 4517   1.330   3.017   5.089
 1391SOL    HW2 4518   1.345   3.095   5.232
 1392SOL     OW 4519   0.809   1.866   4.226
 1392SOL    HW1 4520   0.849   1.957   4.217
 1392SOL    HW2 4521   0.709   1.874   4.232
 1393SOL     OW 4522   0.197   2.838   4.988
 1393SOL    HW1 4523   0.286   2.793   4.974
 1393SOL    HW2 4524   0.124   2.773   4.969
 1394SOL     OW 4525   1.525   2.861   3.914
 1394SOL    HW1 4526   1.462   2.785   3.927
 1394SOL    HW2 4527   1.573   2.879   4.000
 1395SOL     OW 4528   1.187   3.654   5.340
 1395SOL    HW1 4529   1.211   3.714   5.264
 1395SOL    HW2 4530   1.194   3.559   5.310
 1396SOL     OW 4531   0.317   2.113   5.525
 1396SOL    HW1 4532   0.388   2.184   5.531
 1396SOL    HW2 4533   0.229   2.152   5.553
 1397SOL     OW 4534   1.466   3.279   4.677
 1397SOL    HW1 4535   1.407   3.285   4.757
 1397SOL    HW2 4536   1.451   3.191   4.631
 1398SOL     OW 4537   1.667   3.576   4.296
 1398SOL    HW1 4538   1.626   3.553   4.208
 1398SOL    HW2 4539   1.649   3.502   4.361
 1399SOL     OW 4540   0.598   2.591   3.994
 1399SOL    HW1 4541   0.622   2.660   3.926
 1399SOL    HW2 4542   0.520   2.624   4.048
 1400SOL     OW 4543   1.281   2.207   4.668
 1400SOL    HW1 4544   1.195   2.157   4.655
 1400SOL    HW2 4545   1.343   2.153   4.724
 1401SOL     OW 4546   1.576   3.524   4.031
 1401SOL    HW1 4547   1.665   3.570   4.034
 1401SOL    HW2 4548   1.555   3.500   3.936
 1402SOL     OW 4549   0.807   2.467   5.189
 1402SOL    HW1 4550   0.760   2.464   5.278
 1402SOL    HW2 4551   0.756   2.412   5.123
 1403SOL     OW 4552   1.394   2.331   5.398
 1403SOL    HW1 4553   1.374   2.374   5.486
 1403SOL    HW2 4554   1.472   2.269   5.407
 1404SOL     OW 4555   0.973   2.752   5.296
 1404SOL    HW1 4556   1.019   2.668   5.267
 1404SOL    HW2 4557   0.917   2.786   5.221
 1405SOL     OW 4558   0.991   2.272   4.966
 1405SOL    HW1 4559   0.914   2.306   5.020
 1405SOL    HW2 4560   0.957   2.221   4.887
 1406SOL     OW 4561   1.041   2.563   4.153
 1406SOL    HW1 4562   1.067   2.559   4.249
 1406SOL    HW2 4563   0.956   2.512   4.139
 1407SOL     OW 4564   0.076   2.673   4.513
 1407SOL    HW1 4565   0.175   2.661   4.522
 1407SOL    HW2 4566   0.052   2.768   4.534
 1408SOL     OW 4567   0.130   3.683   5.295
 1408SOL    HW1 4568   0.120   3.668   5.394
 1408SOL    HW2 4569   0.044   3.719   5.259
 1409SOL     OW 4570   0.865   2.210   3.919
 1409SOL    HW1 4571   0.924   2.273   3.870
 1409SOL    HW2 4572   0.884   2.116   3.890
 1410SOL     OW 4573   1.719   2.447   5.555
 1410SOL    HW1 4574   1.693   2.536   5.519
 1410SOL    HW2 4575   1.717   2.379   5.482
 1411SOL     OW 4576   1.362   3.006   4.269
 1411SOL    HW1 4577   1.445   2.977   4.221
 1411SOL    HW2 4578   1.313   3.073   4.213
 1412SOL     OW 4579   0.550   2.058   4.609
 1412SOL    HW1 4580   0.545   2.053   4.709
 1412SOL    HW2 4581   0.552   2.154   4.580
 1413SOL     OW 4582   1.008   3.318   4.201
 1413SOL    HW1 4583   0.962   3.390   4.149
 1413SOL    HW2 4584   1.004   3.338   4.299
 1414SOL     OW 4585   0.351   3.663   4.577
 1414SOL    HW1 4586   0.401   3.577   4.583
 1414SOL    HW2 4587   0.416   3.740   4.574
 1415SOL     OW 4588   1.795   2.928   4.597
 1415SOL    HW1 4589   1.733   2.913   4.521
 1415SOL    HW2 4590   1.743   2.939   4.682
 1416SOL     OW 4591   1.227   3.412   5.230
 1416SOL    HW1 4592   1.233   3.335   5.294
 1416SOL    HW2 4593   1.175   3.386   5.150
 1417SOL     OW 4594   0.321   2.805   3.966
 1417SOL    HW1 4595   0.403   2.844   3.924
 1417SOL    HW2 4596   0.294   2.723   3.917
 1418SOL     OW 4597   1.458   2.597   4.452
 1418SOL    HW1 4598   1.453   2.532   4.527
 1418SOL    HW2 4599   1.538   2.656   4.465
 1419SOL     OW 4600   0.461   3.128   5.451
 1419SOL    HW1 4601   0.411   3.129   5.365
 1419SOL    HW2 4602   0.398   3.110   5.527
 1420SOL     OW 4603   1.111   3.638   3.961
 1420SOL    HW1 4604   1.051   3.576   4.011
 1420SOL    HW2 4605   1.142   3.594   3.876
 1421SOL     OW 4606   0.202   2.147   5.222
 1421SOL    HW1 4607   0.122   2.207   5.209
 1421SOL    HW2 4608   0.192   2.098   5.308
 1422SOL     OW 4609   1.632   3.239   3.805
 1422SOL    HW1 4610   1.600   3.333   3.795
 1422SOL    HW2 4611   1.556   3.176   3.793
 1423SOL     OW 4612   0.464   3.605   4.047
 1423SOL    HW1 4613   0.497   3.644   4.133
 1423SOL    HW2 4614   0.540   3.598   3.982
 1424SOL     OW 4615   1.400   1.969   4.150
 1424SOL    HW1 4616   1.376   1.932   4.060
 1424SOL    HW2 4617   1.499   1.985   4.154
 1425SOL     OW 4618   0.249   3.647   4.965
 1425SOL    HW1 4619   0.306   3.582   5.015
 1425SOL    HW2 4620   0.233   3.614   4.872
 1426SOL     OW 4621   0.940   3.560   4.628
 1426SOL    HW1 4622   1.020   3.503   4.649
 1426SOL    HW2 4623   0.891   3.520   4.551
 1427SOL     OW 4624   0.382   2.562   4.204
 1427SOL    HW1 4625   0.427   2.472   4.201
 1427SOL    HW2 4626   0.288   2.551   4.237
 1428SOL     OW 4627   1.547   2.084   5.453
 1428SOL    HW1 4628   1.542   2.121   5.545
 1428SOL    HW2 4629   1.475   2.015   5.441
 1429SOL     OW 4630   0.614   1.984   3.841
 1429SOL    HW1 4631   0.712   1.962   3.848
 1429SOL    HW2 4632   0.583   1.967   3.748
 1430SOL     OW 4633   0.781   2.126   5.473
 1430SOL    HW1 4634   0.848   2.065   5.516
 1430SOL    HW2 4635   0.708   2.145   5.538
 1431SOL     OW 4636   0.888   3.376   4.919
 1431SOL    HW1 4637   0.865   3.351   4.825
 1431SOL    HW2 4638   0.949   3.307   4.958
 1432SOL     OW 4639   1.351   2.452   5.157
 1432SOL    HW1 4640   1.379   2.409   5.242
 1432SOL    HW2 4641   1.376   2.548   5.158
 1433SOL     OW 4642   0.803   3.264   4.648
 1433SOL    HW1 4643   0.893   3.278   4.606
 1433SOL    HW2 4644   0.732   3.266   4.577
 1434SOL     OW 4645   0.922   2.365   4.623
 1434SOL    HW1 4646   0.897   2.356   4.527
 1434SOL    HW2 4647   0.970   2.283   4.654
 1435SOL     OW 4648   0.539   1.926   4.236
 1435SOL    HW1 4649   0.458   1.927   4.294
 1435SOL    HW2 4650   0.542   2.009   4.181
 1436SOL     OW 4651   1.434   3.050   3.765
 1436SOL    HW1 4652   1.466   2.974   3.822
 1436SOL    HW2 4653   1.342   3.077   3.795
 1437SOL     OW 4654   0.297   1.897   3.895
 1437SOL    HW1 4655   0.346   1.981   3.874
 1437SOL    HW2 4656   0.359   1.832   3.940
 1438SOL     OW 4657   0.935   2.098   4.204
 1438SOL    HW1 4658   0.887   2.139   4.126
 1438SOL    HW2 4659   1.034   2.096   4.185
 1439SOL     OW 4660   1.076   2.545   5.188
 1439SOL    HW1 4661   0.996   2.484   5.191
 1439SOL    HW2 4662   1.157   2.492   5.164
 1440SOL     OW 4663   1.227   3.432   4.517
 1440SOL    HW1 4664   1.248   3.506   4.452
 1440SOL    HW2 4665   1.295   3.432   4.590
 1441SOL     OW 4666   0.459   3.014   4.465
 1441SOL    HW1 4667   0.388   2.987   4.530
 1441SOL    HW2 4668   0.433   2.986   4.372
 1442SOL     OW 4669   1.271   3.659   4.315
 1442SOL    HW1 4670   1.315   3.723   4.251
 1442SOL    HW2 4671   1.221   3.711   4.385
 1443SOL     OW 4672   1.032   2.411   3.740
 1443SOL    HW1 4673   0.991   2.493   3.701
 1443SOL    HW2 4674   1.096   2.437   3.813
 1444SOL     OW 4675   0.078   2.418   5.110
 1444SOL    HW1 4676   0.170   2.417   5.069
 1444SOL    HW2 4677   0.072   2.492   5.177
 1445SOL     OW 4678   0.561   2.084   4.871
 1445SOL    HW1 4679   0.599   2.000   4.908
 1445SOL    HW2 4680   0.473   2.103   4.915
 1446SOL     OW 4681   0.866   2.316   4.366
 1446SOL    HW1 4682   0.834   2.388   4.304
 1446SOL    HW2 4683   0.890   2.235   4.313
 1447SOL     OW 4684   1.017   1.901   4.477
 1447SOL    HW1 4685   0.945   1.906   4.408
 1447SOL    HW2 4686   0.993   1.832   4.546
 1448SOL     OW 4687   1.429   3.035   4.591
 1448SOL    HW1 4688   1.374   2.951   4.584
 1448SOL    HW2 4689   1.455   3.064   4.499
 1449SOL     OW 4690   1.466   2.452   4.716
 1449SOL    HW1 4691   1.436   2.357   4.723
 1449SOL    HW2 4692   1.539   2.468   4.782
 1450SOL     OW 4693   1.857   2.695   4.101
 1450SOL    HW1 4694   1.899   2.631   4.165
 1450SOL    HW2 4695   1.819   2.644   4.023
 1451SOL     OW 4696   0.488   3.247   3.898
 1451SOL    HW1 4697   0.401   3.232   3.945
 1451SOL    HW2 4698   0.471   3.273   3.803
 1452SOL     OW 4699   1.664   3.142   4.381
 1452SOL    HW1 4700   1.763   3.150   4.395
 1452SOL    HW2 4701   1.619   3.226   4.412
 1453SOL     OW 4702   1.390   2.437   3.802
 1453SOL    HW1 4703   1.336   2.416   3.883
 1453SOL    HW2 4704   1.481   2.396   3.811
 1454SOL     OW 4705   0.527   2.118   4.052
 1454SOL    HW1 4706   0.554   2.059   3.977
 1454SOL    HW2 4707   0.527   2.213   4.021
 1455SOL     OW 4708   1.754   3.085   5.312
 1455SOL    HW1 4709   1.845   3.046   5.299
 1455SOL    HW2 4710   1.762   3.181   5.336
 1456SOL     OW 4711   1.064   3.209   5.064
 1456SOL    HW1 4712   0.984   3.186   5.119
 1456SOL    HW2 4713   1.147   3.183   5.113
 1457SOL     OW 4714   1.592   3.491   5.349
 1457SOL    HW1 4715   1.619   3.525   5.259
 1457SOL    HW2 4716   1.671   3.453   5.395
 1458SOL     OW 4717   1.111   3.057   4.824
 1458SOL    HW1 4718   1.071   3.101   4.905
 1458SOL    HW2 4719   1.070   3.094   4.741
 1459SOL     OW 4720   1.638   2.961   4.803
 1459SOL    HW1 4721   1.643   3.042   4.862
 1459SOL    HW2 4722   1.552   2.963   4.752
 1460SOL     OW 4723   0.915   1.951   5.126
 1460SOL    HW1 4724   0.940   1.931   5.031
 1460SOL    HW2 4725   0.987   2.007   5.168
 1461SOL     OW 4726   0.980   2.978   5.443
 1461SOL    HW1 4727   0.881   2.984   5.453
 1461SOL    HW2 4728   1.003   2.898   5.387
 1462SOL     OW 4729   0.705   2.912   4.092
 1462SOL    HW1 4730   0.691   2.919   4.191
 1462SOL    HW2 4731   0.789   2.861   4.074
 1463SOL     OW 4732   0.410   2.675   4.975
 1463SOL    HW1 4733   0.496   2.687   5.025
 1463SOL    HW2 4734   0.368   2.588   5.002
 1464SOL     OW 4735   1.274   2.248   4.986
 1464SOL    HW1 4736   1.295   2.322   5.050
 1464SOL    HW2 4737   1.185   2.265   4.943
 1465SOL     OW 4738   0.064   3.426   5.055
 1465SOL    HW1 4739   0.018   3.508   5.021
 1465SOL    HW2 4740   0.162   3.445   5.064
 1466SOL     OW 4741   0.367   2.962   4.225
 1466SOL    HW1 4742   0.360   3.045   4.169
 1466SOL    HW2 4743   0.371   2.882   4.165
 1467SOL     OW 4744   0.566   2.399   4.589
 1467SOL    HW1 4745   0.578   2.465   4.515
 1467SOL    HW2 4746   0.612   2.433   4.672
 1468SOL     OW 4747   1.252   3.210   4.112
 1468SOL    HW1 4748   1.302   3.287   4.152
 1468SOL    HW2 4749   1.157   3.212   4.144
 1469SOL     OW 4750   1.272   3.307   4.866
 1469SOL    HW1 4751   1.319   3.320   4.953
 1469SOL    HW2 4752   1.206   3.233   4.875
 1470SOL     OW 4753   1.582   2.501   4.196
 1470SOL    HW1 4754   1.551   2.562   4.269
 1470SOL    HW2 4755   1.632   2.553   4.127
 1471SOL     OW 4756   0.354   3.372   5.053
 1471SOL    HW1 4757   0.333   3.328   4.966
 1471SOL    HW2 4758   0.451   3.398   5.056
 1472SOL     OW 4759   0.402   2.613   5.322
 1472SOL    HW1 4760   0.470   2.668   5.275
 1472SOL    HW2 4761   0.442   2.525   5.349
 1473SOL     OW 4762   1.587   2.641   5.394
 1473SOL    HW1 4763   1.495   2.679   5.389
 1473SOL    HW2 4764   1.647   2.688   5.329
 1474SOL     OW 4765   1.013   1.967   5.494
 1474SOL    HW1 4766   1.019   2.052   5.442
 1474SOL    HW2 4767   1.045   1.891   5.437
 1475SOL     OW 4768   0.504   1.912   5.464
 1475SOL    HW1 4769   0.462   1.855   5.394
 1475SOL    HW2 4770   0.438   1.981   5.496
 1476SOL     OW 4771   0.573   2.732   4.753
 1476SOL    HW1 4772   0.617   2.821   4.744
 1476SOL    HW2 4773   0.510   2.732   4.830
 1477SOL     OW 4774   1.360   2.724   4.769
 1477SOL    HW1 4775   1.285   2.724   4.703
 1477SOL    HW2 4776   1.397   2.632   4.778
 1478SOL     OW 4777   1.209   2.387   3.999
 1478SOL    HW1 4778   1.222   2.303   4.053
 1478SOL    HW2 4779   1.180   2.461   4.059
 1479SOL     OW 4780   0.307   2.075   4.955
 1479SOL    HW1 4781   0.284   2.112   5.045
 1479SOL    HW2 4782   0.277   1.980   4.949
 1480SOL     OW 4783   0.037   3.172   5.006
 1480SOL    HW1 4784   0.090   3.123   5.074
 1480SOL    HW2 4785   0.059   3.270   5.011
 1481SOL     OW 4786   0.732   2.496   4.788
 1481SOL    HW1 4787   0.791   2.470   4.712
 1481SOL    HW2 4788   0.704   2.592   4.777
 1482SOL     OW 4789   1.728   2.797   5.578
 1482SOL    HW1 4790   1.682   2.790   5.489
 1482SOL    HW2 4791   1.666   2.841   5.644
 1483SOL     OW 4792   0.307   1.925   4.342
 1483SOL    HW1 4793   0.296   2.019   4.375
 1483SOL    HW2 4794   0.302   1.862   4.419
 1484SOL     OW 4795   1.622   2.229   4.098
 1484SOL    HW1 4796   1.624   2.153   4.162
 1484SOL    HW2 4797   1.574   2.306   4.138
 1485SOL     OW 4798   1.023   2.628   4.690
 1485SOL    HW1 4799   1.038   2.649   4.786
 1485SOL    HW2 4800   0.993   2.533   4.681
 1486SOL     OW 4801   0.980   3.435   5.424
 1486SOL    HW1 4802   0.960   3.479   5.336
 1486SOL    HW2 4803   1.019   3.344   5.408
 1487SOL     OW 4804   1.859   3.380   5.329
 1487SOL    HW1 4805   1.873   3.407   5.234
 1487SOL    HW2 4806   1.942   3.402   5.382
 1488SOL     OW 4807   0.350   2.760   5.528
 1488SOL    HW1 4808   0.426   2.804   5.576
 1488SOL    HW2 4809   0.385   2.713   5.446
 1489SOL     OW 4810   1.540   2.136   3.849
 1489SOL    HW1 4811   1.479   2.061   3.872
 1489SOL    HW2 4812   1.562   2.188   3.932
 1490SOL     OW 4813   1.303   2.700   3.766
 1490SOL    HW1 4814   1.337   2.607   3.781
 1490SOL    HW2 4815   1.321   2.727   3.671
 1491SOL     OW 4816   1.068   3.195   4.573
 1491SOL    HW1 4817   1.075   3.111   4.518
 1491SOL    HW2 4818   1.130   3.264   4.537
 1492SOL     OW 4819   0.319   2.672   4.673
 1492SOL    HW1 4820   0.412   2.708   4.678
 1492SOL    HW2 4821   0.313   2.587   4.725
 1493SOL     OW 4822   0.339   2.371   4.730
 1493SOL    HW1 4823   0.287   2.288   4.713
 1493SOL    HW2 4824   0.416   2.376   4.666
 1494SOL     OW 4825   1.138   2.242   5.402
 1494SOL    HW1 4826   1.093   2.305   5.466
 1494SOL    HW2 4827   1.231   2.273   5.385
 1495SOL     OW 4828   1.160   2.069   5.201
 1495SOL    HW1 4829   1.160   2.133   5.278
 1495SOL    HW2 4830   1.188   2.117   5.118
 1496SOL     OW 4831   0.008   3.188   3.924
 1496SOL    HW1 4832  -0.085   3.209   3.893
 1496SOL    HW2 4833   0.018   3.089   3.937
 1497SOL     OW 4834   0.088   3.663   4.651
 1497SOL    HW1 4835   0.046   3.577   4.624
 1497SOL    HW2 4836   0.182   3.666   4.617
 1498SOL     OW 4837   0.504   3.430   4.634
 1498SOL    HW1 4838   0.570   3.504   4.643
 1498SOL    HW2 4839   0.548   3.351   4.592
 1499SOL     OW 4840   1.002   2.658   4.962
 1499SOL    HW1 4841   1.043   2.626   5.048
 1499SOL    HW2 4842   0.906   2.631   4.959
 1500SOL     OW 4843   0.040   2.406   4.838
 1500SOL    HW1 4844   0.125   2.373   4.797
 1500SOL    HW2 4845   0.053   2.421   4.936
 1501SOL     OW 4846   0.189   2.382   5.446
 1501SOL    HW1 4847   0.248   2.342   5.376
 1501SOL    HW2 4848   0.131   2.453   5.405
 1502SOL     OW 4849   1.369   2.812   5.384
 1502SOL    HW1 4850   1.408   2.901   5.404
 1502SOL    HW2 4851   1.379   2.792   5.287
 1503SOL     OW 4852   0.815   2.434   4.049
 1503SOL    HW1 4853   0.822   2.345   4.003
 1503SOL    HW2 4854   0.721   2.468   4.041
 1504SOL     OW 4855   1.657   2.466   4.930
 1504SOL    HW1 4856   1.619   2.397   4.992
 1504SOL    HW2 4857   1.739   2.430   4.886
 1505SOL     OW 4858   0.252   3.426   5.468
 1505SOL    HW1 4859   0.222   3.483   5.544
 1505SOL    HW2 4860   0.245   3.329   5.494
 1506SOL     OW 4861   0.671   2.326   4.993
 1506SOL    HW1 4862   0.637   2.237   4.963
 1506SOL    HW2 4863   0.697   2.380   4.913
 1507SOL     OW 4864   0.930   3.540   5.189
 1507SOL    HW1 4865   0.906   3.522   5.094
 1507SOL    HW2 4866   0.960   3.634   5.199
 1508SOL     OW 4867   0.473   2.362   3.915
 1508SOL    HW1 4868   0.534   2.442   3.919
 1508SOL    HW2 4869   0.378   2.393   3.922
 1509SOL     OW 4870   0.159   2.999   5.190
 1509SOL    HW1 4871   0.181   2.938   5.266
 1509SOL    HW2 4872   0.169   2.950   5.104
 1510SOL     OW 4873   1.347   2.921   4.958
 1510SOL    HW1 4874   1.371   2.858   4.884
 1510SOL    HW2 4875   1.257   2.961   4.940
 1511SOL     OW 4876   1.302   2.717   4.033
 1511SOL    HW1 4877   1.216   2.686   4.075
 1511SOL    HW2 4878   1.298   2.703   3.934
 1512SOL     OW 4879   1.759   3.609   4.878
 1512SOL    HW1 4880   1.820   3.639   4.805
 1512SOL    HW2 4881   1.721   3.520   4.856
 1513SOL     OW 4882   1.252   3.593   4.852
 1513SOL    HW1 4883   1.336   3.598   4.798
 1513SOL    HW2 4884   1.229   3.497   4.870
 1514SOL     OW 4885   0.083   3.120   4.746
 1514SOL    HW1 4886   0.078   3.119   4.846
 1514SOL    HW2 4887   0.000   3.079   4.708
 1515SOL     OW 4888   0.688   3.524   5.440
 1515SOL    HW1 4889   0.632   3.605   5.449
 1515SOL    HW2 4890   0.740   3.528   5.354
 1516SOL     OW 4891   1.726   1.997   4.247
 1516SOL    HW1 4892   1.799   1.980   4.180
 1516SOL    HW2 4893   1.695   1.910   4.285
 1517SOL     OW 4894   1.388   3.435   4.201
 1517SOL    HW1 4895   1.455   3.447   4.127
 1517SOL    HW2 4896   1.348   3.524   4.224
 1518SOL     OW 4897   0.130   3.656   5.575
 1518SOL    HW1 4898   0.089   3.582   5.628
 1518SOL    HW2 4899   0.194   3.707   5.633
 1519SOL     OW 4900   1.280   2.789   4.396
 1519SOL    HW1 4901   1.340   2.708   4.398
 1519SOL    HW2 4902   1.320   2.858   4.336
 1520SOL     OW 4903   0.830   3.135   5.146
 1520SOL    HW1 4904   0.825   3.168   5.241
 1520SOL    HW2 4905   0.744   3.154   5.100
 1521SOL     OW 4906   0.672   3.478   3.878
 1521SOL    HW1 4907   0.681   3.488   3.779
 1521SOL    HW2 4908   0.632   3.389   3.899
 1522SOL     OW 4909   1.650   3.582   5.118
 1522SOL    HW1 4910   1.703   3.592   5.034
 1522SOL    HW2 4911   1.623   3.672   5.152
 1523SOL     OW 4912   1.841   2.037   4.687
 1523SOL    HW1 4913   1.880   1.952   4.651
 1523SOL    HW2 4914   1.743   2.039   4.668
 1524SOL     OW 4915   0.263   2.188   4.444
 1524SOL    HW1 4916   0.184   2.239   4.410
 1524SOL    HW2 4917   0.254   2.173   4.542
 1525SOL     OW 4918   1.194   3.474   3.755
 1525SOL    HW1 4919   1.200   3.381   3.792
 1525SOL    HW2 4920   1.135   3.474   3.675
 1526SOL     OW 4921   0.822   2.864   5.096
 1526SOL    HW1 4922   0.862   2.863   5.004
 1526SOL    HW2 4923   0.832   2.956   5.136
 1527SOL     OW 4924   0.916   2.772   4.015
 1527SOL    HW1 4925   0.979   2.810   3.947
 1527SOL    HW2 4926   0.956   2.689   4.054
 1528SOL     OW 4927   1.504   3.469   3.768
 1528SOL    HW1 4928   1.412   3.506   3.775
 1528SOL    HW2 4929   1.542   3.489   3.678
 1529SOL     OW 4930   0.372   3.150   5.214
 1529SOL    HW1 4931   0.359   3.243   5.180
 1529SOL    HW2 4932   0.288   3.098   5.201
 1530SOL     OW 4933   1.614   3.154   5.013
 1530SOL    HW1 4934   1.674   3.157   5.093
 1530SOL    HW2 4935   1.539   3.218   5.026
 1531SOL     OW 4936   1.039   2.960   4.420
 1531SOL    HW1 4937   0.969   2.913   4.474
 1531SOL    HW2 4938   1.098   2.892   4.377
 1532SOL     OW 4939   1.014   2.098   4.695
 1532SOL    HW1 4940   1.006   2.062   4.602
 1532SOL    HW2 4941   1.012   2.022   4.760
 1533SOL     OW 4942   0.590   3.349   4.215
 1533SOL    HW1 4943   0.632   3.291   4.145
 1533SOL    HW2 4944   0.546   3.428   4.171
 1534SOL     OW 4945   1.709   2.247   5.105
 1534SOL    HW1 4946   1.782   2.316   5.109
 1534SOL    HW2 4947   1.737   2.172   5.046
 1535SOL     OW 4948   0.255   3.210   4.014
 1535SOL    HW1 4949   0.159   3.211   3.987
 1535SOL    HW2 4950   0.267   3.263   4.098
 1536SOL     OW 4951   0.105   2.875   5.450
 1536SOL    HW1 4952   0.028   2.842   5.504
 1536SOL    HW2 4953   0.190   2.845   5.492
 1537SOL     OW 4954   0.672   2.065   5.213
 1537SOL    HW1 4955   0.762   2.049   5.173
 1537SOL    HW2 4956   0.680   2.070   5.312
 1538SOL     OW 4957   0.075   2.207   3.757
 1538SOL    HW1 4958  -0.017   2.179   3.728
 1538SOL    HW2 4959   0.106   2.284   3.701
 1539SOL     OW 4960   1.440   2.718   5.122
 1539SOL    HW1 4961   1.383   2.770   5.059
 1539SOL    HW2 4962   1.536   2.730   5.098
 1540SOL     OW 4963   0.072   2.028   4.042
 1540SOL    HW1 4964   0.055   2.111   3.988
 1540SOL    HW2 4965   0.162   1.991   4.020
 1541SOL     OW 4966   1.183   3.197   3.843
 1541SOL    HW1 4967   1.084   3.186   3.845
 1541SOL    HW2 4968   1.217   3.212   3.936
 1542SOL     OW 4969   0.613   2.704   5.155
 1542SOL    HW1 4970   0.669   2.785   5.138
 1542SOL    HW2 4971   0.672   2.624   5.158
 1543SOL     OW 4972   1.493   3.629   4.683
 1543SOL    HW1 4973   1.526   3.693   4.614
 1543SOL    HW2 4974   1.559   3.623   4.758
 1544SOL     OW 4975   0.716   2.427   5.432
 1544SOL    HW1 4976   0.735   2.492   5.506
 1544SOL    HW2 4977   0.776   2.347   5.441
 1545SOL     OW 4978   1.450   3.082   5.357
 1545SOL    HW1 4979   1.441   3.072   5.456
 1545SOL    HW2 4980   1.546   3.075   5.331
 1546SOL     OW 4981   0.390   3.603   5.284
 1546SOL    HW1 4982   0.299   3.644   5.282
 1546SOL    HW2 4983   0.383   3.509   5.316
 1547SOL     OW 4984   1.674   2.745   4.978
 1547SOL    HW1 4985   1.647   2.656   4.941
 1547SOL    HW2 4986   1.675   2.813   4.905
 1548SOL     OW 4987   1.225   2.187   4.173
 1548SOL    HW1 4988   1.290   2.113   4.162
 1548SOL    HW2 4989   1.245   2.237   4.257
 1549SOL     OW 4990   0.594   2.607   4.376
 1549SOL    HW1 4991   0.644   2.692   4.357
 1549SOL    HW2 4992   0.506   2.609   4.328
 1550SOL     OW 4993   1.777   2.204   5.366
 1550SOL    HW1 4994   1.760   2.235   5.272
 1550SOL    HW2 4995   1.693   2.167   5.404
 1551SOL     OW 4996   1.730   2.796   5.241
 1551SOL    HW1 4997   1.768   2.887   5.256
 1551SOL    HW2 4998   1.722   2.779   5.142
 1552SOL     OW 4999   0.859   3.236   3.740
 1552SOL    HW1 5000   0.813   3.251   3.828
 1552SOL    HW2 5001   0.903   3.321   3.710
 1553SOL     OW 5002   0.661   3.652   4.677
 1553SOL    HW1 5003   0.615   3.740   4.664
 1553SOL    HW2 5004   0.760   3.664   4.670
 1554SOL     OW 5005   0.859   2.818   4.585
 1554SOL    HW1 5006   0.913   2.749   4.633
 1554SOL    HW2 5007   0.827   2.887   4.651
 1555SOL     OW 5008   1.083   2.846   3.811
 1555SOL    HW1 5009   1.060   2.899   3.729
 1555SOL    HW2 5010   1.164   2.790   3.792
 1556SOL     OW 5011   1.861   3.431   4.575
 1556SOL    HW1 5012   1.790   3.419   4.505
 1556SOL    HW2 5013   1.862   3.352   4.635
 1557SOL     OW 5014   0.221   3.176   5.568
 1557SOL    HW1 5015   0.156   3.103   5.547
 1557SOL    HW2 5016   0.225   3.190   5.666
 1558SOL     OW 5017   0.079   3.102   4.377
 1558SOL    HW1 5018   0.078   3.055   4.465
 1558SOL    HW2 5019   0.161   3.074   4.326
 1559SOL     OW 5020   0.672   3.253   5.348
 1559SOL    HW1 5021   0.594   3.203   5.386
 1559SOL    HW2 5022   0.669   3.348   5.379
 1560SOL     OW 5023   1.824   2.054   4.951
 1560SOL    HW1 5024   1.820   1.964   4.995
 1560SOL    HW2 5025   1.827   2.043   4.852
 1561SOL     OW 5026   0.428   2.286   4.244
 1561SOL    HW1 5027   0.458   2.214   4.182
 1561SOL    HW2 5028   0.389   2.246   4.327
 1562SOL     OW 5029   1.705   3.349   4.828
 1562SOL    HW1 5030   1.612   3.324   4.801
 1562SOL    HW2 5031   1.731   3.299   4.910
 1563SOL     OW 5032   0.317   2.409   5.004
 1563SOL    HW1 5033   0.355   2.350   5.076
 1563SOL    HW2 5034   0.357   2.383   4.916
 1564SOL     OW 5035   0.812   3.448   4.411
 1564SOL    HW1 5036   0.844   3.458   4.317
 1564SOL    HW2 5037   0.733   3.386   4.413
 1565SOL     OW 5038   1.424   2.076   4.836
 1565SOL    HW1 5039   1.476   2.011   4.891
 1565SOL    HW2 5040   1.375   2.139   4.897
 1566SOL     OW 5041   1.001   1.896   4.878
 1566SOL    HW1 5042   0.938   1.824   4.847
 1566SOL    HW2 5043   1.094   1.860   4.878
 1567SOL     OW 5044   0.770   3.192   4.025
 1567SOL    HW1 5045   0.724   3.105   4.042
 1567SOL    HW2 5046   0.861   3.189   4.066
 1568SOL     OW 5047   0.618   3.429   5.008
 1568SOL    HW1 5048   0.613   3.511   5.065
 1568SOL    HW2 5049   0.707   3.426   4.963
 1569SOL     OW 5050   1.352   1.914   3.892
 1569SOL    HW1 5051   1.387   1.873   3.808
 1569SOL    HW2 5052   1.262   1.876   3.912
 1570SOL     OW 5053   1.300   2.315   4.415
 1570SOL    HW1 5054   1.241   2.395   4.419
 1570SOL    HW2 5055   1.315   2.280   4.508
 1571SOL     OW 5056   1.593   2.083   4.606
 1571SOL    HW1 5057   1.509   2.082   4.660
 1571SOL    HW2 5058   1.595   2.166   4.550
 1572SOL     OW 5059   0.039   2.939   4.024
 1572SOL    HW1 5060   0.138   2.928   4.015
 1572SOL    HW2 5061  -0.001   2.853   4.056
 1573SOL     OW 5062   0.875   3.508   4.061
 1573SOL    HW1 5063   0.798   3.473   4.007
 1573SOL    HW2 5064   0.843   3.579   4.123
 1574SOL     OW 5065   0.230   2.490   5.699
 1574SOL    HW1 5066   0.137   2.488   5.736
 1574SOL    HW2 5067   0.231   2.451   5.607
 1575SOL     OW 5068   0.225   2.137   6.582
 1575SOL    HW1 5069   0.260   2.120   6.674
 1575SOL    HW2 5070   0.137   2.092   6.570
 1576SOL     OW 5071   0.019   2.230   6.233
 1576SOL    HW1 5072  -0.063   2.273   6.272
 1576SOL    HW2 5073  -0.009   2.157   6.170
 1577SOL     OW 5074   0.569   3.137   6.751
 1577SOL    HW1 5075   0.476   3.130   6.714
 1577SOL    HW2 5076   0.580   3.226   6.795
 1578SOL     OW 5077   1.555   3.373   6.289
 1578SOL    HW1 5078   1.498   3.357   6.370
 1578SOL    HW2 5079   1.496   3.383   6.209
 1579SOL     OW 5080   1.135   2.565   6.303
 1579SOL    HW1 5081   1.192   2.643   6.278
 1579SOL    HW2 5082   1.075   2.591   6.379
 1580SOL     OW 5083   1.755   2.469   5.817
 1580SOL    HW1 5084   1.743   2.456   5.718
 1580SOL    HW2 5085   1.725   2.388   5.866
 1581SOL     OW 5086   0.768   3.006   6.609
 1581SOL    HW1 5087   0.690   3.023   6.669
 1581SOL    HW2 5088   0.802   3.093   6.573
 1582SOL     OW 5089   0.850   2.660   7.409
 1582SOL    HW1 5090   0.846   2.736   7.474
 1582SOL    HW2 5091   0.872   2.696   7.318
 1583SOL     OW 5092   0.685   2.874   6.251
 1583SOL    HW1 5093   0.754   2.858   6.321
 1583SOL    HW2 5094   0.612   2.931   6.289
 1584SOL     OW 5095   0.686   3.023   7.389
 1584SOL    HW1 5096   0.746   3.102   7.403
 1584SOL    HW2 5097   0.600   3.054   7.348
 1585SOL     OW 5098   0.335   3.297   6.647
 1585SOL    HW1 5099   0.257   3.266   6.594
 1585SOL    HW2 5100   0.393   3.355   6.590
 1586SOL     OW 5101   1.460   3.367   6.925
 1586SOL    HW1 5102   1.484   3.461   6.951
 1586SOL    HW2 5103   1.444   3.313   7.007
 1587SOL     OW 5104   0.438   2.254   7.085
 1587SOL    HW1 5105   0.520   2.198   7.094
 1587SOL    HW2 5106   0.357   2.196   7.089
 1588SOL     OW 5107   1.603   2.309   6.323
 1588SOL    HW1 5108   1.529   2.355   6.273
 1588SOL    HW2 5109   1.654   2.377   6.376
 1589SOL     OW 5110   0.231   3.575   6.069
 1589SOL    HW1 5111   0.265   3.652   6.123
 1589SOL    HW2 5112   0.275   3.575   5.979
 1590SOL     OW 5113   1.127   3.203   7.276
 1590SOL    HW1 5114   1.174   3.203   7.364
 1590SOL    HW2 5115   1.079   3.116   7.265
 1591SOL     OW 5116   0.230   3.296   6.124
 1591SOL    HW1 5117   0.204   3.392   6.124
 1591SOL    HW2 5118   0.159   3.242   6.169
 1592SOL     OW 5119   0.240   2.953   6.472
 1592SOL    HW1 5120   0.254   2.869   6.524
 1592SOL    HW2 5121   0.185   3.017   6.527
 1593SOL     OW 5122   0.620   3.648   7.025
 1593SOL    HW1 5123   0.528   3.631   7.060
 1593SOL    HW2 5124   0.648   3.740   7.051
 1594SOL     OW 5125   0.606   2.826   5.709
 1594SOL    HW1 5126   0.613   2.910   5.655
 1594SOL    HW2 5127   0.652   2.839   5.797
 1595SOL     OW 5128   1.594   1.976   7.066
 1595SOL    HW1 5129   1.576   2.043   6.994
 1595SOL    HW2 5130   1.591   2.022   7.155
 1596SOL     OW 5131   0.122   2.505   6.149
 1596SOL    HW1 5132   0.077   2.417   6.166
 1596SOL    HW2 5133   0.121   2.559   6.233
 1597SOL     OW 5134   1.842   3.629   5.945
 1597SOL    HW1 5135   1.896   3.600   6.025
 1597SOL    HW2 5136   1.872   3.719   5.916
 1598SOL     OW 5137   0.027   3.458   5.703
 1598SOL    HW1 5138   0.008   3.362   5.724
 1598SOL    HW2 5139  -0.006   3.516   5.778
 1599SOL     OW 5140   1.689   2.784   6.198
 1599SOL    HW1 5141   1.784   2.755   6.206
 1599SOL    HW2 5142   1.681   2.849   6.123
 1600SOL     OW 5143   1.641   2.970   6.018
 1600SOL    HW1 5144   1.727   2.972   5.966
 1600SOL    HW2 5145   1.655   3.017   6.106
 1601SOL     OW 5146   0.113   2.599   7.183
 1601SOL    HW1 5147   0.201   2.586   7.228
 1601SOL    HW2 5148   0.100   2.696   7.161
 1602SOL     OW 5149   0.613   3.227   6.312
 1602SOL    HW1 5150   0.564   3.140   6.321
 1602SOL    HW2 5151   0.590   3.270   6.225
 1603SOL     OW 5152   1.293   3.090   7.009
 1603SOL    HW1 5153   1.330   3.017   6.951
 1603SOL    HW2 5154   1.345   3.095   7.094
 1604SOL     OW 5155   0.809   1.866   6.088
 1604SOL    HW1 5156   0.849   1.957   6.079
 1604SOL    HW2 5157   0.709   1.874   6.094
 1605SOL     OW 5158   0.197   2.838   6.850
 1605SOL    HW1 5159   0.286   2.793   6.836
 1605SOL    HW2 5160   0.124   2.773   6.831
 1606SOL     OW 5161   1.525   2.861   5.776
 1606SOL    HW1 5162   1.462   2.785   5.789
 1606SOL    HW2 5163   1.573   2.879   5.862
 1607SOL     OW 5164   1.187   3.654   7.202
 1607SOL    HW1 5165   1.211   3.714   7.126
 1607SOL    HW2 5166   1.194   3.559   7.172
 1608SOL     OW 5167   0.317   2.113   7.387
 1608SOL    HW1 5168   0.388   2.184   7.393
 1608SOL    HW2 5169   0.229   2.152   7.415
 1609SOL     OW 5170   1.466   3.279   6.539
 1609SOL    HW1 5171   1.407   3.285   6.619
 1609SOL    HW2 5172   1.451   3.191   6.493
 1610SOL     OW 5173   1.667   3.576   6.158
 1610SOL    HW1 5174   1.626   3.553   6.070
 1610SOL    HW2 5175   1.649   3.502   6.223
 1611SOL     OW 5176   0.598   2.591   5.856
 1611SOL    HW1 5177   0.622   2.660   5.788
 1611SOL    HW2 5178   0.520   2.624   5.910
 1612SOL     OW 5179   1.281   2.207   6.530
 1612SOL    HW1 5180   1.195   2.157   6.517
 1612SOL    HW2 5181   1.343   2.153   6.586
 1613SOL     OW 5182   1.576   3.524   5.893
 1613SOL    HW1 5183   1.665   3.570   5.896
 1613SOL    HW2 5184   1.555   3.500   5.798
 1614SOL     OW 5185   0.807   2.467   7.051
 1614SOL    HW1 5186   0.760   2.464   7.140
 1614SOL    HW2 5187   0.756   2.412   6.985
 1615SOL     OW 5188   1.394   2.331   7.260
 1615SOL    HW1 5189   1.374   2.374   7.348
 1615SOL    HW2 5190   1.472   2.269   7.269
 1616SOL     OW 5191   0.973   2.752   7.158
 1616SOL    HW1 5192   1.019   2.668   7.129
 1616SOL    HW2 5193   0.917   2.786   7.083
 1617SOL     OW 5194   0.991   2.272   6.828
 1617SOL    HW1 5195   0.914   2.306   6.882
 1617SOL    HW2 5196   0.957   2.221   6.749
 1618SOL     OW 5197   1.041   2.563   6.015
 1618SOL    HW1 5198   1.067   2.559   6.111
 1618SOL    HW2 5199   0.956   2.512   6.001
 1619SOL     OW 5200   0.076   2.673   6.375
 1619SOL    HW1 5201   0.175   2.661   6.384
 1619SOL    HW2 5202   0.052   2.768   6.396
 1620SOL     OW 5203   0.130   3.683   7.157
 1620SOL    HW1 5204   0.120   3.668   7.256
 1620SOL    HW2 5205   0.044   3.719   7.121
 1621SOL     OW 5206   0.865   2.210   5.781
 1621SOL    HW1 5207   0.924   2.273   5.732
 1621SOL    HW2 5208   0.884   2.116   5.752
 1622SOL     OW 5209   1.719   2.447   7.417
 1622SOL    HW1 5210   1.693   2.536   7.381
 1622SOL    HW2 5211   1.717   2.379   7.344
 1623SOL     OW 5212   1.362   3.006   6.131
 1623SOL    HW1 5213   1.445   2.977   6.083
 1623SOL    HW2 5214   1.313   3.073   6.075
 1624SOL     OW 5215   0.550   2.058   6.471
 1624SOL    HW1 5216   0.545   2.053   6.571
 1624SOL    HW2 5217   0.552   2.154   6.442
 1625SOL     OW 5218   1.008   3.318   6.063
 1625SOL    HW1 5219   0.962   3.390   6.011
 1625SOL    HW2 5220   1.004   3.338   6.161
 1626SOL     OW 5221   0.351   3.663   6.439
 1626SOL    HW1 5222   0.401   3.577   6.445
 1626SOL    HW2 5223   0.416   3.740   6.436
 1627SOL     OW 5224   1.795   2.928   6.459
 1627SOL    HW1 5225   1.733   2.913   6.383
 1627SOL    HW2 5226   1.743   2.939   6.544
 1628SOL     OW 5227   1.227   3.412   7.092
 1628SOL    HW1 5228   1.233   3.335   7.156
 1628SOL    HW2 5229   1.175   3.386   7.012
 1629SOL     OW 5230   0.321   2.805   5.828
 1629SOL    HW1 5231   0.403   2.844   5.786
 1629SOL    HW2 5232   0.294   2.723   5.779
 1630SOL     OW 5233   1.458   2.597   6.314
 1630SOL    HW1 5234   1.453   2.532   6.389
 1630SOL    HW2 5235   1.538   2.656   6.327
 1631SOL     OW 5236   0.461   3.128   7.313
 1631SOL    HW1 5237   0.411   3.129   7.227
 1631SOL    HW2 5238   0.398   3.110   7.389
 1632SOL     OW 5239   1.111   3.638   5.823
 1632SOL    HW1 5240   1.051   3.576   5.873
 1632SOL    HW2 5241   1.142   3.594   5.738
 1633SOL     OW 5242   0.202   2.147   7.084
 1633SOL    HW1 5243   0.122   2.207   7.071
 1633SOL    HW2 5244   0.192   2.098   7.170
 1634SOL     OW 5245   1.632   3.239   5.667
 1634SOL    HW1 5246   1.600   3.333   5.657
 1634SOL    HW2 5247   1.556   3.176   5.655
 1635SOL     OW 5248   0.464   3.605   5.909
 1635SOL    HW1 5249   0.497   3.644   5.995
 1635SOL    HW2 5250   0.540   3.598   5.844
 1636SOL     OW 5251   1.400   1.969   6.012
 1636SOL    HW1 5252   1.376   1.932   5.922
 1636SOL    HW2 5253   1.499   1.985   6.016
 1637SOL     OW 5254   0.249   3.647   6.827
 1637SOL    HW1 5255   0.306   3.582   6.877
 1637SOL    HW2 5256   0.233   3.614   6.734
 1638SOL     OW 5257   0.940   3.560   6.490
 1638SOL    HW1 5258   1.020   3.503   6.511
 1638SOL    HW2 5259   0.891   3.520   6.413
 1639SOL     OW 5260   0.382   2.562   6.066
 1639SOL    HW1 5261   0.427   2.472   6.063
 1639SOL    HW2 5262   0.288   2.551   6.099
 1640SOL     OW 5263   1.547   2.084   7.315
 1640SOL    HW1 5264   1.542   2.121   7.407
 1640SOL    HW2 5265   1.475   2.015   7.303
 1641SOL     OW 5266   0.614   1.984   5.703
 1641SOL    HW1 5267   0.712   1.962   5.710
 1641SOL    HW2 5268   0.583   1.967   5.610
 1642SOL     OW 5269   0.781   2.126   7.335
 1642SOL    HW1 5270   0.848   2.065   7.378
 1642SOL    HW2 5271   0.708   2.145   7.400
 1643SOL     OW 5272   0.888   3.376   6.781
 1643SOL    HW1 5273   0.865   3.351   6.687
 1643SOL    HW2 5274   0.949   3.307   6.820
 1644SOL     OW 5275   1.351   2.452   7.019
 1644SOL    HW1 5276   1.379   2.409   7.104
 1644SOL    HW2 5277   1.376   2.548   7.020
 1645SOL     OW 5278   0.803   3.264   6.510
 1645SOL    HW1 5279   0.893   3.278   6.468
 1645SOL    HW2 5280   0.732   3.266   6.439
 1646SOL     OW 5281   0.922   2.365   6.485
 1646SOL    HW1 5282   0.897   2.356   6.389
 1646SOL    HW2 5283   0.970   2.283   6.516
 1647SOL     OW 5284   0.539   1.926   6.098
 1647SOL    HW1 5285   0.458   1.927   6.156
 1647SOL    HW2 5286   0.542   2.009   6.043
 1648SOL     OW 5287   1.434   3.050   5.627
 1648SOL    HW1 5288   1.466   2.974   5.684
 1648SOL    HW2 5289   1.342   3.077   5.657
 1649SOL     OW 5290   0.297   1.897   5.757
 1649SOL    HW1 5291   0.346   1.981   5.736
 1649SOL    HW2 5292   0.359   1.832   5.802
 1650SOL     OW 5293   0.935   2.098   6.066
 1650SOL    HW1 5294   0.887   2.139   5.988
 1650SOL    HW2 5295   1.034   2.096   6.047
 1651SOL     OW 5296   1.076   2.545   7.050
 1651SOL    HW1 5297   0.996   2.484   7.053
 1651SOL    HW2 5298   1.157   2.492   7.026
 1652SOL     OW 5299   1.227   3.432   6.379
 1652SOL    HW1 5300   1.248   3.506   6.314
 1652SOL    HW2 5301   1.295   3.432   6.452
 1653SOL     OW 5302   0.459   3.014   6.327
 1653SOL    HW1 5303   0.388   2.987   6.392
 1653SOL    HW2 5304   0.433   2.986   6.234
 1654SOL     OW 5305   1.271   3.659   6.177
 1654SOL    HW1 5306   1.315   3.723   6.113
 1654SOL    HW2 5307   1.221   3.711   6.247
 1655SOL     OW 5308   1.032   2.411   5.602
 1655SOL    HW1 5309   0.991   2.493   5.563
 1655SOL    HW2 5310   1.096   2.437   5.675
 1656SOL     OW 5311   0.078   2.418   6.972
 1656SOL    HW1 5312   0.170   2.417   6.931
 1656SOL    HW2 5313   0.072   2.492   7.039
 1657SOL     OW 5314   0.561   2.084   6.733
 1657SOL    HW1 5315   0.599   2.000   6.770
 1657SOL    HW2 5316   0.473   2.103   6.777
 1658SOL     OW 5317   0.866   2.316   6.228
 1658SOL    HW1 5318   0.834   2.388   6.166
 1658SOL    HW2 5319   0.890   2.235   6.175
 1659SOL     OW 5320   1.017   1.901   6.339
 1659SOL    HW1 5321   0.945   1.906   6.270
 1659SOL    HW2 5322   0.993   1.832   6.408
 1660SOL     OW 5323   1.429   3.035   6.453
 1660SOL    HW1 5324   1.374   2.951   6.446
 1660SOL    HW2 5325   1.455   3.064   6.361
 1661SOL     OW 5326   1.466   2.452   6.578
 1661SOL    HW1 5327   1.436   2.357   6.585
 1661SOL    HW2 5328   1.539   2.468   6.644
 1662SOL     OW 5329   1.857   2.695   5.963
 1662SOL    HW1 5330   1.899   2.631   6.027
 1662SOL    HW2 5331   1.819   2.644   5.885
 1663SOL     OW 5332   0.488   3.247   5.760
 1663SOL    HW1 5333   0.401   3.232   5.807
 1663SOL    HW2 5334   0.471   3.273   5.665
 1664SOL     OW 5335   1.664   3.142   6.243
 1664SOL    HW1 5336   1.763   3.150   6.257
 1664SOL    HW2 5337   1.619   3.226   6.274
 1665SOL     OW 5338   1.390   2.437   5.664
 1665SOL    HW1 5339   1.336   2.416   5.745
 1665SOL    HW2 5340   1.481   2.396   5.673
 1666SOL     OW 5341   0.527   2.118   5.914
 1666SOL    HW1 5342   0.554   2.059   5.839
 1666SOL    HW2 5343   0.527   2.213   5.883
 1667SOL     OW 5344   1.754   3.085   7.174
 1667SOL    HW1 5345   1.845   3.046   7.161
 1667SOL    HW2 5346   1.762   3.181   7.198
 1668SOL     OW 5347   1.064   3.209   6.926
 1668SOL    HW1 5348   0.984   3.186   6.981
 1668SOL    HW2 5349   1.147   3.183   6.975
 1669SOL     OW 5350   1.592   3.491   7.211
 1669SOL    HW1 5351   1.619   3.525   7.121
 1669SOL    HW2 5352   1.671   3.453   7.257
 1670SOL     OW 5353   1.111   3.057   6.686
 1670SOL    HW1 5354   1.071   3.101   6.767
 1670SOL    HW2 5355   1.070   3.094   6.603
 1671SOL     OW 5356   1.638   2.961   6.665
 1671SOL    HW1 5357   1.643   3.042   6.724
 1671SOL    HW2 5358   1.552   2.963   6.614
 1672SOL     OW 5359   0.915   1.951   6.988
 1672SOL    HW1 5360   0.940   1.931   6.893
 1672SOL    HW2 5361   0.987   2.007   7.030
 1673SOL     OW 5362   0.980   2.978   7.305
 1673SOL    HW1 5363   0.881   2.984   7.315
 1673SOL    HW2 5364   1.003   2.898   7.249
 1674SOL     OW 5365   0.705   2.912   5.954
 1674SOL    HW1 5366   0.691   2.919   6.053
 1674SOL    HW2 5367   0.789   2.861   5.936
 1675SOL     OW 5368   0.410   2.675   6.837
 1675SOL    HW1 5369   0.496   2.687   6.887
 1675SOL    HW2 5370   0.368   2.588   6.864
 1676SOL     OW 5371   1.274   2.248   6.848
 1676SOL    HW1 5372   1.295   2.322   6.912
 1676SOL    HW2 5373   1.185   2.265   6.805
 1677SOL     OW 5374   0.064   3.426   6.917
 1677SOL    HW1 5375   0.018   3.508   6.883
 1677SOL    HW2 5376   0.162   3.445   6.926
 1678SOL     OW 5377   0.367   2.962   6.087
 1678SOL    HW1 5378   0.360   3.045   6.031
 1678SOL    HW2 5379   0.371   2.882   6.027
 1679SOL     OW 5380   0.566   2.399   6.451
 1679SOL    HW1 5381   0.578   2.465   6.377
 1679SOL    HW2 5382   0.612   2.433   6.534
 1680SOL     OW 5383   1.252   3.210   5.974
 1680SOL    HW1 5384   1.302   3.287   6.014
 1680SOL    HW2 5385   1.157   3.212   6.006
 1681SOL     OW 5386   1.272   3.307   6.728
 1681SOL    HW1 5387   1.319   3.320   6.815
 1681SOL    HW2 5388   1.206   3.233   6.737
 1682SOL     OW 5389   1.582   2.501   6.058
 1682SOL    HW1 5390   1.551   2.562   6.131
 1682SOL    HW2 5391   1.632   2.553   5.989
 1683SOL     OW 5392   0.354   3.372   6.915
 1683SOL    HW1 5393   0.333   3.328   6.828
 1683SOL    HW2 5394   0.451   3.398   6.918
 1684SOL     OW 5395   0.402   2.613   7.184
 1684SOL    HW1 5396   0.470   2.668   7.137
 1684SOL    HW2 5397   0.442   2.525   7.211
 1685SOL     OW 5398   1.587   2.641   7.256
 1685SOL    HW1 5399   1.495   2.679   7.251
 1685SOL    HW2 5400   1.647   2.688   7.191
 1686SOL     OW 5401   1.013   1.967   7.356
 1686SOL    HW1 5402   1.019   2.052   7.304
 1686SOL    HW2 5403   1.045   1.891   7.299
 1687SOL     OW 5404   0.504   1.912   7.326
 1687SOL    HW1 5405   0.462   1.855   7.256
 1687SOL    HW2 5406   0.438   1.981   7.358
 1688SOL     OW 5407   0.573   2.732   6.615
 1688SOL    HW1 5408   0.617   2.821   6.606
 1688SOL    HW2 5409   0.510   2.732   6.692
 1689SOL     OW 5410   1.360   2.724   6.631
 1689SOL    HW1 5411   1.285   2.724   6.565
 1689SOL    HW2 5412   1.397   2.632   6.640
 1690SOL     OW 5413   1.209   2.387   5.861
 1690SOL    HW1 5414   1.222   2.303   5.915
 1690SOL    HW2 5415   1.180   2.461   5.921
 1691SOL     OW 5416   0.307   2.075   6.817
 1691SOL    HW1 5417   0.284   2.112   6.907
 1691SOL    HW2 5418   0.277   1.980   6.811
 1692SOL     OW 5419   0.037   3.172   6.868
 1692SOL    HW1 5420   0.090   3.123   6.936
 1692SOL    HW2 5421   0.059   3.270   6.873
 1693SOL     OW 5422   0.732   2.496   6.650
 1693SOL    HW1 5423   0.791   2.470   6.574
 1693SOL    HW2 5424   0.704   2.592   6.639
 1694SOL     OW 5425   1.728   2.797   7.440
 1694SOL    HW1 5426   1.682   2.790   7.351
 1694SOL    HW2 5427   1.666   2.841   7.506
 1695SOL     OW 5428   0.307   1.925   6.204
 1695SOL    HW1 5429   0.296   2.019   6.237
 1695SOL    HW2 5430   0.302   1.862   6.281
 1696SOL     OW 5431   1.622   2.229   5.960
 1696SOL    HW1 5432   1.624   2.153   6.024
 1696SOL    HW2 5433   1.574   2.306   6.000
 1697SOL     OW 5434   1.023   2.628   6.552
 1697SOL    HW1 5435   1.038   2.649   6.648
 1697SOL    HW2 5436   0.993   2.533   6.543
 1698SOL     OW 5437   0.980   3.435   7.286
 1698SOL    HW1 5438   0.960   3.479   7.198
 1698SOL    HW2 5439   1.019   3.344   7.270
 1699SOL     OW 5440   1.859   3.380   7.191
 1699SOL    HW1 5441   1.873   3.407   7.096
 1699SOL    HW2 5442   1.942   3.402   7.244
 1700SOL     OW 5443   0.350   2.760   7.390
 1700SOL    HW1 5444   0.426   2.804   7.438
 1700SOL    HW2 5445   0.385   2.713   7.308
 1701SOL     OW 5446   1.540   2.136   5.711
 1701SOL    HW1 5447   1.479   2.061   5.734
 1701SOL    HW2 5448   1.562   2.188   5.794
 1702SOL     OW 5449   1.303   2.700   5.628
 1702SOL    HW1 5450   1.337   2.607   5.643
 1702SOL    HW2 5451   1.321   2.727   5.533
 1703SOL     OW 5452   1.068   3.195   6.435
 1703SOL    HW1 5453   1.075   3.111   6.380
 1703SOL    HW2 5454   1.130   3.264   6.399
 1704SOL     OW 5455   0.319   2.672   6.535
 1704SOL    HW1 5456   0.412   2.708   6.540
 1704SOL    HW2 5457   0.313   2.587   6.587
 1705SOL     OW 5458   0.339   2.371   6.592
 1705SOL    HW1 5459   0.287   2.288   6.575
 1705SOL    HW2 5460   0.416   2.376   6.528
 1706SOL     OW 5461   1.138   2.242   7.264
 1706SOL    HW1 5462   1.093   2.305   7.328
 1706SOL    HW2 5463   1.231   2.273   7.247
 1707SOL     OW 5464   1.160   2.069   7.063
 1707SOL    HW1 5465   1.160   2.133   7.140
 1707SOL    HW2 5466   1.188   2.117   6.980
 1708SOL     OW 5467   0.008   3.188   5.786
 1708SOL    HW1 5468  -0.085   3.209   5.755
 1708SOL    HW2 5469   0.018   3.089   5.799
 1709SOL     OW 5470   0.088   3.663   6.513
 1709SOL    HW1 5471   0.046   3.577   6.486
 1709SOL    HW2 5472   0.182   3.666   6.479
 1710SOL     OW 5473   0.504   3.430   6.496
 1710SOL    HW1 5474   0.570   3.504   6.505
 1710SOL    HW2 5475   0.548   3.351   6.454
 1711SOL     OW 5476   1.002   2.658   6.824
 1711SOL    HW1 5477   1.043   2.626   6.910
 1711SOL    HW2 5478   0.906   2.631   6.821
 1712SOL     OW 5479   0.040   2.406   6.700
 1712SOL    HW1 5480   0.125   2.373   6.659
 1712SOL    HW2 5481   0.053   2.421   6.798
 1713SOL     OW 5482   0.189   2.382   7.308
 1713SOL    HW1 5483   0.248   2.342   7.238
 1713SOL    HW2 5484   0.131   2.453   7.267
 1714SOL     OW 5485   1.369   2.812   7.246
 1714SOL    HW1 5486   1.408   2.901   7.266
 1714SOL    HW2 5487   1.379   2.792   7.149
 1715SOL     OW 5488   0.815   2.434   5.911
 1715SOL    HW1 5489   0.822   2.345   5.865
 1715SOL    HW2 5490   0.721   2.468   5.903
 1716SOL     OW 5491   1.657   2.466   6.792
 1716SOL    HW1 5492   1.619   2.397   6.854
 1716SOL    HW2 5493   1.739   2.430   6.748
 1717SOL     OW 5494   0.252   3.426   7.330
 1717SOL    HW1 5495   0.222   3.483   7.406
 1717SOL    HW2 5496   0.245   3.329   7.356
 1718SOL     OW 5497   0.671   2.326   6.855
 1718SOL    HW1 5498   0.637   2.237   6.825
 1718SOL    HW2 5499   0.697   2.380   6.775
 1719SOL     OW 5500   0.930   3.540   7.051
 1719SOL    HW1 5501   0.906   3.522   6.956
 1719SOL    HW2 5502   0.960   3.634   7.061
 1720SOL     OW 5503   0.473   2.362   5.777
 1720SOL    HW1 5504   0.534   2.442   5.781
 1720SOL    HW2 5505   0.378   2.393   5.784
 1721SOL     OW 5506   0.159   2.999   7.052
 1721SOL    HW1 5507   0.181   2.938   7.128
 1721SOL    HW2 5508   0.169   2.950   6.966
 1722SOL     OW 5509   1.347   2.921   6.820
 1722SOL    HW1 5510   1.371   2.858   6.746
 1722SOL    HW2 5511   1.257   2.961   6.802
 1723SOL     OW 5512   1.302   2.717   5.895
 1723SOL    HW1 5513   1.216   2.686   5.937
 1723SOL    HW2 5514   1.298   2.703   5.796
 1724SOL     OW 5515   1.759   3.609   6.740
 1724SOL    HW1 5516   1.820   3.639   6.667
 1724SOL    HW2 5517   1.721   3.520   6.718
 1725SOL     OW 5518   1.252   3.593   6.714
 1725SOL    HW1 5519   1.336   3.598   6.660
 1725SOL    HW2 5520   1.229   3.497   6.732
 1726SOL     OW 5521   0.083   3.120   6.608
 1726SOL    HW1 5522   0.078   3.119   6.708
 1726SOL    HW2 5523   0.000   3.079   6.570
 1727SOL     OW 5524   0.688   3.524   7.302
 1727SOL    HW1 5525   0.632   3.605   7.311
 1727SOL    HW2 5526   0.740   3.528   7.216
 1728SOL     OW 5527   1.726   1.997   6.109
 1728SOL    HW1 5528   1.799   1.980   6.042
 1728SOL    HW2 5529   1.695   1.910   6.147
 1729SOL     OW 5530   1.388   3.435   6.063
 1729SOL    HW1 5531   1.455   3.447   5.989
 1729SOL    HW2 5532   1.348   3.524   6.086
 1730SOL     OW 5533   0.130   3.656   7.437
 1730SOL    HW1 5534   0.089   3.582   7.490
 1730SOL    HW2 5535   0.194   3.707   7.495
 1731SOL     OW 5536   1.280   2.789   6.258
 1731SOL    HW1 5537   1.340   2.708   6.260
 1731SOL    HW2 5538   1.320   2.858   6.198
 1732SOL     OW 5539   0.830   3.135   7.008
 1732SOL    HW1 5540   0.825   3.168   7.103
 1732SOL    HW2 5541   0.744   3.154   6.962
 1733SOL     OW 5542   0.672   3.478   5.740
 1733SOL    HW1 5543   0.681   3.488   5.641
 1733SOL    HW2 5544   0.632   3.389   5.761
 1734SOL     OW 5545   1.650   3.582   6.980
 1734SOL    HW1 5546   1.703   3.592   6.896
 1734SOL    HW2 5547   1.623   3.672   7.014
 1735SOL     OW 5548   1.841   2.037   6.549
 1735SOL    HW1 5549   1.880   1.952   6.513
 1735SOL    HW2 5550   1.743   2.039   6.530
 1736SOL     OW 5551   0.263   2.188   6.306
 1736SOL    HW1 5552   0.184   2.239   6.272
 1736SOL    HW2 5553   0.254   2.173   6.404
 1737SOL     OW 5554   1.194   3.474   5.617
 1737SOL    HW1 5555   1.200   3.381   5.654
 1737SOL    HW2 5556   1.135   3.474   5.537
 1738SOL     OW 5557   0.822   2.864   6.958
 1738SOL    HW1 5558   0.862   2.863   6.866
 1738SOL    HW2 5559   0.832   2.956   6.998
 1739SOL     OW 5560   0.916   2.772   5.877
 1739SOL    HW1 5561   0.979   2.810   5.809
 1739SOL    HW2 5562   0.956   2.689   5.916
 1740SOL     OW 5563   1.504   3.469   5.630
 1740SOL    HW1 5564   1.412   3.506   5.637
 1740SOL    HW2 5565   1.542   3.489   5.540
 1741SOL     OW 5566   0.372   3.150   7.076
 1741SOL    HW1 5567   0.359   3.243   7.042
 1741SOL    HW2 5568   0.288   3.098   7.063
 1742SOL     OW 5569   1.614   3.154   6.875
 1742SOL    HW1 5570   1.674   3.157   6.955
 1742SOL    HW2 5571   1.539   3.218   6.888
 1743SOL     OW 5572   1.039   2.960   6.282
 1743SOL    HW1 5573   0.969   2.913   6.336
 1743SOL    HW2 5574   1.098   2.892   6.239
 1744SOL     OW 5575   1.014   2.098   6.557
 1744SOL    HW1 5576   1.006   2.062   6.464
 1744SOL    HW2 5577   1.012   2.022   6.622
 1745SOL     OW 5578   0.590   3.349   6.077
 1745SOL    HW1 5579   0.632   3.291   6.007
 1745SOL    HW2 5580   0.546   3.428   6.033
 1746SOL     OW 5581   1.709   2.247   6.967
 1746SOL    HW1 5582   1.782   2.316   6.971
 1746SOL    HW2 5583   1.737   2.172   6.908
 1747SOL     OW 5584   0.255   3.210   5.876
 1747SOL    HW1 5585   0.159   3.211   5.849
 1747SOL    HW2 5586   0.267   3.263   5.960
 1748SOL     OW 5587   0.105   2.875   7.312
 1748SOL    HW1 5588   0.028   2.842   7.366
 1748SOL    HW2 5589   0.190   2.845   7.354
 1749SOL     OW 5590   0.672   2.065   7.075
 1749SOL    HW1 5591   0.762   2.049   7.035
 1749SOL    HW2 5592   0.680   2.070   7.174
 1750SOL     OW 5593   0.075   2.207   5.619
 1750SOL    HW1 5594  -0.017   2.179   5.590
 1750SOL    HW2 5595   0.106   2.284   5.563
 1751SOL     OW 5596   1.440   2.718   6.984
 1751SOL    HW1 5597   1.383   2.770   6.921
 1751SOL    HW2 5598   1.536   2.730   6.960
 1752SOL     OW 5599   0.072   2.028   5.904
 1752SOL    HW1 5600   0.055   2.111   5.850
 1752SOL    HW2 5601   0.162   1.991   5.882
 1753SOL     OW 5602   1.183   3.197   5.705
 1753SOL    HW1 5603   1.084   3.186   5.707
 1753SOL    HW2 5604   1.217   3.212   5.798
 1754SOL     OW 5605   0.613   2.704   7.017
 1754SOL    HW1 5606   0.669   2.785   7.000
 1754SOL    HW2 5607   0.672   2.624   7.020
 1755SOL     OW 5608   1.493   3.629   6.545
 1755SOL    HW1 5609   1.526   3.693   6.476
 1755SOL    HW2 5610   1.559   3.623   6.620
 1756SOL     OW 5611   0.716   2.427   7.294
 1756SOL    HW1 5612   0.735   2.492   7.368
 1756SOL    HW2 5613   0.776   2.347   7.303
 1757SOL     OW 5614   1.450   3.082   7.219
 1757SOL    HW1 5615   1.441   3.072   7.318
 1757SOL    HW2 5616   1.546   3.075   7.193
 1758SOL     OW 5617   0.390   3.603   7.146
 1758SOL    HW1 5618   0.299   3.644   7.144
 1758SOL    HW2 5619   0.383   3.509   7.178
 1759SOL     OW 5620   1.674   2.745   6.840
 1759SOL    HW1 5621   1.647   2.656   6.803
 1759SOL    HW2 5622   1.675   2.813   6.767
 1760SOL     OW 5623   1.225   2.187   6.035
 1760SOL    HW1 5624   1.290   2.113   6.024
 1760SOL    HW2 5625   1.245   2.237   6.119
 1761SOL     OW 5626   0.594   2.607   6.238
 1761SOL    HW1 5627   0.644   2.692   6.219
 1761SOL    HW2 5628   0.506   2.609   6.190
 1762SOL     OW 5629   1.777   2.204   7.228
 1762SOL    HW1 5630   1.760   2.235   7.134
 1762SOL    HW2 5631   1.693   2.167   7.266
 1763SOL     OW 5632   1.730   2.796   7.103
 1763SOL    HW1 5633   1.768   2.887   7.118
 1763SOL    HW2 5634   1.722   2.779   7.004
 1764SOL     OW 5635   0.859   3.236   5.602
 1764SOL    HW1 5636   0.813   3.251   5.690
 1764SOL    HW2 5637   0.903   3.321   5.572
 1765SOL     OW 5638   0.661   3.652   6.539
 1765SOL    HW1 5639   0.615   3.740   6.526
 1765SOL    HW2 5640   0.760   3.664   6.532
 1766SOL     OW 5641   0.859   2.818   6.447
 1766SOL    HW1 5642   0.913   2.749   6.495
 1766SOL    HW2 5643   0.827   2.887   6.513
 1767SOL     OW 5644   1.083   2.846   5.673
 1767SOL    HW1 5645   1.060   2.899   5.591
 1767SOL    HW2 5646   1.164   2.790   5.654
 1768SOL     OW 5647   1.861   3.431   6.437
 1768SOL    HW1 5648   1.790   3.419   6.367
 1768SOL    HW2 5649   1.862   3.352   6.497
 1769SOL     OW 5650   0.221   3.176   7.430
 1769SOL    HW1 5651   0.156   3.103   7.409
 1769SOL    HW2 5652   0.225   3.190   7.528
 1770SOL     OW 5653   0.079   3.102   6.239
 1770SOL    HW1 5654   0.078   3.055   6.327
 1770SOL    HW2 5655   0.161   3.074   6.188
 1771SOL     OW 5656   0.672   3.253   7.210
 1771SOL    HW1 5657   0.594   3.203   7.248
 1771SOL    HW2 5658   0.669   3.348   7.241
 1772SOL     OW 5659   1.824   2.054   6.813
 1772SOL    HW1 5660   1.820   1.964   6.857
 1772SOL    HW2 5661   1.827   2.043   6.714
 1773SOL     OW 5662   0.428   2.286   6.106
 1773SOL    HW1 5663   0.458   2.214   6.044
 1773SOL    HW2 5664   0.389   2.246   6.189
 1774SOL     OW 5665   1.705   3.349   6.690
 1774SOL    HW1 5666   1.612   3.324   6.663
 1774SOL    HW2 5667   1.731   3.299   6.772
 1775SOL     OW 5668   0.317   2.409   6.866
 1775SOL    HW1 5669   0.355   2.350   6.938
 1775SOL    HW2 5670   0.357   2.383   6.778
 1776SOL     OW 5671   0.812   3.448   6.273
 1776SOL    HW1 5672   0.844   3.458   6.179
 1776SOL    HW2 5673   0.733   3.386   6.275
 1777SOL     OW 5674   1.424   2.076   6.698
 1777SOL    HW1 5675   1.476   2.011   6.753
 1777SOL    HW2 5676   1.375   2.139   6.759
 1778SOL     OW 5677   1.001   1.896   6.740
 1778SOL    HW1 5678   0.938   1.824   6.709
 1778SOL    HW2 5679   1.094   1.860   6.740
 1779SOL     OW 5680   0.770   3.192   5.887
 1779SOL    HW1 5681   0.724   3.105   5.904
 1779SOL    HW2 5682   0.861   3.189   5.928
 1780SOL     OW 5683   0.618   3.429   6.870
 1780SOL    HW1 5684   0.613   3.511   6.927
 1780SOL    HW2 5685   0.707   3.426   6.825
 1781SOL     OW 5686   1.352   1.914   5.754
 1781SOL    HW1 5687   1.387   1.873   5.670
 1781SOL    HW2 5688   1.262   1.876   5.774
 1782SOL     OW 5689   1.300   2.315   6.277
 1782SOL    HW1 5690   1.241   2.395   6.281
 1782SOL    HW2 5691   1.315   2.280   6.370
 1783SOL     OW 5692   1.593   2.083   6.468
 1783SOL    HW1 5693   1.509   2.082   6.522
 1783SOL    HW2 5694   1.595   2.166   6.412
 1784SOL     OW 5695   0.039   2.939   5.886
 1784SOL    HW1 5696   0.138   2.928   5.877
 1784SOL    HW2 5697  -0.001   2.853   5.918
 1785SOL     OW 5698   0.875   3.508   5.923
 1785SOL    HW1 5699   0.798   3.473   5.869
 1785SOL    HW2 5700   0.843   3.579   5.985
 1786SOL     OW 5701   0.230   2.490   7.561
 1786SOL    HW1 5702   0.137   2.488   7.598
 1786SOL    HW2 5703   0.231   2.451   7.469
 1787SOL     OW 5704   1.755   2.469   7.679
 1787SOL    HW1 5705   1.743   2.456   7.580
 1787SOL    HW2 5706   1.725   2.388   7.728
 1788SOL     OW 5707   0.231   3.575   7.931
 1788SOL    HW1 5708   0.265   3.652   7.985
 1788SOL    HW2 5709   0.275   3.575   7.841
 1789SOL     OW 5710   0.606   2.826   7.571
 1789SOL    HW1 5711   0.613   2.910   7.517
 1789SOL    HW2 5712   0.652   2.839   7.659
 1790SOL     OW 5713   1.842   3.629   7.807
 1790SOL    HW1 5714   1.896   3.600   7.887
 1790SOL    HW2 5715   1.872   3.719   7.778
 1791SOL     OW 5716   0.027   3.458   7.565
 1791SOL    HW1 5717   0.008   3.362   7.586
 1791SOL    HW2 5718  -0.006   3.516   7.640
 1792SOL     OW 5719   1.641   2.970   7.880
 1792SOL    HW1 5720   1.727   2.972   7.828
 1792SOL    HW2 5721   1.655   3.017   7.968
 1793SOL     OW 5722   0.809   1.866   7.950
 1793SOL    HW1 5723   0.849   1.957   7.941
 1793SOL    HW2 5724   0.709   1.874   7.956
 1794SOL     OW 5725   1.525   2.861   7.638
 1794SOL    HW1 5726   1.462   2.785   7.651
 1794SOL    HW2 5727   1.573   2.879   7.724
 1795SOL     OW 5728   1.667   3.576   8.020
 1795SOL    HW1 5729   1.626   3.553   7.932
 1795SOL    HW2 5730   1.649   3.502   8.085
 1796SOL     OW 5731   0.598   2.591   7.718
 1796SOL    HW1 5732   0.622   2.660   7.650
 1796SOL    HW2 5733   0.520   2.624   7.772
 1797SOL     OW 5734   1.576   3.524   7.755
 1797SOL    HW1 5735   1.665   3.570   7.758
 1797SOL    HW2 5736   1.555   3.500   7.660
 1798SOL     OW 5737   1.041   2.563   7.877
 1798SOL    HW1 5738   1.067   2.559   7.973
 1798SOL    HW2 5739   0.956   2.512   7.863
 1799SOL     OW 5740   0.865   2.210   7.643
 1799SOL    HW1 5741   0.924   2.273   7.594
 1799SOL    HW2 5742   0.884   2.116   7.614
 1800SOL     OW 5743   1.362   3.006   7.993
 1800SOL    HW1 5744   1.445   2.977   7.945
 1800SOL    HW2 5745   1.313   3.073   7.937
 1801SOL     OW 5746   1.008   3.318   7.925
 1801SOL    HW1 5747   0.962   3.390   7.873
 1801SOL    HW2 5748   1.004   3.338   8.023
 1802SOL     OW 5749   0.321   2.805   7.690
 1802SOL    HW1 5750   0.403   2.844   7.648
 1802SOL    HW2 5751   0.294   2.723   7.641
 1803SOL     OW 5752   1.111   3.638   7.685
 1803SOL    HW1 5753   1.051   3.576   7.735
 1803SOL    HW2 5754   1.142   3.594   7.600
 1804SOL     OW 5755   1.632   3.239   7.529
 1804SOL    HW1 5756   1.600   3.333   7.519
 1804SOL    HW2 5757   1.556   3.176   7.517
 1805SOL     OW 5758   0.464   3.605   7.771
 1805SOL    HW1 5759   0.497   3.644   7.857
 1805SOL    HW2 5760   0.540   3.598   7.706
 1806SOL     OW 5761   1.400   1.969   7.874
 1806SOL    HW1 5762   1.376   1.932   7.784
 1806SOL    HW2 5763   1.499   1.985   7.878
 1807SOL     OW 5764   0.382   2.562   7.928
 1807SOL    HW1 5765   0.427   2.472   7.925
 1807SOL    HW2 5766   0.288   2.551   7.961
 1808SOL     OW 5767   0.614   1.984   7.565
 1808SOL    HW1 5768   0.712   1.962   7.572
 1808SOL    HW2 5769   0.583   1.967   7.472
 1809SOL     OW 5770   0.539   1.926   7.960
 1809SOL    HW1 5771   0.458   1.927   8.018
 1809SOL    HW2 5772   0.542   2.009   7.905
 1810SOL     OW 5773   1.434   3.050   7.489
 1810SOL    HW1 5774   1.466   2.974   7.546
 1810SOL    HW2 5775   1.342   3.077   7.519
 1811SOL     OW 5776   0.297   1.897   7.619
 1811SOL    HW1 5777   0.346   1.981   7.598
 1811SOL    HW2 5778   0.359   1.832   7.664
 1812SOL     OW 5779   0.935   2.098   7.928
 1812SOL    HW1 5780   0.887   2.139   7.850
 1812SOL    HW2 5781   1.034   2.096   7.909
 1813SOL     OW 5782   1.032   2.411   7.464
 1813SOL    HW1 5783   0.991   2.493   7.425
 1813SOL    HW2 5784   1.096   2.437   7.537
 1814SOL     OW 5785   1.857   2.695   7.825
 1814SOL    HW1 5786   1.899   2.631   7.889
 1814SOL    HW2 5787   1.819   2.644   7.747
 1815SOL     OW 5788   0.488   3.247   7.622
 1815SOL    HW1 5789   0.401   3.232   7.669
 1815SOL    HW2 5790   0.471   3.273   7.527
 1816SOL     OW 5791   1.390   2.437   7.526
 1816SOL    HW1 5792   1.336   2.416   7.607
 1816SOL    HW2 5793   1.481   2.396   7.535
 1817SOL     OW 5794   0.527   2.118   7.776
 1817SOL    HW1 5795   0.554   2.059   7.701
 1817SOL    HW2 5796   0.527   2.213   7.745
 1818SOL     OW 5797   0.705   2.912   7.816
 1818SOL    HW1 5798   0.691   2.919   7.915
 1818SOL    HW2 5799   0.789   2.861   7.798
 1819SOL     OW 5800   0.367   2.962   7.949
 1819SOL    HW1 5801   0.360   3.045   7.893
 1819SOL    HW2 5802   0.371   2.882   7.889
 1820SOL     OW 5803   1.252   3.210   7.836
 1820SOL    HW1 5804   1.302   3.287   7.876
 1820SOL    HW2 5805   1.157   3.212   7.868
 1821SOL     OW 5806   1.582   2.501   7.920
 1821SOL    HW1 5807   1.551   2.562   7.993
 1821SOL    HW2 5808   1.632   2.553   7.851
 1822SOL     OW 5809   1.209   2.387   7.723
 1822SOL    HW1 5810   1.222   2.303   7.777
 1822SOL    HW2 5811   1.180   2.461   7.783
 1823SOL     OW 5812   1.622   2.229   7.822
 1823SOL    HW1 5813   1.624   2.153   7.886
 1823SOL    HW2 5814   1.574   2.306   7.862
 1824SOL     OW 5815   1.540   2.136   7.573
 1824SOL    HW1 5816   1.479   2.061   7.596
 1824SOL    HW2 5817   1.562   2.188   7.656
 1825SOL     OW 5818   1.303   2.700   7.490
 1825SOL    HW1 5819   1.337   2.607   7.505
 1825SOL    HW2 5820   1.321   2.727   7.395
 1826SOL     OW 5821   0.008   3.188   7.648
 1826SOL    HW1 5822  -0.085   3.209   7.617
 1826SOL    HW2 5823   0.018   3.089   7.661
 1827SOL     OW 5824   0.815   2.434   7.773
 1827SOL    HW1 5825   0.822   2.345   7.727
 1827SOL    HW2 5826   0.721   2.468   7.765
 1828SOL     OW 5827   0.473   2.362   7.639
 1828SOL    HW1 5828   0.534   2.442   7.643
 1828SOL    HW2 5829   0.378   2.393   7.646
 1829SOL     OW 5830   1.302   2.717   7.757
 1829SOL    HW1 5831   1.216   2.686   7.799
 1829SOL    HW2 5832   1.298   2.703   7.658
 1830SOL     OW 5833   1.726   1.997   7.971
 1830SOL    HW1 5834   1.799   1.980   7.904
 1830SOL    HW2 5835   1.695   1.910   8.009
 1831SOL     OW 5836   1.388   3.435   7.925
 1831SOL    HW1 5837   1.455   3.447   7.851
 1831SOL    HW2 5838   1.348   3.524   7.948
 1832SOL     OW 5839   0.672   3.478   7.602
 1832SOL    HW1 5840   0.681   3.488   7.503
 1832SOL    HW2 5841   0.632   3.389   7.623
 1833SOL     OW 5842   1.194   3.474   7.479
 1833SOL    HW1 5843   1.200   3.381   7.516
 1833SOL    HW2 5844   1.135   3.474   7.399
 1834SOL     OW 5845   0.916   2.772   7.739
 1834SOL    HW1 5846   0.979   2.810   7.671
 1834SOL    HW2 5847   0.956   2.689   7.778
 1835SOL     OW 5848   1.504   3.469   7.492
 1835SOL    HW1 5849   1.412   3.506   7.499
 1835SOL    HW2 5850   1.542   3.489   7.402
 1836SOL     OW 5851   0.590   3.349   7.939
 1836SOL    HW1 5852   0.632   3.291   7.869
 1836SOL    HW2 5853   0.546   3.428   7.895
 1837SOL     OW 5854   0.255   3.210   7.738
 1837SOL    HW1 5855   0.159   3.211   7.711
 1837SOL    HW2 5856   0.267   3.263   7.822
 1838SOL     OW 5857   0.075   2.207   7.481
 1838SOL    HW1 5858  -0.017   2.179   7.452
 1838SOL    HW2 5859   0.106   2.284   7.425
 1839SOL     OW 5860   0.072   2.028   7.766
 1839SOL    HW1 5861   0.055   2.111   7.712
 1839SOL    HW2 5862   0.162   1.991   7.744
 1840SOL     OW 5863   1.183   3.197   7.567
 1840SOL    HW1 5864   1.084   3.186   7.569
 1840SOL    HW2 5865   1.217   3.212   7.660
 1841SOL     OW 5866   1.225   2.187   7.897
 1841SOL    HW1 5867   1.290   2.113   7.886
 1841SOL    HW2 5868   1.245   2.237   7.981
 1842SOL     OW 5869   0.859   3.236   7.464
 1842SOL    HW1 5870   0.813   3.251   7.552
 1842SOL    HW2 5871   0.903   3.321   7.434
 1843SOL     OW 5872   1.083   2.846   7.535
 1843SOL    HW1 5873   1.060   2.899   7.453
 1843SOL    HW2 5874   1.164   2.790   7.516
 1844SOL     OW 5875   0.428   2.286   7.968
 1844SOL    HW1 5876   0.458   2.214   7.906
 1844SOL    HW2 5877   0.389   2.246   8.051
 1845SOL     OW 5878   0.770   3.192   7.749
 1845SOL    HW1 5879   0.724   3.105   7.766
 1845SOL    HW2 5880   0.861   3.189   7.790
 1846SOL     OW 5881   1.352   1.914   7.616
 1846SOL    HW1 5882   1.387   1.873   7.532
 1846SOL    HW2 5883   1.262   1.876   7.636
 1847SOL     OW 5884   0.039   2.939   7.748
 1847SOL    HW1 5885   0.138   2.928   7.739
 1847SOL    HW2 5886  -0.001   2.853   7.780
 1848SOL     OW 5887   0.875   3.508   7.785
 1848SOL    HW1 5888   0.798   3.473   7.731
 1848SOL    HW2 5889   0.843   3.579   7.847
 1849SOL     OW 5890   0.230   4.352   0.113
 1849SOL    HW1 5891   0.137   4.350   0.150
 1849SOL    HW2 5892   0.231   4.313   0.021
 1850SOL     OW 5893   0.225   3.999   0.996
 1850SOL    HW1 5894   0.260   3.982   1.088
 1850SOL    HW2 5895   0.137   3.954   0.984
 1851SOL     OW 5896   0.019   4.092   0.647
 1851SOL    HW1 5897  -0.063   4.135   0.686
 1851SOL    HW2 5898  -0.009   4.019   0.584
 1852SOL     OW 5899   0.569   4.999   1.165
 1852SOL    HW1 5900   0.476   4.992   1.128
 1852SOL    HW2 5901   0.580   5.088   1.209
 1853SOL     OW 5902   1.555   5.235   0.703
 1853SOL    HW1 5903   1.498   5.219   0.784
 1853SOL    HW2 5904   1.496   5.245   0.623
 1854SOL     OW 5905   1.135   4.427   0.717
 1854SOL    HW1 5906   1.192   4.505   0.692
 1854SOL    HW2 5907   1.075   4.453   0.793
 1855SOL     OW 5908   1.755   4.331   0.231
 1855SOL    HW1 5909   1.743   4.318   0.132
 1855SOL    HW2 5910   1.725   4.250   0.280
 1856SOL     OW 5911   0.768   4.868   1.023
 1856SOL    HW1 5912   0.690   4.885   1.083
 1856SOL    HW2 5913   0.802   4.955   0.987
 1857SOL     OW 5914   0.850   4.522   1.823
 1857SOL    HW1 5915   0.846   4.598   1.888
 1857SOL    HW2 5916   0.872   4.558   1.732
 1858SOL     OW 5917   0.685   4.736   0.665
 1858SOL    HW1 5918   0.754   4.720   0.735
 1858SOL    HW2 5919   0.612   4.793   0.703
 1859SOL     OW 5920   0.686   4.885   1.803
 1859SOL    HW1 5921   0.746   4.964   1.817
 1859SOL    HW2 5922   0.600   4.916   1.762
 1860SOL     OW 5923   0.335   5.159   1.061
 1860SOL    HW1 5924   0.257   5.128   1.008
 1860SOL    HW2 5925   0.393   5.217   1.004
 1861SOL     OW 5926   1.460   5.229   1.339
 1861SOL    HW1 5927   1.484   5.323   1.365
 1861SOL    HW2 5928   1.444   5.175   1.421
 1862SOL     OW 5929   0.438   4.116   1.499
 1862SOL    HW1 5930   0.520   4.060   1.508
 1862SOL    HW2 5931   0.357   4.058   1.503
 1863SOL     OW 5932   1.603   4.171   0.737
 1863SOL    HW1 5933   1.529   4.217   0.687
 1863SOL    HW2 5934   1.654   4.239   0.790
 1864SOL     OW 5935   0.231   5.437   0.483
 1864SOL    HW1 5936   0.265   5.514   0.537
 1864SOL    HW2 5937   0.275   5.437   0.393
 1865SOL     OW 5938   1.127   5.065   1.690
 1865SOL    HW1 5939   1.174   5.065   1.778
 1865SOL    HW2 5940   1.079   4.978   1.679
 1866SOL     OW 5941   0.230   5.158   0.538
 1866SOL    HW1 5942   0.204   5.254   0.538
 1866SOL    HW2 5943   0.159   5.104   0.583
 1867SOL     OW 5944   0.240   4.815   0.886
 1867SOL    HW1 5945   0.254   4.731   0.938
 1867SOL    HW2 5946   0.185   4.879   0.941
 1868SOL     OW 5947   0.620   5.510   1.439
 1868SOL    HW1 5948   0.528   5.493   1.474
 1868SOL    HW2 5949   0.648   5.602   1.465
 1869SOL     OW 5950   0.606   4.688   0.123
 1869SOL    HW1 5951   0.613   4.772   0.069
 1869SOL    HW2 5952   0.652   4.701   0.211
 1870SOL     OW 5953   1.594   3.838   1.480
 1870SOL    HW1 5954   1.576   3.905   1.408
 1870SOL    HW2 5955   1.591   3.884   1.569
 1871SOL     OW 5956   0.122   4.367   0.563
 1871SOL    HW1 5957   0.077   4.279   0.580
 1871SOL    HW2 5958   0.121   4.421   0.647
 1872SOL     OW 5959   1.842   5.491   0.359
 1872SOL    HW1 5960   1.896   5.462   0.439
 1872SOL    HW2 5961   1.872   5.581   0.330
 1873SOL     OW 5962   0.027   5.320   0.117
 1873SOL    HW1 5963   0.008   5.224   0.138
 1873SOL    HW2 5964  -0.006   5.378   0.192
 1874SOL     OW 5965   1.689   4.646   0.612
 1874SOL    HW1 5966   1.784   4.617   0.620
 1874SOL    HW2 5967   1.681   4.711   0.537
 1875SOL     OW 5968   1.641   4.832   0.432
 1875SOL    HW1 5969   1.727   4.834   0.380
 1875SOL    HW2 5970   1.655   4.879   0.520
 1876SOL     OW 5971   0.113   4.461   1.597
 1876SOL    HW1 5972   0.201   4.448   1.642
 1876SOL    HW2 5973   0.100   4.558   1.575
 1877SOL     OW 5974   0.613   5.089   0.726
 1877SOL    HW1 5975   0.564   5.002   0.735
 1877SOL    HW2 5976   0.590   5.132   0.639
 1878SOL     OW 5977   1.293   4.952   1.423
 1878SOL    HW1 5978   1.330   4.879   1.365
 1878SOL    HW2 5979   1.345   4.957   1.508
 1879SOL     OW 5980   0.809   3.728   0.502
 1879SOL    HW1 5981   0.849   3.819   0.493
 1879SOL    HW2 5982   0.709   3.736   0.508
 1880SOL     OW 5983   0.197   4.700   1.264
 1880SOL    HW1 5984   0.286   4.655   1.250
 1880SOL    HW2 5985   0.124   4.635   1.245
 1881SOL     OW 5986   1.525   4.723   0.190
 1881SOL    HW1 5987   1.462   4.647   0.203
 1881SOL    HW2 5988   1.573   4.741   0.276
 1882SOL     OW 5989   1.187   5.516   1.616
 1882SOL    HW1 5990   1.211   5.576   1.540
 1882SOL    HW2 5991   1.194   5.421   1.586
 1883SOL     OW 5992   0.317   3.975   1.801
 1883SOL    HW1 5993   0.388   4.046   1.807
 1883SOL    HW2 5994   0.229   4.014   1.829
 1884SOL     OW 5995   1.466   5.141   0.953
 1884SOL    HW1 5996   1.407   5.147   1.033
 1884SOL    HW2 5997   1.451   5.053   0.907
 1885SOL     OW 5998   1.667   5.438   0.572
 1885SOL    HW1 5999   1.626   5.415   0.484
 1885SOL    HW2 6000   1.649   5.364   0.637
 1886SOL     OW 6001   0.598   4.453   0.270
 1886SOL    HW1 6002   0.622   4.522   0.202
 1886SOL    HW2 6003   0.520   4.486   0.324
 1887SOL     OW 6004   1.281   4.069   0.944
 1887SOL    HW1 6005   1.195   4.019   0.931
 1887SOL    HW2 6006   1.343   4.015   1.000
 1888SOL     OW 6007   1.576   5.386   0.307
 1888SOL    HW1 6008   1.665   5.432   0.310
 1888SOL    HW2 6009   1.555   5.362   0.212
 1889SOL     OW 6010   0.807   4.329   1.465
 1889SOL    HW1 6011   0.760   4.326   1.554
 1889SOL    HW2 6012   0.756   4.274   1.399
 1890SOL     OW 6013   1.394   4.193   1.674
 1890SOL    HW1 6014   1.374   4.236   1.762
 1890SOL    HW2 6015   1.472   4.131   1.683
 1891SOL     OW 6016   0.973   4.614   1.572
 1891SOL    HW1 6017   1.019   4.530   1.543
 1891SOL    HW2 6018   0.917   4.648   1.497
 1892SOL     OW 6019   0.991   4.134   1.242
 1892SOL    HW1 6020   0.914   4.168   1.296
 1892SOL    HW2 6021   0.957   4.083   1.163
 1893SOL     OW 6022   1.041   4.425   0.429
 1893SOL    HW1 6023   1.067   4.421   0.525
 1893SOL    HW2 6024   0.956   4.374   0.415
 1894SOL     OW 6025   0.076   4.535   0.789
 1894SOL    HW1 6026   0.175   4.523   0.798
 1894SOL    HW2 6027   0.052   4.630   0.810
 1895SOL     OW 6028   0.130   5.545   1.571
 1895SOL    HW1 6029   0.120   5.530   1.670
 1895SOL    HW2 6030   0.044   5.581   1.535
 1896SOL     OW 6031   0.865   4.072   0.195
 1896SOL    HW1 6032   0.924   4.135   0.146
 1896SOL    HW2 6033   0.884   3.978   0.166
 1897SOL     OW 6034   1.719   4.309   1.831
 1897SOL    HW1 6035   1.693   4.398   1.795
 1897SOL    HW2 6036   1.717   4.241   1.758
 1898SOL     OW 6037   1.362   4.868   0.545
 1898SOL    HW1 6038   1.445   4.839   0.497
 1898SOL    HW2 6039   1.313   4.935   0.489
 1899SOL     OW 6040   0.550   3.920   0.885
 1899SOL    HW1 6041   0.545   3.915   0.985
 1899SOL    HW2 6042   0.552   4.016   0.856
 1900SOL     OW 6043   1.008   5.180   0.477
 1900SOL    HW1 6044   0.962   5.252   0.425
 1900SOL    HW2 6045   1.004   5.200   0.575
 1901SOL     OW 6046   0.351   5.525   0.853
 1901SOL    HW1 6047   0.401   5.439   0.859
 1901SOL    HW2 6048   0.416   5.602   0.850
 1902SOL     OW 6049   1.795   4.790   0.873
 1902SOL    HW1 6050   1.733   4.775   0.797
 1902SOL    HW2 6051   1.743   4.801   0.958
 1903SOL     OW 6052   1.227   5.274   1.506
 1903SOL    HW1 6053   1.233   5.197   1.570
 1903SOL    HW2 6054   1.175   5.248   1.426
 1904SOL     OW 6055   0.321   4.667   0.242
 1904SOL    HW1 6056   0.403   4.706   0.200
 1904SOL    HW2 6057   0.294   4.585   0.193
 1905SOL     OW 6058   1.458   4.459   0.728
 1905SOL    HW1 6059   1.453   4.394   0.803
 1905SOL    HW2 6060   1.538   4.518   0.741
 1906SOL     OW 6061   0.461   4.990   1.727
 1906SOL    HW1 6062   0.411   4.991   1.641
 1906SOL    HW2 6063   0.398   4.972   1.803
 1907SOL     OW 6064   1.111   5.500   0.237
 1907SOL    HW1 6065   1.051   5.438   0.287
 1907SOL    HW2 6066   1.142   5.456   0.152
 1908SOL     OW 6067   0.202   4.009   1.498
 1908SOL    HW1 6068   0.122   4.069   1.485
 1908SOL    HW2 6069   0.192   3.960   1.584
 1909SOL     OW 6070   1.632   5.101   0.081
 1909SOL    HW1 6071   1.600   5.195   0.071
 1909SOL    HW2 6072   1.556   5.038   0.069
 1910SOL     OW 6073   0.464   5.467   0.323
 1910SOL    HW1 6074   0.497   5.506   0.409
 1910SOL    HW2 6075   0.540   5.460   0.258
 1911SOL     OW 6076   1.400   3.831   0.426
 1911SOL    HW1 6077   1.376   3.794   0.336
 1911SOL    HW2 6078   1.499   3.847   0.430
 1912SOL     OW 6079   0.249   5.509   1.241
 1912SOL    HW1 6080   0.306   5.444   1.291
 1912SOL    HW2 6081   0.233   5.476   1.148
 1913SOL     OW 6082   0.940   5.422   0.904
 1913SOL    HW1 6083   1.020   5.365   0.925
 1913SOL    HW2 6084   0.891   5.382   0.827
 1914SOL     OW 6085   0.382   4.424   0.480
 1914SOL    HW1 6086   0.427   4.334   0.477
 1914SOL    HW2 6087   0.288   4.413   0.513
 1915SOL     OW 6088   1.547   3.946   1.729
 1915SOL    HW1 6089   1.542   3.983   1.821
 1915SOL    HW2 6090   1.475   3.877   1.717
 1916SOL     OW 6091   0.614   3.846   0.117
 1916SOL    HW1 6092   0.712   3.824   0.124
 1916SOL    HW2 6093   0.583   3.829   0.024
 1917SOL     OW 6094   0.781   3.988   1.749
 1917SOL    HW1 6095   0.848   3.927   1.792
 1917SOL    HW2 6096   0.708   4.007   1.814
 1918SOL     OW 6097   0.888   5.238   1.195
 1918SOL    HW1 6098   0.865   5.213   1.101
 1918SOL    HW2 6099   0.949   5.169   1.234
 1919SOL     OW 6100   1.351   4.314   1.433
 1919SOL    HW1 6101   1.379   4.271   1.518
 1919SOL    HW2 6102   1.376   4.410   1.434
 1920SOL     OW 6103   0.803   5.126   0.924
 1920SOL    HW1 6104   0.893   5.140   0.882
 1920SOL    HW2 6105   0.732   5.128   0.853
 1921SOL     OW 6106   0.922   4.227   0.899
 1921SOL    HW1 6107   0.897   4.218   0.803
 1921SOL    HW2 6108   0.970   4.145   0.930
 1922SOL     OW 6109   0.539   3.788   0.512
 1922SOL    HW1 6110   0.458   3.789   0.570
 1922SOL    HW2 6111   0.542   3.871   0.457
 1923SOL     OW 6112   1.434   4.912   0.041
 1923SOL    HW1 6113   1.466   4.836   0.098
 1923SOL    HW2 6114   1.342   4.939   0.071
 1924SOL     OW 6115   0.297   3.759   0.171
 1924SOL    HW1 6116   0.346   3.843   0.150
 1924SOL    HW2 6117   0.359   3.694   0.216
 1925SOL     OW 6118   0.935   3.960   0.480
 1925SOL    HW1 6119   0.887   4.001   0.402
 1925SOL    HW2 6120   1.034   3.958   0.461
 1926SOL     OW 6121   1.076   4.407   1.464
 1926SOL    HW1 6122   0.996   4.346   1.467
 1926SOL    HW2 6123   1.157   4.354   1.440
 1927SOL     OW 6124   1.227   5.294   0.793
 1927SOL    HW1 6125   1.248   5.368   0.728
 1927SOL    HW2 6126   1.295   5.294   0.866
 1928SOL     OW 6127   0.459   4.876   0.741
 1928SOL    HW1 6128   0.388   4.849   0.806
 1928SOL    HW2 6129   0.433   4.848   0.648
 1929SOL     OW 6130   1.271   5.521   0.591
 1929SOL    HW1 6131   1.315   5.585   0.527
 1929SOL    HW2 6132   1.221   5.573   0.661
 1930SOL     OW 6133   1.032   4.273   0.016
 1930SOL    HW1 6134   0.991   4.355  -0.023
 1930SOL    HW2 6135   1.096   4.299   0.089
 1931SOL     OW 6136   0.078   4.280   1.386
 1931SOL    HW1 6137   0.170   4.279   1.345
 1931SOL    HW2 6138   0.072   4.354   1.453
 1932SOL     OW 6139   0.561   3.946   1.147
 1932SOL    HW1 6140   0.599   3.862   1.184
 1932SOL    HW2 6141   0.473   3.965   1.191
 1933SOL     OW 6142   0.866   4.178   0.642
 1933SOL    HW1 6143   0.834   4.250   0.580
 1933SOL    HW2 6144   0.890   4.097   0.589
 1934SOL     OW 6145   1.017   3.763   0.753
 1934SOL    HW1 6146   0.945   3.768   0.684
 1934SOL    HW2 6147   0.993   3.694   0.822
 1935SOL     OW 6148   1.429   4.897   0.867
 1935SOL    HW1 6149   1.374   4.813   0.860
 1935SOL    HW2 6150   1.455   4.926   0.775
 1936SOL     OW 6151   1.466   4.314   0.992
 1936SOL    HW1 6152   1.436   4.219   0.999
 1936SOL    HW2 6153   1.539   4.330   1.058
 1937SOL     OW 6154   1.857   4.557   0.377
 1937SOL    HW1 6155   1.899   4.493   0.441
 1937SOL    HW2 6156   1.819   4.506   0.299
 1938SOL     OW 6157   0.488   5.109   0.174
 1938SOL    HW1 6158   0.401   5.094   0.221
 1938SOL    HW2 6159   0.471   5.135   0.079
 1939SOL     OW 6160   1.664   5.004   0.657
 1939SOL    HW1 6161   1.763   5.012   0.671
 1939SOL    HW2 6162   1.619   5.088   0.688
 1940SOL     OW 6163   1.390   4.299   0.078
 1940SOL    HW1 6164   1.336   4.278   0.159
 1940SOL    HW2 6165   1.481   4.258   0.087
 1941SOL     OW 6166   0.527   3.980   0.328
 1941SOL    HW1 6167   0.554   3.921   0.253
 1941SOL    HW2 6168   0.527   4.075   0.297
 1942SOL     OW 6169   1.754   4.947   1.588
 1942SOL    HW1 6170   1.845   4.908   1.575
 1942SOL    HW2 6171   1.762   5.043   1.612
 1943SOL     OW 6172   1.064   5.071   1.340
 1943SOL    HW1 6173   0.984   5.048   1.395
 1943SOL    HW2 6174   1.147   5.045   1.389
 1944SOL     OW 6175   1.592   5.353   1.625
 1944SOL    HW1 6176   1.619   5.387   1.535
 1944SOL    HW2 6177   1.671   5.315   1.671
 1945SOL     OW 6178   1.111   4.919   1.100
 1945SOL    HW1 6179   1.071   4.963   1.181
 1945SOL    HW2 6180   1.070   4.956   1.017
 1946SOL     OW 6181   1.638   4.823   1.079
 1946SOL    HW1 6182   1.643   4.904   1.138
 1946SOL    HW2 6183   1.552   4.825   1.028
 1947SOL     OW 6184   0.915   3.813   1.402
 1947SOL    HW1 6185   0.940   3.793   1.307
 1947SOL    HW2 6186   0.987   3.869   1.444
 1948SOL     OW 6187   0.980   4.840   1.719
 1948SOL    HW1 6188   0.881   4.846   1.729
 1948SOL    HW2 6189   1.003   4.760   1.663
 1949SOL     OW 6190   0.705   4.774   0.368
 1949SOL    HW1 6191   0.691   4.781   0.467
 1949SOL    HW2 6192   0.789   4.723   0.350
 1950SOL     OW 6193   0.410   4.537   1.251
 1950SOL    HW1 6194   0.496   4.549   1.301
 1950SOL    HW2 6195   0.368   4.450   1.278
 1951SOL     OW 6196   1.274   4.110   1.262
 1951SOL    HW1 6197   1.295   4.184   1.326
 1951SOL    HW2 6198   1.185   4.127   1.219
 1952SOL     OW 6199   0.064   5.288   1.331
 1952SOL    HW1 6200   0.018   5.370   1.297
 1952SOL    HW2 6201   0.162   5.307   1.340
 1953SOL     OW 6202   0.367   4.824   0.501
 1953SOL    HW1 6203   0.360   4.907   0.445
 1953SOL    HW2 6204   0.371   4.744   0.441
 1954SOL     OW 6205   0.566   4.261   0.865
 1954SOL    HW1 6206   0.578   4.327   0.791
 1954SOL    HW2 6207   0.612   4.295   0.948
 1955SOL     OW 6208   1.252   5.072   0.388
 1955SOL    HW1 6209   1.302   5.149   0.428
 1955SOL    HW2 6210   1.157   5.074   0.420
 1956SOL     OW 6211   1.272   5.169   1.142
 1956SOL    HW1 6212   1.319   5.182   1.229
 1956SOL    HW2 6213   1.206   5.095   1.151
 1957SOL     OW 6214   1.582   4.363   0.472
 1957SOL    HW1 6215   1.551   4.424   0.545
 1957SOL    HW2 6216   1.632   4.415   0.403
 1958SOL     OW 6217   0.354   5.234   1.329
 1958SOL    HW1 6218   0.333   5.190   1.242
 1958SOL    HW2 6219   0.451   5.260   1.332
 1959SOL     OW 6220   0.402   4.475   1.598
 1959SOL    HW1 6221   0.470   4.530   1.551
 1959SOL    HW2 6222   0.442   4.387   1.625
 1960SOL     OW 6223   1.587   4.503   1.670
 1960SOL    HW1 6224   1.495   4.541   1.665
 1960SOL    HW2 6225   1.647   4.550   1.605
 1961SOL     OW 6226   1.013   3.829   1.770
 1961SOL    HW1 6227   1.019   3.914   1.718
 1961SOL    HW2 6228   1.045   3.753   1.713
 1962SOL     OW 6229   0.504   3.774   1.740
 1962SOL    HW1 6230   0.462   3.717   1.670
 1962SOL    HW2 6231   0.438   3.843   1.772
 1963SOL     OW 6232   0.573   4.594   1.029
 1963SOL    HW1 6233   0.617   4.683   1.020
 1963SOL    HW2 6234   0.510   4.594   1.106
 1964SOL     OW 6235   1.360   4.586   1.045
 1964SOL    HW1 6236   1.285   4.586   0.979
 1964SOL    HW2 6237   1.397   4.494   1.054
 1965SOL     OW 6238   1.209   4.249   0.275
 1965SOL    HW1 6239   1.222   4.165   0.329
 1965SOL    HW2 6240   1.180   4.323   0.335
 1966SOL     OW 6241   0.307   3.937   1.231
 1966SOL    HW1 6242   0.284   3.974   1.321
 1966SOL    HW2 6243   0.277   3.842   1.225
 1967SOL     OW 6244   0.037   5.034   1.282
 1967SOL    HW1 6245   0.090   4.985   1.350
 1967SOL    HW2 6246   0.059   5.132   1.287
 1968SOL     OW 6247   0.732   4.358   1.064
 1968SOL    HW1 6248   0.791   4.332   0.988
 1968SOL    HW2 6249   0.704   4.454   1.053
 1969SOL     OW 6250   1.728   4.659   1.854
 1969SOL    HW1 6251   1.682   4.652   1.765
 1969SOL    HW2 6252   1.666   4.703   1.920
 1970SOL     OW 6253   0.307   3.787   0.618
 1970SOL    HW1 6254   0.296   3.881   0.651
 1970SOL    HW2 6255   0.302   3.724   0.695
 1971SOL     OW 6256   1.622   4.091   0.374
 1971SOL    HW1 6257   1.624   4.015   0.438
 1971SOL    HW2 6258   1.574   4.168   0.414
 1972SOL     OW 6259   1.023   4.490   0.966
 1972SOL    HW1 6260   1.038   4.511   1.062
 1972SOL    HW2 6261   0.993   4.395   0.957
 1973SOL     OW 6262   0.980   5.297   1.700
 1973SOL    HW1 6263   0.960   5.341   1.612
 1973SOL    HW2 6264   1.019   5.206   1.684
 1974SOL     OW 6265   1.859   5.242   1.605
 1974SOL    HW1 6266   1.873   5.269   1.510
 1974SOL    HW2 6267   1.942   5.264   1.658
 1975SOL     OW 6268   0.350   4.622   1.804
 1975SOL    HW1 6269   0.426   4.666   1.852
 1975SOL    HW2 6270   0.385   4.575   1.722
 1976SOL     OW 6271   1.540   3.998   0.125
 1976SOL    HW1 6272   1.479   3.923   0.148
 1976SOL    HW2 6273   1.562   4.050   0.208
 1977SOL     OW 6274   1.303   4.562   0.042
 1977SOL    HW1 6275   1.337   4.469   0.057
 1977SOL    HW2 6276   1.321   4.589  -0.053
 1978SOL     OW 6277   1.068   5.057   0.849
 1978SOL    HW1 6278   1.075   4.973   0.794
 1978SOL    HW2 6279   1.130   5.126   0.813
 1979SOL     OW 6280   0.319   4.534   0.949
 1979SOL    HW1 6281   0.412   4.570   0.954
 1979SOL    HW2 6282   0.313   4.449   1.001
 1980SOL     OW 6283   0.339   4.233   1.006
 1980SOL    HW1 6284   0.287   4.150   0.989
 1980SOL    HW2 6285   0.416   4.238   0.942
 1981SOL     OW 6286   1.138   4.104   1.678
 1981SOL    HW1 6287   1.093   4.167   1.742
 1981SOL    HW2 6288   1.231   4.135   1.661
 1982SOL     OW 6289   1.160   3.931   1.477
 1982SOL    HW1 6290   1.160   3.995   1.554
 1982SOL    HW2 6291   1.188   3.979   1.394
 1983SOL     OW 6292   0.008   5.050   0.200
 1983SOL    HW1 6293  -0.085   5.071   0.169
 1983SOL    HW2 6294   0.018   4.951   0.213
 1984SOL     OW 6295   0.088   5.525   0.927
 1984SOL    HW1 6296   0.046   5.439   0.900
 1984SOL    HW2 6297   0.182   5.528   0.893
 1985SOL     OW 6298   0.504   5.292   0.910
 1985SOL    HW1 6299   0.570   5.366   0.919
 1985SOL    HW2 6300   0.548   5.213   0.868
 1986SOL     OW 6301   1.002   4.520   1.238
 1986SOL    HW1 6302   1.043   4.488   1.324
 1986SOL    HW2 6303   0.906   4.493   1.235
 1987SOL     OW 6304   0.040   4.268   1.114
 1987SOL    HW1 6305   0.125   4.235   1.073
 1987SOL    HW2 6306   0.053   4.283   1.212
 1988SOL     OW 6307   0.189   4.244   1.722
 1988SOL    HW1 6308   0.248   4.204   1.652
 1988SOL    HW2 6309   0.131   4.315   1.681
 1989SOL     OW 6310   1.369   4.674   1.660
 1989SOL    HW1 6311   1.408   4.763   1.680
 1989SOL    HW2 6312   1.379   4.654   1.563
 1990SOL     OW 6313   0.815   4.296   0.325
 1990SOL    HW1 6314   0.822   4.207   0.279
 1990SOL    HW2 6315   0.721   4.330   0.317
 1991SOL     OW 6316   1.657   4.328   1.206
 1991SOL    HW1 6317   1.619   4.259   1.268
 1991SOL    HW2 6318   1.739   4.292   1.162
 1992SOL     OW 6319   0.252   5.288   1.744
 1992SOL    HW1 6320   0.222   5.345   1.820
 1992SOL    HW2 6321   0.245   5.191   1.770
 1993SOL     OW 6322   0.671   4.188   1.269
 1993SOL    HW1 6323   0.637   4.099   1.239
 1993SOL    HW2 6324   0.697   4.242   1.189
 1994SOL     OW 6325   0.930   5.402   1.465
 1994SOL    HW1 6326   0.906   5.384   1.370
 1994SOL    HW2 6327   0.960   5.496   1.475
 1995SOL     OW 6328   0.473   4.224   0.191
 1995SOL    HW1 6329   0.534   4.304   0.195
 1995SOL    HW2 6330   0.378   4.255   0.198
 1996SOL     OW 6331   0.159   4.861   1.466
 1996SOL    HW1 6332   0.181   4.800   1.542
 1996SOL    HW2 6333   0.169   4.812   1.380
 1997SOL     OW 6334   1.347   4.783   1.234
 1997SOL    HW1 6335   1.371   4.720   1.160
 1997SOL    HW2 6336   1.257   4.823   1.216
 1998SOL     OW 6337   1.302   4.579   0.309
 1998SOL    HW1 6338   1.216   4.548   0.351
 1998SOL    HW2 6339   1.298   4.565   0.210
 1999SOL     OW 6340   1.759   5.471   1.154
 1999SOL    HW1 6341   1.820   5.501   1.081
 1999SOL    HW2 6342   1.721   5.382   1.132
 2000SOL     OW 6343   1.252   5.455   1.128
 2000SOL    HW1 6344   1.336   5.460   1.074
 2000SOL    HW2 6345   1.229   5.359   1.146
 2001SOL     OW 6346   0.083   4.982   1.022
 2001SOL    HW1 6347   0.078   4.981   1.122
 2001SOL    HW2 6348   0.000   4.941   0.984
 2002SOL     OW 6349   0.688   5.386   1.716
 2002SOL    HW1 6350   0.632   5.467   1.725
 2002SOL    HW2 6351   0.740   5.390   1.630
 2003SOL     OW 6352   0.903   3.810   0.133
 2003SOL    HW1 6353   0.954   3.811   0.047
 2003SOL    HW2 6354   0.959   3.768   0.204
 2004SOL     OW 6355   1.726   3.859   0.523
 2004SOL    HW1 6356   1.799   3.842   0.456
 2004SOL    HW2 6357   1.695   3.772   0.561
 2005SOL     OW 6358   1.388   5.297   0.477
 2005SOL    HW1 6359   1.455   5.309   0.403
 2005SOL    HW2 6360   1.348   5.386   0.500
 2006SOL     OW 6361   0.130   5.518   1.851
 2006SOL    HW1 6362   0.089   5.444   1.904
 2006SOL    HW2 6363   0.194   5.569   1.909
 2007SOL     OW 6364   1.280   4.651   0.672
 2007SOL    HW1 6365   1.340   4.570   0.674
 2007SOL    HW2 6366   1.320   4.720   0.612
 2008SOL     OW 6367   0.830   4.997   1.422
 2008SOL    HW1 6368   0.825   5.030   1.517
 2008SOL    HW2 6369   0.744   5.016   1.376
 2009SOL     OW 6370   0.672   5.340   0.154
 2009SOL    HW1 6371   0.681   5.350   0.055
 2009SOL    HW2 6372   0.632   5.251   0.175
 2010SOL     OW 6373   1.650   5.444   1.394
 2010SOL    HW1 6374   1.703   5.454   1.310
 2010SOL    HW2 6375   1.623   5.534   1.428
 2011SOL     OW 6376   1.841   3.899   0.963
 2011SOL    HW1 6377   1.880   3.814   0.927
 2011SOL    HW2 6378   1.743   3.901   0.944
 2012SOL     OW 6379   0.263   4.050   0.720
 2012SOL    HW1 6380   0.184   4.101   0.686
 2012SOL    HW2 6381   0.254   4.035   0.818
 2013SOL     OW 6382   1.194   5.336   0.031
 2013SOL    HW1 6383   1.200   5.243   0.068
 2013SOL    HW2 6384   1.135   5.336  -0.049
 2014SOL     OW 6385   0.822   4.726   1.372
 2014SOL    HW1 6386   0.862   4.725   1.280
 2014SOL    HW2 6387   0.832   4.818   1.412
 2015SOL     OW 6388   0.916   4.634   0.291
 2015SOL    HW1 6389   0.979   4.672   0.223
 2015SOL    HW2 6390   0.956   4.551   0.330
 2016SOL     OW 6391   1.504   5.331   0.044
 2016SOL    HW1 6392   1.412   5.368   0.051
 2016SOL    HW2 6393   1.542   5.351  -0.046
 2017SOL     OW 6394   0.372   5.012   1.490
 2017SOL    HW1 6395   0.359   5.105   1.456
 2017SOL    HW2 6396   0.288   4.960   1.477
 2018SOL     OW 6397   1.614   5.016   1.289
 2018SOL    HW1 6398   1.674   5.019   1.369
 2018SOL    HW2 6399   1.539   5.080   1.302
 2019SOL     OW 6400   1.039   4.822   0.696
 2019SOL    HW1 6401   0.969   4.775   0.750
 2019SOL    HW2 6402   1.098   4.754   0.653
 2020SOL     OW 6403   1.014   3.960   0.971
 2020SOL    HW1 6404   1.006   3.924   0.878
 2020SOL    HW2 6405   1.012   3.884   1.036
 2021SOL     OW 6406   0.590   5.211   0.491
 2021SOL    HW1 6407   0.632   5.153   0.421
 2021SOL    HW2 6408   0.546   5.290   0.447
 2022SOL     OW 6409   1.709   4.109   1.381
 2022SOL    HW1 6410   1.782   4.178   1.385
 2022SOL    HW2 6411   1.737   4.034   1.322
 2023SOL     OW 6412   0.255   5.072   0.290
 2023SOL    HW1 6413   0.159   5.073   0.263
 2023SOL    HW2 6414   0.267   5.125   0.374
 2024SOL     OW 6415   0.105   4.737   1.726
 2024SOL    HW1 6416   0.028   4.704   1.780
 2024SOL    HW2 6417   0.190   4.707   1.768
 2025SOL     OW 6418   0.672   3.927   1.489
 2025SOL    HW1 6419   0.762   3.911   1.449
 2025SOL    HW2 6420   0.680   3.932   1.588
 2026SOL     OW 6421   0.075   4.069   0.033
 2026SOL    HW1 6422  -0.017   4.041   0.004
 2026SOL    HW2 6423   0.106   4.146  -0.023
 2027SOL     OW 6424   1.440   4.580   1.398
 2027SOL    HW1 6425   1.383   4.632   1.335
 2027SOL    HW2 6426   1.536   4.592   1.374
 2028SOL     OW 6427   0.072   3.890   0.318
 2028SOL    HW1 6428   0.055   3.973   0.264
 2028SOL    HW2 6429   0.162   3.853   0.296
 2029SOL     OW 6430   1.183   5.059   0.119
 2029SOL    HW1 6431   1.084   5.048   0.121
 2029SOL    HW2 6432   1.217   5.074   0.212
 2030SOL     OW 6433   0.613   4.566   1.431
 2030SOL    HW1 6434   0.669   4.647   1.414
 2030SOL    HW2 6435   0.672   4.486   1.434
 2031SOL     OW 6436   1.493   5.491   0.959
 2031SOL    HW1 6437   1.526   5.555   0.890
 2031SOL    HW2 6438   1.559   5.485   1.034
 2032SOL     OW 6439   0.716   4.289   1.708
 2032SOL    HW1 6440   0.735   4.354   1.782
 2032SOL    HW2 6441   0.776   4.209   1.717
 2033SOL     OW 6442   1.450   4.944   1.633
 2033SOL    HW1 6443   1.441   4.934   1.732
 2033SOL    HW2 6444   1.546   4.937   1.607
 2034SOL     OW 6445   0.390   5.465   1.560
 2034SOL    HW1 6446   0.299   5.506   1.558
 2034SOL    HW2 6447   0.383   5.371   1.592
 2035SOL     OW 6448   1.674   4.607   1.254
 2035SOL    HW1 6449   1.647   4.518   1.217
 2035SOL    HW2 6450   1.675   4.675   1.181
 2036SOL     OW 6451   1.225   4.049   0.449
 2036SOL    HW1 6452   1.290   3.975   0.438
 2036SOL    HW2 6453   1.245   4.099   0.533
 2037SOL     OW 6454   0.594   4.469   0.652
 2037SOL    HW1 6455   0.644   4.554   0.633
 2037SOL    HW2 6456   0.506   4.471   0.604
 2038SOL     OW 6457   1.777   4.066   1.642
 2038SOL    HW1 6458   1.760   4.097   1.548
 2038SOL    HW2 6459   1.693   4.029   1.680
 2039SOL     OW 6460   1.730   4.658   1.517
 2039SOL    HW1 6461   1.768   4.749   1.532
 2039SOL    HW2 6462   1.722   4.641   1.418
 2040SOL     OW 6463   0.859   5.098   0.016
 2040SOL    HW1 6464   0.813   5.113   0.104
 2040SOL    HW2 6465   0.903   5.183  -0.014
 2041SOL     OW 6466   0.661   5.514   0.953
 2041SOL    HW1 6467   0.615   5.602   0.940
 2041SOL    HW2 6468   0.760   5.526   0.946
 2042SOL     OW 6469   0.859   4.680   0.861
 2042SOL    HW1 6470   0.913   4.611   0.909
 2042SOL    HW2 6471   0.827   4.749   0.927
 2043SOL     OW 6472   1.083   4.708   0.087
 2043SOL    HW1 6473   1.060   4.761   0.005
 2043SOL    HW2 6474   1.164   4.652   0.068
 2044SOL     OW 6475   1.861   5.293   0.851
 2044SOL    HW1 6476   1.790   5.281   0.781
 2044SOL    HW2 6477   1.862   5.214   0.911
 2045SOL     OW 6478   0.221   5.038   1.844
 2045SOL    HW1 6479   0.156   4.965   1.823
 2045SOL    HW2 6480   0.225   5.052   1.942
 2046SOL     OW 6481   0.079   4.964   0.653
 2046SOL    HW1 6482   0.078   4.917   0.741
 2046SOL    HW2 6483   0.161   4.936   0.602
 2047SOL     OW 6484   0.672   5.115   1.624
 2047SOL    HW1 6485   0.594   5.065   1.662
 2047SOL    HW2 6486   0.669   5.210   1.655
 2048SOL     OW 6487   1.824   3.916   1.227
 2048SOL    HW1 6488   1.820   3.826   1.271
 2048SOL    HW2 6489   1.827   3.905   1.128
 2049SOL     OW 6490   0.428   4.148   0.520
 2049SOL    HW1 6491   0.458   4.076   0.458
 2049SOL    HW2 6492   0.389   4.108   0.603
 2050SOL     OW 6493   1.705   5.211   1.104
 2050SOL    HW1 6494   1.612   5.186   1.077
 2050SOL    HW2 6495   1.731   5.161   1.186
 2051SOL     OW 6496   0.317   4.271   1.280
 2051SOL    HW1 6497   0.355   4.212   1.352
 2051SOL    HW2 6498   0.357   4.245   1.192
 2052SOL     OW 6499   0.812   5.310   0.687
 2052SOL    HW1 6500   0.844   5.320   0.593
 2052SOL    HW2 6501   0.733   5.248   0.689
 2053SOL     OW 6502   1.424   3.938   1.112
 2053SOL    HW1 6503   1.476   3.873   1.167
 2053SOL    HW2 6504   1.375   4.001   1.173
 2054SOL     OW 6505   1.001   3.758   1.154
 2054SOL    HW1 6506   0.938   3.686   1.123
 2054SOL    HW2 6507   1.094   3.722   1.154
 2055SOL     OW 6508   0.770   5.054   0.301
 2055SOL    HW1 6509   0.724   4.967   0.318
 2055SOL    HW2 6510   0.861   5.051   0.342
 2056SOL     OW 6511   0.618   5.291   1.284
 2056SOL    HW1 6512   0.613   5.373   1.341
 2056SOL    HW2 6513   0.707   5.288   1.239
 2057SOL     OW 6514   1.352   3.776   0.168
 2057SOL    HW1 6515   1.387   3.735   0.084
 2057SOL    HW2 6516   1.262   3.738   0.188
 2058SOL     OW 6517   1.300   4.177   0.691
 2058SOL    HW1 6518   1.241   4.257   0.695
 2058SOL    HW2 6519   1.315   4.142   0.784
 2059SOL     OW 6520   1.593   3.945   0.882
 2059SOL    HW1 6521   1.509   3.944   0.936
 2059SOL    HW2 6522   1.595   4.028   0.826
 2060SOL     OW 6523   0.039   4.801   0.300
 2060SOL    HW1 6524   0.138   4.790   0.291
 2060SOL    HW2 6525  -0.001   4.715   0.332
 2061SOL     OW 6526   0.875   5.370   0.337
 2061SOL    HW1 6527   0.798   5.335   0.283
 2061SOL    HW2 6528   0.843   5.441   0.399
 2062SOL     OW 6529   0.230   4.352   1.975
 2062SOL    HW1 6530   0.137   4.350   2.012
 2062SOL    HW2 6531   0.231   4.313   1.883
 2063SOL     OW 6532   0.225   3.999   2.858
 2063SOL    HW1 6533   0.260   3.982   2.950
 2063SOL    HW2 6534   0.137   3.954   2.846
 2064SOL     OW 6535   0.019   4.092   2.509
 2064SOL    HW1 6536  -0.063   4.135   2.548
 2064SOL    HW2 6537  -0.009   4.019   2.446
 2065SOL     OW 6538   0.569   4.999   3.027
 2065SOL    HW1 6539   0.476   4.992   2.990
 2065SOL    HW2 6540   0.580   5.088   3.071
 2066SOL     OW 6541   1.555   5.235   2.565
 2066SOL    HW1 6542   1.498   5.219   2.646
 2066SOL    HW2 6543   1.496   5.245   2.485
 2067SOL     OW 6544   1.135   4.427   2.579
 2067SOL    HW1 6545   1.192   4.505   2.554
 2067SOL    HW2 6546   1.075   4.453   2.655
 2068SOL     OW 6547   1.755   4.331   2.093
 2068SOL    HW1 6548   1.743   4.318   1.994
 2068SOL    HW2 6549   1.725   4.250   2.142
 2069SOL     OW 6550   0.768   4.868   2.885
 2069SOL    HW1 6551   0.690   4.885   2.945
 2069SOL    HW2 6552   0.802   4.955   2.849
 2070SOL     OW 6553   0.850   4.522   3.685
 2070SOL    HW1 6554   0.846   4.598   3.750
 2070SOL    HW2 6555   0.872   4.558   3.594
 2071SOL     OW 6556   0.685   4.736   2.527
 2071SOL    HW1 6557   0.754   4.720   2.597
 2071SOL    HW2 6558   0.612   4.793   2.565
 2072SOL     OW 6559   0.686   4.885   3.665
 2072SOL    HW1 6560   0.746   4.964   3.679
 2072SOL    HW2 6561   0.600   4.916   3.624
 2073SOL     OW 6562   0.335   5.159   2.923
 2073SOL    HW1 6563   0.257   5.128   2.870
 2073SOL    HW2 6564   0.393   5.217   2.866
 2074SOL     OW 6565   1.460   5.229   3.201
 2074SOL    HW1 6566   1.484   5.323   3.227
 2074SOL    HW2 6567   1.444   5.175   3.283
 2075SOL     OW 6568   0.438   4.116   3.361
 2075SOL    HW1 6569   0.520   4.060   3.370
 2075SOL    HW2 6570   0.357   4.058   3.365
 2076SOL     OW 6571   1.603   4.171   2.599
 2076SOL    HW1 6572   1.529   4.217   2.549
 2076SOL    HW2 6573   1.654   4.239   2.652
 2077SOL     OW 6574   0.231   5.437   2.345
 2077SOL    HW1 6575   0.265   5.514   2.399
 2077SOL    HW2 6576   0.275   5.437   2.255
 2078SOL     OW 6577   1.127   5.065   3.552
 2078SOL    HW1 6578   1.174   5.065   3.640
 2078SOL    HW2 6579   1.079   4.978   3.541
 2079SOL     OW 6580   0.230   5.158   2.400
 2079SOL    HW1 6581   0.204   5.254   2.400
 2079SOL    HW2 6582   0.159   5.104   2.445
 2080SOL     OW 6583   0.240   4.815   2.748
 2080SOL    HW1 6584   0.254   4.731   2.800
 2080SOL    HW2 6585   0.185   4.879   2.803
 2081SOL     OW 6586   0.620   5.510   3.301
 2081SOL    HW1 6587   0.528   5.493   3.336
 2081SOL    HW2 6588   0.648   5.602   3.327
 2082SOL     OW 6589   0.606   4.688   1.985
 2082SOL    HW1 6590   0.613   4.772   1.931
 2082SOL    HW2 6591   0.652   4.701   2.073
 2083SOL     OW 6592   1.594   3.838   3.342
 2083SOL    HW1 6593   1.576   3.905   3.270
 2083SOL    HW2 6594   1.591   3.884   3.431
 2084SOL     OW 6595   0.122   4.367   2.425
 2084SOL    HW1 6596   0.077   4.279   2.442
 2084SOL    HW2 6597   0.121   4.421   2.509
 2085SOL     OW 6598   1.842   5.491   2.221
 2085SOL    HW1 6599   1.896   5.462   2.301
 2085SOL    HW2 6600   1.872   5.581   2.192
 2086SOL     OW 6601   0.027   5.320   1.979
 2086SOL    HW1 6602   0.008   5.224   2.000
 2086SOL    HW2 6603  -0.006   5.378   2.054
 2087SOL     OW 6604   1.689   4.646   2.474
 2087SOL    HW1 6605   1.784   4.617   2.482
 2087SOL    HW2 6606   1.681   4.711   2.399
 2088SOL     OW 6607   1.641   4.832   2.294
 2088SOL    HW1 6608   1.727   4.834   2.242
 2088SOL    HW2 6609   1.655   4.879   2.382
 2089SOL     OW 6610   0.113   4.461   3.459
 2089SOL    HW1 6611   0.201   4.448   3.504
 2089SOL    HW2 6612   0.100   4.558   3.437
 2090SOL     OW 6613   0.613   5.089   2.588
 2090SOL    HW1 6614   0.564   5.002   2.597
 2090SOL    HW2 6615   0.590   5.132   2.501
 2091SOL     OW 6616   1.293   4.952   3.285
 2091SOL    HW1 6617   1.330   4.879   3.227
 2091SOL    HW2 6618   1.345   4.957   3.370
 2092SOL     OW 6619   0.809   3.728   2.364
 2092SOL    HW1 6620   0.849   3.819   2.355
 2092SOL    HW2 6621   0.709   3.736   2.370
 2093SOL     OW 6622   0.197   4.700   3.126
 2093SOL    HW1 6623   0.286   4.655   3.112
 2093SOL    HW2 6624   0.124   4.635   3.107
 2094SOL     OW 6625   1.525   4.723   2.052
 2094SOL    HW1 6626   1.462   4.647   2.065
 2094SOL    HW2 6627   1.573   4.741   2.138
 2095SOL     OW 6628   1.187   5.516   3.478
 2095SOL    HW1 6629   1.211   5.576   3.402
 2095SOL    HW2 6630   1.194   5.421   3.448
 2096SOL     OW 6631   0.317   3.975   3.663
 2096SOL    HW1 6632   0.388   4.046   3.669
 2096SOL    HW2 6633   0.229   4.014   3.691
 2097SOL     OW 6634   1.466   5.141   2.815
 2097SOL    HW1 6635   1.407   5.147   2.895
 2097SOL    HW2 6636   1.451   5.053   2.769
 2098SOL     OW 6637   1.667   5.438   2.434
 2098SOL    HW1 6638   1.626   5.415   2.346
 2098SOL    HW2 6639   1.649   5.364   2.499
 2099SOL     OW 6640   0.598   4.453   2.132
 2099SOL    HW1 6641   0.622   4.522   2.064
 2099SOL    HW2 6642   0.520   4.486   2.186
 2100SOL     OW 6643   1.281   4.069   2.806
 2100SOL    HW1 6644   1.195   4.019   2.793
 2100SOL    HW2 6645   1.343   4.015   2.862
 2101SOL     OW 6646   1.576   5.386   2.169
 2101SOL    HW1 6647   1.665   5.432   2.172
 2101SOL    HW2 6648   1.555   5.362   2.074
 2102SOL     OW 6649   0.807   4.329   3.327
 2102SOL    HW1 6650   0.760   4.326   3.416
 2102SOL    HW2 6651   0.756   4.274   3.261
 2103SOL     OW 6652   1.394   4.193   3.536
 2103SOL    HW1 6653   1.374   4.236   3.624
 2103SOL    HW2 6654   1.472   4.131   3.545
 2104SOL     OW 6655   0.973   4.614   3.434
 2104SOL    HW1 6656   1.019   4.530   3.405
 2104SOL    HW2 6657   0.917   4.648   3.359
 2105SOL     OW 6658   0.991   4.134   3.104
 2105SOL    HW1 6659   0.914   4.168   3.158
 2105SOL    HW2 6660   0.957   4.083   3.025
 2106SOL     OW 6661   1.041   4.425   2.291
 2106SOL    HW1 6662   1.067   4.421   2.387
 2106SOL    HW2 6663   0.956   4.374   2.277
 2107SOL     OW 6664   0.076   4.535   2.651
 2107SOL    HW1 6665   0.175   4.523   2.660
 2107SOL    HW2 6666   0.052   4.630   2.672
 2108SOL     OW 6667   0.130   5.545   3.433
 2108SOL    HW1 6668   0.120   5.530   3.532
 2108SOL    HW2 6669   0.044   5.581   3.397
 2109SOL     OW 6670   0.865   4.072   2.057
 2109SOL    HW1 6671   0.924   4.135   2.008
 2109SOL    HW2 6672   0.884   3.978   2.028
 2110SOL     OW 6673   1.719   4.309   3.693
 2110SOL    HW1 6674   1.693   4.398   3.657
 2110SOL    HW2 6675   1.717   4.241   3.620
 2111SOL     OW 6676   1.362   4.868   2.407
 2111SOL    HW1 6677   1.445   4.839   2.359
 2111SOL    HW2 6678   1.313   4.935   2.351
 2112SOL     OW 6679   0.550   3.920   2.747
 2112SOL    HW1 6680   0.545   3.915   2.847
 2112SOL    HW2 6681   0.552   4.016   2.718
 2113SOL     OW 6682   1.008   5.180   2.339
 2113SOL    HW1 6683   0.962   5.252   2.287
 2113SOL    HW2 6684   1.004   5.200   2.437
 2114SOL     OW 6685   0.351   5.525   2.715
 2114SOL    HW1 6686   0.401   5.439   2.721
 2114SOL    HW2 6687   0.416   5.602   2.712
 2115SOL     OW 6688   1.795   4.790   2.735
 2115SOL    HW1 6689   1.733   4.775   2.659
 2115SOL    HW2 6690   1.743   4.801   2.820
 2116SOL     OW 6691   1.227   5.274   3.368
 2116SOL    HW1 6692   1.233   5.197   3.432
 2116SOL    HW2 6693   1.175   5.248   3.288
 2117SOL     OW 6694   0.321   4.667   2.104
 2117SOL    HW1 6695   0.403   4.706   2.062
 2117SOL    HW2 6696   0.294   4.585   2.055
 2118SOL     OW 6697   1.458   4.459   2.590
 2118SOL    HW1 6698   1.453   4.394   2.665
 2118SOL    HW2 6699   1.538   4.518   2.603
 2119SOL     OW 6700   0.461   4.990   3.589
 2119SOL    HW1 6701   0.411   4.991   3.503
 2119SOL    HW2 6702   0.398   4.972   3.665
 2120SOL     OW 6703   1.111   5.500   2.099
 2120SOL    HW1 6704   1.051   5.438   2.149
 2120SOL    HW2 6705   1.142   5.456   2.014
 2121SOL     OW 6706   0.202   4.009   3.360
 2121SOL    HW1 6707   0.122   4.069   3.347
 2121SOL    HW2 6708   0.192   3.960   3.446
 2122SOL     OW 6709   1.632   5.101   1.943
 2122SOL    HW1 6710   1.600   5.195   1.933
 2122SOL    HW2 6711   1.556   5.038   1.931
 2123SOL     OW 6712   0.464   5.467   2.185
 2123SOL    HW1 6713   0.497   5.506   2.271
 2123SOL    HW2 6714   0.540   5.460   2.120
 2124SOL     OW 6715   1.400   3.831   2.288
 2124SOL    HW1 6716   1.376   3.794   2.198
 2124SOL    HW2 6717   1.499   3.847   2.292
 2125SOL     OW 6718   0.249   5.509   3.103
 2125SOL    HW1 6719   0.306   5.444   3.153
 2125SOL    HW2 6720   0.233   5.476   3.010
 2126SOL     OW 6721   0.940   5.422   2.766
 2126SOL    HW1 6722   1.020   5.365   2.787
 2126SOL    HW2 6723   0.891   5.382   2.689
 2127SOL     OW 6724   0.382   4.424   2.342
 2127SOL    HW1 6725   0.427   4.334   2.339
 2127SOL    HW2 6726   0.288   4.413   2.375
 2128SOL     OW 6727   1.547   3.946   3.591
 2128SOL    HW1 6728   1.542   3.983   3.683
 2128SOL    HW2 6729   1.475   3.877   3.579
 2129SOL     OW 6730   0.614   3.846   1.979
 2129SOL    HW1 6731   0.712   3.824   1.986
 2129SOL    HW2 6732   0.583   3.829   1.886
 2130SOL     OW 6733   0.781   3.988   3.611
 2130SOL    HW1 6734   0.848   3.927   3.654
 2130SOL    HW2 6735   0.708   4.007   3.676
 2131SOL     OW 6736   0.888   5.238   3.057
 2131SOL    HW1 6737   0.865   5.213   2.963
 2131SOL    HW2 6738   0.949   5.169   3.096
 2132SOL     OW 6739   1.351   4.314   3.295
 2132SOL    HW1 6740   1.379   4.271   3.380
 2132SOL    HW2 6741   1.376   4.410   3.296
 2133SOL     OW 6742   0.803   5.126   2.786
 2133SOL    HW1 6743   0.893   5.140   2.744
 2133SOL    HW2 6744   0.732   5.128   2.715
 2134SOL     OW 6745   0.922   4.227   2.761
 2134SOL    HW1 6746   0.897   4.218   2.665
 2134SOL    HW2 6747   0.970   4.145   2.792
 2135SOL     OW 6748   0.539   3.788   2.374
 2135SOL    HW1 6749   0.458   3.789   2.432
 2135SOL    HW2 6750   0.542   3.871   2.319
 2136SOL     OW 6751   1.434   4.912   1.903
 2136SOL    HW1 6752   1.466   4.836   1.960
 2136SOL    HW2 6753   1.342   4.939   1.933
 2137SOL     OW 6754   0.297   3.759   2.033
 2137SOL    HW1 6755   0.346   3.843   2.012
 2137SOL    HW2 6756   0.359   3.694   2.078
 2138SOL     OW 6757   0.935   3.960   2.342
 2138SOL    HW1 6758   0.887   4.001   2.264
 2138SOL    HW2 6759   1.034   3.958   2.323
 2139SOL     OW 6760   1.076   4.407   3.326
 2139SOL    HW1 6761   0.996   4.346   3.329
 2139SOL    HW2 6762   1.157   4.354   3.302
 2140SOL     OW 6763   1.227   5.294   2.655
 2140SOL    HW1 6764   1.248   5.368   2.590
 2140SOL    HW2 6765   1.295   5.294   2.728
 2141SOL     OW 6766   0.459   4.876   2.603
 2141SOL    HW1 6767   0.388   4.849   2.668
 2141SOL    HW2 6768   0.433   4.848   2.510
 2142SOL     OW 6769   1.271   5.521   2.453
 2142SOL    HW1 6770   1.315   5.585   2.389
 2142SOL    HW2 6771   1.221   5.573   2.523
 2143SOL     OW 6772   1.032   4.273   1.878
 2143SOL    HW1 6773   0.991   4.355   1.839
 2143SOL    HW2 6774   1.096   4.299   1.951
 2144SOL     OW 6775   0.078   4.280   3.248
 2144SOL    HW1 6776   0.170   4.279   3.207
 2144SOL    HW2 6777   0.072   4.354   3.315
 2145SOL     OW 6778   0.561   3.946   3.009
 2145SOL    HW1 6779   0.599   3.862   3.046
 2145SOL    HW2 6780   0.473   3.965   3.053
 2146SOL     OW 6781   0.866   4.178   2.504
 2146SOL    HW1 6782   0.834   4.250   2.442
 2146SOL    HW2 6783   0.890   4.097   2.451
 2147SOL     OW 6784   1.017   3.763   2.615
 2147SOL    HW1 6785   0.945   3.768   2.546
 2147SOL    HW2 6786   0.993   3.694   2.684
 2148SOL     OW 6787   1.429   4.897   2.729
 2148SOL    HW1 6788   1.374   4.813   2.722
 2148SOL    HW2 6789   1.455   4.926   2.637
 2149SOL     OW 6790   1.466   4.314   2.854
 2149SOL    HW1 6791   1.436   4.219   2.861
 2149SOL    HW2 6792   1.539   4.330   2.920
 2150SOL     OW 6793   1.857   4.557   2.239
 2150SOL    HW1 6794   1.899   4.493   2.303
 2150SOL    HW2 6795   1.819   4.506   2.161
 2151SOL     OW 6796   0.488   5.109   2.036
 2151SOL    HW1 6797   0.401   5.094   2.083
 2151SOL    HW2 6798   0.471   5.135   1.941
 2152SOL     OW 6799   1.664   5.004   2.519
 2152SOL    HW1 6800   1.763   5.012   2.533
 2152SOL    HW2 6801   1.619   5.088   2.550
 2153SOL     OW 6802   1.390   4.299   1.940
 2153SOL    HW1 6803   1.336   4.278   2.021
 2153SOL    HW2 6804   1.481   4.258   1.949
 2154SOL     OW 6805   0.527   3.980   2.190
 2154SOL    HW1 6806   0.554   3.921   2.115
 2154SOL    HW2 6807   0.527   4.075   2.159
 2155SOL     OW 6808   1.754   4.947   3.450
 2155SOL    HW1 6809   1.845   4.908   3.437
 2155SOL    HW2 6810   1.762   5.043   3.474
 2156SOL     OW 6811   1.064   5.071   3.202
 2156SOL    HW1 6812   0.984   5.048   3.257
 2156SOL    HW2 6813   1.147   5.045   3.251
 2157SOL     OW 6814   1.592   5.353   3.487
 2157SOL    HW1 6815   1.619   5.387   3.397
 2157SOL    HW2 6816   1.671   5.315   3.533
 2158SOL     OW 6817   1.111   4.919   2.962
 2158SOL    HW1 6818   1.071   4.963   3.043
 2158SOL    HW2 6819   1.070   4.956   2.879
 2159SOL     OW 6820   1.638   4.823   2.941
 2159SOL    HW1 6821   1.643   4.904   3.000
 2159SOL    HW2 6822   1.552   4.825   2.890
 2160SOL     OW 6823   0.915   3.813   3.264
 2160SOL    HW1 6824   0.940   3.793   3.169
 2160SOL    HW2 6825   0.987   3.869   3.306
 2161SOL     OW 6826   0.980   4.840   3.581
 2161SOL    HW1 6827   0.881   4.846   3.591
 2161SOL    HW2 6828   1.003   4.760   3.525
 2162SOL     OW 6829   0.705   4.774   2.230
 2162SOL    HW1 6830   0.691   4.781   2.329
 2162SOL    HW2 6831   0.789   4.723   2.212
 2163SOL     OW 6832   0.410   4.537   3.113
 2163SOL    HW1 6833   0.496   4.549   3.163
 2163SOL    HW2 6834   0.368   4.450   3.140
 2164SOL     OW 6835   1.274   4.110   3.124
 2164SOL    HW1 6836   1.295   4.184   3.188
 2164SOL    HW2 6837   1.185   4.127   3.081
 2165SOL     OW 6838   0.064   5.288   3.193
 2165SOL    HW1 6839   0.018   5.370   3.159
 2165SOL    HW2 6840   0.162   5.307   3.202
 2166SOL     OW 6841   0.367   4.824   2.363
 2166SOL    HW1 6842   0.360   4.907   2.307
 2166SOL    HW2 6843   0.371   4.744   2.303
 2167SOL     OW 6844   0.566   4.261   2.727
 2167SOL    HW1 6845   0.578   4.327   2.653
 2167SOL    HW2 6846   0.612   4.295   2.810
 2168SOL     OW 6847   1.252   5.072   2.250
 2168SOL    HW1 6848   1.302   5.149   2.290
 2168SOL    HW2 6849   1.157   5.074   2.282
 2169SOL     OW 6850   1.272   5.169   3.004
 2169SOL    HW1 6851   1.319   5.182   3.091
 2169SOL    HW2 6852   1.206   5.095   3.013
 2170SOL     OW 6853   1.582   4.363   2.334
 2170SOL    HW1 6854   1.551   4.424   2.407
 2170SOL    HW2 6855   1.632   4.415   2.265
 2171SOL     OW 6856   0.354   5.234   3.191
 2171SOL    HW1 6857   0.333   5.190   3.104
 2171SOL    HW2 6858   0.451   5.260   3.194
 2172SOL     OW 6859   0.402   4.475   3.460
 2172SOL    HW1 6860   0.470   4.530   3.413
 2172SOL    HW2 6861   0.442   4.387   3.487
 2173SOL     OW 6862   1.587   4.503   3.532
 2173SOL    HW1 6863   1.495   4.541   3.527
 2173SOL    HW2 6864   1.647   4.550   3.467
 2174SOL     OW 6865   1.013   3.829   3.632
 2174SOL    HW1 6866   1.019   3.914   3.580
 2174SOL    HW2 6867   1.045   3.753   3.575
 2175SOL     OW 6868   0.504   3.774   3.602
 2175SOL    HW1 6869   0.462   3.717   3.532
 2175SOL    HW2 6870   0.438   3.843   3.634
 2176SOL     OW 6871   0.573   4.594   2.891
 2176SOL    HW1 6872   0.617   4.683   2.882
 2176SOL    HW2 6873   0.510   4.594   2.968
 2177SOL     OW 6874   1.360   4.586   2.907
 2177SOL    HW1 6875   1.285   4.586   2.841
 2177SOL    HW2 6876   1.397   4.494   2.916
 2178SOL     OW 6877   1.209   4.249   2.137
 2178SOL    HW1 6878   1.222   4.165   2.191
 2178SOL    HW2 6879   1.180   4.323   2.197
 2179SOL     OW 6880   0.307   3.937   3.093
 2179SOL    HW1 6881   0.284   3.974   3.183
 2179SOL    HW2 6882   0.277   3.842   3.087
 2180SOL     OW 6883   0.037   5.034   3.144
 2180SOL    HW1 6884   0.090   4.985   3.212
 2180SOL    HW2 6885   0.059   5.132   3.149
 2181SOL     OW 6886   0.732   4.358   2.926
 2181SOL    HW1 6887   0.791   4.332   2.850
 2181SOL    HW2 6888   0.704   4.454   2.915
 2182SOL     OW 6889   1.728   4.659   3.716
 2182SOL    HW1 6890   1.682   4.652   3.627
 2182SOL    HW2 6891   1.666   4.703   3.782
 2183SOL     OW 6892   0.307   3.787   2.480
 2183SOL    HW1 6893   0.296   3.881   2.513
 2183SOL    HW2 6894   0.302   3.724   2.557
 2184SOL     OW 6895   1.622   4.091   2.236
 2184SOL    HW1 6896   1.624   4.015   2.300
 2184SOL    HW2 6897   1.574   4.168   2.276
 2185SOL     OW 6898   1.023   4.490   2.828
 2185SOL    HW1 6899   1.038   4.511   2.924
 2185SOL    HW2 6900   0.993   4.395   2.819
 2186SOL     OW 6901   0.980   5.297   3.562
 2186SOL    HW1 6902   0.960   5.341   3.474
 2186SOL    HW2 6903   1.019   5.206   3.546
 2187SOL     OW 6904   1.859   5.242   3.467
 2187SOL    HW1 6905   1.873   5.269   3.372
 2187SOL    HW2 6906   1.942   5.264   3.520
 2188SOL     OW 6907   0.350   4.622   3.666
 2188SOL    HW1 6908   0.426   4.666   3.714
 2188SOL    HW2 6909   0.385   4.575   3.584
 2189SOL     OW 6910   1.540   3.998   1.987
 2189SOL    HW1 6911   1.479   3.923   2.010
 2189SOL    HW2 6912   1.562   4.050   2.070
 2190SOL     OW 6913   1.303   4.562   1.904
 2190SOL    HW1 6914   1.337   4.469   1.919
 2190SOL    HW2 6915   1.321   4.589   1.809
 2191SOL     OW 6916   1.068   5.057   2.711
 2191SOL    HW1 6917   1.075   4.973   2.656
 2191SOL    HW2 6918   1.130   5.126   2.675
 2192SOL     OW 6919   0.319   4.534   2.811
 2192SOL    HW1 6920   0.412   4.570   2.816
 2192SOL    HW2 6921   0.313   4.449   2.863
 2193SOL     OW 6922   0.339   4.233   2.868
 2193SOL    HW1 6923   0.287   4.150   2.851
 2193SOL    HW2 6924   0.416   4.238   2.804
 2194SOL     OW 6925   1.138   4.104   3.540
 2194SOL    HW1 6926   1.093   4.167   3.604
 2194SOL    HW2 6927   1.231   4.135   3.523
 2195SOL     OW 6928   1.160   3.931   3.339
 2195SOL    HW1 6929   1.160   3.995   3.416
 2195SOL    HW2 6930   1.188   3.979   3.256
 2196SOL     OW 6931   0.008   5.050   2.062
 2196SOL    HW1 6932  -0.085   5.071   2.031
 2196SOL    HW2 6933   0.018   4.951   2.075
 2197SOL     OW 6934   0.088   5.525   2.789
 2197SOL    HW1 6935   0.046   5.439   2.762
 2197SOL    HW2 6936   0.182   5.528   2.755
 2198SOL     OW 6937   0.504   5.292   2.772
 2198SOL    HW1 6938   0.570   5.366   2.781
 2198SOL    HW2 6939   0.548   5.213   2.730
 2199SOL     OW 6940   1.002   4.520   3.100
 2199SOL    HW1 6941   1.043   4.488   3.186
 2199SOL    HW2 6942   0.906   4.493   3.097
 2200SOL     OW 6943   0.040   4.268   2.976
 2200SOL    HW1 6944   0.125   4.235   2.935
 2200SOL    HW2 6945   0.053   4.283   3.074
 2201SOL     OW 6946   0.189   4.244   3.584
 2201SOL    HW1 6947   0.248   4.204   3.514
 2201SOL    HW2 6948   0.131   4.315   3.543
 2202SOL     OW 6949   1.369   4.674   3.522
 2202SOL    HW1 6950   1.408   4.763   3.542
 2202SOL    HW2 6951   1.379   4.654   3.425
 2203SOL     OW 6952   0.815   4.296   2.187
 2203SOL    HW1 6953   0.822   4.207   2.141
 2203SOL    HW2 6954   0.721   4.330   2.179
 2204SOL     OW 6955   1.657   4.328   3.068
 2204SOL    HW1 6956   1.619   4.259   3.130
 2204SOL    HW2 6957   1.739   4.292   3.024
 2205SOL     OW 6958   0.252   5.288   3.606
 2205SOL    HW1 6959   0.222   5.345   3.682
 2205SOL    HW2 6960   0.245   5.191   3.632
 2206SOL     OW 6961   0.671   4.188   3.131
 2206SOL    HW1 6962   0.637   4.099   3.101
 2206SOL    HW2 6963   0.697   4.242   3.051
 2207SOL     OW 6964   0.930   5.402   3.327
 2207SOL    HW1 6965   0.906   5.384   3.232
 2207SOL    HW2 6966   0.960   5.496   3.337
 2208SOL     OW 6967   0.473   4.224   2.053
 2208SOL    HW1 6968   0.534   4.304   2.057
 2208SOL    HW2 6969   0.378   4.255   2.060
 2209SOL     OW 6970   0.159   4.861   3.328
 2209SOL    HW1 6971   0.181   4.800   3.404
 2209SOL    HW2 6972   0.169   4.812   3.242
 2210SOL     OW 6973   1.347   4.783   3.096
 2210SOL    HW1 6974   1.371   4.720   3.022
 2210SOL    HW2 6975   1.257   4.823   3.078
 2211SOL     OW 6976   1.302   4.579   2.171
 2211SOL    HW1 6977   1.216   4.548   2.213
 2211SOL    HW2 6978   1.298   4.565   2.072
 2212SOL     OW 6979   1.759   5.471   3.016
 2212SOL    HW1 6980   1.820   5.501   2.943
 2212SOL    HW2 6981   1.721   5.382   2.994
 2213SOL     OW 6982   1.252   5.455   2.990
 2213SOL    HW1 6983   1.336   5.460   2.936
 2213SOL    HW2 6984   1.229   5.359   3.008
 2214SOL     OW 6985   0.083   4.982   2.884
 2214SOL    HW1 6986   0.078   4.981   2.984
 2214SOL    HW2 6987   0.000   4.941   2.846
 2215SOL     OW 6988   0.688   5.386   3.578
 2215SOL    HW1 6989   0.632   5.467   3.587
 2215SOL    HW2 6990   0.740   5.390   3.492
 2216SOL     OW 6991   1.726   3.859   2.385
 2216SOL    HW1 6992   1.799   3.842   2.318
 2216SOL    HW2 6993   1.695   3.772   2.423
 2217SOL     OW 6994   1.388   5.297   2.339
 2217SOL    HW1 6995   1.455   5.309   2.265
 2217SOL    HW2 6996   1.348   5.386   2.362
 2218SOL     OW 6997   0.130   5.518   3.713
 2218SOL    HW1 6998   0.089   5.444   3.766
 2218SOL    HW2 6999   0.194   5.569   3.771
 2219SOL     OW 7000   1.280   4.651   2.534
 2219SOL    HW1 7001   1.340   4.570   2.536
 2219SOL    HW2 7002   1.320   4.720   2.474
 2220SOL     OW 7003   0.830   4.997   3.284
 2220SOL    HW1 7004   0.825   5.030   3.379
 2220SOL    HW2 7005   0.744   5.016   3.238
 2221SOL     OW 7006   0.672   5.340   2.016
 2221SOL    HW1 7007   0.681   5.350   1.917
 2221SOL    HW2 7008   0.632   5.251   2.037
 2222SOL     OW 7009   1.650   5.444   3.256
 2222SOL    HW1 7010   1.703   5.454   3.172
 2222SOL    HW2 7011   1.623   5.534   3.290
 2223SOL     OW 7012   1.841   3.899   2.825
 2223SOL    HW1 7013   1.880   3.814   2.789
 2223SOL    HW2 7014   1.743   3.901   2.806
 2224SOL     OW 7015   0.263   4.050   2.582
 2224SOL    HW1 7016   0.184   4.101   2.548
 2224SOL    HW2 7017   0.254   4.035   2.680
 2225SOL     OW 7018   1.194   5.336   1.893
 2225SOL    HW1 7019   1.200   5.243   1.930
 2225SOL    HW2 7020   1.135   5.336   1.813
 2226SOL     OW 7021   0.822   4.726   3.234
 2226SOL    HW1 7022   0.862   4.725   3.142
 2226SOL    HW2 7023   0.832   4.818   3.274
 2227SOL     OW 7024   0.916   4.634   2.153
 2227SOL    HW1 7025   0.979   4.672   2.085
 2227SOL    HW2 7026   0.956   4.551   2.192
 2228SOL     OW 7027   1.504   5.331   1.906
 2228SOL    HW1 7028   1.412   5.368   1.913
 2228SOL    HW2 7029   1.542   5.351   1.816
 2229SOL     OW 7030   0.372   5.012   3.352
 2229SOL    HW1 7031   0.359   5.105   3.318
 2229SOL    HW2 7032   0.288   4.960   3.339
 2230SOL     OW 7033   1.614   5.016   3.151
 2230SOL    HW1 7034   1.674   5.019   3.231
 2230SOL    HW2 7035   1.539   5.080   3.164
 2231SOL     OW 7036   1.039   4.822   2.558
 2231SOL    HW1 7037   0.969   4.775   2.612
 2231SOL    HW2 7038   1.098   4.754   2.515
 2232SOL     OW 7039   1.014   3.960   2.833
 2232SOL    HW1 7040   1.006   3.924   2.740
 2232SOL    HW2 7041   1.012   3.884   2.898
 2233SOL     OW 7042   0.590   5.211   2.353
 2233SOL    HW1 7043   0.632   5.153   2.283
 2233SOL    HW2 7044   0.546   5.290   2.309
 2234SOL     OW 7045   1.709   4.109   3.243
 2234SOL    HW1 7046   1.782   4.178   3.247
 2234SOL    HW2 7047   1.737   4.034   3.184
 2235SOL     OW 7048   0.255   5.072   2.152
 2235SOL    HW1 7049   0.159   5.073   2.125
 2235SOL    HW2 7050   0.267   5.125   2.236
 2236SOL     OW 7051   0.105   4.737   3.588
 2236SOL    HW1 7052   0.028   4.704   3.642
 2236SOL    HW2 7053   0.190   4.707   3.630
 2237SOL     OW 7054   0.672   3.927   3.351
 2237SOL    HW1 7055   0.762   3.911   3.311
 2237SOL    HW2 7056   0.680   3.932   3.450
 2238SOL     OW 7057   0.075   4.069   1.895
 2238SOL    HW1 7058  -0.017   4.041   1.866
 2238SOL    HW2 7059   0.106   4.146   1.839
 2239SOL     OW 7060   1.440   4.580   3.260
 2239SOL    HW1 7061   1.383   4.632   3.197
 2239SOL    HW2 7062   1.536   4.592   3.236
 2240SOL     OW 7063   0.072   3.890   2.180
 2240SOL    HW1 7064   0.055   3.973   2.126
 2240SOL    HW2 7065   0.162   3.853   2.158
 2241SOL     OW 7066   1.183   5.059   1.981
 2241SOL    HW1 7067   1.084   5.048   1.983
 2241SOL    HW2 7068   1.217   5.074   2.074
 2242SOL     OW 7069   0.613   4.566   3.293
 2242SOL    HW1 7070   0.669   4.647   3.276
 2242SOL    HW2 7071   0.672   4.486   3.296
 2243SOL     OW 7072   1.493   5.491   2.821
 2243SOL    HW1 7073   1.526   5.555   2.752
 2243SOL    HW2 7074   1.559   5.485   2.896
 2244SOL     OW 7075   0.716   4.289   3.570
 2244SOL    HW1 7076   0.735   4.354   3.644
 2244SOL    HW2 7077   0.776   4.209   3.579
 2245SOL     OW 7078   1.450   4.944   3.495
 2245SOL    HW1 7079   1.441   4.934   3.594
 2245SOL    HW2 7080   1.546   4.937   3.469
 2246SOL     OW 7081   0.390   5.465   3.422
 2246SOL    HW1 7082   0.299   5.506   3.420
 2246SOL    HW2 7083   0.383   5.371   3.454
 2247SOL     OW 7084   1.674   4.607   3.116
 2247SOL    HW1 7085   1.647   4.518   3.079
 2247SOL    HW2 7086   1.675   4.675   3.043
 2248SOL     OW 7087   1.225   4.049   2.311
 2248SOL    HW1 7088   1.290   3.975   2.300
 2248SOL    HW2 7089   1.245   4.099   2.395
 2249SOL     OW 7090   0.594   4.469   2.514
 2249SOL    HW1 7091   0.644   4.554   2.495
 2249SOL    HW2 7092   0.506   4.471   2.466
 2250SOL     OW 7093   1.777   4.066   3.504
 2250SOL    HW1 7094   1.760   4.097   3.410
 2250SOL    HW2 7095   1.693   4.029   3.542
 2251SOL     OW 7096   1.730   4.658   3.379
 2251SOL    HW1 7097   1.768   4.749   3.394
 2251SOL    HW2 7098   1.722   4.641   3.280
 2252SOL     OW 7099   0.859   5.098   1.878
 2252SOL    HW1 7100   0.813   5.113   1.966
 2252SOL    HW2 7101   0.903   5.183   1.848
 2253SOL     OW 7102   0.661   5.514   2.815
 2253SOL    HW1 7103   0.615   5.602   2.802
 2253SOL    HW2 7104   0.760   5.526   2.808
 2254SOL     OW 7105   0.859   4.680   2.723
 2254SOL    HW1 7106   0.913   4.611   2.771
 2254SOL    HW2 7107   0.827   4.749   2.789
 2255SOL     OW 7108   1.083   4.708   1.949
 2255SOL    HW1 7109   1.060   4.761   1.867
 2255SOL    HW2 7110   1.164   4.652   1.930
 2256SOL     OW 7111   1.861   5.293   2.713
 2256SOL    HW1 7112   1.790   5.281   2.643
 2256SOL    HW2 7113   1.862   5.214   2.773
 2257SOL     OW 7114   0.221   5.038   3.706
 2257SOL    HW1 7115   0.156   4.965   3.685
 2257SOL    HW2 7116   0.225   5.052   3.804
 2258SOL     OW 7117   0.079   4.964   2.515
 2258SOL    HW1 7118   0.078   4.917   2.603
 2258SOL    HW2 7119   0.161   4.936   2.464
 2259SOL     OW 7120   0.672   5.115   3.486
 2259SOL    HW1 7121   0.594   5.065   3.524
 2259SOL    HW2 7122   0.669   5.210   3.517
 2260SOL     OW 7123   1.824   3.916   3.089
 2260SOL    HW1 7124   1.820   3.826   3.133
 2260SOL    HW2 7125   1.827   3.905   2.990
 2261SOL     OW 7126   0.428   4.148   2.382
 2261SOL    HW1 7127   0.458   4.076   2.320
 2261SOL    HW2 7128   0.389   4.108   2.465
 2262SOL     OW 7129   1.705   5.211   2.966
 2262SOL    HW1 7130   1.612   5.186   2.939
 2262SOL    HW2 7131   1.731   5.161   3.048
 2263SOL     OW 7132   0.317   4.271   3.142
 2263SOL    HW1 7133   0.355   4.212   3.214
 2263SOL    HW2 7134   0.357   4.245   3.054
 2264SOL     OW 7135   0.812   5.310   2.549
 2264SOL    HW1 7136   0.844   5.320   2.455
 2264SOL    HW2 7137   0.733   5.248   2.551
 2265SOL     OW 7138   1.424   3.938   2.974
 2265SOL    HW1 7139   1.476   3.873   3.029
 2265SOL    HW2 7140   1.375   4.001   3.035
 2266SOL     OW 7141   1.001   3.758   3.016
 2266SOL    HW1 7142   0.938   3.686   2.985
 2266SOL    HW2 7143   1.094   3.722   3.016
 2267SOL     OW 7144   0.770   5.054   2.163
 2267SOL    HW1 7145   0.724   4.967   2.180
 2267SOL    HW2 7146   0.861   5.051   2.204
 2268SOL     OW 7147   0.618   5.291   3.146
 2268SOL    HW1 7148   0.613   5.373   3.203
 2268SOL    HW2 7149   0.707   5.288   3.101
 2269SOL     OW 7150   1.352   3.776   2.030
 2269SOL    HW1 7151   1.387   3.735   1.946
 2269SOL    HW2 7152   1.262   3.738   2.050
 2270SOL     OW 7153   1.300   4.177   2.553
 2270SOL    HW1 7154   1.241   4.257   2.557
 2270SOL    HW2 7155   1.315   4.142   2.646
 2271SOL     OW 7156   1.593   3.945   2.744
 2271SOL    HW1 7157   1.509   3.944   2.798
 2271SOL    HW2 7158   1.595   4.028   2.688
 2272SOL     OW 7159   0.039   4.801   2.162
 2272SOL    HW1 7160   0.138   4.790   2.153
 2272SOL    HW2 7161  -0.001   4.715   2.194
 2273SOL     OW 7162   0.875   5.370   2.199
 2273SOL    HW1 7163   0.798   5.335   2.145
 2273SOL    HW2 7164   0.843   5.441   2.261
 2274SOL     OW 7165   0.230   4.352   3.837
 2274SOL    HW1 7166   0.137   4.350   3.874
 2274SOL    HW2 7167   0.231   4.313   3.745
 2275SOL     OW 7168   0.225   3.999   4.720
 2275SOL    HW1 7169   0.260   3.982   4.812
 2275SOL    HW2 7170   0.137   3.954   4.708
 2276SOL     OW 7171   0.019   4.092   4.371
 2276SOL    HW1 7172  -0.063   4.135   4.410
 2276SOL    HW2 7173  -0.009   4.019   4.308
 2277SOL     OW 7174   0.569   4.999   4.889
 2277SOL    HW1 7175   0.476   4.992   4.852
 2277SOL    HW2 7176   0.580   5.088   4.933
 2278SOL     OW 7177   1.555   5.235   4.427
 2278SOL    HW1 7178   1.498   5.219   4.508
 2278SOL    HW2 7179   1.496   5.245   4.347
 2279SOL     OW 7180   1.135   4.427   4.441
 2279SOL    HW1 7181   1.192   4.505   4.416
 2279SOL    HW2 7182   1.075   4.453   4.517
 2280SOL     OW 7183   1.755   4.331   3.955
 2280SOL    HW1 7184   1.743   4.318   3.856
 2280SOL    HW2 7185   1.725   4.250   4.004
 2281SOL     OW 7186   0.768   4.868   4.747
 2281SOL    HW1 7187   0.690   4.885   4.807
 2281SOL    HW2 7188   0.802   4.955   4.711
 2282SOL     OW 7189   0.850   4.522   5.547
 2282SOL    HW1 7190   0.846   4.598   5.612
 2282SOL    HW2 7191   0.872   4.558   5.456
 2283SOL     OW 7192   0.685   4.736   4.389
 2283SOL    HW1 7193   0.754   4.720   4.459
 2283SOL    HW2 7194   0.612   4.793   4.427
 2284SOL     OW 7195   0.686   4.885   5.527
 2284SOL    HW1 7196   0.746   4.964   5.541
 2284SOL    HW2 7197   0.600   4.916   5.486
 2285SOL     OW 7198   0.335   5.159   4.785
 2285SOL    HW1 7199   0.257   5.128   4.732
 2285SOL    HW2 7200   0.393   5.217   4.728
 2286SOL     OW 7201   1.460   5.229   5.063
 2286SOL    HW1 7202   1.484   5.323   5.089
 2286SOL    HW2 7203   1.444   5.175   5.145
 2287SOL     OW 7204   0.438   4.116   5.223
 2287SOL    HW1 7205   0.520   4.060   5.232
 2287SOL    HW2 7206   0.357   4.058   5.227
 2288SOL     OW 7207   1.603   4.171   4.461
 2288SOL    HW1 7208   1.529   4.217   4.411
 2288SOL    HW2 7209   1.654   4.239   4.514
 2289SOL     OW 7210   0.231   5.437   4.207
 2289SOL    HW1 7211   0.265   5.514   4.261
 2289SOL    HW2 7212   0.275   5.437   4.117
 2290SOL     OW 7213   1.127   5.065   5.414
 2290SOL    HW1 7214   1.174   5.065   5.502
 2290SOL    HW2 7215   1.079   4.978   5.403
 2291SOL     OW 7216   0.230   5.158   4.262
 2291SOL    HW1 7217   0.204   5.254   4.262
 2291SOL    HW2 7218   0.159   5.104   4.307
 2292SOL     OW 7219   0.240   4.815   4.610
 2292SOL    HW1 7220   0.254   4.731   4.662
 2292SOL    HW2 7221   0.185   4.879   4.665
 2293SOL     OW 7222   0.620   5.510   5.163
 2293SOL    HW1 7223   0.528   5.493   5.198
 2293SOL    HW2 7224   0.648   5.602   5.189
 2294SOL     OW 7225   0.606   4.688   3.847
 2294SOL    HW1 7226   0.613   4.772   3.793
 2294SOL    HW2 7227   0.652   4.701   3.935
 2295SOL     OW 7228   1.594   3.838   5.204
 2295SOL    HW1 7229   1.576   3.905   5.132
 2295SOL    HW2 7230   1.591   3.884   5.293
 2296SOL     OW 7231   0.122   4.367   4.287
 2296SOL    HW1 7232   0.077   4.279   4.304
 2296SOL    HW2 7233   0.121   4.421   4.371
 2297SOL     OW 7234   1.842   5.491   4.083
 2297SOL    HW1 7235   1.896   5.462   4.163
 2297SOL    HW2 7236   1.872   5.581   4.054
 2298SOL     OW 7237   0.027   5.320   3.841
 2298SOL    HW1 7238   0.008   5.224   3.862
 2298SOL    HW2 7239  -0.006   5.378   3.916
 2299SOL     OW 7240   1.689   4.646   4.336
 2299SOL    HW1 7241   1.784   4.617   4.344
 2299SOL    HW2 7242   1.681   4.711   4.261
 2300SOL     OW 7243   1.641   4.832   4.156
 2300SOL    HW1 7244   1.727   4.834   4.104
 2300SOL    HW2 7245   1.655   4.879   4.244
 2301SOL     OW 7246   0.113   4.461   5.321
 2301SOL    HW1 7247   0.201   4.448   5.366
 2301SOL    HW2 7248   0.100   4.558   5.299
 2302SOL     OW 7249   0.613   5.089   4.450
 2302SOL    HW1 7250   0.564   5.002   4.459
 2302SOL    HW2 7251   0.590   5.132   4.363
 2303SOL     OW 7252   1.293   4.952   5.147
 2303SOL    HW1 7253   1.330   4.879   5.089
 2303SOL    HW2 7254   1.345   4.957   5.232
 2304SOL     OW 7255   0.809   3.728   4.226
 2304SOL    HW1 7256   0.849   3.819   4.217
 2304SOL    HW2 7257   0.709   3.736   4.232
 2305SOL     OW 7258   0.197   4.700   4.988
 2305SOL    HW1 7259   0.286   4.655   4.974
 2305SOL    HW2 7260   0.124   4.635   4.969
 2306SOL     OW 7261   1.525   4.723   3.914
 2306SOL    HW1 7262   1.462   4.647   3.927
 2306SOL    HW2 7263   1.573   4.741   4.000
 2307SOL     OW 7264   1.187   5.516   5.340
 2307SOL    HW1 7265   1.211   5.576   5.264
 2307SOL    HW2 7266   1.194   5.421   5.310
 2308SOL     OW 7267   0.317   3.975   5.525
 2308SOL    HW1 7268   0.388   4.046   5.531
 2308SOL    HW2 7269   0.229   4.014   5.553
 2309SOL     OW 7270   1.466   5.141   4.677
 2309SOL    HW1 7271   1.407   5.147   4.757
 2309SOL    HW2 7272   1.451   5.053   4.631
 2310SOL     OW 7273   1.667   5.438   4.296
 2310SOL    HW1 7274   1.626   5.415   4.208
 2310SOL    HW2 7275   1.649   5.364   4.361
 2311SOL     OW 7276   0.598   4.453   3.994
 2311SOL    HW1 7277   0.622   4.522   3.926
 2311SOL    HW2 7278   0.520   4.486   4.048
 2312SOL     OW 7279   1.281   4.069   4.668
 2312SOL    HW1 7280   1.195   4.019   4.655
 2312SOL    HW2 7281   1.343   4.015   4.724
 2313SOL     OW 7282   1.576   5.386   4.031
 2313SOL    HW1 7283   1.665   5.432   4.034
 2313SOL    HW2 7284   1.555   5.362   3.936
 2314SOL     OW 7285   0.807   4.329   5.189
 2314SOL    HW1 7286   0.760   4.326   5.278
 2314SOL    HW2 7287   0.756   4.274   5.123
 2315SOL     OW 7288   1.394   4.193   5.398
 2315SOL    HW1 7289   1.374   4.236   5.486
 2315SOL    HW2 7290   1.472   4.131   5.407
 2316SOL     OW 7291   0.973   4.614   5.296
 2316SOL    HW1 7292   1.019   4.530   5.267
 2316SOL    HW2 7293   0.917   4.648   5.221
 2317SOL     OW 7294   0.991   4.134   4.966
 2317SOL    HW1 7295   0.914   4.168   5.020
 2317SOL    HW2 7296   0.957   4.083   4.887
 2318SOL     OW 7297   1.041   4.425   4.153
 2318SOL    HW1 7298   1.067   4.421   4.249
 2318SOL    HW2 7299   0.956   4.374   4.139
 2319SOL     OW 7300   0.076   4.535   4.513
 2319SOL    HW1 7301   0.175   4.523   4.522
 2319SOL    HW2 7302   0.052   4.630   4.534
 2320SOL     OW 7303   0.130   5.545   5.295
 2320SOL    HW1 7304   0.120   5.530   5.394
 2320SOL    HW2 7305   0.044   5.581   5.259
 2321SOL     OW 7306   0.865   4.072   3.919
 2321SOL    HW1 7307   0.924   4.135   3.870
 2321SOL    HW2 7308   0.884   3.978   3.890
 2322SOL     OW 7309   1.719   4.309   5.555
 2322SOL    HW1 7310   1.693   4.398   5.519
 2322SOL    HW2 7311   1.717   4.241   5.482
 2323SOL     OW 7312   1.362   4.868   4.269
 2323SOL    HW1 7313   1.445   4.839   4.221
 2323SOL    HW2 7314   1.313   4.935   4.213
 2324SOL     OW 7315   0.550   3.920   4.609
 2324SOL    HW1 7316   0.545   3.915   4.709
 2324SOL    HW2 7317   0.552   4.016   4.580
 2325SOL     OW 7318   1.008   5.180   4.201
 2325SOL    HW1 7319   0.962   5.252   4.149
 2325SOL    HW2 7320   1.004   5.200   4.299
 2326SOL     OW 7321   0.351   5.525   4.577
 2326SOL    HW1 7322   0.401   5.439   4.583
 2326SOL    HW2 7323   0.416   5.602   4.574
 2327SOL     OW 7324   1.795   4.790   4.597
 2327SOL    HW1 7325   1.733   4.775   4.521
 2327SOL    HW2 7326   1.743   4.801   4.682
 2328SOL     OW 7327   1.227   5.274   5.230
 2328SOL    HW1 7328   1.233   5.197   5.294
 2328SOL    HW2 7329   1.175   5.248   5.150
 2329SOL     OW 7330   0.321   4.667   3.966
 2329SOL    HW1 7331   0.403   4.706   3.924
 2329SOL    HW2 7332   0.294   4.585   3.917
 2330SOL     OW 7333   1.458   4.459   4.452
 2330SOL    HW1 7334   1.453   4.394   4.527
 2330SOL    HW2 7335   1.538   4.518   4.465
 2331SOL     OW 7336   0.461   4.990   5.451
 2331SOL    HW1 7337   0.411   4.991   5.365
 2331SOL    HW2 7338   0.398   4.972   5.527
 2332SOL     OW 7339   1.111   5.500   3.961
 2332SOL    HW1 7340   1.051   5.438   4.011
 2332SOL    HW2 7341   1.142   5.456   3.876
 2333SOL     OW 7342   0.202   4.009   5.222
 2333SOL    HW1 7343   0.122   4.069   5.209
 2333SOL    HW2 7344   0.192   3.960   5.308
 2334SOL     OW 7345   1.632   5.101   3.805
 2334SOL    HW1 7346   1.600   5.195   3.795
 2334SOL    HW2 7347   1.556   5.038   3.793
 2335SOL     OW 7348   0.464   5.467   4.047
 2335SOL    HW1 7349   0.497   5.506   4.133
 2335SOL    HW2 7350   0.540   5.460   3.982
 2336SOL     OW 7351   1.400   3.831   4.150
 2336SOL    HW1 7352   1.376   3.794   4.060
 2336SOL    HW2 7353   1.499   3.847   4.154
 2337SOL     OW 7354   0.249   5.509   4.965
 2337SOL    HW1 7355   0.306   5.444   5.015
 2337SOL    HW2 7356   0.233   5.476   4.872
 2338SOL     OW 7357   0.940   5.422   4.628
 2338SOL    HW1 7358   1.020   5.365   4.649
 2338SOL    HW2 7359   0.891   5.382   4.551
 2339SOL     OW 7360   0.382   4.424   4.204
 2339SOL    HW1 7361   0.427   4.334   4.201
 2339SOL    HW2 7362   0.288   4.413   4.237
 2340SOL     OW 7363   1.547   3.946   5.453
 2340SOL    HW1 7364   1.542   3.983   5.545
 2340SOL    HW2 7365   1.475   3.877   5.441
 2341SOL     OW 7366   0.614   3.846   3.841
 2341SOL    HW1 7367   0.712   3.824   3.848
 2341SOL    HW2 7368   0.583   3.829   3.748
 2342SOL     OW 7369   0.781   3.988   5.473
 2342SOL    HW1 7370   0.848   3.927   5.516
 2342SOL    HW2 7371   0.708   4.007   5.538
 2343SOL     OW 7372   0.888   5.238   4.919
 2343SOL    HW1 7373   0.865   5.213   4.825
 2343SOL    HW2 7374   0.949   5.169   4.958
 2344SOL     OW 7375   1.351   4.314   5.157
 2344SOL    HW1 7376   1.379   4.271   5.242
 2344SOL    HW2 7377   1.376   4.410   5.158
 2345SOL     OW 7378   0.803   5.126   4.648
 2345SOL    HW1 7379   0.893   5.140   4.606
 2345SOL    HW2 7380   0.732   5.128   4.577
 2346SOL     OW 7381   0.922   4.227   4.623
 2346SOL    HW1 7382   0.897   4.218   4.527
 2346SOL    HW2 7383   0.970   4.145   4.654
 2347SOL     OW 7384   0.539   3.788   4.236
 2347SOL    HW1 7385   0.458   3.789   4.294
 2347SOL    HW2 7386   0.542   3.871   4.181
 2348SOL     OW 7387   1.434   4.912   3.765
 2348SOL    HW1 7388   1.466   4.836   3.822
 2348SOL    HW2 7389   1.342   4.939   3.795
 2349SOL     OW 7390   0.297   3.759   3.895
 2349SOL    HW1 7391   0.346   3.843   3.874
 2349SOL    HW2 7392   0.359   3.694   3.940
 2350SOL     OW 7393   0.935   3.960   4.204
 2350SOL    HW1 7394   0.887   4.001   4.126
 2350SOL    HW2 7395   1.034   3.958   4.185
 2351SOL     OW 7396   1.076   4.407   5.188
 2351SOL    HW1 7397   0.996   4.346   5.191
 2351SOL    HW2 7398   1.157   4.354   5.164
 2352SOL     OW 7399   1.227   5.294   4.517
 2352SOL    HW1 7400   1.248   5.368   4.452
 2352SOL    HW2 7401   1.295   5.294   4.590
 2353SOL     OW 7402   0.459   4.876   4.465
 2353SOL    HW1 7403   0.388   4.849   4.530
 2353SOL    HW2 7404   0.433   4.848   4.372
 2354SOL     OW 7405   1.271   5.521   4.315
 2354SOL    HW1 7406   1.315   5.585   4.251
 2354SOL    HW2 7407   1.221   5.573   4.385
 2355SOL     OW 7408   1.032   4.273   3.740
 2355SOL    HW1 7409   0.991   4.355   3.701
 2355SOL    HW2 7410   1.096   4.299   3.813
 2356SOL     OW 7411   0.078   4.280   5.110
 2356SOL    HW1 7412   0.170   4.279   5.069
 2356SOL    HW2 7413   0.072   4.354   5.177
 2357SOL     OW 7414   0.561   3.946   4.871
 2357SOL    HW1 7415   0.599   3.862   4.908
 2357SOL    HW2 7416   0.473   3.965   4.915
 2358SOL     OW 7417   0.866   4.178   4.366
 2358SOL    HW1 7418   0.834   4.250   4.304
 2358SOL    HW2 7419   0.890   4.097   4.313
 2359SOL     OW 7420   1.017   3.763   4.477
 2359SOL    HW1 7421   0.945   3.768   4.408
 2359SOL    HW2 7422   0.993   3.694   4.546
 2360SOL     OW 7423   1.429   4.897   4.591
 2360SOL    HW1 7424   1.374   4.813   4.584
 2360SOL    HW2 7425   1.455   4.926   4.499
 2361SOL     OW 7426   1.466   4.314   4.716
 2361SOL    HW1 7427   1.436   4.219   4.723
 2361SOL    HW2 7428   1.539   4.330   4.782
 2362SOL     OW 7429   1.857   4.557   4.101
 2362SOL    HW1 7430   1.899   4.493   4.165
 2362SOL    HW2 7431   1.819   4.506   4.023
 2363SOL     OW 7432   0.488   5.109   3.898
 2363SOL    HW1 7433   0.401   5.094   3.945
 2363SOL    HW2 7434   0.471   5.135   3.803
 2364SOL     OW 7435   1.664   5.004   4.381
 2364SOL    HW1 7436   1.763   5.012   4.395
 2364SOL    HW2 7437   1.619   5.088   4.412
 2365SOL     OW 7438   1.390   4.299   3.802
 2365SOL    HW1 7439   1.336   4.278   3.883
 2365SOL    HW2 7440   1.481   4.258   3.811
 2366SOL     OW 7441   0.527   3.980   4.052
 2366SOL    HW1 7442   0.554   3.921   3.977
 2366SOL    HW2 7443   0.527   4.075   4.021
 2367SOL     OW 7444   1.754   4.947   5.312
 2367SOL    HW1 7445   1.845   4.908   5.299
 2367SOL    HW2 7446   1.762   5.043   5.336
 2368SOL     OW 7447   1.064   5.071   5.064
 2368SOL    HW1 7448   0.984   5.048   5.119
 2368SOL    HW2 7449   1.147   5.045   5.113
 2369SOL     OW 7450   1.592   5.353   5.349
 2369SOL    HW1 7451   1.619   5.387   5.259
 2369SOL    HW2 7452   1.671   5.315   5.395
 2370SOL     OW 7453   1.111   4.919   4.824
 2370SOL    HW1 7454   1.071   4.963   4.905
 2370SOL    HW2 7455   1.070   4.956   4.741
 2371SOL     OW 7456   1.638   4.823   4.803
 2371SOL    HW1 7457   1.643   4.904   4.862
 2371SOL    HW2 7458   1.552   4.825   4.752
 2372SOL     OW 7459   0.915   3.813   5.126
 2372SOL    HW1 7460   0.940   3.793   5.031
 2372SOL    HW2 7461   0.987   3.869   5.168
 2373SOL     OW 7462   0.980   4.840   5.443
 2373SOL    HW1 7463   0.881   4.846   5.453
 2373SOL    HW2 7464   1.003   4.760   5.387
 2374SOL     OW 7465   0.705   4.774   4.092
 2374SOL    HW1 7466   0.691   4.781   4.191
 2374SOL    HW2 7467   0.789   4.723   4.074
 2375SOL     OW 7468   0.410   4.537   4.975
 2375SOL    HW1 7469   0.496   4.549   5.025
 2375SOL    HW2 7470   0.368   4.450   5.002
 2376SOL     OW 7471   1.274   4.110   4.986
 2376SOL    HW1 7472   1.295   4.184   5.050
 2376SOL    HW2 7473   1.185   4.127   4.943
 2377SOL     OW 7474   0.064   5.288   5.055
 2377SOL    HW1 7475   0.018   5.370   5.021
 2377SOL    HW2 7476   0.162   5.307   5.064
 2378SOL     OW 7477   0.367   4.824   4.225
 2378SOL    HW1 7478   0.360   4.907   4.169
 2378SOL    HW2 7479   0.371   4.744   4.165
 2379SOL     OW 7480   0.566   4.261   4.589
 2379SOL    HW1 7481   0.578   4.327   4.515
 2379SOL    HW2 7482   0.612   4.295   4.672
 2380SOL     OW 7483   1.252   5.072   4.112
 2380SOL    HW1 7484   1.302   5.149   4.152
 2380SOL    HW2 7485   1.157   5.074   4.144
 2381SOL     OW 7486   1.272   5.169   4.866
 2381SOL    HW1 7487   1.319   5.182   4.953
 2381SOL    HW2 7488   1.206   5.095   4.875
 2382SOL     OW 7489   1.582   4.363   4.196
 2382SOL    HW1 7490   1.551   4.424   4.269
 2382SOL    HW2 7491   1.632   4.415   4.127
 2383SOL     OW 7492   0.354   5.234   5.053
 2383SOL    HW1 7493   0.333   5.190   4.966
 2383SOL    HW2 7494   0.451   5.260   5.056
 2384SOL     OW 7495   0.402   4.475   5.322
 2384SOL    HW1 7496   0.470   4.530   5.275
 2384SOL    HW2 7497   0.442   4.387   5.349
 2385SOL     OW 7498   1.587   4.503   5.394
 2385SOL    HW1 7499   1.495   4.541   5.389
 2385SOL    HW2 7500   1.647   4.550   5.329
 2386SOL     OW 7501   1.013   3.829   5.494
 2386SOL    HW1 7502   1.019   3.914   5.442
 2386SOL    HW2 7503   1.045   3.753   5.437
 2387SOL     OW 7504   0.504   3.774   5.464
 2387SOL    HW1 7505   0.462   3.717   5.394
 2387SOL    HW2 7506   0.438   3.843   5.496
 2388SOL     OW 7507   0.573   4.594   4.753
 2388SOL    HW1 7508   0.617   4.683   4.744
 2388SOL    HW2 7509   0.510   4.594   4.830
 2389SOL     OW 7510   1.360   4.586   4.769
 2389SOL    HW1 7511   1.285   4.586   4.703
 2389SOL    HW2 7512   1.397   4.494   4.778
 2390SOL     OW 7513   1.209   4.249   3.999
 2390SOL    HW1 7514   1.222   4.165   4.053
 2390SOL    HW2 7515   1.180   4.323   4.059
 2391SOL     OW 7516   0.307   3.937   4.955
 2391SOL    HW1 7517   0.284   3.974   5.045
 2391SOL    HW2 7518   0.277   3.842   4.949
 2392SOL     OW 7519   0.037   5.034   5.006
 2392SOL    HW1 7520   0.090   4.985   5.074
 2392SOL    HW2 7521   0.059   5.132   5.011
 2393SOL     OW 7522   0.732   4.358   4.788
 2393SOL    HW1 7523   0.791   4.332   4.712
 2393SOL    HW2 7524   0.704   4.454   4.777
 2394SOL     OW 7525   1.728   4.659   5.578
 2394SOL    HW1 7526   1.682   4.652   5.489
 2394SOL    HW2 7527   1.666   4.703   5.644
 2395SOL     OW 7528   0.307   3.787   4.342
 2395SOL    HW1 7529   0.296   3.881   4.375
 2395SOL    HW2 7530   0.302   3.724   4.419
 2396SOL     OW 7531   1.622   4.091   4.098
 2396SOL    HW1 7532   1.624   4.015   4.162
 2396SOL    HW2 7533   1.574   4.168   4.138
 2397SOL     OW 7534   1.023   4.490   4.690
 2397SOL    HW1 7535   1.038   4.511   4.786
 2397SOL    HW2 7536   0.993   4.395   4.681
 2398SOL     OW 7537   0.980   5.297   5.424
 2398SOL    HW1 7538   0.960   5.341   5.336
 2398SOL    HW2 7539   1.019   5.206   5.408
 2399SOL     OW 7540   1.859   5.242   5.329
 2399SOL    HW1 7541   1.873   5.269   5.234
 2399SOL    HW2 7542   1.942   5.264   5.382
 2400SOL     OW 7543   0.350   4.622   5.528
 2400SOL    HW1 7544   0.426   4.666   5.576
 2400SOL    HW2 7545   0.385   4.575   5.446
 2401SOL     OW 7546   1.540   3.998   3.849
 2401SOL    HW1 7547   1.479   3.923   3.872
 2401SOL    HW2 7548   1.562   4.050   3.932
 2402SOL     OW 7549   1.303   4.562   3.766
 2402SOL    HW1 7550   1.337   4.469   3.781
 2402SOL    HW2 7551   1.321   4.589   3.671
 2403SOL     OW 7552   1.068   5.057   4.573
 2403SOL    HW1 7553   1.075   4.973   4.518
 2403SOL    HW2 7554   1.130   5.126   4.537
 2404SOL     OW 7555   0.319   4.534   4.673
 2404SOL    HW1 7556   0.412   4.570   4.678
 2404SOL    HW2 7557   0.313   4.449   4.725
 2405SOL     OW 7558   0.339   4.233   4.730
 2405SOL    HW1 7559   0.287   4.150   4.713
 2405SOL    HW2 7560   0.416   4.238   4.666
 2406SOL     OW 7561   1.138   4.104   5.402
 2406SOL    HW1 7562   1.093   4.167   5.466
 2406SOL    HW2 7563   1.231   4.135   5.385
 2407SOL     OW 7564   1.160   3.931   5.201
 2407SOL    HW1 7565   1.160   3.995   5.278
 2407SOL    HW2 7566   1.188   3.979   5.118
 2408SOL     OW 7567   0.008   5.050   3.924
 2408SOL    HW1 7568  -0.085   5.071   3.893
 2408SOL    HW2 7569   0.018   4.951   3.937
 2409SOL     OW 7570   0.088   5.525   4.651
 2409SOL    HW1 7571   0.046   5.439   4.624
 2409SOL    HW2 7572   0.182   5.528   4.617
 2410SOL     OW 7573   0.504   5.292   4.634
 2410SOL    HW1 7574   0.570   5.366   4.643
 2410SOL    HW2 7575   0.548   5.213   4.592
 2411SOL     OW 7576   1.002   4.520   4.962
 2411SOL    HW1 7577   1.043   4.488   5.048
 2411SOL    HW2 7578   0.906   4.493   4.959
 2412SOL     OW 7579   0.040   4.268   4.838
 2412SOL    HW1 7580   0.125   4.235   4.797
 2412SOL    HW2 7581   0.053   4.283   4.936
 2413SOL     OW 7582   0.189   4.244   5.446
 2413SOL    HW1 7583   0.248   4.204   5.376
 2413SOL    HW2 7584   0.131   4.315   5.405
 2414SOL     OW 7585   1.369   4.674   5.384
 2414SOL    HW1 7586   1.408   4.763   5.404
 2414SOL    HW2 7587   1.379   4.654   5.287
 2415SOL     OW 7588   0.815   4.296   4.049
 2415SOL    HW1 7589   0.822   4.207   4.003
 2415SOL    HW2 7590   0.721   4.330   4.041
 2416SOL     OW 7591   1.657   4.328   4.930
 2416SOL    HW1 7592   1.619   4.259   4.992
 2416SOL    HW2 7593   1.739   4.292   4.886
 2417SOL     OW 7594   0.252   5.288   5.468
 2417SOL    HW1 7595   0.222   5.345   5.544
 2417SOL    HW2 7596   0.245   5.191   5.494
 2418SOL     OW 7597   0.671   4.188   4.993
 2418SOL    HW1 7598   0.637   4.099   4.963
 2418SOL    HW2 7599   0.697   4.242   4.913
 2419SOL     OW 7600   0.930   5.402   5.189
 2419SOL    HW1 7601   0.906   5.384   5.094
 2419SOL    HW2 7602   0.960   5.496   5.199
 2420SOL     OW 7603   0.473   4.224   3.915
 2420SOL    HW1 7604   0.534   4.304   3.919
 2420SOL    HW2 7605   0.378   4.255   3.922
 2421SOL     OW 7606   0.159   4.861   5.190
 2421SOL    HW1 7607   0.181   4.800   5.266
 2421SOL    HW2 7608   0.169   4.812   5.104
 2422SOL     OW 7609   1.347   4.783   4.958
 2422SOL    HW1 7610   1.371   4.720   4.884
 2422SOL    HW2 7611   1.257   4.823   4.940
 2423SOL     OW 7612   1.302   4.579   4.033
 2423SOL    HW1 7613   1.216   4.548   4.075
 2423SOL    HW2 7614   1.298   4.565   3.934
 2424SOL     OW 7615   1.759   5.471   4.878
 2424SOL    HW1 7616   1.820   5.501   4.805
 2424SOL    HW2 7617   1.721   5.382   4.856
 2425SOL     OW 7618   1.252   5.455   4.852
 2425SOL    HW1 7619   1.336   5.460   4.798
 2425SOL    HW2 7620   1.229   5.359   4.870
 2426SOL     OW 7621   0.083   4.982   4.746
 2426SOL    HW1 7622   0.078   4.981   4.846
 2426SOL    HW2 7623   0.000   4.941   4.708
 2427SOL     OW 7624   0.688   5.386   5.440
 2427SOL    HW1 7625   0.632   5.467   5.449
 2427SOL    HW2 7626   0.740   5.390   5.354
 2428SOL     OW 7627   1.726   3.859   4.247
 2428SOL    HW1 7628   1.799   3.842   4.180
 2428SOL    HW2 7629   1.695   3.772   4.285
 2429SOL     OW 7630   1.388   5.297   4.201
 2429SOL    HW1 7631   1.455   5.309   4.127
 2429SOL    HW2 7632   1.348   5.386   4.224
 2430SOL     OW 7633   0.130   5.518   5.575
 2430SOL    HW1 7634   0.089   5.444   5.628
 2430SOL    HW2 7635   0.194   5.569   5.633
 2431SOL     OW 7636   1.280   4.651   4.396
 2431SOL    HW1 7637   1.340   4.570   4.398
 2431SOL    HW2 7638   1.320   4.720   4.336
 2432SOL     OW 7639   0.830   4.997   5.146
 2432SOL    HW1 7640   0.825   5.030   5.241
 2432SOL    HW2 7641   0.744   5.016   5.100
 2433SOL     OW 7642   0.672   5.340   3.878
 2433SOL    HW1 7643   0.681   5.350   3.779
 2433SOL    HW2 7644   0.632   5.251   3.899
 2434SOL     OW 7645   1.650   5.444   5.118
 2434SOL    HW1 7646   1.703   5.454   5.034
 2434SOL    HW2 7647   1.623   5.534   5.152
 2435SOL     OW 7648   1.841   3.899   4.687
 2435SOL    HW1 7649   1.880   3.814   4.651
 2435SOL    HW2 7650   1.743   3.901   4.668
 2436SOL     OW 7651   0.263   4.050   4.444
 2436SOL    HW1 7652   0.184   4.101   4.410
 2436SOL    HW2 7653   0.254   4.035   4.542
 2437SOL     OW 7654   1.194   5.336   3.755
 2437SOL    HW1 7655   1.200   5.243   3.792
 2437SOL    HW2 7656   1.135   5.336   3.675
 2438SOL     OW 7657   0.822   4.726   5.096
 2438SOL    HW1 7658   0.862   4.725   5.004
 2438SOL    HW2 7659   0.832   4.818   5.136
 2439SOL     OW 7660   0.916   4.634   4.015
 2439SOL    HW1 7661   0.979   4.672   3.947
 2439SOL    HW2 7662   0.956   4.551   4.054
 2440SOL     OW 7663   1.504   5.331   3.768
 2440SOL    HW1 7664   1.412   5.368   3.775
 2440SOL    HW2 7665   1.542   5.351   3.678
 2441SOL     OW 7666   0.372   5.012   5.214
 2441SOL    HW1 7667   0.359   5.105   5.180
 2441SOL    HW2 7668   0.288   4.960   5.201
 2442SOL     OW 7669   1.614   5.016   5.013
 2442SOL    HW1 7670   1.674   5.019   5.093
 2442SOL    HW2 7671   1.539   5.080   5.026
 2443SOL     OW 7672   1.039   4.822   4.420
 2443SOL    HW1 7673   0.969   4.775   4.474
 2443SOL    HW2 7674   1.098   4.754   4.377
 2444SOL     OW 7675   1.014   3.960   4.695
 2444SOL    HW1 7676   1.006   3.924   4.602
 2444SOL    HW2 7677   1.012   3.884   4.760
 2445SOL     OW 7678   0.590   5.211   4.215
 2445SOL    HW1 7679   0.632   5.153   4.145
 2445SOL    HW2 7680   0.546   5.290   4.171
 2446SOL     OW 7681   1.709   4.109   5.105
 2446SOL    HW1 7682   1.782   4.178   5.109
 2446SOL    HW2 7683   1.737   4.034   5.046
 2447SOL     OW 7684   0.255   5.072   4.014
 2447SOL    HW1 7685   0.159   5.073   3.987
 2447SOL    HW2 7686   0.267   5.125   4.098
 2448SOL     OW 7687   0.105   4.737   5.450
 2448SOL    HW1 7688   0.028   4.704   5.504
 2448SOL    HW2 7689   0.190   4.707   5.492
 2449SOL     OW 7690   0.672   3.927   5.213
 2449SOL    HW1 7691   0.762   3.911   5.173
 2449SOL    HW2 7692   0.680   3.932   5.312
 2450SOL     OW 7693   0.075   4.069   3.757
 2450SOL    HW1 7694  -0.017   4.041   3.728
 2450SOL    HW2 7695   0.106   4.146   3.701
 2451SOL     OW 7696   1.440   4.580   5.122
 2451SOL    HW1 7697   1.383   4.632   5.059
 2451SOL    HW2 7698   1.536   4.592   5.098
 2452SOL     OW 7699   0.072   3.890   4.042
 2452SOL    HW1 7700   0.055   3.973   3.988
 2452SOL    HW2 7701   0.162   3.853   4.020
 2453SOL     OW 7702   1.183   5.059   3.843
 2453SOL    HW1 7703   1.084   5.048   3.845
 2453SOL    HW2 7704   1.217   5.074   3.936
 2454SOL     OW 7705   0.613   4.566   5.155
 2454SOL    HW1 7706   0.669   4.647   5.138
 2454SOL    HW2 7707   0.672   4.486   5.158
 2455SOL     OW 7708   1.493   5.491   4.683
 2455SOL    HW1 7709   1.526   5.555   4.614
 2455SOL    HW2 7710   1.559   5.485   4.758
 2456SOL     OW 7711   0.716   4.289   5.432
 2456SOL    HW1 7712   0.735   4.354   5.506
 2456SOL    HW2 7713   0.776   4.209   5.441
 2457SOL     OW 7714   1.450   4.944   5.357
 2457SOL    HW1 7715   1.441   4.934   5.456
 2457SOL    HW2 7716   1.546   4.937   5.331
 2458SOL     OW 7717   0.390   5.465   5.284
 2458SOL    HW1 7718   0.299   5.506   5.282
 2458SOL    HW2 7719   0.383   5.371   5.316
 2459SOL     OW 7720   1.674   4.607   4.978
 2459SOL    HW1 7721   1.647   4.518   4.941
 2459SOL    HW2 7722   1.675   4.675   4.905
 2460SOL     OW 7723   1.225   4.049   4.173
 2460SOL    HW1 7724   1.290   3.975   4.162
 2460SOL    HW2 7725   1.245   4.099   4.257
 2461SOL     OW 7726   0.594   4.469   4.376
 2461SOL    HW1 7727   0.644   4.554   4.357
 2461SOL    HW2 7728   0.506   4.471   4.328
 2462SOL     OW 7729   1.777   4.066   5.366
 2462SOL    HW1 7730   1.760   4.097   5.272
 2462SOL    HW2 7731   1.693   4.029   5.404
 2463SOL     OW 7732   1.730   4.658   5.241
 2463SOL    HW1 7733   1.768   4.749   5.256
 2463SOL    HW2 7734   1.722   4.641   5.142
 2464SOL     OW 7735   0.859   5.098   3.740
 2464SOL    HW1 7736   0.813   5.113   3.828
 2464SOL    HW2 7737   0.903   5.183   3.710
 2465SOL     OW 7738   0.661   5.514   4.677
 2465SOL    HW1 7739   0.615   5.602   4.664
 2465SOL    HW2 7740   0.760   5.526   4.670
 2466SOL     OW 7741   0.859   4.680   4.585
 2466SOL    HW1 7742   0.913   4.611   4.633
 2466SOL    HW2 7743   0.827   4.749   4.651
 2467SOL     OW 7744   1.083   4.708   3.811
 2467SOL    HW1 7745   1.060   4.761   3.729
 2467SOL    HW2 7746   1.164   4.652   3.792
 2468SOL     OW 7747   1.861   5.293   4.575
 2468SOL    HW1 7748   1.790   5.281   4.505
 2468SOL    HW2 7749   1.862   5.214   4.635
 2469SOL     OW 7750   0.221   5.038   5.568
 2469SOL    HW1 7751   0.156   4.965   5.547
 2469SOL    HW2 7752   0.225   5.052   5.666
 2470SOL     OW 7753   0.079   4.964   4.377
 2470SOL    HW1 7754   0.078   4.917   4.465
 2470SOL    HW2 7755   0.161   4.936   4.326
 2471SOL     OW 7756   0.672   5.115   5.348
 2471SOL    HW1 7757   0.594   5.065   5.386
 2471SOL    HW2 7758   0.669   5.210   5.379
 2472SOL     OW 7759   1.824   3.916   4.951
 2472SOL    HW1 7760   1.820   3.826   4.995
 2472SOL    HW2 7761   1.827   3.905   4.852
 2473SOL     OW 7762   0.428   4.148   4.244
 2473SOL    HW1 7763   0.458   4.076   4.182
 2473SOL    HW2 7764   0.389   4.108   4.327
 2474SOL     OW 7765   1.705   5.211   4.828
 2474SOL    HW1 7766   1.612   5.186   4.801
 2474SOL    HW2 7767   1.731   5.161   4.910
 2475SOL     OW 7768   0.317   4.271   5.004
 2475SOL    HW1 7769   0.355   4.212   5.076
 2475SOL    HW2 7770   0.357   4.245   4.916
 2476SOL     OW 7771   0.812   5.310   4.411
 2476SOL    HW1 7772   0.844   5.320   4.317
 2476SOL    HW2 7773   0.733   5.248   4.413
 2477SOL     OW 7774   1.424   3.938   4.836
 2477SOL    HW1 7775   1.476   3.873   4.891
 2477SOL    HW2 7776   1.375   4.001   4.897
 2478SOL     OW 7777   1.001   3.758   4.878
 2478SOL    HW1 7778   0.938   3.686   4.847
 2478SOL    HW2 7779   1.094   3.722   4.878
 2479SOL     OW 7780   0.770   5.054   4.025
 2479SOL    HW1 7781   0.724   4.967   4.042
 2479SOL    HW2 7782   0.861   5.051   4.066
 2480SOL     OW 7783   0.618   5.291   5.008
 2480SOL    HW1 7784   0.613   5.373   5.065
 2480SOL    HW2 7785   0.707   5.288   4.963
 2481SOL     OW 7786   1.352   3.776   3.892
 2481SOL    HW1 7787   1.387   3.735   3.808
 2481SOL    HW2 7788   1.262   3.738   3.912
 2482SOL     OW 7789   1.300   4.177   4.415
 2482SOL    HW1 7790   1.241   4.257   4.419
 2482SOL    HW2 7791   1.315   4.142   4.508
 2483SOL     OW 7792   1.593   3.945   4.606
 2483SOL    HW1 7793   1.509   3.944   4.660
 2483SOL    HW2 7794   1.595   4.028   4.550
 2484SOL     OW 7795   0.039   4.801   4.024
 2484SOL    HW1 7796   0.138   4.790   4.015
 2484SOL    HW2 7797  -0.001   4.715   4.056
 2485SOL     OW 7798   0.875   5.370   4.061
 2485SOL    HW1 7799   0.798   5.335   4.007
 2485SOL    HW2 7800   0.843   5.441   4.123
 2486SOL     OW 7801   0.230   4.352   5.699
 2486SOL    HW1 7802   0.137   4.350   5.736
 2486SOL    HW2 7803   0.231   4.313   5.607
 2487SOL     OW 7804   0.225   3.999   6.582
 2487SOL    HW1 7805   0.260   3.982   6.674
 2487SOL    HW2 7806   0.137   3.954   6.570
 2488SOL     OW 7807   0.019   4.092   6.233
 2488SOL    HW1 7808  -0.063   4.135   6.272
 2488SOL    HW2 7809  -0.009   4.019   6.170
 2489SOL     OW 7810   0.569   4.999   6.751
 2489SOL    HW1 7811   0.476   4.992   6.714
 2489SOL    HW2 7812   0.580   5.088   6.795
 2490SOL     OW 7813   1.555   5.235   6.289
 2490SOL    HW1 7814   1.498   5.219   6.370
 2490SOL    HW2 7815   1.496   5.245   6.209
 2491SOL     OW 7816   1.135   4.427   6.303
 2491SOL    HW1 7817   1.192   4.505   6.278
 2491SOL    HW2 7818   1.075   4.453   6.379
 2492SOL     OW 7819   1.755   4.331   5.817
 2492SOL    HW1 7820   1.743   4.318   5.718
 2492SOL    HW2 7821   1.725   4.250   5.866
 2493SOL     OW 7822   0.768   4.868   6.609
 2493SOL    HW1 7823   0.690   4.885   6.669
 2493SOL    HW2 7824   0.802   4.955   6.573
 2494SOL     OW 7825   0.850   4.522   7.409
 2494SOL    HW1 7826   0.846   4.598   7.474
 2494SOL    HW2 7827   0.872   4.558   7.318
 2495SOL     OW 7828   0.685   4.736   6.251
 2495SOL    HW1 7829   0.754   4.720   6.321
 2495SOL    HW2 7830   0.612   4.793   6.289
 2496SOL     OW 7831   0.686   4.885   7.389
 2496SOL    HW1 7832   0.746   4.964   7.403
 2496SOL    HW2 7833   0.600   4.916   7.348
 2497SOL     OW 7834   0.335   5.159   6.647
 2497SOL    HW1 7835   0.257   5.128   6.594
 2497SOL    HW2 7836   0.393   5.217   6.590
 2498SOL     OW 7837   1.460   5.229   6.925
 2498SOL    HW1 7838   1.484   5.323   6.951
 2498SOL    HW2 7839   1.444   5.175   7.007
 2499SOL     OW 7840   0.438   4.116   7.085
 2499SOL    HW1 7841   0.520   4.060   7.094
 2499SOL    HW2 7842   0.357   4.058   7.089
 2500SOL     OW 7843   1.603   4.171   6.323
 2500SOL    HW1 7844   1.529   4.217   6.273
 2500SOL    HW2 7845   1.654   4.239   6.376
 2501SOL     OW 7846   0.231   5.437   6.069
 2501SOL    HW1 7847   0.265   5.514   6.123
 2501SOL    HW2 7848   0.275   5.437   5.979
 2502SOL     OW 7849   1.127   5.065   7.276
 2502SOL    HW1 7850   1.174   5.065   7.364
 2502SOL    HW2 7851   1.079   4.978   7.265
 2503SOL     OW 7852   0.230   5.158   6.124
 2503SOL    HW1 7853   0.204   5.254   6.124
 2503SOL    HW2 7854   0.159   5.104   6.169
 2504SOL     OW 7855   0.240   4.815   6.472
 2504SOL    HW1 7856   0.254   4.731   6.524
 2504SOL    HW2 7857   0.185   4.879   6.527
 2505SOL     OW 7858   0.620   5.510   7.025
 2505SOL    HW1 7859   0.528   5.493   7.060
 2505SOL    HW2 7860   0.648   5.602   7.051
 2506SOL     OW 7861   0.606   4.688   5.709
 2506SOL    HW1 7862   0.613   4.772   5.655
 2506SOL    HW2 7863   0.652   4.701   5.797
 2507SOL     OW 7864   1.594   3.838   7.066
 2507SOL    HW1 7865   1.576   3.905   6.994
 2507SOL    HW2 7866   1.591   3.884   7.155
 2508SOL     OW 7867   0.122   4.367   6.149
 2508SOL    HW1 7868   0.077   4.279   6.166
 2508SOL    HW2 7869   0.121   4.421   6.233
 2509SOL     OW 7870   1.842   5.491   5.945
 2509SOL    HW1 7871   1.896   5.462   6.025
 2509SOL    HW2 7872   1.872   5.581   5.916
 2510SOL     OW 7873   0.027   5.320   5.703
 2510SOL    HW1 7874   0.008   5.224   5.724
 2510SOL    HW2 7875  -0.006   5.378   5.778
 2511SOL     OW 7876   1.689   4.646   6.198
 2511SOL    HW1 7877   1.784   4.617   6.206
 2511SOL    HW2 7878   1.681   4.711   6.123
 2512SOL     OW 7879   1.641   4.832   6.018
 2512SOL    HW1 7880   1.727   4.834   5.966
 2512SOL    HW2 7881   1.655   4.879   6.106
 2513SOL     OW 7882   0.113   4.461   7.183
 2513SOL    HW1 7883   0.201   4.448   7.228
 2513SOL    HW2 7884   0.100   4.558   7.161
 2514SOL     OW 7885   0.613   5.089   6.312
 2514SOL    HW1 7886   0.564   5.002   6.321
 2514SOL    HW2 7887   0.590   5.132   6.225
 2515SOL     OW 7888   1.293   4.952   7.009
 2515SOL    HW1 7889   1.330   4.879   6.951
 2515SOL    HW2 7890   1.345   4.957   7.094
 2516SOL     OW 7891   0.809   3.728   6.088
 2516SOL    HW1 7892   0.849   3.819   6.079
 2516SOL    HW2 7893   0.709   3.736   6.094
 2517SOL     OW 7894   0.197   4.700   6.850
 2517SOL    HW1 7895   0.286   4.655   6.836
 2517SOL    HW2 7896   0.124   4.635   6.831
 2518SOL     OW 7897   1.525   4.723   5.776
 2518SOL    HW1 7898   1.462   4.647   5.789
 2518SOL    HW2 7899   1.573   4.741   5.862
 2519SOL     OW 7900   1.187   5.516   7.202
 2519SOL    HW1 7901   1.211   5.576   7.126
 2519SOL    HW2 7902   1.194   5.421   7.172
 2520SOL     OW 7903   0.317   3.975   7.387
 2520SOL    HW1 7904   0.388   4.046   7.393
 2520SOL    HW2 7905   0.229   4.014   7.415
 2521SOL     OW 7906   1.466   5.141   6.539
 2521SOL    HW1 7907   1.407   5.147   6.619
 2521SOL    HW2 7908   1.451   5.053   6.493
 2522SOL     OW 7909   1.667   5.438   6.158
 2522SOL    HW1 7910   1.626   5.415   6.070
 2522SOL    HW2 7911   1.649   5.364   6.223
 2523SOL     OW 7912   0.598   4.453   5.856
 2523SOL    HW1 7913   0.622   4.522   5.788
 2523SOL    HW2 7914   0.520   4.486   5.910
 2524SOL     OW 7915   1.281   4.069   6.530
 2524SOL    HW1 7916   1.195   4.019   6.517
 2524SOL    HW2 7917   1.343   4.015   6.586
 2525SOL     OW 7918   1.576   5.386   5.893
 2525SOL    HW1 7919   1.665   5.432   5.896
 2525SOL    HW2 7920   1.555   5.362   5.798
 2526SOL     OW 7921   0.807   4.329   7.051
 2526SOL    HW1 7922   0.760   4.326   7.140
 2526SOL    HW2 7923   0.756   4.274   6.985
 2527SOL     OW 7924   1.394   4.193   7.260
 2527SOL    HW1 7925   1.374   4.236   7.348
 2527SOL    HW2 7926   1.472   4.131   7.269
 2528SOL     OW 7927   0.973   4.614   7.158
 2528SOL    HW1 7928   1.019   4.530   7.129
 2528SOL    HW2 7929   0.917   4.648   7.083
 2529SOL     OW 7930   0.991   4.134   6.828
 2529SOL    HW1 7931   0.914   4.168   6.882
 2529SOL    HW2 7932   0.957   4.083   6.749
 2530SOL     OW 7933   1.041   4.425   6.015
 2530SOL    HW1 7934   1.067   4.421   6.111
 2530SOL    HW2 7935   0.956   4.374   6.001
 2531SOL     OW 7936   0.076   4.535   6.375
 2531SOL    HW1 7937   0.175   4.523   6.384
 2531SOL    HW2 7938   0.052   4.630   6.396
 2532SOL     OW 7939   0.130   5.545   7.157
 2532SOL    HW1 7940   0.120   5.530   7.256
 2532SOL    HW2 7941   0.044   5.581   7.121
 2533SOL     OW 7942   0.865   4.072   5.781
 2533SOL    HW1 7943   0.924   4.135   5.732
 2533SOL    HW2 7944   0.884   3.978   5.752
 2534SOL     OW 7945   1.719   4.309   7.417
 2534SOL    HW1 7946   1.693   4.398   7.381
 2534SOL    HW2 7947   1.717   4.241   7.344
 2535SOL     OW 7948   1.362   4.868   6.131
 2535SOL    HW1 7949   1.445   4.839   6.083
 2535SOL    HW2 7950   1.313   4.935   6.075
 2536SOL     OW 7951   0.550   3.920   6.471
 2536SOL    HW1 7952   0.545   3.915   6.571
 2536SOL    HW2 7953   0.552   4.016   6.442
 2537SOL     OW 7954   1.008   5.180   6.063
 2537SOL    HW1 7955   0.962   5.252   6.011
 2537SOL    HW2 7956   1.004   5.200   6.161
 2538SOL     OW 7957   0.351   5.525   6.439
 2538SOL    HW1 7958   0.401   5.439   6.445
 2538SOL    HW2 7959   0.416   5.602   6.436
 2539SOL     OW 7960   1.795   4.790   6.459
 2539SOL    HW1 7961   1.733   4.775   6.383
 2539SOL    HW2 7962   1.743   4.801   6.544
 2540SOL     OW 7963   1.227   5.274   7.092
 2540SOL    HW1 7964   1.233   5.197   7.156
 2540SOL    HW2 7965   1.175   5.248   7.012
 2541SOL     OW 7966   0.321   4.667   5.828
 2541SOL    HW1 7967   0.403   4.706   5.786
 2541SOL    HW2 7968   0.294   4.585   5.779
 2542SOL     OW 7969   1.458   4.459   6.314
 2542SOL    HW1 7970   1.453   4.394   6.389
 2542SOL    HW2 7971   1.538   4.518   6.327
 2543SOL     OW 7972   0.461   4.990   7.313
 2543SOL    HW1 7973   0.411   4.991   7.227
 2543SOL    HW2 7974   0.398   4.972   7.389
 2544SOL     OW 7975   1.111   5.500   5.823
 2544SOL    HW1 7976   1.051   5.438   5.873
 2544SOL    HW2 7977   1.142   5.456   5.738
 2545SOL     OW 7978   0.202   4.009   7.084
 2545SOL    HW1 7979   0.122   4.069   7.071
 2545SOL    HW2 7980   0.192   3.960   7.170
 2546SOL     OW 7981   1.632   5.101   5.667
 2546SOL    HW1 7982   1.600   5.195   5.657
 2546SOL    HW2 7983   1.556   5.038   5.655
 2547SOL     OW 7984   0.464   5.467   5.909
 2547SOL    HW1 7985   0.497   5.506   5.995
 2547SOL    HW2 7986   0.540   5.460   5.844
 2548SOL     OW 7987   1.400   3.831   6.012
 2548SOL    HW1 7988   1.376   3.794   5.922
 2548SOL    HW2 7989   1.499   3.847   6.016
 2549SOL     OW 7990   0.249   5.509   6.827
 2549SOL    HW1 7991   0.306   5.444   6.877
 2549SOL    HW2 7992   0.233   5.476   6.734
 2550SOL     OW 7993   0.940   5.422   6.490
 2550SOL    HW1 7994   1.020   5.365   6.511
 2550SOL    HW2 7995   0.891   5.382   6.413
 2551SOL     OW 7996   0.382   4.424   6.066
 2551SOL    HW1 7997   0.427   4.334   6.063
 2551SOL    HW2 7998   0.288   4.413   6.099
 2552SOL     OW 7999   1.547   3.946   7.315
 2552SOL    HW1 8000   1.542   3.983   7.407
 2552SOL    HW2 8001   1.475   3.877   7.303
 2553SOL     OW 8002   0.614   3.846   5.703
 2553SOL    HW1 8003   0.712   3.824   5.710
 2553SOL    HW2 8004   0.583   3.829   5.610
 2554SOL     OW 8005   0.781   3.988   7.335
 2554SOL    HW1 8006   0.848   3.927   7.378
 2554SOL    HW2 8007   0.708   4.007   7.400
 2555SOL     OW 8008   0.888   5.238   6.781
 2555SOL    HW1 8009   0.865   5.213   6.687
 2555SOL    HW2 8010   0.949   5.169   6.820
 2556SOL     OW 8011   1.351   4.314   7.019
 2556SOL    HW1 8012   1.379   4.271   7.104
 2556SOL    HW2 8013   1.376   4.410   7.020
 2557SOL     OW 8014   0.803   5.126   6.510
 2557SOL    HW1 8015   0.893   5.140   6.468
 2557SOL    HW2 8016   0.732   5.128   6.439
 2558SOL     OW 8017   0.922   4.227   6.485
 2558SOL    HW1 8018   0.897   4.218   6.389
 2558SOL    HW2 8019   0.970   4.145   6.516
 2559SOL     OW 8020   0.539   3.788   6.098
 2559SOL    HW1 8021   0.458   3.789   6.156
 2559SOL    HW2 8022   0.542   3.871   6.043
 2560SOL     OW 8023   1.434   4.912   5.627
 2560SOL    HW1 8024   1.466   4.836   5.684
 2560SOL    HW2 8025   1.342   4.939   5.657
 2561SOL     OW 8026   0.297   3.759   5.757
 2561SOL    HW1 8027   0.346   3.843   5.736
 2561SOL    HW2 8028   0.359   3.694   5.802
 2562SOL     OW 8029   0.935   3.960   6.066
 2562SOL    HW1 8030   0.887   4.001   5.988
 2562SOL    HW2 8031   1.034   3.958   6.047
 2563SOL     OW 8032   1.076   4.407   7.050
 2563SOL    HW1 8033   0.996   4.346   7.053
 2563SOL    HW2 8034   1.157   4.354   7.026
 2564SOL     OW 8035   1.227   5.294   6.379
 2564SOL    HW1 8036   1.248   5.368   6.314
 2564SOL    HW2 8037   1.295   5.294   6.452
 2565SOL     OW 8038   0.459   4.876   6.327
 2565SOL    HW1 8039   0.388   4.849   6.392
 2565SOL    HW2 8040   0.433   4.848   6.234
 2566SOL     OW 8041   1.271   5.521   6.177
 2566SOL    HW1 8042   1.315   5.585   6.113
 2566SOL    HW2 8043   1.221   5.573   6.247
 2567SOL     OW 8044   1.032   4.273   5.602
 2567SOL    HW1 8045   0.991   4.355   5.563
 2567SOL    HW2 8046   1.096   4.299   5.675
 2568SOL     OW 8047   0.078   4.280   6.972
 2568SOL    HW1 8048   0.170   4.279   6.931
 2568SOL    HW2 8049   0.072   4.354   7.039
 2569SOL     OW 8050   0.561   3.946   6.733
 2569SOL    HW1 8051   0.599   3.862   6.770
 2569SOL    HW2 8052   0.473   3.965   6.777
 2570SOL     OW 8053   0.866   4.178   6.228
 2570SOL    HW1 8054   0.834   4.250   6.166
 2570SOL    HW2 8055   0.890   4.097   6.175
 2571SOL     OW 8056   1.017   3.763   6.339
 2571SOL    HW1 8057   0.945   3.768   6.270
 2571SOL    HW2 8058   0.993   3.694   6.408
 2572SOL     OW 8059   1.429   4.897   6.453
 2572SOL    HW1 8060   1.374   4.813   6.446
 2572SOL    HW2 8061   1.455   4.926   6.361
 2573SOL     OW 8062   1.466   4.314   6.578
 2573SOL    HW1 8063   1.436   4.219   6.585
 2573SOL    HW2 8064   1.539   4.330   6.644
 2574SOL     OW 8065   1.857   4.557   5.963
 2574SOL    HW1 8066   1.899   4.493   6.027
 2574SOL    HW2 8067   1.819   4.506   5.885
 2575SOL     OW 8068   0.488   5.109   5.760
 2575SOL    HW1 8069   0.401   5.094   5.807
 2575SOL    HW2 8070   0.471   5.135   5.665
 2576SOL     OW 8071   1.664   5.004   6.243
 2576SOL    HW1 8072   1.763   5.012   6.257
 2576SOL    HW2 8073   1.619   5.088   6.274
 2577SOL     OW 8074   1.390   4.299   5.664
 2577SOL    HW1 8075   1.336   4.278   5.745
 2577SOL    HW2 8076   1.481   4.258   5.673
 2578SOL     OW 8077   0.527   3.980   5.914
 2578SOL    HW1 8078   0.554   3.921   5.839
 2578SOL    HW2 8079   0.527   4.075   5.883
 2579SOL     OW 8080   1.754   4.947   7.174
 2579SOL    HW1 8081   1.845   4.908   7.161
 2579SOL    HW2 8082   1.762   5.043   7.198
 2580SOL     OW 8083   1.064   5.071   6.926
 2580SOL    HW1 8084   0.984   5.048   6.981
 2580SOL    HW2 8085   1.147   5.045   6.975
 2581SOL     OW 8086   1.592   5.353   7.211
 2581SOL    HW1 8087   1.619   5.387   7.121
 2581SOL    HW2 8088   1.671   5.315   7.257
 2582SOL     OW 8089   1.111   4.919   6.686
 2582SOL    HW1 8090   1.071   4.963   6.767
 2582SOL    HW2 8091   1.070   4.956   6.603
 2583SOL     OW 8092   1.638   4.823   6.665
 2583SOL    HW1 8093   1.643   4.904   6.724
 2583SOL    HW2 8094   1.552   4.825   6.614
 2584SOL     OW 8095   0.915   3.813   6.988
 2584SOL    HW1 8096   0.940   3.793   6.893
 2584SOL    HW2 8097   0.987   3.869   7.030
 2585SOL     OW 8098   0.980   4.840   7.305
 2585SOL    HW1 8099   0.881   4.846   7.315
 2585SOL    HW2 8100   1.003   4.760   7.249
 2586SOL     OW 8101   0.705   4.774   5.954
 2586SOL    HW1 8102   0.691   4.781   6.053
 2586SOL    HW2 8103   0.789   4.723   5.936
 2587SOL     OW 8104   0.410   4.537   6.837
 2587SOL    HW1 8105   0.496   4.549   6.887
 2587SOL    HW2 8106   0.368   4.450   6.864
 2588SOL     OW 8107   1.274   4.110   6.848
 2588SOL    HW1 8108   1.295   4.184   6.912
 2588SOL    HW2 8109   1.185   4.127   6.805
 2589SOL     OW 8110   0.064   5.288   6.917
 2589SOL    HW1 8111   0.018   5.370   6.883
 2589SOL    HW2 8112   0.162   5.307   6.926
 2590SOL     OW 8113   0.367   4.824   6.087
 2590SOL    HW1 8114   0.360   4.907   6.031
 2590SOL    HW2 8115   0.371   4.744   6.027
 2591SOL     OW 8116   0.566   4.261   6.451
 2591SOL    HW1 8117   0.578   4.327   6.377
 2591SOL    HW2 8118   0.612   4.295   6.534
 2592SOL     OW 8119   1.252   5.072   5.974
 2592SOL    HW1 8120   1.302   5.149   6.014
 2592SOL    HW2 8121   1.157   5.074   6.006
 2593SOL     OW 8122   1.272   5.169   6.728
 2593SOL    HW1 8123   1.319   5.182   6.815
 2593SOL    HW2 8124   1.206   5.095   6.737
 2594SOL     OW 8125   1.582   4.363   6.058
 2594SOL    HW1 8126   1.551   4.424   6.131
 2594SOL    HW2 8127   1.632   4.415   5.989
 2595SOL     OW 8128   0.354   5.234   6.915
 2595SOL    HW1 8129   0.333   5.190   6.828
 2595SOL    HW2 8130   0.451   5.260   6.918
 2596SOL     OW 8131   0.402   4.475   7.184
 2596SOL    HW1 8132   0.470   4.530   7.137
 2596SOL    HW2 8133   0.442   4.387   7.211
 2597SOL     OW 8134   1.587   4.503   7.256
 2597SOL    HW1 8135   1.495   4.541   7.251
 2597SOL    HW2 8136   1.647   4.550   7.191
 2598SOL     OW 8137   1.013   3.829   7.356
 2598SOL    HW1 8138   1.019   3.914   7.304
 2598SOL    HW2 8139   1.045   3.753   7.299
 2599SOL     OW 8140   0.504   3.774   7.326
 2599SOL    HW1 8141   0.462   3.717   7.256
 2599SOL    HW2 8142   0.438   3.843   7.358
 2600SOL     OW 8143   0.573   4.594   6.615
 2600SOL    HW1 8144   0.617   4.683   6.606
 2600SOL    HW2 8145   0.510   4.594   6.692
 2601SOL     OW 8146   1.360   4.586   6.631
 2601SOL    HW1 8147   1.285   4.586   6.565
 2601SOL    HW2 8148   1.397   4.494   6.640
 2602SOL     OW 8149   1.209   4.249   5.861
 2602SOL    HW1 8150   1.222   4.165   5.915
 2602SOL    HW2 8151   1.180   4.323   5.921
 2603SOL     OW 8152   0.307   3.937   6.817
 2603SOL    HW1 8153   0.284   3.974   6.907
 2603SOL    HW2 8154   0.277   3.842   6.811
 2604SOL     OW 8155   0.037   5.034   6.868
 2604SOL    HW1 8156   0.090   4.985   6.936
 2604SOL    HW2 8157   0.059   5.132   6.873
 2605SOL     OW 8158   0.732   4.358   6.650
 2605SOL    HW1 8159   0.791   4.332   6.574
 2605SOL    HW2 8160   0.704   4.454   6.639
 2606SOL     OW 8161   1.728   4.659   7.440
 2606SOL    HW1 8162   1.682   4.652   7.351
 2606SOL    HW2 8163   1.666   4.703   7.506
 2607SOL     OW 8164   0.307   3.787   6.204
 2607SOL    HW1 8165   0.296   3.881   6.237
 2607SOL    HW2 8166   0.302   3.724   6.281
 2608SOL     OW 8167   1.622   4.091   5.960
 2608SOL    HW1 8168   1.624   4.015   6.024
 2608SOL    HW2 8169   1.574   4.168   6.000
 2609SOL     OW 8170   1.023   4.490   6.552
 2609SOL    HW1 8171   1.038   4.511   6.648
 2609SOL    HW2 8172   0.993   4.395   6.543
 2610SOL     OW 8173   0.980   5.297   7.286
 2610SOL    HW1 8174   0.960   5.341   7.198
 2610SOL    HW2 8175   1.019   5.206   7.270
 2611SOL     OW 8176   1.859   5.242   7.191
 2611SOL    HW1 8177   1.873   5.269   7.096
 2611SOL    HW2 8178   1.942   5.264   7.244
 2612SOL     OW 8179   0.350   4.622   7.390
 2612SOL    HW1 8180   0.426   4.666   7.438
 2612SOL    HW2 8181   0.385   4.575   7.308
 2613SOL     OW 8182   1.540   3.998   5.711
 2613SOL    HW1 8183   1.479   3.923   5.734
 2613SOL    HW2 8184   1.562   4.050   5.794
 2614SOL     OW 8185   1.303   4.562   5.628
 2614SOL    HW1 8186   1.337   4.469   5.643
 2614SOL    HW2 8187   1.321   4.589   5.533
 2615SOL     OW 8188   1.068   5.057   6.435
 2615SOL    HW1 8189   1.075   4.973   6.380
 2615SOL    HW2 8190   1.130   5.126   6.399
 2616SOL     OW 8191   0.319   4.534   6.535
 2616SOL    HW1 8192   0.412   4.570   6.540
 2616SOL    HW2 8193   0.313   4.449   6.587
 2617SOL     OW 8194   0.339   4.233   6.592
 2617SOL    HW1 8195   0.287   4.150   6.575
 2617SOL    HW2 8196   0.416   4.238   6.528
 2618SOL     OW 8197   1.138   4.104   7.264
 2618SOL    HW1 8198   1.093   4.167   7.328
 2618SOL    HW2 8199   1.231   4.135   7.247
 2619SOL     OW 8200   1.160   3.931   7.063
 2619SOL    HW1 8201   1.160   3.995   7.140
 2619SOL    HW2 8202   1.188   3.979   6.980
 2620SOL     OW 8203   0.008   5.050   5.786
 2620SOL    HW1 8204  -0.085   5.071   5.755
 2620SOL    HW2 8205   0.018   4.951   5.799
 2621SOL     OW 8206   0.088   5.525   6.513
 2621SOL    HW1 8207   0.046   5.439   6.486
 2621SOL    HW2 8208   0.182   5.528   6.479
 2622SOL     OW 8209   0.504   5.292   6.496
 2622SOL    HW1 8210   0.570   5.366   6.505
 2622SOL    HW2 8211   0.548   5.213   6.454
 2623SOL     OW 8212   1.002   4.520   6.824
 2623SOL    HW1 8213   1.043   4.488   6.910
 2623SOL    HW2 8214   0.906   4.493   6.821
 2624SOL     OW 8215   0.040   4.268   6.700
 2624SOL    HW1 8216   0.125   4.235   6.659
 2624SOL    HW2 8217   0.053   4.283   6.798
 2625SOL     OW 8218   0.189   4.244   7.308
 2625SOL    HW1 8219   0.248   4.204   7.238
 2625SOL    HW2 8220   0.131   4.315   7.267
 2626SOL     OW 8221   1.369   4.674   7.246
 2626SOL    HW1 8222   1.408   4.763   7.266
 2626SOL    HW2 8223   1.379   4.654   7.149
 2627SOL     OW 8224   0.815   4.296   5.911
 2627SOL    HW1 8225   0.822   4.207   5.865
 2627SOL    HW2 8226   0.721   4.330   5.903
 2628SOL     OW 8227   1.657   4.328   6.792
 2628SOL    HW1 8228   1.619   4.259   6.854
 2628SOL    HW2 8229   1.739   4.292   6.748
 2629SOL     OW 8230   0.252   5.288   7.330
 2629SOL    HW1 8231   0.222   5.345   7.406
 2629SOL    HW2 8232   0.245   5.191   7.356
 2630SOL     OW 8233   0.671   4.188   6.855
 2630SOL    HW1 8234   0.637   4.099   6.825
 2630SOL    HW2 8235   0.697   4.242   6.775
 2631SOL     OW 8236   0.930   5.402   7.051
 2631SOL    HW1 8237   0.906   5.384   6.956
 2631SOL    HW2 8238   0.960   5.496   7.061
 2632SOL     OW 8239   0.473   4.224   5.777
 2632SOL    HW1 8240   0.534   4.304   5.781
 2632SOL    HW2 8241   0.378   4.255   5.784
 2633SOL     OW 8242   0.159   4.861   7.052
 2633SOL    HW1 8243   0.181   4.800   7.128
 2633SOL    HW2 8244   0.169   4.812   6.966
 2634SOL     OW 8245   1.347   4.783   6.820
 2634SOL    HW1 8246   1.371   4.720   6.746
 2634SOL    HW2 8247   1.257   4.823   6.802
 2635SOL     OW 8248   1.302   4.579   5.895
 2635SOL    HW1 8249   1.216   4.548   5.937
 2635SOL    HW2 8250   1.298   4.565   5.796
 2636SOL     OW 8251   1.759   5.471   6.740
 2636SOL    HW1 8252   1.820   5.501   6.667
 2636SOL    HW2 8253   1.721   5.382   6.718
 2637SOL     OW 8254   1.252   5.455   6.714
 2637SOL    HW1 8255   1.336   5.460   6.660
 2637SOL    HW2 8256   1.229   5.359   6.732
 2638SOL     OW 8257   0.083   4.982   6.608
 2638SOL    HW1 8258   0.078   4.981   6.708
 2638SOL    HW2 8259   0.000   4.941   6.570
 2639SOL     OW 8260   0.688   5.386   7.302
 2639SOL    HW1 8261   0.632   5.467   7.311
 2639SOL    HW2 8262   0.740   5.390   7.216
 2640SOL     OW 8263   1.726   3.859   6.109
 2640SOL    HW1 8264   1.799   3.842   6.042
 2640SOL    HW2 8265   1.695   3.772   6.147
 2641SOL     OW 8266   1.388   5.297   6.063
 2641SOL    HW1 8267   1.455   5.309   5.989
 2641SOL    HW2 8268   1.348   5.386   6.086
 2642SOL     OW 8269   0.130   5.518   7.437
 2642SOL    HW1 8270   0.089   5.444   7.490
 2642SOL    HW2 8271   0.194   5.569   7.495
 2643SOL     OW 8272   1.280   4.651   6.258
 2643SOL    HW1 8273   1.340   4.570   6.260
 2643SOL    HW2 8274   1.320   4.720   6.198
 2644SOL     OW 8275   0.830   4.997   7.008
 2644SOL    HW1 8276   0.825   5.030   7.103
 2644SOL    HW2 8277   0.744   5.016   6.962
 2645SOL     OW 8278   0.672   5.340   5.740
 2645SOL    HW1 8279   0.681   5.350   5.641
 2645SOL    HW2 8280   0.632   5.251   5.761
 2646SOL     OW 8281   1.650   5.444   6.980
 2646SOL    HW1 8282   1.703   5.454   6.896
 2646SOL    HW2 8283   1.623   5.534   7.014
 2647SOL     OW 8284   1.841   3.899   6.549
 2647SOL    HW1 8285   1.880   3.814   6.513
 2647SOL    HW2 8286   1.743   3.901   6.530
 2648SOL     OW 8287   0.263   4.050   6.306
 2648SOL    HW1 8288   0.184   4.101   6.272
 2648SOL    HW2 8289   0.254   4.035   6.404
 2649SOL     OW 8290   1.194   5.336   5.617
 2649SOL    HW1 8291   1.200   5.243   5.654
 2649SOL    HW2 8292   1.135   5.336   5.537
 2650SOL     OW 8293   0.822   4.726   6.958
 2650SOL    HW1 8294   0.862   4.725   6.866
 2650SOL    HW2 8295   0.832   4.818   6.998
 2651SOL     OW 8296   0.916   4.634   5.877
 2651SOL    HW1 8297   0.979   4.672   5.809
 2651SOL    HW2 8298   0.956   4.551   5.916
 2652SOL     OW 8299   1.504   5.331   5.630
 2652SOL    HW1 8300   1.412   5.368   5.637
 2652SOL    HW2 8301   1.542   5.351   5.540
 2653SOL     OW 8302   0.372   5.012   7.076
 2653SOL    HW1 8303   0.359   5.105   7.042
 2653SOL    HW2 8304   0.288   4.960   7.063
 2654SOL     OW 8305   1.614   5.016   6.875
 2654SOL    HW1 8306   1.674   5.019   6.955
 2654SOL    HW2 8307   1.539   5.080   6.888
 2655SOL     OW 8308   1.039   4.822   6.282
 2655SOL    HW1 8309   0.969   4.775   6.336
 2655SOL    HW2 8310   1.098   4.754   6.239
 2656SOL     OW 8311   1.014   3.960   6.557
 2656SOL    HW1 8312   1.006   3.924   6.464
 2656SOL    HW2 8313   1.012   3.884   6.622
 2657SOL     OW 8314   0.590   5.211   6.077
 2657SOL    HW1 8315   0.632   5.153   6.007
 2657SOL    HW2 8316   0.546   5.290   6.033
 2658SOL     OW 8317   1.709   4.109   6.967
 2658SOL    HW1 8318   1.782   4.178   6.971
 2658SOL    HW2 8319   1.737   4.034   6.908
 2659SOL     OW 8320   0.255   5.072   5.876
 2659SOL    HW1 8321   0.159   5.073   5.849
 2659SOL    HW2 8322   0.267   5.125   5.960
 2660SOL     OW 8323   0.105   4.737   7.312
 2660SOL    HW1 8324   0.028   4.704   7.366
 2660SOL    HW2 8325   0.190   4.707   7.354
 2661SOL     OW 8326   0.672   3.927   7.075
 2661SOL    HW1 8327   0.762   3.911   7.035
 2661SOL    HW2 8328   0.680   3.932   7.174
 2662SOL     OW 8329   0.075   4.069   5.619
 2662SOL    HW1 8330  -0.017   4.041   5.590
 2662SOL    HW2 8331   0.106   4.146   5.563
 2663SOL     OW 8332   1.440   4.580   6.984
 2663SOL    HW1 8333   1.383   4.632   6.921
 2663SOL    HW2 8334   1.536   4.592   6.960
 2664SOL     OW 8335   0.072   3.890   5.904
 2664SOL    HW1 8336   0.055   3.973   5.850
 2664SOL    HW2 8337   0.162   3.853   5.882
 2665SOL     OW 8338   1.183   5.059   5.705
 2665SOL    HW1 8339   1.084   5.048   5.707
 2665SOL    HW2 8340   1.217   5.074   5.798
 2666SOL     OW 8341   0.613   4.566   7.017
 2666SOL    HW1 8342   0.669   4.647   7.000
 2666SOL    HW2 8343   0.672   4.486   7.020
 2667SOL     OW 8344   1.493   5.491   6.545
 2667SOL    HW1 8345   1.526   5.555   6.476
 2667SOL    HW2 8346   1.559   5.485   6.620
 2668SOL     OW 8347   0.716   4.289   7.294
 2668SOL    HW1 8348   0.735   4.354   7.368
 2668SOL    HW2 8349   0.776   4.209   7.303
 2669SOL     OW 8350   1.450   4.944   7.219
 2669SOL    HW1 8351   1.441   4.934   7.318
 2669SOL    HW2 8352   1.546   4.937   7.193
 2670SOL     OW 8353   0.390   5.465   7.146
 2670SOL    HW1 8354   0.299   5.506   7.144
 2670SOL    HW2 8355   0.383   5.371   7.178
 2671SOL     OW 8356   1.674   4.607   6.840
 2671SOL    HW1 8357   1.647   4.518   6.803
 2671SOL    HW2 8358   1.675   4.675   6.767
 2672SOL     OW 8359   1.225   4.049   6.035
 2672SOL    HW1 8360   1.290   3.975   6.024
 2672SOL    HW2 8361   1.245   4.099   6.119
 2673SOL     OW 8362   0.594   4.469   6.238
 2673SOL    HW1 8363   0.644   4.554   6.219
 2673SOL    HW2 8364   0.506   4.471   6.190
 2674SOL     OW 8365   1.777   4.066   7.228
 2674SOL    HW1 8366   1.760   4.097   7.134
 2674SOL    HW2 8367   1.693   4.029   7.266
 2675SOL     OW 8368   1.730   4.658   7.103
 2675SOL    HW1 8369   1.768   4.749   7.118
 2675SOL    HW2 8370   1.722   4.641   7.004
 2676SOL     OW 8371   0.859   5.098   5.602
 2676SOL    HW1 8372   0.813   5.113   5.690
 2676SOL    HW2 8373   0.903   5.183   5.572
 2677SOL     OW 8374   0.661   5.514   6.539
 2677SOL    HW1 8375   0.615   5.602   6.526
 2677SOL    HW2 8376   0.760   5.526   6.532
 2678SOL     OW 8377   0.859   4.680   6.447
 2678SOL    HW1 8378   0.913   4.611   6.495
 2678SOL    HW2 8379   0.827   4.749   6.513
 2679SOL     OW 8380   1.083   4.708   5.673
 2679SOL    HW1 8381   1.060   4.761   5.591
 2679SOL    HW2 8382   1.164   4.652   5.654
 2680SOL     OW 8383   1.861   5.293   6.437
 2680SOL    HW1 8384   1.790   5.281   6.367
 2680SOL    HW2 8385   1.862   5.214   6.497
 2681SOL     OW 8386   0.221   5.038   7.430
 2681SOL    HW1 8387   0.156   4.965   7.409
 2681SOL    HW2 8388   0.225   5.052   7.528
 2682SOL     OW 8389   0.079   4.964   6.239
 2682SOL    HW1 8390   0.078   4.917   6.327
 2682SOL    HW2 8391   0.161   4.936   6.188
 2683SOL     OW 8392   0.672   5.115   7.210
 2683SOL    HW1 8393   0.594   5.065   7.248
 2683SOL    HW2 8394   0.669   5.210   7.241
 2684SOL     OW 8395   1.824   3.916   6.813
 2684SOL    HW1 8396   1.820   3.826   6.857
 2684SOL    HW2 8397   1.827   3.905   6.714
 2685SOL     OW 8398   0.428   4.148   6.106
 2685SOL    HW1 8399   0.458   4.076   6.044
 2685SOL    HW2 8400   0.389   4.108   6.189
 2686SOL     OW 8401   1.705   5.211   6.690
 2686SOL    HW1 8402   1.612   5.186   6.663
 2686SOL    HW2 8403   1.731   5.161   6.772
 2687SOL     OW 8404   0.317   4.271   6.866
 2687SOL    HW1 8405   0.355   4.212   6.938
 2687SOL    HW2 8406   0.357   4.245   6.778
 2688SOL     OW 8407   0.812   5.310   6.273
 2688SOL    HW1 8408   0.844   5.320   6.179
 2688SOL    HW2 8409   0.733   5.248   6.275
 2689SOL     OW 8410   1.424   3.938   6.698
 2689SOL    HW1 8411   1.476   3.873   6.753
 2689SOL    HW2 8412   1.375   4.001   6.759
 2690SOL     OW 8413   1.001   3.758   6.740
 2690SOL    HW1 8414   0.938   3.686   6.709
 2690SOL    HW2 8415   1.094   3.722   6.740
 2691SOL     OW 8416   0.770   5.054   5.887
 2691SOL    HW1 8417   0.724   4.967   5.904
 2691SOL    HW2 8418   0.861   5.051   5.928
 2692SOL     OW 8419   0.618   5.291   6.870
 2692SOL    HW1 8420   0.613   5.373   6.927
 2692SOL    HW2 8421   0.707   5.288   6.825
 2693SOL     OW 8422   1.352   3.776   5.754
 2693SOL    HW1 8423   1.387   3.735   5.670
 2693SOL    HW2 8424   1.262   3.738   5.774
 2694SOL     OW 8425   1.300   4.177   6.277
 2694SOL    HW1 8426   1.241   4.257   6.281
 2694SOL    HW2 8427   1.315   4.142   6.370
 2695SOL     OW 8428   1.593   3.945   6.468
 2695SOL    HW1 8429   1.509   3.944   6.522
 2695SOL    HW2 8430   1.595   4.028   6.412
 2696SOL     OW 8431   0.039   4.801   5.886
 2696SOL    HW1 8432   0.138   4.790   5.877
 2696SOL    HW2 8433  -0.001   4.715   5.918
 2697SOL     OW 8434   0.875   5.370   5.923
 2697SOL    HW1 8435   0.798   5.335   5.869
 2697SOL    HW2 8436   0.843   5.441   5.985
 2698SOL     OW 8437   0.230   4.352   7.561
 2698SOL    HW1 8438   0.137   4.350   7.598
 2698SOL    HW2 8439   0.231   4.313   7.469
 2699SOL     OW 8440   1.755   4.331   7.679
 2699SOL    HW1 8441   1.743   4.318   7.580
 2699SOL    HW2 8442   1.725   4.250   7.728
 2700SOL     OW 8443   0.231   5.437   7.931
 2700SOL    HW1 8444   0.265   5.514   7.985
 2700SOL    HW2 8445   0.275   5.437   7.841
 2701SOL     OW 8446   0.606   4.688   7.571
 2701SOL    HW1 8447   0.613   4.772   7.517
 2701SOL    HW2 8448   0.652   4.701   7.659
 2702SOL     OW 8449   1.842   5.491   7.807
 2702SOL    HW1 8450   1.896   5.462   7.887
 2702SOL    HW2 8451   1.872   5.581   7.778
 2703SOL     OW 8452   0.027   5.320   7.565
 2703SOL    HW1 8453   0.008   5.224   7.586
 2703SOL    HW2 8454  -0.006   5.378   7.640
 2704SOL     OW 8455   1.641   4.832   7.880
 2704SOL    HW1 8456   1.727   4.834   7.828
 2704SOL    HW2 8457   1.655   4.879   7.968
 2705SOL     OW 8458   0.809   3.728   7.950
 2705SOL    HW1 8459   0.849   3.819   7.941
 2705SOL    HW2 8460   0.709   3.736   7.956
 2706SOL     OW 8461   1.525   4.723   7.638
 2706SOL    HW1 8462   1.462   4.647   7.651
 2706SOL    HW2 8463   1.573   4.741   7.724
 2707SOL     OW 8464   1.667   5.438   8.020
 2707SOL    HW1 8465   1.626   5.415   7.932
 2707SOL    HW2 8466   1.649   5.364   8.085
 2708SOL     OW 8467   0.598   4.453   7.718
 2708SOL    HW1 8468   0.622   4.522   7.650
 2708SOL    HW2 8469   0.520   4.486   7.772
 2709SOL     OW 8470   1.576   5.386   7.755
 2709SOL    HW1 8471   1.665   5.432   7.758
 2709SOL    HW2 8472   1.555   5.362   7.660
 2710SOL     OW 8473   1.041   4.425   7.877
 2710SOL    HW1 8474   1.067   4.421   7.973
 2710SOL    HW2 8475   0.956   4.374   7.863
 2711SOL     OW 8476   0.865   4.072   7.643
 2711SOL    HW1 8477   0.924   4.135   7.594
 2711SOL    HW2 8478   0.884   3.978   7.614
 2712SOL     OW 8479   1.362   4.868   7.993
 2712SOL    HW1 8480   1.445   4.839   7.945
 2712SOL    HW2 8481   1.313   4.935   7.937
 2713SOL     OW 8482   1.008   5.180   7.925
 2713SOL    HW1 8483   0.962   5.252   7.873
 2713SOL    HW2 8484   1.004   5.200   8.023
 2714SOL     OW 8485   0.321   4.667   7.690
 2714SOL    HW1 8486   0.403   4.706   7.648
 2714SOL    HW2 8487   0.294   4.585   7.641
 2715SOL     OW 8488   1.111   5.500   7.685
 2715SOL    HW1 8489   1.051   5.438   7.735
 2715SOL    HW2 8490   1.142   5.456   7.600
 2716SOL     OW 8491   1.632   5.101   7.529
 2716SOL    HW1 8492   1.600   5.195   7.519
 2716SOL    HW2 8493   1.556   5.038   7.517
 2717SOL     OW 8494   0.464   5.467   7.771
 2717SOL    HW1 8495   0.497   5.506   7.857
 2717SOL    HW2 8496   0.540   5.460   7.706
 2718SOL     OW 8497   1.400   3.831   7.874
 2718SOL    HW1 8498   1.376   3.794   7.784
 2718SOL    HW2 8499   1.499   3.847   7.878
 2719SOL     OW 8500   0.382   4.424   7.928
 2719SOL    HW1 8501   0.427   4.334   7.925
 2719SOL    HW2 8502   0.288   4.413   7.961
 2720SOL     OW 8503   0.614   3.846   7.565
 2720SOL    HW1 8504   0.712   3.824   7.572
 2720SOL    HW2 8505   0.583   3.829   7.472
 2721SOL     OW 8506   0.539   3.788   7.960
 2721SOL    HW1 8507   0.458   3.789   8.018
 2721SOL    HW2 8508   0.542   3.871   7.905
 2722SOL     OW 8509   1.434   4.912   7.489
 2722SOL    HW1 8510   1.466   4.836   7.546
 2722SOL    HW2 8511   1.342   4.939   7.519
 2723SOL     OW 8512   0.297   3.759   7.619
 2723SOL    HW1 8513   0.346   3.843   7.598
 2723SOL    HW2 8514   0.359   3.694   7.664
 2724SOL     OW 8515   0.935   3.960   7.928
 2724SOL    HW1 8516   0.887   4.001   7.850
 2724SOL    HW2 8517   1.034   3.958   7.909
 2725SOL     OW 8518   1.032   4.273   7.464
 2725SOL    HW1 8519   0.991   4.355   7.425
 2725SOL    HW2 8520   1.096   4.299   7.537
 2726SOL     OW 8521   1.857   4.557   7.825
 2726SOL    HW1 8522   1.899   4.493   7.889
 2726SOL    HW2 8523   1.819   4.506   7.747
 2727SOL     OW 8524   0.488   5.109   7.622
 2727SOL    HW1 8525   0.401   5.094   7.669
 2727SOL    HW2 8526   0.471   5.135   7.527
 2728SOL     OW 8527   1.390   4.299   7.526
 2728SOL    HW1 8528   1.336   4.278   7.607
 2728SOL    HW2 8529   1.481   4.258   7.535
 2729SOL     OW 8530   0.527   3.980   7.776
 2729SOL    HW1 8531   0.554   3.921   7.701
 2729SOL    HW2 8532   0.527   4.075   7.745
 2730SOL     OW 8533   0.705   4.774   7.816
 2730SOL    HW1 8534   0.691   4.781   7.915
 2730SOL    HW2 8535   0.789   4.723   7.798
 2731SOL     OW 8536   0.367   4.824   7.949
 2731SOL    HW1 8537   0.360   4.907   7.893
 2731SOL    HW2 8538   0.371   4.744   7.889
 2732SOL     OW 8539   1.252   5.072   7.836
 2732SOL    HW1 8540   1.302   5.149   7.876
 2732SOL    HW2 8541   1.157   5.074   7.868
 2733SOL     OW 8542   1.582   4.363   7.920
 2733SOL    HW1 8543   1.551   4.424   7.993
 2733SOL    HW2 8544   1.632   4.415   7.851
 2734SOL     OW 8545   1.209   4.249   7.723
 2734SOL    HW1 8546   1.222   4.165   7.777
 2734SOL    HW2 8547   1.180   4.323   7.783
 2735SOL     OW 8548   1.622   4.091   7.822
 2735SOL    HW1 8549   1.624   4.015   7.886
 2735SOL    HW2 8550   1.574   4.168   7.862
 2736SOL     OW 8551   1.540   3.998   7.573
 2736SOL    HW1 8552   1.479   3.923   7.596
 2736SOL    HW2 8553   1.562   4.050   7.656
 2737SOL     OW 8554   1.303   4.562   7.490
 2737SOL    HW1 8555   1.337   4.469   7.505
 2737SOL    HW2 8556   1.321   4.589   7.395
 2738SOL     OW 8557   0.008   5.050   7.648
 2738SOL    HW1 8558  -0.085   5.071   7.617
 2738SOL    HW2 8559   0.018   4.951   7.661
 2739SOL     OW 8560   0.815   4.296   7.773
 2739SOL    HW1 8561   0.822   4.207   7.727
 2739SOL    HW2 8562   0.721   4.330   7.765
 2740SOL     OW 8563   0.473   4.224   7.639
 2740SOL    HW1 8564   0.534   4.304   7.643
 2740SOL    HW2 8565   0.378   4.255   7.646
 2741SOL     OW 8566   1.302   4.579   7.757
 2741SOL    HW1 8567   1.216   4.548   7.799
 2741SOL    HW2 8568   1.298   4.565   7.658
 2742SOL     OW 8569   1.726   3.859   7.971
 2742SOL    HW1 8570   1.799   3.842   7.904
 2742SOL    HW2 8571   1.695   3.772   8.009
 2743SOL     OW 8572   1.388   5.297   7.925
 2743SOL    HW1 8573   1.455   5.309   7.851
 2743SOL    HW2 8574   1.348   5.386   7.948
 2744SOL     OW 8575   0.672   5.340   7.602
 2744SOL    HW1 8576   0.681   5.350   7.503
 2744SOL    HW2 8577   0.632   5.251   7.623
 2745SOL     OW 8578   1.194   5.336   7.479
 2745SOL    HW1 8579   1.200   5.243   7.516
 2745SOL    HW2 8580   1.135   5.336   7.399
 2746SOL     OW 8581   0.916   4.634   7.739
 2746SOL    HW1 8582   0.979   4.672   7.671
 2746SOL    HW2 8583   0.956   4.551   7.778
 2747SOL     OW 8584   1.504   5.331   7.492
 2747SOL    HW1 8585   1.412   5.368   7.499
 2747SOL    HW2 8586   1.542   5.351   7.402
 2748SOL     OW 8587   0.590   5.211   7.939
 2748SOL    HW1 8588   0.632   5.153   7.869
 2748SOL    HW2 8589   0.546   5.290   7.895
 2749SOL     OW 8590   0.255   5.072   7.738
 2749SOL    HW1 8591   0.159   5.073   7.711
 2749SOL    HW2 8592   0.267   5.125   7.822
 2750SOL     OW 8593   0.075   4.069   7.481
 2750SOL    HW1 8594  -0.017   4.041   7.452
 2750SOL    HW2 8595   0.106   4.146   7.425
 2751SOL     OW 8596   0.072   3.890   7.766
 2751SOL    HW1 8597   0.055   3.973   7.712
 2751SOL    HW2 8598   0.162   3.853   7.744
 2752SOL     OW 8599   1.183   5.059   7.567
 2752SOL    HW1 8600   1.084   5.048   7.569
 2752SOL    HW2 8601   1.217   5.074   7.660
 2753SOL     OW 8602   1.225   4.049   7.897
 2753SOL    HW1 8603   1.290   3.975   7.886
 2753SOL    HW2 8604   1.245   4.099   7.981
 2754SOL     OW 8605   0.859   5.098   7.464
 2754SOL    HW1 8606   0.813   5.113   7.552
 2754SOL    HW2 8607   0.903   5.183   7.434
 2755SOL     OW 8608   1.083   4.708   7.535
 2755SOL    HW1 8609   1.060   4.761   7.453
 2755SOL    HW2 8610   1.164   4.652   7.516
 2756SOL     OW 8611   0.428   4.148   7.968
 2756SOL    HW1 8612   0.458   4.076   7.906
 2756SOL    HW2 8613   0.389   4.108   8.051
 2757SOL     OW 8614   0.770   5.054   7.749
 2757SOL    HW1 8615   0.724   4.967   7.766
 2757SOL    HW2 8616   0.861   5.051   7.790
 2758SOL     OW 8617   1.352   3.776   7.616
 2758SOL    HW1 8618   1.387   3.735   7.532
 2758SOL    HW2 8619   1.262   3.738   7.636
 2759SOL     OW 8620   0.039   4.801   7.748
 2759SOL    HW1 8621   0.138   4.790   7.739
 2759SOL    HW2 8622  -0.001   4.715   7.780
 2760SOL     OW 8623   0.875   5.370   7.785
 2760SOL    HW1 8624   0.798   5.335   7.731
 2760SOL    HW2 8625   0.843   5.441   7.847
 2761SOL     OW 8626   0.230   6.214   0.113
 2761SOL    HW1 8627   0.137   6.212   0.150
 2761SOL    HW2 8628   0.231   6.175   0.021
 2762SOL     OW 8629   0.225   5.861   0.996
 2762SOL    HW1 8630   0.260   5.844   1.088
 2762SOL    HW2 8631   0.137   5.816   0.984
 2763SOL     OW 8632   0.019   5.954   0.647
 2763SOL    HW1 8633  -0.063   5.997   0.686
 2763SOL    HW2 8634  -0.009   5.881   0.584
 2764SOL     OW 8635   0.569   6.861   1.165
 2764SOL    HW1 8636   0.476   6.854   1.128
 2764SOL    HW2 8637   0.580   6.950   1.209
 2765SOL     OW 8638   1.555   7.097   0.703
 2765SOL    HW1 8639   1.498   7.081   0.784
 2765SOL    HW2 8640   1.496   7.107   0.623
 2766SOL     OW 8641   1.135   6.289   0.717
 2766SOL    HW1 8642   1.192   6.367   0.692
 2766SOL    HW2 8643   1.075   6.315   0.793
 2767SOL     OW 8644   1.755   6.193   0.231
 2767SOL    HW1 8645   1.743   6.180   0.132
 2767SOL    HW2 8646   1.725   6.112   0.280
 2768SOL     OW 8647   0.768   6.730   1.023
 2768SOL    HW1 8648   0.690   6.747   1.083
 2768SOL    HW2 8649   0.802   6.817   0.987
 2769SOL     OW 8650   0.850   6.384   1.823
 2769SOL    HW1 8651   0.846   6.460   1.888
 2769SOL    HW2 8652   0.872   6.420   1.732
 2770SOL     OW 8653   0.685   6.598   0.665
 2770SOL    HW1 8654   0.754   6.582   0.735
 2770SOL    HW2 8655   0.612   6.655   0.703
 2771SOL     OW 8656   0.686   6.747   1.803
 2771SOL    HW1 8657   0.746   6.826   1.817
 2771SOL    HW2 8658   0.600   6.778   1.762
 2772SOL     OW 8659   0.335   7.021   1.061
 2772SOL    HW1 8660   0.257   6.990   1.008
 2772SOL    HW2 8661   0.393   7.079   1.004
 2773SOL     OW 8662   1.460   7.091   1.339
 2773SOL    HW1 8663   1.484   7.185   1.365
 2773SOL    HW2 8664   1.444   7.037   1.421
 2774SOL     OW 8665   0.438   5.978   1.499
 2774SOL    HW1 8666   0.520   5.922   1.508
 2774SOL    HW2 8667   0.357   5.920   1.503
 2775SOL     OW 8668   1.603   6.033   0.737
 2775SOL    HW1 8669   1.529   6.079   0.687
 2775SOL    HW2 8670   1.654   6.101   0.790
 2776SOL     OW 8671   0.231   7.299   0.483
 2776SOL    HW1 8672   0.265   7.376   0.537
 2776SOL    HW2 8673   0.275   7.299   0.393
 2777SOL     OW 8674   1.127   6.927   1.690
 2777SOL    HW1 8675   1.174   6.927   1.778
 2777SOL    HW2 8676   1.079   6.840   1.679
 2778SOL     OW 8677   0.230   7.020   0.538
 2778SOL    HW1 8678   0.204   7.116   0.538
 2778SOL    HW2 8679   0.159   6.966   0.583
 2779SOL     OW 8680   0.240   6.677   0.886
 2779SOL    HW1 8681   0.254   6.593   0.938
 2779SOL    HW2 8682   0.185   6.741   0.941
 2780SOL     OW 8683   0.620   7.372   1.439
 2780SOL    HW1 8684   0.528   7.355   1.474
 2780SOL    HW2 8685   0.648   7.464   1.465
 2781SOL     OW 8686   0.606   6.550   0.123
 2781SOL    HW1 8687   0.613   6.634   0.069
 2781SOL    HW2 8688   0.652   6.563   0.211
 2782SOL     OW 8689   1.594   5.700   1.480
 2782SOL    HW1 8690   1.576   5.767   1.408
 2782SOL    HW2 8691   1.591   5.746   1.569
 2783SOL     OW 8692   0.122   6.229   0.563
 2783SOL    HW1 8693   0.077   6.141   0.580
 2783SOL    HW2 8694   0.121   6.283   0.647
 2784SOL     OW 8695   1.842   7.353   0.359
 2784SOL    HW1 8696   1.896   7.324   0.439
 2784SOL    HW2 8697   1.872   7.443   0.330
 2785SOL     OW 8698   0.027   7.182   0.117
 2785SOL    HW1 8699   0.008   7.086   0.138
 2785SOL    HW2 8700  -0.006   7.240   0.192
 2786SOL     OW 8701   1.689   6.508   0.612
 2786SOL    HW1 8702   1.784   6.479   0.620
 2786SOL    HW2 8703   1.681   6.573   0.537
 2787SOL     OW 8704   1.641   6.694   0.432
 2787SOL    HW1 8705   1.727   6.696   0.380
 2787SOL    HW2 8706   1.655   6.741   0.520
 2788SOL     OW 8707   0.113   6.323   1.597
 2788SOL    HW1 8708   0.201   6.310   1.642
 2788SOL    HW2 8709   0.100   6.420   1.575
 2789SOL     OW 8710   0.613   6.951   0.726
 2789SOL    HW1 8711   0.564   6.864   0.735
 2789SOL    HW2 8712   0.590   6.994   0.639
 2790SOL     OW 8713   1.293   6.814   1.423
 2790SOL    HW1 8714   1.330   6.741   1.365
 2790SOL    HW2 8715   1.345   6.819   1.508
 2791SOL     OW 8716   0.809   5.590   0.502
 2791SOL    HW1 8717   0.849   5.681   0.493
 2791SOL    HW2 8718   0.709   5.598   0.508
 2792SOL     OW 8719   0.197   6.562   1.264
 2792SOL    HW1 8720   0.286   6.517   1.250
 2792SOL    HW2 8721   0.124   6.497   1.245
 2793SOL     OW 8722   1.525   6.585   0.190
 2793SOL    HW1 8723   1.462   6.509   0.203
 2793SOL    HW2 8724   1.573   6.603   0.276
 2794SOL     OW 8725   1.187   7.378   1.616
 2794SOL    HW1 8726   1.211   7.438   1.540
 2794SOL    HW2 8727   1.194   7.283   1.586
 2795SOL     OW 8728   0.317   5.837   1.801
 2795SOL    HW1 8729   0.388   5.908   1.807
 2795SOL    HW2 8730   0.229   5.876   1.829
 2796SOL     OW 8731   1.466   7.003   0.953
 2796SOL    HW1 8732   1.407   7.009   1.033
 2796SOL    HW2 8733   1.451   6.915   0.907
 2797SOL     OW 8734   1.667   7.300   0.572
 2797SOL    HW1 8735   1.626   7.277   0.484
 2797SOL    HW2 8736   1.649   7.226   0.637
 2798SOL     OW 8737   0.598   6.315   0.270
 2798SOL    HW1 8738   0.622   6.384   0.202
 2798SOL    HW2 8739   0.520   6.348   0.324
 2799SOL     OW 8740   1.281   5.931   0.944
 2799SOL    HW1 8741   1.195   5.881   0.931
 2799SOL    HW2 8742   1.343   5.877   1.000
 2800SOL     OW 8743   1.576   7.248   0.307
 2800SOL    HW1 8744   1.665   7.294   0.310
 2800SOL    HW2 8745   1.555   7.224   0.212
 2801SOL     OW 8746   0.807   6.191   1.465
 2801SOL    HW1 8747   0.760   6.188   1.554
 2801SOL    HW2 8748   0.756   6.136   1.399
 2802SOL     OW 8749   1.394   6.055   1.674
 2802SOL    HW1 8750   1.374   6.098   1.762
 2802SOL    HW2 8751   1.472   5.993   1.683
 2803SOL     OW 8752   0.973   6.476   1.572
 2803SOL    HW1 8753   1.019   6.392   1.543
 2803SOL    HW2 8754   0.917   6.510   1.497
 2804SOL     OW 8755   0.991   5.996   1.242
 2804SOL    HW1 8756   0.914   6.030   1.296
 2804SOL    HW2 8757   0.957   5.945   1.163
 2805SOL     OW 8758   1.041   6.287   0.429
 2805SOL    HW1 8759   1.067   6.283   0.525
 2805SOL    HW2 8760   0.956   6.236   0.415
 2806SOL     OW 8761   0.076   6.397   0.789
 2806SOL    HW1 8762   0.175   6.385   0.798
 2806SOL    HW2 8763   0.052   6.492   0.810
 2807SOL     OW 8764   0.130   7.407   1.571
 2807SOL    HW1 8765   0.120   7.392   1.670
 2807SOL    HW2 8766   0.044   7.443   1.535
 2808SOL     OW 8767   0.865   5.934   0.195
 2808SOL    HW1 8768   0.924   5.997   0.146
 2808SOL    HW2 8769   0.884   5.840   0.166
 2809SOL     OW 8770   1.719   6.171   1.831
 2809SOL    HW1 8771   1.693   6.260   1.795
 2809SOL    HW2 8772   1.717   6.103   1.758
 2810SOL     OW 8773   1.362   6.730   0.545
 2810SOL    HW1 8774   1.445   6.701   0.497
 2810SOL    HW2 8775   1.313   6.797   0.489
 2811SOL     OW 8776   0.550   5.782   0.885
 2811SOL    HW1 8777   0.545   5.777   0.985
 2811SOL    HW2 8778   0.552   5.878   0.856
 2812SOL     OW 8779   1.008   7.042   0.477
 2812SOL    HW1 8780   0.962   7.114   0.425
 2812SOL    HW2 8781   1.004   7.062   0.575
 2813SOL     OW 8782   0.351   7.387   0.853
 2813SOL    HW1 8783   0.401   7.301   0.859
 2813SOL    HW2 8784   0.416   7.464   0.850
 2814SOL     OW 8785   1.795   6.652   0.873
 2814SOL    HW1 8786   1.733   6.637   0.797
 2814SOL    HW2 8787   1.743   6.663   0.958
 2815SOL     OW 8788   1.227   7.136   1.506
 2815SOL    HW1 8789   1.233   7.059   1.570
 2815SOL    HW2 8790   1.175   7.110   1.426
 2816SOL     OW 8791   0.321   6.529   0.242
 2816SOL    HW1 8792   0.403   6.568   0.200
 2816SOL    HW2 8793   0.294   6.447   0.193
 2817SOL     OW 8794   1.458   6.321   0.728
 2817SOL    HW1 8795   1.453   6.256   0.803
 2817SOL    HW2 8796   1.538   6.380   0.741
 2818SOL     OW 8797   0.461   6.852   1.727
 2818SOL    HW1 8798   0.411   6.853   1.641
 2818SOL    HW2 8799   0.398   6.834   1.803
 2819SOL     OW 8800   1.111   7.362   0.237
 2819SOL    HW1 8801   1.051   7.300   0.287
 2819SOL    HW2 8802   1.142   7.318   0.152
 2820SOL     OW 8803   0.202   5.871   1.498
 2820SOL    HW1 8804   0.122   5.931   1.485
 2820SOL    HW2 8805   0.192   5.822   1.584
 2821SOL     OW 8806   1.632   6.963   0.081
 2821SOL    HW1 8807   1.600   7.057   0.071
 2821SOL    HW2 8808   1.556   6.900   0.069
 2822SOL     OW 8809   0.464   7.329   0.323
 2822SOL    HW1 8810   0.497   7.368   0.409
 2822SOL    HW2 8811   0.540   7.322   0.258
 2823SOL     OW 8812   1.400   5.693   0.426
 2823SOL    HW1 8813   1.376   5.656   0.336
 2823SOL    HW2 8814   1.499   5.709   0.430
 2824SOL     OW 8815   0.249   7.371   1.241
 2824SOL    HW1 8816   0.306   7.306   1.291
 2824SOL    HW2 8817   0.233   7.338   1.148
 2825SOL     OW 8818   0.940   7.284   0.904
 2825SOL    HW1 8819   1.020   7.227   0.925
 2825SOL    HW2 8820   0.891   7.244   0.827
 2826SOL     OW 8821   0.382   6.286   0.480
 2826SOL    HW1 8822   0.427   6.196   0.477
 2826SOL    HW2 8823   0.288   6.275   0.513
 2827SOL     OW 8824   1.547   5.808   1.729
 2827SOL    HW1 8825   1.542   5.845   1.821
 2827SOL    HW2 8826   1.475   5.739   1.717
 2828SOL     OW 8827   0.614   5.708   0.117
 2828SOL    HW1 8828   0.712   5.686   0.124
 2828SOL    HW2 8829   0.583   5.691   0.024
 2829SOL     OW 8830   0.781   5.850   1.749
 2829SOL    HW1 8831   0.848   5.789   1.792
 2829SOL    HW2 8832   0.708   5.869   1.814
 2830SOL     OW 8833   0.888   7.100   1.195
 2830SOL    HW1 8834   0.865   7.075   1.101
 2830SOL    HW2 8835   0.949   7.031   1.234
 2831SOL     OW 8836   1.351   6.176   1.433
 2831SOL    HW1 8837   1.379   6.133   1.518
 2831SOL    HW2 8838   1.376   6.272   1.434
 2832SOL     OW 8839   0.803   6.988   0.924
 2832SOL    HW1 8840   0.893   7.002   0.882
 2832SOL    HW2 8841   0.732   6.990   0.853
 2833SOL     OW 8842   0.922   6.089   0.899
 2833SOL    HW1 8843   0.897   6.080   0.803
 2833SOL    HW2 8844   0.970   6.007   0.930
 2834SOL     OW 8845   0.539   5.650   0.512
 2834SOL    HW1 8846   0.458   5.651   0.570
 2834SOL    HW2 8847   0.542   5.733   0.457
 2835SOL     OW 8848   1.434   6.774   0.041
 2835SOL    HW1 8849   1.466   6.698   0.098
 2835SOL    HW2 8850   1.342   6.801   0.071
 2836SOL     OW 8851   0.297   5.621   0.171
 2836SOL    HW1 8852   0.346   5.705   0.150
 2836SOL    HW2 8853   0.359   5.556   0.216
 2837SOL     OW 8854   0.935   5.822   0.480
 2837SOL    HW1 8855   0.887   5.863   0.402
 2837SOL    HW2 8856   1.034   5.820   0.461
 2838SOL     OW 8857   1.076   6.269   1.464
 2838SOL    HW1 8858   0.996   6.208   1.467
 2838SOL    HW2 8859   1.157   6.216   1.440
 2839SOL     OW 8860   1.227   7.156   0.793
 2839SOL    HW1 8861   1.248   7.230   0.728
 2839SOL    HW2 8862   1.295   7.156   0.866
 2840SOL     OW 8863   0.459   6.738   0.741
 2840SOL    HW1 8864   0.388   6.711   0.806
 2840SOL    HW2 8865   0.433   6.710   0.648
 2841SOL     OW 8866   1.271   7.383   0.591
 2841SOL    HW1 8867   1.315   7.447   0.527
 2841SOL    HW2 8868   1.221   7.435   0.661
 2842SOL     OW 8869   1.032   6.135   0.016
 2842SOL    HW1 8870   0.991   6.217  -0.023
 2842SOL    HW2 8871   1.096   6.161   0.089
 2843SOL     OW 8872   0.078   6.142   1.386
 2843SOL    HW1 8873   0.170   6.141   1.345
 2843SOL    HW2 8874   0.072   6.216   1.453
 2844SOL     OW 8875   0.561   5.808   1.147
 2844SOL    HW1 8876   0.599   5.724   1.184
 2844SOL    HW2 8877   0.473   5.827   1.191
 2845SOL     OW 8878   0.866   6.040   0.642
 2845SOL    HW1 8879   0.834   6.112   0.580
 2845SOL    HW2 8880   0.890   5.959   0.589
 2846SOL     OW 8881   1.017   5.625   0.753
 2846SOL    HW1 8882   0.945   5.630   0.684
 2846SOL    HW2 8883   0.993   5.556   0.822
 2847SOL     OW 8884   1.429   6.759   0.867
 2847SOL    HW1 8885   1.374   6.675   0.860
 2847SOL    HW2 8886   1.455   6.788   0.775
 2848SOL     OW 8887   1.466   6.176   0.992
 2848SOL    HW1 8888   1.436   6.081   0.999
 2848SOL    HW2 8889   1.539   6.192   1.058
 2849SOL     OW 8890   1.857   6.419   0.377
 2849SOL    HW1 8891   1.899   6.355   0.441
 2849SOL    HW2 8892   1.819   6.368   0.299
 2850SOL     OW 8893   0.488   6.971   0.174
 2850SOL    HW1 8894   0.401   6.956   0.221
 2850SOL    HW2 8895   0.471   6.997   0.079
 2851SOL     OW 8896   1.664   6.866   0.657
 2851SOL    HW1 8897   1.763   6.874   0.671
 2851SOL    HW2 8898   1.619   6.950   0.688
 2852SOL     OW 8899   1.390   6.161   0.078
 2852SOL    HW1 8900   1.336   6.140   0.159
 2852SOL    HW2 8901   1.481   6.120   0.087
 2853SOL     OW 8902   0.527   5.842   0.328
 2853SOL    HW1 8903   0.554   5.783   0.253
 2853SOL    HW2 8904   0.527   5.937   0.297
 2854SOL     OW 8905   1.754   6.809   1.588
 2854SOL    HW1 8906   1.845   6.770   1.575
 2854SOL    HW2 8907   1.762   6.905   1.612
 2855SOL     OW 8908   1.064   6.933   1.340
 2855SOL    HW1 8909   0.984   6.910   1.395
 2855SOL    HW2 8910   1.147   6.907   1.389
 2856SOL     OW 8911   1.592   7.215   1.625
 2856SOL    HW1 8912   1.619   7.249   1.535
 2856SOL    HW2 8913   1.671   7.177   1.671
 2857SOL     OW 8914   1.111   6.781   1.100
 2857SOL    HW1 8915   1.071   6.825   1.181
 2857SOL    HW2 8916   1.070   6.818   1.017
 2858SOL     OW 8917   1.638   6.685   1.079
 2858SOL    HW1 8918   1.643   6.766   1.138
 2858SOL    HW2 8919   1.552   6.687   1.028
 2859SOL     OW 8920   0.915   5.675   1.402
 2859SOL    HW1 8921   0.940   5.655   1.307
 2859SOL    HW2 8922   0.987   5.731   1.444
 2860SOL     OW 8923   0.980   6.702   1.719
 2860SOL    HW1 8924   0.881   6.708   1.729
 2860SOL    HW2 8925   1.003   6.622   1.663
 2861SOL     OW 8926   0.705   6.636   0.368
 2861SOL    HW1 8927   0.691   6.643   0.467
 2861SOL    HW2 8928   0.789   6.585   0.350
 2862SOL     OW 8929   0.410   6.399   1.251
 2862SOL    HW1 8930   0.496   6.411   1.301
 2862SOL    HW2 8931   0.368   6.312   1.278
 2863SOL     OW 8932   1.274   5.972   1.262
 2863SOL    HW1 8933   1.295   6.046   1.326
 2863SOL    HW2 8934   1.185   5.989   1.219
 2864SOL     OW 8935   0.064   7.150   1.331
 2864SOL    HW1 8936   0.018   7.232   1.297
 2864SOL    HW2 8937   0.162   7.169   1.340
 2865SOL     OW 8938   0.367   6.686   0.501
 2865SOL    HW1 8939   0.360   6.769   0.445
 2865SOL    HW2 8940   0.371   6.606   0.441
 2866SOL     OW 8941   0.566   6.123   0.865
 2866SOL    HW1 8942   0.578   6.189   0.791
 2866SOL    HW2 8943   0.612   6.157   0.948
 2867SOL     OW 8944   1.252   6.934   0.388
 2867SOL    HW1 8945   1.302   7.011   0.428
 2867SOL    HW2 8946   1.157   6.936   0.420
 2868SOL     OW 8947   1.272   7.031   1.142
 2868SOL    HW1 8948   1.319   7.044   1.229
 2868SOL    HW2 8949   1.206   6.957   1.151
 2869SOL     OW 8950   1.582   6.225   0.472
 2869SOL    HW1 8951   1.551   6.286   0.545
 2869SOL    HW2 8952   1.632   6.277   0.403
 2870SOL     OW 8953   0.354   7.096   1.329
 2870SOL    HW1 8954   0.333   7.052   1.242
 2870SOL    HW2 8955   0.451   7.122   1.332
 2871SOL     OW 8956   0.402   6.337   1.598
 2871SOL    HW1 8957   0.470   6.392   1.551
 2871SOL    HW2 8958   0.442   6.249   1.625
 2872SOL     OW 8959   1.587   6.365   1.670
 2872SOL    HW1 8960   1.495   6.403   1.665
 2872SOL    HW2 8961   1.647   6.412   1.605
 2873SOL     OW 8962   1.013   5.691   1.770
 2873SOL    HW1 8963   1.019   5.776   1.718
 2873SOL    HW2 8964   1.045   5.615   1.713
 2874SOL     OW 8965   0.504   5.636   1.740
 2874SOL    HW1 8966   0.462   5.579   1.670
 2874SOL    HW2 8967   0.438   5.705   1.772
 2875SOL     OW 8968   0.573   6.456   1.029
 2875SOL    HW1 8969   0.617   6.545   1.020
 2875SOL    HW2 8970   0.510   6.456   1.106
 2876SOL     OW 8971   1.360   6.448   1.045
 2876SOL    HW1 8972   1.285   6.448   0.979
 2876SOL    HW2 8973   1.397   6.356   1.054
 2877SOL     OW 8974   1.209   6.111   0.275
 2877SOL    HW1 8975   1.222   6.027   0.329
 2877SOL    HW2 8976   1.180   6.185   0.335
 2878SOL     OW 8977   0.307   5.799   1.231
 2878SOL    HW1 8978   0.284   5.836   1.321
 2878SOL    HW2 8979   0.277   5.704   1.225
 2879SOL     OW 8980   0.037   6.896   1.282
 2879SOL    HW1 8981   0.090   6.847   1.350
 2879SOL    HW2 8982   0.059   6.994   1.287
 2880SOL     OW 8983   0.732   6.220   1.064
 2880SOL    HW1 8984   0.791   6.194   0.988
 2880SOL    HW2 8985   0.704   6.316   1.053
 2881SOL     OW 8986   1.728   6.521   1.854
 2881SOL    HW1 8987   1.682   6.514   1.765
 2881SOL    HW2 8988   1.666   6.565   1.920
 2882SOL     OW 8989   0.307   5.649   0.618
 2882SOL    HW1 8990   0.296   5.743   0.651
 2882SOL    HW2 8991   0.302   5.586   0.695
 2883SOL     OW 8992   1.622   5.953   0.374
 2883SOL    HW1 8993   1.624   5.877   0.438
 2883SOL    HW2 8994   1.574   6.030   0.414
 2884SOL     OW 8995   1.023   6.352   0.966
 2884SOL    HW1 8996   1.038   6.373   1.062
 2884SOL    HW2 8997   0.993   6.257   0.957
 2885SOL     OW 8998   0.980   7.159   1.700
 2885SOL    HW1 8999   0.960   7.203   1.612
 2885SOL    HW2 9000   1.019   7.068   1.684
 2886SOL     OW 9001   1.859   7.104   1.605
 2886SOL    HW1 9002   1.873   7.131   1.510
 2886SOL    HW2 9003   1.942   7.126   1.658
 2887SOL     OW 9004   0.350   6.484   1.804
 2887SOL    HW1 9005   0.426   6.528   1.852
 2887SOL    HW2 9006   0.385   6.437   1.722
 2888SOL     OW 9007   1.540   5.860   0.125
 2888SOL    HW1 9008   1.479   5.785   0.148
 2888SOL    HW2 9009   1.562   5.912   0.208
 2889SOL     OW 9010   1.303   6.424   0.042
 2889SOL    HW1 9011   1.337   6.331   0.057
 2889SOL    HW2 9012   1.321   6.451  -0.053
 2890SOL     OW 9013   1.068   6.919   0.849
 2890SOL    HW1 9014   1.075   6.835   0.794
 2890SOL    HW2 9015   1.130   6.988   0.813
 2891SOL     OW 9016   0.319   6.396   0.949
 2891SOL    HW1 9017   0.412   6.432   0.954
 2891SOL    HW2 9018   0.313   6.311   1.001
 2892SOL     OW 9019   0.339   6.095   1.006
 2892SOL    HW1 9020   0.287   6.012   0.989
 2892SOL    HW2 9021   0.416   6.100   0.942
 2893SOL     OW 9022   1.138   5.966   1.678
 2893SOL    HW1 9023   1.093   6.029   1.742
 2893SOL    HW2 9024   1.231   5.997   1.661
 2894SOL     OW 9025   1.160   5.793   1.477
 2894SOL    HW1 9026   1.160   5.857   1.554
 2894SOL    HW2 9027   1.188   5.841   1.394
 2895SOL     OW 9028   0.008   6.912   0.200
 2895SOL    HW1 9029  -0.085   6.933   0.169
 2895SOL    HW2 9030   0.018   6.813   0.213
 2896SOL     OW 9031   0.088   7.387   0.927
 2896SOL    HW1 9032   0.046   7.301   0.900
 2896SOL    HW2 9033   0.182   7.390   0.893
 2897SOL     OW 9034   0.504   7.154   0.910
 2897SOL    HW1 9035   0.570   7.228   0.919
 2897SOL    HW2 9036   0.548   7.075   0.868
 2898SOL     OW 9037   1.002   6.382   1.238
 2898SOL    HW1 9038   1.043   6.350   1.324
 2898SOL    HW2 9039   0.906   6.355   1.235
 2899SOL     OW 9040   0.040   6.130   1.114
 2899SOL    HW1 9041   0.125   6.097   1.073
 2899SOL    HW2 9042   0.053   6.145   1.212
 2900SOL     OW 9043   0.189   6.106   1.722
 2900SOL    HW1 9044   0.248   6.066   1.652
 2900SOL    HW2 9045   0.131   6.177   1.681
 2901SOL     OW 9046   1.369   6.536   1.660
 2901SOL    HW1 9047   1.408   6.625   1.680
 2901SOL    HW2 9048   1.379   6.516   1.563
 2902SOL     OW 9049   0.815   6.158   0.325
 2902SOL    HW1 9050   0.822   6.069   0.279
 2902SOL    HW2 9051   0.721   6.192   0.317
 2903SOL     OW 9052   1.657   6.190   1.206
 2903SOL    HW1 9053   1.619   6.121   1.268
 2903SOL    HW2 9054   1.739   6.154   1.162
 2904SOL     OW 9055   0.252   7.150   1.744
 2904SOL    HW1 9056   0.222   7.207   1.820
 2904SOL    HW2 9057   0.245   7.053   1.770
 2905SOL     OW 9058   0.671   6.050   1.269
 2905SOL    HW1 9059   0.637   5.961   1.239
 2905SOL    HW2 9060   0.697   6.104   1.189
 2906SOL     OW 9061   0.930   7.264   1.465
 2906SOL    HW1 9062   0.906   7.246   1.370
 2906SOL    HW2 9063   0.960   7.358   1.475
 2907SOL     OW 9064   0.473   6.086   0.191
 2907SOL    HW1 9065   0.534   6.166   0.195
 2907SOL    HW2 9066   0.378   6.117   0.198
 2908SOL     OW 9067   0.159   6.723   1.466
 2908SOL    HW1 9068   0.181   6.662   1.542
 2908SOL    HW2 9069   0.169   6.674   1.380
 2909SOL     OW 9070   1.347   6.645   1.234
 2909SOL    HW1 9071   1.371   6.582   1.160
 2909SOL    HW2 9072   1.257   6.685   1.216
 2910SOL     OW 9073   1.302   6.441   0.309
 2910SOL    HW1 9074   1.216   6.410   0.351
 2910SOL    HW2 9075   1.298   6.427   0.210
 2911SOL     OW 9076   1.759   7.333   1.154
 2911SOL    HW1 9077   1.820   7.363   1.081
 2911SOL    HW2 9078   1.721   7.244   1.132
 2912SOL     OW 9079   1.252   7.317   1.128
 2912SOL    HW1 9080   1.336   7.322   1.074
 2912SOL    HW2 9081   1.229   7.221   1.146
 2913SOL     OW 9082   0.083   6.844   1.022
 2913SOL    HW1 9083   0.078   6.843   1.122
 2913SOL    HW2 9084   0.000   6.803   0.984
 2914SOL     OW 9085   0.688   7.248   1.716
 2914SOL    HW1 9086   0.632   7.329   1.725
 2914SOL    HW2 9087   0.740   7.252   1.630
 2915SOL     OW 9088   0.903   5.672   0.133
 2915SOL    HW1 9089   0.954   5.673   0.047
 2915SOL    HW2 9090   0.959   5.630   0.204
 2916SOL     OW 9091   1.726   5.721   0.523
 2916SOL    HW1 9092   1.799   5.704   0.456
 2916SOL    HW2 9093   1.695   5.634   0.561
 2917SOL     OW 9094   1.388   7.159   0.477
 2917SOL    HW1 9095   1.455   7.171   0.403
 2917SOL    HW2 9096   1.348   7.248   0.500
 2918SOL     OW 9097   0.130   7.380   1.851
 2918SOL    HW1 9098   0.089   7.306   1.904
 2918SOL    HW2 9099   0.194   7.431   1.909
 2919SOL     OW 9100   1.280   6.513   0.672
 2919SOL    HW1 9101   1.340   6.432   0.674
 2919SOL    HW2 9102   1.320   6.582   0.612
 2920SOL     OW 9103   0.830   6.859   1.422
 2920SOL    HW1 9104   0.825   6.892   1.517
 2920SOL    HW2 9105   0.744   6.878   1.376
 2921SOL     OW 9106   0.672   7.202   0.154
 2921SOL    HW1 9107   0.681   7.212   0.055
 2921SOL    HW2 9108   0.632   7.113   0.175
 2922SOL     OW 9109   1.650   7.306   1.394
 2922SOL    HW1 9110   1.703   7.316   1.310
 2922SOL    HW2 9111   1.623   7.396   1.428
 2923SOL     OW 9112   1.841   5.761   0.963
 2923SOL    HW1 9113   1.880   5.676   0.927
 2923SOL    HW2 9114   1.743   5.763   0.944
 2924SOL     OW 9115   0.263   5.912   0.720
 2924SOL    HW1 9116   0.184   5.963   0.686
 2924SOL    HW2 9117   0.254   5.897   0.818
 2925SOL     OW 9118   1.194   7.198   0.031
 2925SOL    HW1 9119   1.200   7.105   0.068
 2925SOL    HW2 9120   1.135   7.198  -0.049
 2926SOL     OW 9121   0.822   6.588   1.372
 2926SOL    HW1 9122   0.862   6.587   1.280
 2926SOL    HW2 9123   0.832   6.680   1.412
 2927SOL     OW 9124   0.916   6.496   0.291
 2927SOL    HW1 9125   0.979   6.534   0.223
 2927SOL    HW2 9126   0.956   6.413   0.330
 2928SOL     OW 9127   1.504   7.193   0.044
 2928SOL    HW1 9128   1.412   7.230   0.051
 2928SOL    HW2 9129   1.542   7.213  -0.046
 2929SOL     OW 9130   0.372   6.874   1.490
 2929SOL    HW1 9131   0.359   6.967   1.456
 2929SOL    HW2 9132   0.288   6.822   1.477
 2930SOL     OW 9133   1.614   6.878   1.289
 2930SOL    HW1 9134   1.674   6.881   1.369
 2930SOL    HW2 9135   1.539   6.942   1.302
 2931SOL     OW 9136   1.039   6.684   0.696
 2931SOL    HW1 9137   0.969   6.637   0.750
 2931SOL    HW2 9138   1.098   6.616   0.653
 2932SOL     OW 9139   1.014   5.822   0.971
 2932SOL    HW1 9140   1.006   5.786   0.878
 2932SOL    HW2 9141   1.012   5.746   1.036
 2933SOL     OW 9142   0.590   7.073   0.491
 2933SOL    HW1 9143   0.632   7.015   0.421
 2933SOL    HW2 9144   0.546   7.152   0.447
 2934SOL     OW 9145   1.709   5.971   1.381
 2934SOL    HW1 9146   1.782   6.040   1.385
 2934SOL    HW2 9147   1.737   5.896   1.322
 2935SOL     OW 9148   0.255   6.934   0.290
 2935SOL    HW1 9149   0.159   6.935   0.263
 2935SOL    HW2 9150   0.267   6.987   0.374
 2936SOL     OW 9151   0.105   6.599   1.726
 2936SOL    HW1 9152   0.028   6.566   1.780
 2936SOL    HW2 9153   0.190   6.569   1.768
 2937SOL     OW 9154   0.672   5.789   1.489
 2937SOL    HW1 9155   0.762   5.773   1.449
 2937SOL    HW2 9156   0.680   5.794   1.588
 2938SOL     OW 9157   0.075   5.931   0.033
 2938SOL    HW1 9158  -0.017   5.903   0.004
 2938SOL    HW2 9159   0.106   6.008  -0.023
 2939SOL     OW 9160   1.440   6.442   1.398
 2939SOL    HW1 9161   1.383   6.494   1.335
 2939SOL    HW2 9162   1.536   6.454   1.374
 2940SOL     OW 9163   0.072   5.752   0.318
 2940SOL    HW1 9164   0.055   5.835   0.264
 2940SOL    HW2 9165   0.162   5.715   0.296
 2941SOL     OW 9166   1.183   6.921   0.119
 2941SOL    HW1 9167   1.084   6.910   0.121
 2941SOL    HW2 9168   1.217   6.936   0.212
 2942SOL     OW 9169   0.613   6.428   1.431
 2942SOL    HW1 9170   0.669   6.509   1.414
 2942SOL    HW2 9171   0.672   6.348   1.434
 2943SOL     OW 9172   1.493   7.353   0.959
 2943SOL    HW1 9173   1.526   7.417   0.890
 2943SOL    HW2 9174   1.559   7.347   1.034
 2944SOL     OW 9175   0.716   6.151   1.708
 2944SOL    HW1 9176   0.735   6.216   1.782
 2944SOL    HW2 9177   0.776   6.071   1.717
 2945SOL     OW 9178   1.450   6.806   1.633
 2945SOL    HW1 9179   1.441   6.796   1.732
 2945SOL    HW2 9180   1.546   6.799   1.607
 2946SOL     OW 9181   0.390   7.327   1.560
 2946SOL    HW1 9182   0.299   7.368   1.558
 2946SOL    HW2 9183   0.383   7.233   1.592
 2947SOL     OW 9184   1.674   6.469   1.254
 2947SOL    HW1 9185   1.647   6.380   1.217
 2947SOL    HW2 9186   1.675   6.537   1.181
 2948SOL     OW 9187   1.225   5.911   0.449
 2948SOL    HW1 9188   1.290   5.837   0.438
 2948SOL    HW2 9189   1.245   5.961   0.533
 2949SOL     OW 9190   0.594   6.331   0.652
 2949SOL    HW1 9191   0.644   6.416   0.633
 2949SOL    HW2 9192   0.506   6.333   0.604
 2950SOL     OW 9193   1.777   5.928   1.642
 2950SOL    HW1 9194   1.760   5.959   1.548
 2950SOL    HW2 9195   1.693   5.891   1.680
 2951SOL     OW 9196   1.730   6.520   1.517
 2951SOL    HW1 9197   1.768   6.611   1.532
 2951SOL    HW2 9198   1.722   6.503   1.418
 2952SOL     OW 9199   0.859   6.960   0.016
 2952SOL    HW1 9200   0.813   6.975   0.104
 2952SOL    HW2 9201   0.903   7.045  -0.014
 2953SOL     OW 9202   0.661   7.376   0.953
 2953SOL    HW1 9203   0.615   7.464   0.940
 2953SOL    HW2 9204   0.760   7.388   0.946
 2954SOL     OW 9205   0.859   6.542   0.861
 2954SOL    HW1 9206   0.913   6.473   0.909
 2954SOL    HW2 9207   0.827   6.611   0.927
 2955SOL     OW 9208   1.083   6.570   0.087
 2955SOL    HW1 9209   1.060   6.623   0.005
 2955SOL    HW2 9210   1.164   6.514   0.068
 2956SOL     OW 9211   1.861   7.155   0.851
 2956SOL    HW1 9212   1.790   7.143   0.781
 2956SOL    HW2 9213   1.862   7.076   0.911
 2957SOL     OW 9214   0.221   6.900   1.844
 2957SOL    HW1 9215   0.156   6.827   1.823
 2957SOL    HW2 9216   0.225   6.914   1.942
 2958SOL     OW 9217   0.079   6.826   0.653
 2958SOL    HW1 9218   0.078   6.779   0.741
 2958SOL    HW2 9219   0.161   6.798   0.602
 2959SOL     OW 9220   0.672   6.977   1.624
 2959SOL    HW1 9221   0.594   6.927   1.662
 2959SOL    HW2 9222   0.669   7.072   1.655
 2960SOL     OW 9223   1.824   5.778   1.227
 2960SOL    HW1 9224   1.820   5.688   1.271
 2960SOL    HW2 9225   1.827   5.767   1.128
 2961SOL     OW 9226   0.428   6.010   0.520
 2961SOL    HW1 9227   0.458   5.938   0.458
 2961SOL    HW2 9228   0.389   5.970   0.603
 2962SOL     OW 9229   1.705   7.073   1.104
 2962SOL    HW1 9230   1.612   7.048   1.077
 2962SOL    HW2 9231   1.731   7.023   1.186
 2963SOL     OW 9232   0.317   6.133   1.280
 2963SOL    HW1 9233   0.355   6.074   1.352
 2963SOL    HW2 9234   0.357   6.107   1.192
 2964SOL     OW 9235   0.812   7.172   0.687
 2964SOL    HW1 9236   0.844   7.182   0.593
 2964SOL    HW2 9237   0.733   7.110   0.689
 2965SOL     OW 9238   1.424   5.800   1.112
 2965SOL    HW1 9239   1.476   5.735   1.167
 2965SOL    HW2 9240   1.375   5.863   1.173
 2966SOL     OW 9241   1.001   5.620   1.154
 2966SOL    HW1 9242   0.938   5.548   1.123
 2966SOL    HW2 9243   1.094   5.584   1.154
 2967SOL     OW 9244   0.770   6.916   0.301
 2967SOL    HW1 9245   0.724   6.829   0.318
 2967SOL    HW2 9246   0.861   6.913   0.342
 2968SOL     OW 9247   0.618   7.153   1.284
 2968SOL    HW1 9248   0.613   7.235   1.341
 2968SOL    HW2 9249   0.707   7.150   1.239
 2969SOL     OW 9250   1.352   5.638   0.168
 2969SOL    HW1 9251   1.387   5.597   0.084
 2969SOL    HW2 9252   1.262   5.600   0.188
 2970SOL     OW 9253   1.300   6.039   0.691
 2970SOL    HW1 9254   1.241   6.119   0.695
 2970SOL    HW2 9255   1.315   6.004   0.784
 2971SOL     OW 9256   1.593   5.807   0.882
 2971SOL    HW1 9257   1.509   5.806   0.936
 2971SOL    HW2 9258   1.595   5.890   0.826
 2972SOL     OW 9259   0.039   6.663   0.300
 2972SOL    HW1 9260   0.138   6.652   0.291
 2972SOL    HW2 9261  -0.001   6.577   0.332
 2973SOL     OW 9262   0.875   7.232   0.337
 2973SOL    HW1 9263   0.798   7.197   0.283
 2973SOL    HW2 9264   0.843   7.303   0.399
 2974SOL     OW 9265   0.230   6.214   1.975
 2974SOL    HW1 9266   0.137   6.212   2.012
 2974SOL    HW2 9267   0.231   6.175   1.883
 2975SOL     OW 9268   0.225   5.861   2.858
 2975SOL    HW1 9269   0.260   5.844   2.950
 2975SOL    HW2 9270   0.137   5.816   2.846
 2976SOL     OW 9271   0.019   5.954   2.509
 2976SOL    HW1 9272  -0.063   5.997   2.548
 2976SOL    HW2 9273  -0.009   5.881   2.446
 2977SOL     OW 9274   0.569   6.861   3.027
 2977SOL    HW1 9275   0.476   6.854   2.990
 2977SOL    HW2 9276   0.580   6.950   3.071
 2978SOL     OW 9277   1.555   7.097   2.565
 2978SOL    HW1 9278   1.498   7.081   2.646
 2978SOL    HW2 9279   1.496   7.107   2.485
 2979SOL     OW 9280   1.135   6.289   2.579
 2979SOL    HW1 9281   1.192   6.367   2.554
 2979SOL    HW2 9282   1.075   6.315   2.655
 2980SOL     OW 9283   1.755   6.193   2.093
 2980SOL    HW1 9284   1.743   6.180   1.994
 2980SOL    HW2 9285   1.725   6.112   2.142
 2981SOL     OW 9286   0.768   6.730   2.885
 2981SOL    HW1 9287   0.690   6.747   2.945
 2981SOL    HW2 9288   0.802   6.817   2.849
 2982SOL     OW 9289   0.850   6.384   3.685
 2982SOL    HW1 9290   0.846   6.460   3.750
 2982SOL    HW2 9291   0.872   6.420   3.594
 2983SOL     OW 9292   0.685   6.598   2.527
 2983SOL    HW1 9293   0.754   6.582   2.597
 2983SOL    HW2 9294   0.612   6.655   2.565
 2984SOL     OW 9295   0.686   6.747   3.665
 2984SOL    HW1 9296   0.746   6.826   3.679
 2984SOL    HW2 9297   0.600   6.778   3.624
 2985SOL     OW 9298   0.335   7.021   2.923
 2985SOL    HW1 9299   0.257   6.990   2.870
 2985SOL    HW2 9300   0.393   7.079   2.866
 2986SOL     OW 9301   1.460   7.091   3.201
 2986SOL    HW1 9302   1.484   7.185   3.227
 2986SOL    HW2 9303   1.444   7.037   3.283
 2987SOL     OW 9304   0.438   5.978   3.361
 2987SOL    HW1 9305   0.520   5.922   3.370
 2987SOL    HW2 9306   0.357   5.920   3.365
 2988SOL     OW 9307   1.603   6.033   2.599
 2988SOL    HW1 9308   1.529   6.079   2.549
 2988SOL    HW2 9309   1.654   6.101   2.652
 2989SOL     OW 9310   0.231   7.299   2.345
 2989SOL    HW1 9311   0.265   7.376   2.399
 2989SOL    HW2 9312   0.275   7.299   2.255
 2990SOL     OW 9313   1.127   6.927   3.552
 2990SOL    HW1 9314   1.174   6.927   3.640
 2990SOL    HW2 9315   1.079   6.840   3.541
 2991SOL     OW 9316   0.230   7.020   2.400
 2991SOL    HW1 9317   0.204   7.116   2.400
 2991SOL    HW2 9318   0.159   6.966   2.445
 2992SOL     OW 9319   0.240   6.677   2.748
 2992SOL    HW1 9320   0.254   6.593   2.800
 2992SOL    HW2 9321   0.185   6.741   2.803
 2993SOL     OW 9322   0.620   7.372   3.301
 2993SOL    HW1 9323   0.528   7.355   3.336
 2993SOL    HW2 9324   0.648   7.464   3.327
 2994SOL     OW 9325   0.606   6.550   1.985
 2994SOL    HW1 9326   0.613   6.634   1.931
 2994SOL    HW2 9327   0.652   6.563   2.073
 2995SOL     OW 9328   1.594   5.700   3.342
 2995SOL    HW1 9329   1.576   5.767   3.270
 2995SOL    HW2 9330   1.591   5.746   3.431
 2996SOL     OW 9331   0.122   6.229   2.425
 2996SOL    HW1 9332   0.077   6.141   2.442
 2996SOL    HW2 9333   0.121   6.283   2.509
 2997SOL     OW 9334   1.842   7.353   2.221
 2997SOL    HW1 9335   1.896   7.324   2.301
 2997SOL    HW2 9336   1.872   7.443   2.192
 2998SOL     OW 9337   0.027   7.182   1.979
 2998SOL    HW1 9338   0.008   7.086   2.000
 2998SOL    HW2 9339  -0.006   7.240   2.054
 2999SOL     OW 9340   1.689   6.508   2.474
 2999SOL    HW1 9341   1.784   6.479   2.482
 2999SOL    HW2 9342   1.681   6.573   2.399
 3000SOL     OW 9343   1.641   6.694   2.294
 3000SOL    HW1 9344   1.727   6.696   2.242
 3000SOL    HW2 9345   1.655   6.741   2.382
 3001SOL     OW 9346   0.113   6.323   3.459
 3001SOL    HW1 9347   0.201   6.310   3.504
 3001SOL    HW2 9348   0.100   6.420   3.437
 3002SOL     OW 9349   0.613   6.951   2.588
 3002SOL    HW1 9350   0.564   6.864   2.597
 3002SOL    HW2 9351   0.590   6.994   2.501
 3003SOL     OW 9352   1.293   6.814   3.285
 3003SOL    HW1 9353   1.330   6.741   3.227
 3003SOL    HW2 9354   1.345   6.819   3.370
 3004SOL     OW 9355   0.809   5.590   2.364
 3004SOL    HW1 9356   0.849   5.681   2.355
 3004SOL    HW2 9357   0.709   5.598   2.370
 3005SOL     OW 9358   0.197   6.562   3.126
 3005SOL    HW1 9359   0.286   6.517   3.112
 3005SOL    HW2 9360   0.124   6.497   3.107
 3006SOL     OW 9361   1.525   6.585   2.052
 3006SOL    HW1 9362   1.462   6.509   2.065
 3006SOL    HW2 9363   1.573   6.603   2.138
 3007SOL     OW 9364   1.187   7.378   3.478
 3007SOL    HW1 9365   1.211   7.438   3.402
 3007SOL    HW2 9366   1.194   7.283   3.448
 3008SOL     OW 9367   0.317   5.837   3.663
 3008SOL    HW1 9368   0.388   5.908   3.669
 3008SOL    HW2 9369   0.229   5.876   3.691
 3009SOL     OW 9370   1.466   7.003   2.815
 3009SOL    HW1 9371   1.407   7.009   2.895
 3009SOL    HW2 9372   1.451   6.915   2.769
 3010SOL     OW 9373   1.667   7.300   2.434
 3010SOL    HW1 9374   1.626   7.277   2.346
 3010SOL    HW2 9375   1.649   7.226   2.499
 3011SOL     OW 9376   0.598   6.315   2.132
 3011SOL    HW1 9377   0.622   6.384   2.064
 3011SOL    HW2 9378   0.520   6.348   2.186
 3012SOL     OW 9379   1.281   5.931   2.806
 3012SOL    HW1 9380   1.195   5.881   2.793
 3012SOL    HW2 9381   1.343   5.877   2.862
 3013SOL     OW 9382   1.576   7.248   2.169
 3013SOL    HW1 9383   1.665   7.294   2.172
 3013SOL    HW2 9384   1.555   7.224   2.074
 3014SOL     OW 9385   0.807   6.191   3.327
 3014SOL    HW1 9386   0.760   6.188   3.416
 3014SOL    HW2 9387   0.756   6.136   3.261
 3015SOL     OW 9388   1.394   6.055   3.536
 3015SOL    HW1 9389   1.374   6.098   3.624
 3015SOL    HW2 9390   1.472   5.993   3.545
 3016SOL     OW 9391   0.973   6.476   3.434
 3016SOL    HW1 9392   1.019   6.392   3.405
 3016SOL    HW2 9393   0.917   6.510   3.359
 3017SOL     OW 9394   0.991   5.996   3.104
 3017SOL    HW1 9395   0.914   6.030   3.158
 3017SOL    HW2 9396   0.957   5.945   3.025
 3018SOL     OW 9397   1.041   6.287   2.291
 3018SOL    HW1 9398   1.067   6.283   2.387
 3018SOL    HW2 9399   0.956   6.236   2.277
 3019SOL     OW 9400   0.076   6.397   2.651
 3019SOL    HW1 9401   0.175   6.385   2.660
 3019SOL    HW2 9402   0.052   6.492   2.672
 3020SOL     OW 9403   0.130   7.407   3.433
 3020SOL    HW1 9404   0.120   7.392   3.532
 3020SOL    HW2 9405   0.044   7.443   3.397
 3021SOL     OW 9406   0.865   5.934   2.057
 3021SOL    HW1 9407   0.924   5.997   2.008
 3021SOL    HW2 9408   0.884   5.840   2.028
 3022SOL     OW 9409   1.719   6.171   3.693
 3022SOL    HW1 9410   1.693   6.260   3.657
 3022SOL    HW2 9411   1.717   6.103   3.620
 3023SOL     OW 9412   1.362   6.730   2.407
 3023SOL    HW1 9413   1.445   6.701   2.359
 3023SOL    HW2 9414   1.313   6.797   2.351
 3024SOL     OW 9415   0.550   5.782   2.747
 3024SOL    HW1 9416   0.545   5.777   2.847
 3024SOL    HW2 9417   0.552   5.878   2.718
 3025SOL     OW 9418   1.008   7.042   2.339
 3025SOL    HW1 9419   0.962   7.114   2.287
 3025SOL    HW2 9420   1.004   7.062   2.437
 3026SOL     OW 9421   0.351   7.387   2.715
 3026SOL    HW1 9422   0.401   7.301   2.721
 3026SOL    HW2 9423   0.416   7.464   2.712
 3027SOL     OW 9424   1.795   6.652   2.735
 3027SOL    HW1 9425   1.733   6.637   2.659
 3027SOL    HW2 9426   1.743   6.663   2.820
 3028SOL     OW 9427   1.227   7.136   3.368
 3028SOL    HW1 9428   1.233   7.059   3.432
 3028SOL    HW2 9429   1.175   7.110   3.288
 3029SOL     OW 9430   0.321   6.529   2.104
 3029SOL    HW1 9431   0.403   6.568   2.062
 3029SOL    HW2 9432   0.294   6.447   2.055
 3030SOL     OW 9433   1.458   6.321   2.590
 3030SOL    HW1 9434   1.453   6.256   2.665
 3030SOL    HW2 9435   1.538   6.380   2.603
 3031SOL     OW 9436   0.461   6.852   3.589
 3031SOL    HW1 9437   0.411   6.853   3.503
 3031SOL    HW2 9438   0.398   6.834   3.665
 3032SOL     OW 9439   1.111   7.362   2.099
 3032SOL    HW1 9440   1.051   7.300   2.149
 3032SOL    HW2 9441   1.142   7.318   2.014
 3033SOL     OW 9442   0.202   5.871   3.360
 3033SOL    HW1 9443   0.122   5.931   3.347
 3033SOL    HW2 9444   0.192   5.822   3.446
 3034SOL     OW 9445   1.632   6.963   1.943
 3034SOL    HW1 9446   1.600   7.057   1.933
 3034SOL    HW2 9447   1.556   6.900   1.931
 3035SOL     OW 9448   0.464   7.329   2.185
 3035SOL    HW1 9449   0.497   7.368   2.271
 3035SOL    HW2 9450   0.540   7.322   2.120
 3036SOL     OW 9451   1.400   5.693   2.288
 3036SOL    HW1 9452   1.376   5.656   2.198
 3036SOL    HW2 9453   1.499   5.709   2.292
 3037SOL     OW 9454   0.249   7.371   3.103
 3037SOL    HW1 9455   0.306   7.306   3.153
 3037SOL    HW2 9456   0.233   7.338   3.010
 3038SOL     OW 9457   0.940   7.284   2.766
 3038SOL    HW1 9458   1.020   7.227   2.787
 3038SOL    HW2 9459   0.891   7.244   2.689
 3039SOL     OW 9460   0.382   6.286   2.342
 3039SOL    HW1 9461   0.427   6.196   2.339
 3039SOL    HW2 9462   0.288   6.275   2.375
 3040SOL     OW 9463   1.547   5.808   3.591
 3040SOL    HW1 9464   1.542   5.845   3.683
 3040SOL    HW2 9465   1.475   5.739   3.579
 3041SOL     OW 9466   0.614   5.708   1.979
 3041SOL    HW1 9467   0.712   5.686   1.986
 3041SOL    HW2 9468   0.583   5.691   1.886
 3042SOL     OW 9469   0.781   5.850   3.611
 3042SOL    HW1 9470   0.848   5.789   3.654
 3042SOL    HW2 9471   0.708   5.869   3.676
 3043SOL     OW 9472   0.888   7.100   3.057
 3043SOL    HW1 9473   0.865   7.075   2.963
 3043SOL    HW2 9474   0.949   7.031   3.096
 3044SOL     OW 9475   1.351   6.176   3.295
 3044SOL    HW1 9476   1.379   6.133   3.380
 3044SOL    HW2 9477   1.376   6.272   3.296
 3045SOL     OW 9478   0.803   6.988   2.786
 3045SOL    HW1 9479   0.893   7.002   2.744
 3045SOL    HW2 9480   0.732   6.990   2.715
 3046SOL     OW 9481   0.922   6.089   2.761
 3046SOL    HW1 9482   0.897   6.080   2.665
 3046SOL    HW2 9483   0.970   6.007   2.792
 3047SOL     OW 9484   0.539   5.650   2.374
 3047SOL    HW1 9485   0.458   5.651   2.432
 3047SOL    HW2 9486   0.542   5.733   2.319
 3048SOL     OW 9487   1.434   6.774   1.903
 3048SOL    HW1 9488   1.466   6.698   1.960
 3048SOL    HW2 9489   1.342   6.801   1.933
 3049SOL     OW 9490   0.297   5.621   2.033
 3049SOL    HW1 9491   0.346   5.705   2.012
 3049SOL    HW2 9492   0.359   5.556   2.078
 3050SOL     OW 9493   0.935   5.822   2.342
 3050SOL    HW1 9494   0.887   5.863   2.264
 3050SOL    HW2 9495   1.034   5.820   2.323
 3051SOL     OW 9496   1.076   6.269   3.326
 3051SOL    HW1 9497   0.996   6.208   3.329
 3051SOL    HW2 9498   1.157   6.216   3.302
 3052SOL     OW 9499   1.227   7.156   2.655
 3052SOL    HW1 9500   1.248   7.230   2.590
 3052SOL    HW2 9501   1.295   7.156   2.728
 3053SOL     OW 9502   0.459   6.738   2.603
 3053SOL    HW1 9503   0.388   6.711   2.668
 3053SOL    HW2 9504   0.433   6.710   2.510
 3054SOL     OW 9505   1.271   7.383   2.453
 3054SOL    HW1 9506   1.315   7.447   2.389
 3054SOL    HW2 9507   1.221   7.435   2.523
 3055SOL     OW 9508   1.032   6.135   1.878
 3055SOL    HW1 9509   0.991   6.217   1.839
 3055SOL    HW2 9510   1.096   6.161   1.951
 3056SOL     OW 9511   0.078   6.142   3.248
 3056SOL    HW1 9512   0.170   6.141   3.207
 3056SOL    HW2 9513   0.072   6.216   3.315
 3057SOL     OW 9514   0.561   5.808   3.009
 3057SOL    HW1 9515   0.599   5.724   3.046
 3057SOL    HW2 9516   0.473   5.827   3.053
 3058SOL     OW 9517   0.866   6.040   2.504
 3058SOL    HW1 9518   0.834   6.112   2.442
 3058SOL    HW2 9519   0.890   5.959   2.451
 3059SOL     OW 9520   1.017   5.625   2.615
 3059SOL    HW1 9521   0.945   5.630   2.546
 3059SOL    HW2 9522   0.993   5.556   2.684
 3060SOL     OW 9523   1.429   6.759   2.729
 3060SOL    HW1 9524   1.374   6.675   2.722
 3060SOL    HW2 9525   1.455   6.788   2.637
 3061SOL     OW 9526   1.466   6.176   2.854
 3061SOL    HW1 9527   1.436   6.081   2.861
 3061SOL    HW2 9528   1.539   6.192   2.920
 3062SOL     OW 9529   1.857   6.419   2.239
 3062SOL    HW1 9530   1.899   6.355   2.303
 3062SOL    HW2 9531   1.819   6.368   2.161
 3063SOL     OW 9532   0.488   6.971   2.036
 3063SOL    HW1 9533   0.401   6.956   2.083
 3063SOL    HW2 9534   0.471   6.997   1.941
 3064SOL     OW 9535   1.664   6.866   2.519
 3064SOL    HW1 9536   1.763   6.874   2.533
 3064SOL    HW2 9537   1.619   6.950   2.550
 3065SOL     OW 9538   1.390   6.161   1.940
 3065SOL    HW1 9539   1.336   6.140   2.021
 3065SOL    HW2 9540   1.481   6.120   1.949
 3066SOL     OW 9541   0.527   5.842   2.190
 3066SOL    HW1 9542   0.554   5.783   2.115
 3066SOL    HW2 9543   0.527   5.937   2.159
 3067SOL     OW 9544   1.754   6.809   3.450
 3067SOL    HW1 9545   1.845   6.770   3.437
 3067SOL    HW2 9546   1.762   6.905   3.474
 3068SOL     OW 9547   1.064   6.933   3.202
 3068SOL    HW1 9548   0.984   6.910   3.257
 3068SOL    HW2 9549   1.147   6.907   3.251
 3069SOL     OW 9550   1.592   7.215   3.487
 3069SOL    HW1 9551   1.619   7.249   3.397
 3069SOL    HW2 9552   1.671   7.177   3.533
 3070SOL     OW 9553   1.111   6.781   2.962
 3070SOL    HW1 9554   1.071   6.825   3.043
 3070SOL    HW2 9555   1.070   6.818   2.879
 3071SOL     OW 9556   1.638   6.685   2.941
 3071SOL    HW1 9557   1.643   6.766   3.000
 3071SOL    HW2 9558   1.552   6.687   2.890
 3072SOL     OW 9559   0.915   5.675   3.264
 3072SOL    HW1 9560   0.940   5.655   3.169
 3072SOL    HW2 9561   0.987   5.731   3.306
 3073SOL     OW 9562   0.980   6.702   3.581
 3073SOL    HW1 9563   0.881   6.708   3.591
 3073SOL    HW2 9564   1.003   6.622   3.525
 3074SOL     OW 9565   0.705   6.636   2.230
 3074SOL    HW1 9566   0.691   6.643   2.329
 3074SOL    HW2 9567   0.789   6.585   2.212
 3075SOL     OW 9568   0.410   6.399   3.113
 3075SOL    HW1 9569   0.496   6.411   3.163
 3075SOL    HW2 9570   0.368   6.312   3.140
 3076SOL     OW 9571   1.274   5.972   3.124
 3076SOL    HW1 9572   1.295   6.046   3.188
 3076SOL    HW2 9573   1.185   5.989   3.081
 3077SOL     OW 9574   0.064   7.150   3.193
 3077SOL    HW1 9575   0.018   7.232   3.159
 3077SOL    HW2 9576   0.162   7.169   3.202
 3078SOL     OW 9577   0.367   6.686   2.363
 3078SOL    HW1 9578   0.360   6.769   2.307
 3078SOL    HW2 9579   0.371   6.606   2.303
 3079SOL     OW 9580   0.566   6.123   2.727
 3079SOL    HW1 9581   0.578   6.189   2.653
 3079SOL    HW2 9582   0.612   6.157   2.810
 3080SOL     OW 9583   1.252   6.934   2.250
 3080SOL    HW1 9584   1.302   7.011   2.290
 3080SOL    HW2 9585   1.157   6.936   2.282
 3081SOL     OW 9586   1.272   7.031   3.004
 3081SOL    HW1 9587   1.319   7.044   3.091
 3081SOL    HW2 9588   1.206   6.957   3.013
 3082SOL     OW 9589   1.582   6.225   2.334
 3082SOL    HW1 9590   1.551   6.286   2.407
 3082SOL    HW2 9591   1.632   6.277   2.265
 3083SOL     OW 9592   0.354   7.096   3.191
 3083SOL    HW1 9593   0.333   7.052   3.104
 3083SOL    HW2 9594   0.451   7.122   3.194
 3084SOL     OW 9595   0.402   6.337   3.460
 3084SOL    HW1 9596   0.470   6.392   3.413
 3084SOL    HW2 9597   0.442   6.249   3.487
 3085SOL     OW 9598   1.587   6.365   3.532
 3085SOL    HW1 9599   1.495   6.403   3.527
 3085SOL    HW2 9600   1.647   6.412   3.467
 3086SOL     OW 9601   1.013   5.691   3.632
 3086SOL    HW1 9602   1.019   5.776   3.580
 3086SOL    HW2 9603   1.045   5.615   3.575
 3087SOL     OW 9604   0.504   5.636   3.602
 3087SOL    HW1 9605   0.462   5.579   3.532
 3087SOL    HW2 9606   0.438   5.705   3.634
 3088SOL     OW 9607   0.573   6.456   2.891
 3088SOL    HW1 9608   0.617   6.545   2.882
 3088SOL    HW2 9609   0.510   6.456   2.968
 3089SOL     OW 9610   1.360   6.448   2.907
 3089SOL    HW1 9611   1.285   6.448   2.841
 3089SOL    HW2 9612   1.397   6.356   2.916
 3090SOL     OW 9613   1.209   6.111   2.137
 3090SOL    HW1 9614   1.222   6.027   2.191
 3090SOL    HW2 9615   1.180   6.185   2.197
 3091SOL     OW 9616   0.307   5.799   3.093
 3091SOL    HW1 9617   0.284   5.836   3.183
 3091SOL    HW2 9618   0.277   5.704   3.087
 3092SOL     OW 9619   0.037   6.896   3.144
 3092SOL    HW1 9620   0.090   6.847   3.212
 3092SOL    HW2 9621   0.059   6.994   3.149
 3093SOL     OW 9622   0.732   6.220   2.926
 3093SOL    HW1 9623   0.791   6.194   2.850
 3093SOL    HW2 9624   0.704   6.316   2.915
 3094SOL     OW 9625   1.728   6.521   3.716
 3094SOL    HW1 9626   1.682   6.514   3.627
 3094SOL    HW2 9627   1.666   6.565   3.782
 3095SOL     OW 9628   0.307   5.649   2.480
 3095SOL    HW1 9629   0.296   5.743   2.513
 3095SOL    HW2 9630   0.302   5.586   2.557
 3096SOL     OW 9631   1.622   5.953   2.236
 3096SOL    HW1 9632   1.624   5.877   2.300
 3096SOL    HW2 9633   1.574   6.030   2.276
 3097SOL     OW 9634   1.023   6.352   2.828
 3097SOL    HW1 9635   1.038   6.373   2.924
 3097SOL    HW2 9636   0.993   6.257   2.819
 3098SOL     OW 9637   0.980   7.159   3.562
 3098SOL    HW1 9638   0.960   7.203   3.474
 3098SOL    HW2 9639   1.019   7.068   3.546
 3099SOL     OW 9640   1.859   7.104   3.467
 3099SOL    HW1 9641   1.873   7.131   3.372
 3099SOL    HW2 9642   1.942   7.126   3.520
 3100SOL     OW 9643   0.350   6.484   3.666
 3100SOL    HW1 9644   0.426   6.528   3.714
 3100SOL    HW2 9645   0.385   6.437   3.584
 3101SOL     OW 9646   1.540   5.860   1.987
 3101SOL    HW1 9647   1.479   5.785   2.010
 3101SOL    HW2 9648   1.562   5.912   2.070
 3102SOL     OW 9649   1.303   6.424   1.904
 3102SOL    HW1 9650   1.337   6.331   1.919
 3102SOL    HW2 9651   1.321   6.451   1.809
 3103SOL     OW 9652   1.068   6.919   2.711
 3103SOL    HW1 9653   1.075   6.835   2.656
 3103SOL    HW2 9654   1.130   6.988   2.675
 3104SOL     OW 9655   0.319   6.396   2.811
 3104SOL    HW1 9656   0.412   6.432   2.816
 3104SOL    HW2 9657   0.313   6.311   2.863
 3105SOL     OW 9658   0.339   6.095   2.868
 3105SOL    HW1 9659   0.287   6.012   2.851
 3105SOL    HW2 9660   0.416   6.100   2.804
 3106SOL     OW 9661   1.138   5.966   3.540
 3106SOL    HW1 9662   1.093   6.029   3.604
 3106SOL    HW2 9663   1.231   5.997   3.523
 3107SOL     OW 9664   1.160   5.793   3.339
 3107SOL    HW1 9665   1.160   5.857   3.416
 3107SOL    HW2 9666   1.188   5.841   3.256
 3108SOL     OW 9667   0.008   6.912   2.062
 3108SOL    HW1 9668  -0.085   6.933   2.031
 3108SOL    HW2 9669   0.018   6.813   2.075
 3109SOL     OW 9670   0.088   7.387   2.789
 3109SOL    HW1 9671   0.046   7.301   2.762
 3109SOL    HW2 9672   0.182   7.390   2.755
 3110SOL     OW 9673   0.504   7.154   2.772
 3110SOL    HW1 9674   0.570   7.228   2.781
 3110SOL    HW2 9675   0.548   7.075   2.730
 3111SOL     OW 9676   1.002   6.382   3.100
 3111SOL    HW1 9677   1.043   6.350   3.186
 3111SOL    HW2 9678   0.906   6.355   3.097
 3112SOL     OW 9679   0.040   6.130   2.976
 3112SOL    HW1 9680   0.125   6.097   2.935
 3112SOL    HW2 9681   0.053   6.145   3.074
 3113SOL     OW 9682   0.189   6.106   3.584
 3113SOL    HW1 9683   0.248   6.066   3.514
 3113SOL    HW2 9684   0.131   6.177   3.543
 3114SOL     OW 9685   1.369   6.536   3.522
 3114SOL    HW1 9686   1.408   6.625   3.542
 3114SOL    HW2 9687   1.379   6.516   3.425
 3115SOL     OW 9688   0.815   6.158   2.187
 3115SOL    HW1 9689   0.822   6.069   2.141
 3115SOL    HW2 9690   0.721   6.192   2.179
 3116SOL     OW 9691   1.657   6.190   3.068
 3116SOL    HW1 9692   1.619   6.121   3.130
 3116SOL    HW2 9693   1.739   6.154   3.024
 3117SOL     OW 9694   0.252   7.150   3.606
 3117SOL    HW1 9695   0.222   7.207   3.682
 3117SOL    HW2 9696   0.245   7.053   3.632
 3118SOL     OW 9697   0.671   6.050   3.131
 3118SOL    HW1 9698   0.637   5.961   3.101
 3118SOL    HW2 9699   0.697   6.104   3.051
 3119SOL     OW 9700   0.930   7.264   3.327
 3119SOL    HW1 9701   0.906   7.246   3.232
 3119SOL    HW2 9702   0.960   7.358   3.337
 3120SOL     OW 9703   0.473   6.086   2.053
 3120SOL    HW1 9704   0.534   6.166   2.057
 3120SOL    HW2 9705   0.378   6.117   2.060
 3121SOL     OW 9706   0.159   6.723   3.328
 3121SOL    HW1 9707   0.181   6.662   3.404
 3121SOL    HW2 9708   0.169   6.674   3.242
 3122SOL     OW 9709   1.347   6.645   3.096
 3122SOL    HW1 9710   1.371   6.582   3.022
 3122SOL    HW2 9711   1.257   6.685   3.078
 3123SOL     OW 9712   1.302   6.441   2.171
 3123SOL    HW1 9713   1.216   6.410   2.213
 3123SOL    HW2 9714   1.298   6.427   2.072
 3124SOL     OW 9715   1.759   7.333   3.016
 3124SOL    HW1 9716   1.820   7.363   2.943
 3124SOL    HW2 9717   1.721   7.244   2.994
 3125SOL     OW 9718   1.252   7.317   2.990
 3125SOL    HW1 9719   1.336   7.322   2.936
 3125SOL    HW2 9720   1.229   7.221   3.008
 3126SOL     OW 9721   0.083   6.844   2.884
 3126SOL    HW1 9722   0.078   6.843   2.984
 3126SOL    HW2 9723   0.000   6.803   2.846
 3127SOL     OW 9724   0.688   7.248   3.578
 3127SOL    HW1 9725   0.632   7.329   3.587
 3127SOL    HW2 9726   0.740   7.252   3.492
 3128SOL     OW 9727   1.726   5.721   2.385
 3128SOL    HW1 9728   1.799   5.704   2.318
 3128SOL    HW2 9729   1.695   5.634   2.423
 3129SOL     OW 9730   1.388   7.159   2.339
 3129SOL    HW1 9731   1.455   7.171   2.265
 3129SOL    HW2 9732   1.348   7.248   2.362
 3130SOL     OW 9733   0.130   7.380   3.713
 3130SOL    HW1 9734   0.089   7.306   3.766
 3130SOL    HW2 9735   0.194   7.431   3.771
 3131SOL     OW 9736   1.280   6.513   2.534
 3131SOL    HW1 9737   1.340   6.432   2.536
 3131SOL    HW2 9738   1.320   6.582   2.474
 3132SOL     OW 9739   0.830   6.859   3.284
 3132SOL    HW1 9740   0.825   6.892   3.379
 3132SOL    HW2 9741   0.744   6.878   3.238
 3133SOL     OW 9742   0.672   7.202   2.016
 3133SOL    HW1 9743   0.681   7.212   1.917
 3133SOL    HW2 9744   0.632   7.113   2.037
 3134SOL     OW 9745   1.650   7.306   3.256
 3134SOL    HW1 9746   1.703   7.316   3.172
 3134SOL    HW2 9747   1.623   7.396   3.290
 3135SOL     OW 9748   1.841   5.761   2.825
 3135SOL    HW1 9749   1.880   5.676   2.789
 3135SOL    HW2 9750   1.743   5.763   2.806
 3136SOL     OW 9751   0.263   5.912   2.582
 3136SOL    HW1 9752   0.184   5.963   2.548
 3136SOL    HW2 9753   0.254   5.897   2.680
 3137SOL     OW 9754   1.194   7.198   1.893
 3137SOL    HW1 9755   1.200   7.105   1.930
 3137SOL    HW2 9756   1.135   7.198   1.813
 3138SOL     OW 9757   0.822   6.588   3.234
 3138SOL    HW1 9758   0.862   6.587   3.142
 3138SOL    HW2 9759   0.832   6.680   3.274
 3139SOL     OW 9760   0.916   6.496   2.153
 3139SOL    HW1 9761   0.979   6.534   2.085
 3139SOL    HW2 9762   0.956   6.413   2.192
 3140SOL     OW 9763   1.504   7.193   1.906
 3140SOL    HW1 9764   1.412   7.230   1.913
 3140SOL    HW2 9765   1.542   7.213   1.816
 3141SOL     OW 9766   0.372   6.874   3.352
 3141SOL    HW1 9767   0.359   6.967   3.318
 3141SOL    HW2 9768   0.288   6.822   3.339
 3142SOL     OW 9769   1.614   6.878   3.151
 3142SOL    HW1 9770   1.674   6.881   3.231
 3142SOL    HW2 9771   1.539   6.942   3.164
 3143SOL     OW 9772   1.039   6.684   2.558
 3143SOL    HW1 9773   0.969   6.637   2.612
 3143SOL    HW2 9774   1.098   6.616   2.515
 3144SOL     OW 9775   1.014   5.822   2.833
 3144SOL    HW1 9776   1.006   5.786   2.740
 3144SOL    HW2 9777   1.012   5.746   2.898
 3145SOL     OW 9778   0.590   7.073   2.353
 3145SOL    HW1 9779   0.632   7.015   2.283
 3145SOL    HW2 9780   0.546   7.152   2.309
 3146SOL     OW 9781   1.709   5.971   3.243
 3146SOL    HW1 9782   1.782   6.040   3.247
 3146SOL    HW2 9783   1.737   5.896   3.184
 3147SOL     OW 9784   0.255   6.934   2.152
 3147SOL    HW1 9785   0.159   6.935   2.125
 3147SOL    HW2 9786   0.267   6.987   2.236
 3148SOL     OW 9787   0.105   6.599   3.588
 3148SOL    HW1 9788   0.028   6.566   3.642
 3148SOL    HW2 9789   0.190   6.569   3.630
 3149SOL     OW 9790   0.672   5.789   3.351
 3149SOL    HW1 9791   0.762   5.773   3.311
 3149SOL    HW2 9792   0.680   5.794   3.450
 3150SOL     OW 9793   0.075   5.931   1.895
 3150SOL    HW1 9794  -0.017   5.903   1.866
 3150SOL    HW2 9795   0.106   6.008   1.839
 3151SOL     OW 9796   1.440   6.442   3.260
 3151SOL    HW1 9797   1.383   6.494   3.197
 3151SOL    HW2 9798   1.536   6.454   3.236
 3152SOL     OW 9799   0.072   5.752   2.180
 3152SOL    HW1 9800   0.055   5.835   2.126
 3152SOL    HW2 9801   0.162   5.715   2.158
 3153SOL     OW 9802   1.183   6.921   1.981
 3153SOL    HW1 9803   1.084   6.910   1.983
 3153SOL    HW2 9804   1.217   6.936   2.074
 3154SOL     OW 9805   0.613   6.428   3.293
 3154SOL    HW1 9806   0.669   6.509   3.276
 3154SOL    HW2 9807   0.672   6.348   3.296
 3155SOL     OW 9808   1.493   7.353   2.821
 3155SOL    HW1 9809   1.526   7.417   2.752
 3155SOL    HW2 9810   1.559   7.347   2.896
 3156SOL     OW 9811   0.716   6.151   3.570
 3156SOL    HW1 9812   0.735   6.216   3.644
 3156SOL    HW2 9813   0.776   6.071   3.579
 3157SOL     OW 9814   1.450   6.806   3.495
 3157SOL    HW1 9815   1.441   6.796   3.594
 3157SOL    HW2 9816   1.546   6.799   3.469
 3158SOL     OW 9817   0.390   7.327   3.422
 3158SOL    HW1 9818   0.299   7.368   3.420
 3158SOL    HW2 9819   0.383   7.233   3.454
 3159SOL     OW 9820   1.674   6.469   3.116
 3159SOL    HW1 9821   1.647   6.380   3.079
 3159SOL    HW2 9822   1.675   6.537   3.043
 3160SOL     OW 9823   1.225   5.911   2.311
 3160SOL    HW1 9824   1.290   5.837   2.300
 3160SOL    HW2 9825   1.245   5.961   2.395
 3161SOL     OW 9826   0.594   6.331   2.514
 3161SOL    HW1 9827   0.644   6.416   2.495
 3161SOL    HW2 9828   0.506   6.333   2.466
 3162SOL     OW 9829   1.777   5.928   3.504
 3162SOL    HW1 9830   1.760   5.959   3.410
 3162SOL    HW2 9831   1.693   5.891   3.542
 3163SOL     OW 9832   1.730   6.520   3.379
 3163SOL    HW1 9833   1.768   6.611   3.394
 3163SOL    HW2 9834   1.722   6.503   3.280
 3164SOL     OW 9835   0.859   6.960   1.878
 3164SOL    HW1 9836   0.813   6.975   1.966
 3164SOL    HW2 9837   0.903   7.045   1.848
 3165SOL     OW 9838   0.661   7.376   2.815
 3165SOL    HW1 9839   0.615   7.464   2.802
 3165SOL    HW2 9840   0.760   7.388   2.808
 3166SOL     OW 9841   0.859   6.542   2.723
 3166SOL    HW1 9842   0.913   6.473   2.771
 3166SOL    HW2 9843   0.827   6.611   2.789
 3167SOL     OW 9844   1.083   6.570   1.949
 3167SOL    HW1 9845   1.060   6.623   1.867
 3167SOL    HW2 9846   1.164   6.514   1.930
 3168SOL     OW 9847   1.861   7.155   2.713
 3168SOL    HW1 9848   1.790   7.143   2.643
 3168SOL    HW2 9849   1.862   7.076   2.773
 3169SOL     OW 9850   0.221   6.900   3.706
 3169SOL    HW1 9851   0.156   6.827   3.685
 3169SOL    HW2 9852   0.225   6.914   3.804
 3170SOL     OW 9853   0.079   6.826   2.515
 3170SOL    HW1 9854   0.078   6.779   2.603
 3170SOL    HW2 9855   0.161   6.798   2.464
 3171SOL     OW 9856   0.672   6.977   3.486
 3171SOL    HW1 9857   0.594   6.927   3.524
 3171SOL    HW2 9858   0.669   7.072   3.517
 3172SOL     OW 9859   1.824   5.778   3.089
 3172SOL    HW1 9860   1.820   5.688   3.133
 3172SOL    HW2 9861   1.827   5.767   2.990
 3173SOL     OW 9862   0.428   6.010   2.382
 3173SOL    HW1 9863   0.458   5.938   2.320
 3173SOL    HW2 9864   0.389   5.970   2.465
 3174SOL     OW 9865   1.705   7.073   2.966
 3174SOL    HW1 9866   1.612   7.048   2.939
 3174SOL    HW2 9867   1.731   7.023   3.048
 3175SOL     OW 9868   0.317   6.133   3.142
 3175SOL    HW1 9869   0.355   6.074   3.214
 3175SOL    HW2 9870   0.357   6.107   3.054
 3176SOL     OW 9871   0.812   7.172   2.549
 3176SOL    HW1 9872   0.844   7.182   2.455
 3176SOL    HW2 9873   0.733   7.110   2.551
 3177SOL     OW 9874   1.424   5.800   2.974
 3177SOL    HW1 9875   1.476   5.735   3.029
 3177SOL    HW2 9876   1.375   5.863   3.035
 3178SOL     OW 9877   1.001   5.620   3.016
 3178SOL    HW1 9878   0.938   5.548   2.985
 3178SOL    HW2 9879   1.094   5.584   3.016
 3179SOL     OW 9880   0.770   6.916   2.163
 3179SOL    HW1 9881   0.724   6.829   2.180
 3179SOL    HW2 9882   0.861   6.913   2.204
 3180SOL     OW 9883   0.618   7.153   3.146
 3180SOL    HW1 9884   0.613   7.235   3.203
 3180SOL    HW2 9885   0.707   7.150   3.101
 3181SOL     OW 9886   1.352   5.638   2.030
 3181SOL    HW1 9887   1.387   5.597   1.946
 3181SOL    HW2 9888   1.262   5.600   2.050
 3182SOL     OW 9889   1.300   6.039   2.553
 3182SOL    HW1 9890   1.241   6.119   2.557
 3182SOL    HW2 9891   1.315   6.004   2.646
 3183SOL     OW 9892   1.593   5.807   2.744
 3183SOL    HW1 9893   1.509   5.806   2.798
 3183SOL    HW2 9894   1.595   5.890   2.688
 3184SOL     OW 9895   0.039   6.663   2.162
 3184SOL    HW1 9896   0.138   6.652   2.153
 3184SOL    HW2 9897  -0.001   6.577   2.194
 3185SOL     OW 9898   0.875   7.232   2.199
 3185SOL    HW1 9899   0.798   7.197   2.145
 3185SOL    HW2 9900   0.843   7.303   2.261
 3186SOL     OW 9901   0.230   6.214   3.837
 3186SOL    HW1 9902   0.137   6.212   3.874
 3186SOL    HW2 9903   0.231   6.175   3.745
 3187SOL     OW 9904   0.225   5.861   4.720
 3187SOL    HW1 9905   0.260   5.844   4.812
 3187SOL    HW2 9906   0.137   5.816   4.708
 3188SOL     OW 9907   0.019   5.954   4.371
 3188SOL    HW1 9908  -0.063   5.997   4.410
 3188SOL    HW2 9909  -0.009   5.881   4.308
 3189SOL     OW 9910   0.569   6.861   4.889
 3189SOL    HW1 9911   0.476   6.854   4.852
 3189SOL    HW2 9912   0.580   6.950   4.933
 3190SOL     OW 9913   1.555   7.097   4.427
 3190SOL    HW1 9914   1.498   7.081   4.508
 3190SOL    HW2 9915   1.496   7.107   4.347
 3191SOL     OW 9916   1.135   6.289   4.441
 3191SOL    HW1 9917   1.192   6.367   4.416
 3191SOL    HW2 9918   1.075   6.315   4.517
 3192SOL     OW 9919   1.755   6.193   3.955
 3192SOL    HW1 9920   1.743   6.180   3.856
 3192SOL    HW2 9921   1.725   6.112   4.004
 3193SOL     OW 9922   0.768   6.730   4.747
 3193SOL    HW1 9923   0.690   6.747   4.807
 3193SOL    HW2 9924   0.802   6.817   4.711
 3194SOL     OW 9925   0.850   6.384   5.547
 3194SOL    HW1 9926   0.846   6.460   5.612
 3194SOL    HW2 9927   0.872   6.420   5.456
 3195SOL     OW 9928   0.685   6.598   4.389
 3195SOL    HW1 9929   0.754   6.582   4.459
 3195SOL    HW2 9930   0.612   6.655   4.427
 3196SOL     OW 9931   0.686   6.747   5.527
 3196SOL    HW1 9932   0.746   6.826   5.541
 3196SOL    HW2 9933   0.600   6.778   5.486
 3197SOL     OW 9934   0.335   7.021   4.785
 3197SOL    HW1 9935   0.257   6.990   4.732
 3197SOL    HW2 9936   0.393   7.079   4.728
 3198SOL     OW 9937   1.460   7.091   5.063
 3198SOL    HW1 9938   1.484   7.185   5.089
 3198SOL    HW2 9939   1.444   7.037   5.145
 3199SOL     OW 9940   0.438   5.978   5.223
 3199SOL    HW1 9941   0.520   5.922   5.232
 3199SOL    HW2 9942   0.357   5.920   5.227
 3200SOL     OW 9943   1.603   6.033   4.461
 3200SOL    HW1 9944   1.529   6.079   4.411
 3200SOL    HW2 9945   1.654   6.101   4.514
 3201SOL     OW 9946   0.231   7.299   4.207
 3201SOL    HW1 9947   0.265   7.376   4.261
 3201SOL    HW2 9948   0.275   7.299   4.117
 3202SOL     OW 9949   1.127   6.927   5.414
 3202SOL    HW1 9950   1.174   6.927   5.502
 3202SOL    HW2 9951   1.079   6.840   5.403
 3203SOL     OW 9952   0.230   7.020   4.262
 3203SOL    HW1 9953   0.204   7.116   4.262
 3203SOL    HW2 9954   0.159   6.966   4.307
 3204SOL     OW 9955   0.240   6.677   4.610
 3204SOL    HW1 9956   0.254   6.593   4.662
 3204SOL    HW2 9957   0.185   6.741   4.665
 3205SOL     OW 9958   0.620   7.372   5.163
 3205SOL    HW1 9959   0.528   7.355   5.198
 3205SOL    HW2 9960   0.648   7.464   5.189
 3206SOL     OW 9961   0.606   6.550   3.847
 3206SOL    HW1 9962   0.613   6.634   3.793
 3206SOL    HW2 9963   0.652   6.563   3.935
 3207SOL     OW 9964   1.594   5.700   5.204
 3207SOL    HW1 9965   1.576   5.767   5.132
 3207SOL    HW2 9966   1.591   5.746   5.293
 3208SOL     OW 9967   0.122   6.229   4.287
 3208SOL    HW1 9968   0.077   6.141   4.304
 3208SOL    HW2 9969   0.121   6.283   4.371
 3209SOL     OW 9970   1.842   7.353   4.083
 3209SOL    HW1 9971   1.896   7.324   4.163
 3209SOL    HW2 9972   1.872   7.443   4.054
 3210SOL     OW 9973   0.027   7.182   3.841
 3210SOL    HW1 9974   0.008   7.086   3.862
 3210SOL    HW2 9975  -0.006   7.240   3.916
 3211SOL     OW 9976   1.689   6.508   4.336
 3211SOL    HW1 9977   1.784   6.479   4.344
 3211SOL    HW2 9978   1.681   6.573   4.261
 3212SOL     OW 9979   1.641   6.694   4.156
 3212SOL    HW1 9980   1.727   6.696   4.104
 3212SOL    HW2 9981   1.655   6.741   4.244
 3213SOL     OW 9982   0.113   6.323   5.321
 3213SOL    HW1 9983   0.201   6.310   5.366
 3213SOL    HW2 9984   0.100   6.420   5.299
 3214SOL     OW 9985   0.613   6.951   4.450
 3214SOL    HW1 9986   0.564   6.864   4.459
 3214SOL    HW2 9987   0.590   6.994   4.363
 3215SOL     OW 9988   1.293   6.814   5.147
 3215SOL    HW1 9989   1.330   6.741   5.089
 3215SOL    HW2 9990   1.345   6.819   5.232
 3216SOL     OW 9991   0.809   5.590   4.226
 3216SOL    HW1 9992   0.849   5.681   4.217
 3216SOL    HW2 9993   0.709   5.598   4.232
 3217SOL     OW 9994   0.197   6.562   4.988
 3217SOL    HW1 9995   0.286   6.517   4.974
 3217SOL    HW2 9996   0.124   6.497   4.969
 3218SOL     OW 9997   1.525   6.585   3.914
 3218SOL    HW1 9998   1.462   6.509   3.927
 3218SOL    HW2 9999   1.573   6.603   4.000
 3219SOL     OW10000   1.187   7.378   5.340
 3219SOL    HW110001   1.211   7.438   5.264
 3219SOL    HW210002   1.194   7.283   5.310
 3220SOL     OW10003   0.317   5.837   5.525
 3220SOL    HW110004   0.388   5.908   5.531
 3220SOL    HW210005   0.229   5.876   5.553
 3221SOL     OW10006   1.466   7.003   4.677
 3221SOL    HW110007   1.407   7.009   4.757
 3221SOL    HW210008   1.451   6.915   4.631
 3222SOL     OW10009   1.667   7.300   4.296
 3222SOL    HW110010   1.626   7.277   4.208
 3222SOL    HW210011   1.649   7.226   4.361
 3223SOL     OW10012   0.598   6.315   3.994
 3223SOL    HW110013   0.622   6.384   3.926
 3223SOL    HW210014   0.520   6.348   4.048
 3224SOL     OW10015   1.281   5.931   4.668
 3224SOL    HW110016   1.195   5.881   4.655
 3224SOL    HW210017   1.343   5.877   4.724
 3225SOL     OW10018   1.576   7.248   4.031
 3225SOL    HW110019   1.665   7.294   4.034
 3225SOL    HW210020   1.555   7.224   3.936
 3226SOL     OW10021   0.807   6.191   5.189
 3226SOL    HW110022   0.760   6.188   5.278
 3226SOL    HW210023   0.756   6.136   5.123
 3227SOL     OW10024   1.394   6.055   5.398
 3227SOL    HW110025   1.374   6.098   5.486
 3227SOL    HW210026   1.472   5.993   5.407
 3228SOL     OW10027   0.973   6.476   5.296
 3228SOL    HW110028   1.019   6.392   5.267
 3228SOL    HW210029   0.917   6.510   5.221
 3229SOL     OW10030   0.991   5.996   4.966
 3229SOL    HW110031   0.914   6.030   5.020
 3229SOL    HW210032   0.957   5.945   4.887
 3230SOL     OW10033   1.041   6.287   4.153
 3230SOL    HW110034   1.067   6.283   4.249
 3230SOL    HW210035   0.956   6.236   4.139
 3231SOL     OW10036   0.076   6.397   4.513
 3231SOL    HW110037   0.175   6.385   4.522
 3231SOL    HW210038   0.052   6.492   4.534
 3232SOL     OW10039   0.130   7.407   5.295
 3232SOL    HW110040   0.120   7.392   5.394
 3232SOL    HW210041   0.044   7.443   5.259
 3233SOL     OW10042   0.865   5.934   3.919
 3233SOL    HW110043   0.924   5.997   3.870
 3233SOL    HW210044   0.884   5.840   3.890
 3234SOL     OW10045   1.719   6.171   5.555
 3234SOL    HW110046   1.693   6.260   5.519
 3234SOL    HW210047   1.717   6.103   5.482
 3235SOL     OW10048   1.362   6.730   4.269
 3235SOL    HW110049   1.445   6.701   4.221
 3235SOL    HW210050   1.313   6.797   4.213
 3236SOL     OW10051   0.550   5.782   4.609
 3236SOL    HW110052   0.545   5.777   4.709
 3236SOL    HW210053   0.552   5.878   4.580
 3237SOL     OW10054   1.008   7.042   4.201
 3237SOL    HW110055   0.962   7.114   4.149
 3237SOL    HW210056   1.004   7.062   4.299
 3238SOL     OW10057   0.351   7.387   4.577
 3238SOL    HW110058   0.401   7.301   4.583
 3238SOL    HW210059   0.416   7.464   4.574
 3239SOL     OW10060   1.795   6.652   4.597
 3239SOL    HW110061   1.733   6.637   4.521
 3239SOL    HW210062   1.743   6.663   4.682
 3240SOL     OW10063   1.227   7.136   5.230
 3240SOL    HW110064   1.233   7.059   5.294
 3240SOL    HW210065   1.175   7.110   5.150
 3241SOL     OW10066   0.321   6.529   3.966
 3241SOL    HW110067   0.403   6.568   3.924
 3241SOL    HW210068   0.294   6.447   3.917
 3242SOL     OW10069   1.458   6.321   4.452
 3242SOL    HW110070   1.453   6.256   4.527
 3242SOL    HW210071   1.538   6.380   4.465
 3243SOL     OW10072   0.461   6.852   5.451
 3243SOL    HW110073   0.411   6.853   5.365
 3243SOL    HW210074   0.398   6.834   5.527
 3244SOL     OW10075   1.111   7.362   3.961
 3244SOL    HW110076   1.051   7.300   4.011
 3244SOL    HW210077   1.142   7.318   3.876
 3245SOL     OW10078   0.202   5.871   5.222
 3245SOL    HW110079   0.122   5.931   5.209
 3245SOL    HW210080   0.192   5.822   5.308
 3246SOL     OW10081   1.632   6.963   3.805
 3246SOL    HW110082   1.600   7.057   3.795
 3246SOL    HW210083   1.556   6.900   3.793
 3247SOL     OW10084   0.464   7.329   4.047
 3247SOL    HW110085   0.497   7.368   4.133
 3247SOL    HW210086   0.540   7.322   3.982
 3248SOL     OW10087   1.400   5.693   4.150
 3248SOL    HW110088   1.376   5.656   4.060
 3248SOL    HW210089   1.499   5.709   4.154
 3249SOL     OW10090   0.249   7.371   4.965
 3249SOL    HW110091   0.306   7.306   5.015
 3249SOL    HW210092   0.233   7.338   4.872
 3250SOL     OW10093   0.940   7.284   4.628
 3250SOL    HW110094   1.020   7.227   4.649
 3250SOL    HW210095   0.891   7.244   4.551
 3251SOL     OW10096   0.382   6.286   4.204
 3251SOL    HW110097   0.427   6.196   4.201
 3251SOL    HW210098   0.288   6.275   4.237
 3252SOL     OW10099   1.547   5.808   5.453
 3252SOL    HW110100   1.542   5.845   5.545
 3252SOL    HW210101   1.475   5.739   5.441
 3253SOL     OW10102   0.614   5.708   3.841
 3253SOL    HW110103   0.712   5.686   3.848
 3253SOL    HW210104   0.583   5.691   3.748
 3254SOL     OW10105   0.781   5.850   5.473
 3254SOL    HW110106   0.848   5.789   5.516
 3254SOL    HW210107   0.708   5.869   5.538
 3255SOL     OW10108   0.888   7.100   4.919
 3255SOL    HW110109   0.865   7.075   4.825
 3255SOL    HW210110   0.949   7.031   4.958
 3256SOL     OW10111   1.351   6.176   5.157
 3256SOL    HW110112   1.379   6.133   5.242
 3256SOL    HW210113   1.376   6.272   5.158
 3257SOL     OW10114   0.803   6.988   4.648
 3257SOL    HW110115   0.893   7.002   4.606
 3257SOL    HW210116   0.732   6.990   4.577
 3258SOL     OW10117   0.922   6.089   4.623
 3258SOL    HW110118   0.897   6.080   4.527
 3258SOL    HW210119   0.970   6.007   4.654
 3259SOL     OW10120   0.539   5.650   4.236
 3259SOL    HW110121   0.458   5.651   4.294
 3259SOL    HW210122   0.542   5.733   4.181
 3260SOL     OW10123   1.434   6.774   3.765
 3260SOL    HW110124   1.466   6.698   3.822
 3260SOL    HW210125   1.342   6.801   3.795
 3261SOL     OW10126   0.297   5.621   3.895
 3261SOL    HW110127   0.346   5.705   3.874
 3261SOL    HW210128   0.359   5.556   3.940
 3262SOL     OW10129   0.935   5.822   4.204
 3262SOL    HW110130   0.887   5.863   4.126
 3262SOL    HW210131   1.034   5.820   4.185
 3263SOL     OW10132   1.076   6.269   5.188
 3263SOL    HW110133   0.996   6.208   5.191
 3263SOL    HW210134   1.157   6.216   5.164
 3264SOL     OW10135   1.227   7.156   4.517
 3264SOL    HW110136   1.248   7.230   4.452
 3264SOL    HW210137   1.295   7.156   4.590
 3265SOL     OW10138   0.459   6.738   4.465
 3265SOL    HW110139   0.388   6.711   4.530
 3265SOL    HW210140   0.433   6.710   4.372
 3266SOL     OW10141   1.271   7.383   4.315
 3266SOL    HW110142   1.315   7.447   4.251
 3266SOL    HW210143   1.221   7.435   4.385
 3267SOL     OW10144   1.032   6.135   3.740
 3267SOL    HW110145   0.991   6.217   3.701
 3267SOL    HW210146   1.096   6.161   3.813
 3268SOL     OW10147   0.078   6.142   5.110
 3268SOL    HW110148   0.170   6.141   5.069
 3268SOL    HW210149   0.072   6.216   5.177
 3269SOL     OW10150   0.561   5.808   4.871
 3269SOL    HW110151   0.599   5.724   4.908
 3269SOL    HW210152   0.473   5.827   4.915
 3270SOL     OW10153   0.866   6.040   4.366
 3270SOL    HW110154   0.834   6.112   4.304
 3270SOL    HW210155   0.890   5.959   4.313
 3271SOL     OW10156   1.017   5.625   4.477
 3271SOL    HW110157   0.945   5.630   4.408
 3271SOL    HW210158   0.993   5.556   4.546
 3272SOL     OW10159   1.429   6.759   4.591
 3272SOL    HW110160   1.374   6.675   4.584
 3272SOL    HW210161   1.455   6.788   4.499
 3273SOL     OW10162   1.466   6.176   4.716
 3273SOL    HW110163   1.436   6.081   4.723
 3273SOL    HW210164   1.539   6.192   4.782
 3274SOL     OW10165   1.857   6.419   4.101
 3274SOL    HW110166   1.899   6.355   4.165
 3274SOL    HW210167   1.819   6.368   4.023
 3275SOL     OW10168   0.488   6.971   3.898
 3275SOL    HW110169   0.401   6.956   3.945
 3275SOL    HW210170   0.471   6.997   3.803
 3276SOL     OW10171   1.664   6.866   4.381
 3276SOL    HW110172   1.763   6.874   4.395
 3276SOL    HW210173   1.619   6.950   4.412
 3277SOL     OW10174   1.390   6.161   3.802
 3277SOL    HW110175   1.336   6.140   3.883
 3277SOL    HW210176   1.481   6.120   3.811
 3278SOL     OW10177   0.527   5.842   4.052
 3278SOL    HW110178   0.554   5.783   3.977
 3278SOL    HW210179   0.527   5.937   4.021
 3279SOL     OW10180   1.754   6.809   5.312
 3279SOL    HW110181   1.845   6.770   5.299
 3279SOL    HW210182   1.762   6.905   5.336
 3280SOL     OW10183   1.064   6.933   5.064
 3280SOL    HW110184   0.984   6.910   5.119
 3280SOL    HW210185   1.147   6.907   5.113
 3281SOL     OW10186   1.592   7.215   5.349
 3281SOL    HW110187   1.619   7.249   5.259
 3281SOL    HW210188   1.671   7.177   5.395
 3282SOL     OW10189   1.111   6.781   4.824
 3282SOL    HW110190   1.071   6.825   4.905
 3282SOL    HW210191   1.070   6.818   4.741
 3283SOL     OW10192   1.638   6.685   4.803
 3283SOL    HW110193   1.643   6.766   4.862
 3283SOL    HW210194   1.552   6.687   4.752
 3284SOL     OW10195   0.915   5.675   5.126
 3284SOL    HW110196   0.940   5.655   5.031
 3284SOL    HW210197   0.987   5.731   5.168
 3285SOL     OW10198   0.980   6.702   5.443
 3285SOL    HW110199   0.881   6.708   5.453
 3285SOL    HW210200   1.003   6.622   5.387
 3286SOL     OW10201   0.705   6.636   4.092
 3286SOL    HW110202   0.691   6.643   4.191
 3286SOL    HW210203   0.789   6.585   4.074
 3287SOL     OW10204   0.410   6.399   4.975
 3287SOL    HW110205   0.496   6.411   5.025
 3287SOL    HW210206   0.368   6.312   5.002
 3288SOL     OW10207   1.274   5.972   4.986
 3288SOL    HW110208   1.295   6.046   5.050
 3288SOL    HW210209   1.185   5.989   4.943
 3289SOL     OW10210   0.064   7.150   5.055
 3289SOL    HW110211   0.018   7.232   5.021
 3289SOL    HW210212   0.162   7.169   5.064
 3290SOL     OW10213   0.367   6.686   4.225
 3290SOL    HW110214   0.360   6.769   4.169
 3290SOL    HW210215   0.371   6.606   4.165
 3291SOL     OW10216   0.566   6.123   4.589
 3291SOL    HW110217   0.578   6.189   4.515
 3291SOL    HW210218   0.612   6.157   4.672
 3292SOL     OW10219   1.252   6.934   4.112
 3292SOL    HW110220   1.302   7.011   4.152
 3292SOL    HW210221   1.157   6.936   4.144
 3293SOL     OW10222   1.272   7.031   4.866
 3293SOL    HW110223   1.319   7.044   4.953
 3293SOL    HW210224   1.206   6.957   4.875
 3294SOL     OW10225   1.582   6.225   4.196
 3294SOL    HW110226   1.551   6.286   4.269
 3294SOL    HW210227   1.632   6.277   4.127
 3295SOL     OW10228   0.354   7.096   5.053
 3295SOL    HW110229   0.333   7.052   4.966
 3295SOL    HW210230   0.451   7.122   5.056
 3296SOL     OW10231   0.402   6.337   5.322
 3296SOL    HW110232   0.470   6.392   5.275
 3296SOL    HW210233   0.442   6.249   5.349
 3297SOL     OW10234   1.587   6.365   5.394
 3297SOL    HW110235   1.495   6.403   5.389
 3297SOL    HW210236   1.647   6.412   5.329
 3298SOL     OW10237   1.013   5.691   5.494
 3298SOL    HW110238   1.019   5.776   5.442
 3298SOL    HW210239   1.045   5.615   5.437
 3299SOL     OW10240   0.504   5.636   5.464
 3299SOL    HW110241   0.462   5.579   5.394
 3299SOL    HW210242   0.438   5.705   5.496
 3300SOL     OW10243   0.573   6.456   4.753
 3300SOL    HW110244   0.617   6.545   4.744
 3300SOL    HW210245   0.510   6.456   4.830
 3301SOL     OW10246   1.360   6.448   4.769
 3301SOL    HW110247   1.285   6.448   4.703
 3301SOL    HW210248   1.397   6.356   4.778
 3302SOL     OW10249   1.209   6.111   3.999
 3302SOL    HW110250   1.222   6.027   4.053
 3302SOL    HW210251   1.180   6.185   4.059
 3303SOL     OW10252   0.307   5.799   4.955
 3303SOL    HW110253   0.284   5.836   5.045
 3303SOL    HW210254   0.277   5.704   4.949
 3304SOL     OW10255   0.037   6.896   5.006
 3304SOL    HW110256   0.090   6.847   5.074
 3304SOL    HW210257   0.059   6.994   5.011
 3305SOL     OW10258   0.732   6.220   4.788
 3305SOL    HW110259   0.791   6.194   4.712
 3305SOL    HW210260   0.704   6.316   4.777
 3306SOL     OW10261   1.728   6.521   5.578
 3306SOL    HW110262   1.682   6.514   5.489
 3306SOL    HW210263   1.666   6.565   5.644
 3307SOL     OW10264   0.307   5.649   4.342
 3307SOL    HW110265   0.296   5.743   4.375
 3307SOL    HW210266   0.302   5.586   4.419
 3308SOL     OW10267   1.622   5.953   4.098
 3308SOL    HW110268   1.624   5.877   4.162
 3308SOL    HW210269   1.574   6.030   4.138
 3309SOL     OW10270   1.023   6.352   4.690
 3309SOL    HW110271   1.038   6.373   4.786
 3309SOL    HW210272   0.993   6.257   4.681
 3310SOL     OW10273   0.980   7.159   5.424
 3310SOL    HW110274   0.960   7.203   5.336
 3310SOL    HW210275   1.019   7.068   5.408
 3311SOL     OW10276   1.859   7.104   5.329
 3311SOL    HW110277   1.873   7.131   5.234
 3311SOL    HW210278   1.942   7.126   5.382
 3312SOL     OW10279   0.350   6.484   5.528
 3312SOL    HW110280   0.426   6.528   5.576
 3312SOL    HW210281   0.385   6.437   5.446
 3313SOL     OW10282   1.540   5.860   3.849
 3313SOL    HW110283   1.479   5.785   3.872
 3313SOL    HW210284   1.562   5.912   3.932
 3314SOL     OW10285   1.303   6.424   3.766
 3314SOL    HW110286   1.337   6.331   3.781
 3314SOL    HW210287   1.321   6.451   3.671
 3315SOL     OW10288   1.068   6.919   4.573
 3315SOL    HW110289   1.075   6.835   4.518
 3315SOL    HW210290   1.130   6.988   4.537
 3316SOL     OW10291   0.319   6.396   4.673
 3316SOL    HW110292   0.412   6.432   4.678
 3316SOL    HW210293   0.313   6.311   4.725
 3317SOL     OW10294   0.339   6.095   4.730
 3317SOL    HW110295   0.287   6.012   4.713
 3317SOL    HW210296   0.416   6.100   4.666
 3318SOL     OW10297   1.138   5.966   5.402
 3318SOL    HW110298   1.093   6.029   5.466
 3318SOL    HW210299   1.231   5.997   5.385
 3319SOL     OW10300   1.160   5.793   5.201
 3319SOL    HW110301   1.160   5.857   5.278
 3319SOL    HW210302   1.188   5.841   5.118
 3320SOL     OW10303   0.008   6.912   3.924
 3320SOL    HW110304  -0.085   6.933   3.893
 3320SOL    HW210305   0.018   6.813   3.937
 3321SOL     OW10306   0.088   7.387   4.651
 3321SOL    HW110307   0.046   7.301   4.624
 3321SOL    HW210308   0.182   7.390   4.617
 3322SOL     OW10309   0.504   7.154   4.634
 3322SOL    HW110310   0.570   7.228   4.643
 3322SOL    HW210311   0.548   7.075   4.592
 3323SOL     OW10312   1.002   6.382   4.962
 3323SOL    HW110313   1.043   6.350   5.048
 3323SOL    HW210314   0.906   6.355   4.959
 3324SOL     OW10315   0.040   6.130   4.838
 3324SOL    HW110316   0.125   6.097   4.797
 3324SOL    HW210317   0.053   6.145   4.936
 3325SOL     OW10318   0.189   6.106   5.446
 3325SOL    HW110319   0.248   6.066   5.376
 3325SOL    HW210320   0.131   6.177   5.405
 3326SOL     OW10321   1.369   6.536   5.384
 3326SOL    HW110322   1.408   6.625   5.404
 3326SOL    HW210323   1.379   6.516   5.287
 3327SOL     OW10324   0.815   6.158   4.049
 3327SOL    HW110325   0.822   6.069   4.003
 3327SOL    HW210326   0.721   6.192   4.041
 3328SOL     OW10327   1.657   6.190   4.930
 3328SOL    HW110328   1.619   6.121   4.992
 3328SOL    HW210329   1.739   6.154   4.886
 3329SOL     OW10330   0.252   7.150   5.468
 3329SOL    HW110331   0.222   7.207   5.544
 3329SOL    HW210332   0.245   7.053   5.494
 3330SOL     OW10333   0.671   6.050   4.993
 3330SOL    HW110334   0.637   5.961   4.963
 3330SOL    HW210335   0.697   6.104   4.913
 3331SOL     OW10336   0.930   7.264   5.189
 3331SOL    HW110337   0.906   7.246   5.094
 3331SOL    HW210338   0.960   7.358   5.199
 3332SOL     OW10339   0.473   6.086   3.915
 3332SOL    HW110340   0.534   6.166   3.919
 3332SOL    HW210341   0.378   6.117   3.922
 3333SOL     OW10342   0.159   6.723   5.190
 3333SOL    HW110343   0.181   6.662   5.266
 3333SOL    HW210344   0.169   6.674   5.104
 3334SOL     OW10345   1.347   6.645   4.958
 3334SOL    HW110346   1.371   6.582   4.884
 3334SOL    HW210347   1.257   6.685   4.940
 3335SOL     OW10348   1.302   6.441   4.033
 3335SOL    HW110349   1.216   6.410   4.075
 3335SOL    HW210350   1.298   6.427   3.934
 3336SOL     OW10351   1.759   7.333   4.878
 3336SOL    HW110352   1.820   7.363   4.805
 3336SOL    HW210353   1.721   7.244   4.856
 3337SOL     OW10354   1.252   7.317   4.852
 3337SOL    HW110355   1.336   7.322   4.798
 3337SOL    HW210356   1.229   7.221   4.870
 3338SOL     OW10357   0.083   6.844   4.746
 3338SOL    HW110358   0.078   6.843   4.846
 3338SOL    HW210359   0.000   6.803   4.708
 3339SOL     OW10360   0.688   7.248   5.440
 3339SOL    HW110361   0.632   7.329   5.449
 3339SOL    HW210362   0.740   7.252   5.354
 3340SOL     OW10363   1.726   5.721   4.247
 3340SOL    HW110364   1.799   5.704   4.180
 3340SOL    HW210365   1.695   5.634   4.285
 3341SOL     OW10366   1.388   7.159   4.201
 3341SOL    HW110367   1.455   7.171   4.127
 3341SOL    HW210368   1.348   7.248   4.224
 3342SOL     OW10369   0.130   7.380   5.575
 3342SOL    HW110370   0.089   7.306   5.628
 3342SOL    HW210371   0.194   7.431   5.633
 3343SOL     OW10372   1.280   6.513   4.396
 3343SOL    HW110373   1.340   6.432   4.398
 3343SOL    HW210374   1.320   6.582   4.336
 3344SOL     OW10375   0.830   6.859   5.146
 3344SOL    HW110376   0.825   6.892   5.241
 3344SOL    HW210377   0.744   6.878   5.100
 3345SOL     OW10378   0.672   7.202   3.878
 3345SOL    HW110379   0.681   7.212   3.779
 3345SOL    HW210380   0.632   7.113   3.899
 3346SOL     OW10381   1.650   7.306   5.118
 3346SOL    HW110382   1.703   7.316   5.034
 3346SOL    HW210383   1.623   7.396   5.152
 3347SOL     OW10384   1.841   5.761   4.687
 3347SOL    HW110385   1.880   5.676   4.651
 3347SOL    HW210386   1.743   5.763   4.668
 3348SOL     OW10387   0.263   5.912   4.444
 3348SOL    HW110388   0.184   5.963   4.410
 3348SOL    HW210389   0.254   5.897   4.542
 3349SOL     OW10390   1.194   7.198   3.755
 3349SOL    HW110391   1.200   7.105   3.792
 3349SOL    HW210392   1.135   7.198   3.675
 3350SOL     OW10393   0.822   6.588   5.096
 3350SOL    HW110394   0.862   6.587   5.004
 3350SOL    HW210395   0.832   6.680   5.136
 3351SOL     OW10396   0.916   6.496   4.015
 3351SOL    HW110397   0.979   6.534   3.947
 3351SOL    HW210398   0.956   6.413   4.054
 3352SOL     OW10399   1.504   7.193   3.768
 3352SOL    HW110400   1.412   7.230   3.775
 3352SOL    HW210401   1.542   7.213   3.678
 3353SOL     OW10402   0.372   6.874   5.214
 3353SOL    HW110403   0.359   6.967   5.180
 3353SOL    HW210404   0.288   6.822   5.201
 3354SOL     OW10405   1.614   6.878   5.013
 3354SOL    HW110406   1.674   6.881   5.093
 3354SOL    HW210407   1.539   6.942   5.026
 3355SOL     OW10408   1.039   6.684   4.420
 3355SOL    HW110409   0.969   6.637   4.474
 3355SOL    HW210410   1.098   6.616   4.377
 3356SOL     OW10411   1.014   5.822   4.695
 3356SOL    HW110412   1.006   5.786   4.602
 3356SOL    HW210413   1.012   5.746   4.760
 3357SOL     OW10414   0.590   7.073   4.215
 3357SOL    HW110415   0.632   7.015   4.145
 3357SOL    HW210416   0.546   7.152   4.171
 3358SOL     OW10417   1.709   5.971   5.105
 3358SOL    HW110418   1.782   6.040   5.109
 3358SOL    HW210419   1.737   5.896   5.046
 3359SOL     OW10420   0.255   6.934   4.014
 3359SOL    HW110421   0.159   6.935   3.987
 3359SOL    HW210422   0.267   6.987   4.098
 3360SOL     OW10423   0.105   6.599   5.450
 3360SOL    HW110424   0.028   6.566   5.504
 3360SOL    HW210425   0.190   6.569   5.492
 3361SOL     OW10426   0.672   5.789   5.213
 3361SOL    HW110427   0.762   5.773   5.173
 3361SOL    HW210428   0.680   5.794   5.312
 3362SOL     OW10429   0.075   5.931   3.757
 3362SOL    HW110430  -0.017   5.903   3.728
 3362SOL    HW210431   0.106   6.008   3.701
 3363SOL     OW10432   1.440   6.442   5.122
 3363SOL    HW110433   1.383   6.494   5.059
 3363SOL    HW210434   1.536   6.454   5.098
 3364SOL     OW10435   0.072   5.752   4.042
 3364SOL    HW110436   0.055   5.835   3.988
 3364SOL    HW210437   0.162   5.715   4.020
 3365SOL     OW10438   1.183   6.921   3.843
 3365SOL    HW110439   1.084   6.910   3.845
 3365SOL    HW210440   1.217   6.936   3.936
 3366SOL     OW10441   0.613   6.428   5.155
 3366SOL    HW110442   0.669   6.509   5.138
 3366SOL    HW210443   0.672   6.348   5.158
 3367SOL     OW10444   1.493   7.353   4.683
 3367SOL    HW110445   1.526   7.417   4.614
 3367SOL    HW210446   1.559   7.347   4.758
 3368SOL     OW10447   0.716   6.151   5.432
 3368SOL    HW110448   0.735   6.216   5.506
 3368SOL    HW210449   0.776   6.071   5.441
 3369SOL     OW10450   1.450   6.806   5.357
 3369SOL    HW110451   1.441   6.796   5.456
 3369SOL    HW210452   1.546   6.799   5.331
 3370SOL     OW10453   0.390   7.327   5.284
 3370SOL    HW110454   0.299   7.368   5.282
 3370SOL    HW210455   0.383   7.233   5.316
 3371SOL     OW10456   1.674   6.469   4.978
 3371SOL    HW110457   1.647   6.380   4.941
 3371SOL    HW210458   1.675   6.537   4.905
 3372SOL     OW10459   1.225   5.911   4.173
 3372SOL    HW110460   1.290   5.837   4.162
 3372SOL    HW210461   1.245   5.961   4.257
 3373SOL     OW10462   0.594   6.331   4.376
 3373SOL    HW110463   0.644   6.416   4.357
 3373SOL    HW210464   0.506   6.333   4.328
 3374SOL     OW10465   1.777   5.928   5.366
 3374SOL    HW110466   1.760   5.959   5.272
 3374SOL    HW210467   1.693   5.891   5.404
 3375SOL     OW10468   1.730   6.520   5.241
 3375SOL    HW110469   1.768   6.611   5.256
 3375SOL    HW210470   1.722   6.503   5.142
 3376SOL     OW10471   0.859   6.960   3.740
 3376SOL    HW110472   0.813   6.975   3.828
 3376SOL    HW210473   0.903   7.045   3.710
 3377SOL     OW10474   0.661   7.376   4.677
 3377SOL    HW110475   0.615   7.464   4.664
 3377SOL    HW210476   0.760   7.388   4.670
 3378SOL     OW10477   0.859   6.542   4.585
 3378SOL    HW110478   0.913   6.473   4.633
 3378SOL    HW210479   0.827   6.611   4.651
 3379SOL     OW10480   1.083   6.570   3.811
 3379SOL    HW110481   1.060   6.623   3.729
 3379SOL    HW210482   1.164   6.514   3.792
 3380SOL     OW10483   1.861   7.155   4.575
 3380SOL    HW110484   1.790   7.143   4.505
 3380SOL    HW210485   1.862   7.076   4.635
 3381SOL     OW10486   0.221   6.900   5.568
 3381SOL    HW110487   0.156   6.827   5.547
 3381SOL    HW210488   0.225   6.914   5.666
 3382SOL     OW10489   0.079   6.826   4.377
 3382SOL    HW110490   0.078   6.779   4.465
 3382SOL    HW210491   0.161   6.798   4.326
 3383SOL     OW10492   0.672   6.977   5.348
 3383SOL    HW110493   0.594   6.927   5.386
 3383SOL    HW210494   0.669   7.072   5.379
 3384SOL     OW10495   1.824   5.778   4.951
 3384SOL    HW110496   1.820   5.688   4.995
 3384SOL    HW210497   1.827   5.767   4.852
 3385SOL     OW10498   0.428   6.010   4.244
 3385SOL    HW110499   0.458   5.938   4.182
 3385SOL    HW210500   0.389   5.970   4.327
 3386SOL     OW10501   1.705   7.073   4.828
 3386SOL    HW110502   1.612   7.048   4.801
 3386SOL    HW210503   1.731   7.023   4.910
 3387SOL     OW10504   0.317   6.133   5.004
 3387SOL    HW110505   0.355   6.074   5.076
 3387SOL    HW210506   0.357   6.107   4.916
 3388SOL     OW10507   0.812   7.172   4.411
 3388SOL    HW110508   0.844   7.182   4.317
 3388SOL    HW210509   0.733   7.110   4.413
 3389SOL     OW10510   1.424   5.800   4.836
 3389SOL    HW110511   1.476   5.735   4.891
 3389SOL    HW210512   1.375   5.863   4.897
 3390SOL     OW10513   1.001   5.620   4.878
 3390SOL    HW110514   0.938   5.548   4.847
 3390SOL    HW210515   1.094   5.584   4.878
 3391SOL     OW10516   0.770   6.916   4.025
 3391SOL    HW110517   0.724   6.829   4.042
 3391SOL    HW210518   0.861   6.913   4.066
 3392SOL     OW10519   0.618   7.153   5.008
 3392SOL    HW110520   0.613   7.235   5.065
 3392SOL    HW210521   0.707   7.150   4.963
 3393SOL     OW10522   1.352   5.638   3.892
 3393SOL    HW110523   1.387   5.597   3.808
 3393SOL    HW210524   1.262   5.600   3.912
 3394SOL     OW10525   1.300   6.039   4.415
 3394SOL    HW110526   1.241   6.119   4.419
 3394SOL    HW210527   1.315   6.004   4.508
 3395SOL     OW10528   1.593   5.807   4.606
 3395SOL    HW110529   1.509   5.806   4.660
 3395SOL    HW210530   1.595   5.890   4.550
 3396SOL     OW10531   0.039   6.663   4.024
 3396SOL    HW110532   0.138   6.652   4.015
 3396SOL    HW210533  -0.001   6.577   4.056
 3397SOL     OW10534   0.875   7.232   4.061
 3397SOL    HW110535   0.798   7.197   4.007
 3397SOL    HW210536   0.843   7.303   4.123
 3398SOL     OW10537   0.230   6.214   5.699
 3398SOL    HW110538   0.137   6.212   5.736
 3398SOL    HW210539   0.231   6.175   5.607
 3399SOL     OW10540   0.225   5.861   6.582
 3399SOL    HW110541   0.260   5.844   6.674
 3399SOL    HW210542   0.137   5.816   6.570
 3400SOL     OW10543   0.019   5.954   6.233
 3400SOL    HW110544  -0.063   5.997   6.272
 3400SOL    HW210545  -0.009   5.881   6.170
 3401SOL     OW10546   0.569   6.861   6.751
 3401SOL    HW110547   0.476   6.854   6.714
 3401SOL    HW210548   0.580   6.950   6.795
 3402SOL     OW10549   1.555   7.097   6.289
 3402SOL    HW110550   1.498   7.081   6.370
 3402SOL    HW210551   1.496   7.107   6.209
 3403SOL     OW10552   1.135   6.289   6.303
 3403SOL    HW110553   1.192   6.367   6.278
 3403SOL    HW210554   1.075   6.315   6.379
 3404SOL     OW10555   1.755   6.193   5.817
 3404SOL    HW110556   1.743   6.180   5.718
 3404SOL    HW210557   1.725   6.112   5.866
 3405SOL     OW10558   0.768   6.730   6.609
 3405SOL    HW110559   0.690   6.747   6.669
 3405SOL    HW210560   0.802   6.817   6.573
 3406SOL     OW10561   0.850   6.384   7.409
 3406SOL    HW110562   0.846   6.460   7.474
 3406SOL    HW210563   0.872   6.420   7.318
 3407SOL     OW10564   0.685   6.598   6.251
 3407SOL    HW110565   0.754   6.582   6.321
 3407SOL    HW210566   0.612   6.655   6.289
 3408SOL     OW10567   0.686   6.747   7.389
 3408SOL    HW110568   0.746   6.826   7.403
 3408SOL    HW210569   0.600   6.778   7.348
 3409SOL     OW10570   0.335   7.021   6.647
 3409SOL    HW110571   0.257   6.990   6.594
 3409SOL    HW210572   0.393   7.079   6.590
 3410SOL     OW10573   1.460   7.091   6.925
 3410SOL    HW110574   1.484   7.185   6.951
 3410SOL    HW210575   1.444   7.037   7.007
 3411SOL     OW10576   0.438   5.978   7.085
 3411SOL    HW110577   0.520   5.922   7.094
 3411SOL    HW210578   0.357   5.920   7.089
 3412SOL     OW10579   1.603   6.033   6.323
 3412SOL    HW110580   1.529   6.079   6.273
 3412SOL    HW210581   1.654   6.101   6.376
 3413SOL     OW10582   0.231   7.299   6.069
 3413SOL    HW110583   0.265   7.376   6.123
 3413SOL    HW210584   0.275   7.299   5.979
 3414SOL     OW10585   1.127   6.927   7.276
 3414SOL    HW110586   1.174   6.927   7.364
 3414SOL    HW210587   1.079   6.840   7.265
 3415SOL     OW10588   0.230   7.020   6.124
 3415SOL    HW110589   0.204   7.116   6.124
 3415SOL    HW210590   0.159   6.966   6.169
 3416SOL     OW10591   0.240   6.677   6.472
 3416SOL    HW110592   0.254   6.593   6.524
 3416SOL    HW210593   0.185   6.741   6.527
 3417SOL     OW10594   0.620   7.372   7.025
 3417SOL    HW110595   0.528   7.355   7.060
 3417SOL    HW210596   0.648   7.464   7.051
 3418SOL     OW10597   0.606   6.550   5.709
 3418SOL    HW110598   0.613   6.634   5.655
 3418SOL    HW210599   0.652   6.563   5.797
 3419SOL     OW10600   1.594   5.700   7.066
 3419SOL    HW110601   1.576   5.767   6.994
 3419SOL    HW210602   1.591   5.746   7.155
 3420SOL     OW10603   0.122   6.229   6.149
 3420SOL    HW110604   0.077   6.141   6.166
 3420SOL    HW210605   0.121   6.283   6.233
 3421SOL     OW10606   1.842   7.353   5.945
 3421SOL    HW110607   1.896   7.324   6.025
 3421SOL    HW210608   1.872   7.443   5.916
 3422SOL     OW10609   0.027   7.182   5.703
 3422SOL    HW110610   0.008   7.086   5.724
 3422SOL    HW210611  -0.006   7.240   5.778
 3423SOL     OW10612   1.689   6.508   6.198
 3423SOL    HW110613   1.784   6.479   6.206
 3423SOL    HW210614   1.681   6.573   6.123
 3424SOL     OW10615   1.641   6.694   6.018
 3424SOL    HW110616   1.727   6.696   5.966
 3424SOL    HW210617   1.655   6.741   6.106
 3425SOL     OW10618   0.113   6.323   7.183
 3425SOL    HW110619   0.201   6.310   7.228
 3425SOL    HW210620   0.100   6.420   7.161
 3426SOL     OW10621   0.613   6.951   6.312
 3426SOL    HW110622   0.564   6.864   6.321
 3426SOL    HW210623   0.590   6.994   6.225
 3427SOL     OW10624   1.293   6.814   7.009
 3427SOL    HW110625   1.330   6.741   6.951
 3427SOL    HW210626   1.345   6.819   7.094
 3428SOL     OW10627   0.809   5.590   6.088
 3428SOL    HW110628   0.849   5.681   6.079
 3428SOL    HW210629   0.709   5.598   6.094
 3429SOL     OW10630   0.197   6.562   6.850
 3429SOL    HW110631   0.286   6.517   6.836
 3429SOL    HW210632   0.124   6.497   6.831
 3430SOL     OW10633   1.525   6.585   5.776
 3430SOL    HW110634   1.462   6.509   5.789
 3430SOL    HW210635   1.573   6.603   5.862
 3431SOL     OW10636   1.187   7.378   7.202
 3431SOL    HW110637   1.211   7.438   7.126
 3431SOL    HW210638   1.194   7.283   7.172
 3432SOL     OW10639   0.317   5.837   7.387
 3432SOL    HW110640   0.388   5.908   7.393
 3432SOL    HW210641   0.229   5.876   7.415
 3433SOL     OW10642   1.466   7.003   6.539
 3433SOL    HW110643   1.407   7.009   6.619
 3433SOL    HW210644   1.451   6.915   6.493
 3434SOL     OW10645   1.667   7.300   6.158
 3434SOL    HW110646   1.626   7.277   6.070
 3434SOL    HW210647   1.649   7.226   6.223
 3435SOL     OW10648   0.598   6.315   5.856
 3435SOL    HW110649   0.622   6.384   5.788
 3435SOL    HW210650   0.520   6.348   5.910
 3436SOL     OW10651   1.281   5.931   6.530
 3436SOL    HW110652   1.195   5.881   6.517
 3436SOL    HW210653   1.343   5.877   6.586
 3437SOL     OW10654   1.576   7.248   5.893
 3437SOL    HW110655   1.665   7.294   5.896
 3437SOL    HW210656   1.555   7.224   5.798
 3438SOL     OW10657   0.807   6.191   7.051
 3438SOL    HW110658   0.760   6.188   7.140
 3438SOL    HW210659   0.756   6.136   6.985
 3439SOL     OW10660   1.394   6.055   7.260
 3439SOL    HW110661   1.374   6.098   7.348
 3439SOL    HW210662   1.472   5.993   7.269
 3440SOL     OW10663   0.973   6.476   7.158
 3440SOL    HW110664   1.019   6.392   7.129
 3440SOL    HW210665   0.917   6.510   7.083
 3441SOL     OW10666   0.991   5.996   6.828
 3441SOL    HW110667   0.914   6.030   6.882
 3441SOL    HW210668   0.957   5.945   6.749
 3442SOL     OW10669   1.041   6.287   6.015
 3442SOL    HW110670   1.067   6.283   6.111
 3442SOL    HW210671   0.956   6.236   6.001
 3443SOL     OW10672   0.076   6.397   6.375
 3443SOL    HW110673   0.175   6.385   6.384
 3443SOL    HW210674   0.052   6.492   6.396
 3444SOL     OW10675   0.130   7.407   7.157
 3444SOL    HW110676   0.120   7.392   7.256
 3444SOL    HW210677   0.044   7.443   7.121
 3445SOL     OW10678   0.865   5.934   5.781
 3445SOL    HW110679   0.924   5.997   5.732
 3445SOL    HW210680   0.884   5.840   5.752
 3446SOL     OW10681   1.719   6.171   7.417
 3446SOL    HW110682   1.693   6.260   7.381
 3446SOL    HW210683   1.717   6.103   7.344
 3447SOL     OW10684   1.362   6.730   6.131
 3447SOL    HW110685   1.445   6.701   6.083
 3447SOL    HW210686   1.313   6.797   6.075
 3448SOL     OW10687   0.550   5.782   6.471
 3448SOL    HW110688   0.545   5.777   6.571
 3448SOL    HW210689   0.552   5.878   6.442
 3449SOL     OW10690   1.008   7.042   6.063
 3449SOL    HW110691   0.962   7.114   6.011
 3449SOL    HW210692   1.004   7.062   6.161
 3450SOL     OW10693   0.351   7.387   6.439
 3450SOL    HW110694   0.401   7.301   6.445
 3450SOL    HW210695   0.416   7.464   6.436
 3451SOL     OW10696   1.795   6.652   6.459
 3451SOL    HW110697   1.733   6.637   6.383
 3451SOL    HW210698   1.743   6.663   6.544
 3452SOL     OW10699   1.227   7.136   7.092
 3452SOL    HW110700   1.233   7.059   7.156
 3452SOL    HW210701   1.175   7.110   7.012
 3453SOL     OW10702   0.321   6.529   5.828
 3453SOL    HW110703   0.403   6.568   5.786
 3453SOL    HW210704   0.294   6.447   5.779
 3454SOL     OW10705   1.458   6.321   6.314
 3454SOL    HW110706   1.453   6.256   6.389
 3454SOL    HW210707   1.538   6.380   6.327
 3455SOL     OW10708   0.461   6.852   7.313
 3455SOL    HW110709   0.411   6.853   7.227
 3455SOL    HW210710   0.398   6.834   7.389
 3456SOL     OW10711   1.111   7.362   5.823
 3456SOL    HW110712   1.051   7.300   5.873
 3456SOL    HW210713   1.142   7.318   5.738
 3457SOL     OW10714   0.202   5.871   7.084
 3457SOL    HW110715   0.122   5.931   7.071
 3457SOL    HW210716   0.192   5.822   7.170
 3458SOL     OW10717   1.632   6.963   5.667
 3458SOL    HW110718   1.600   7.057   5.657
 3458SOL    HW210719   1.556   6.900   5.655
 3459SOL     OW10720   0.464   7.329   5.909
 3459SOL    HW110721   0.497   7.368   5.995
 3459SOL    HW210722   0.540   7.322   5.844
 3460SOL     OW10723   1.400   5.693   6.012
 3460SOL    HW110724   1.376   5.656   5.922
 3460SOL    HW210725   1.499   5.709   6.016
 3461SOL     OW10726   0.249   7.371   6.827
 3461SOL    HW110727   0.306   7.306   6.877
 3461SOL    HW210728   0.233   7.338   6.734
 3462SOL     OW10729   0.940   7.284   6.490
 3462SOL    HW110730   1.020   7.227   6.511
 3462SOL    HW210731   0.891   7.244   6.413
 3463SOL     OW10732   0.382   6.286   6.066
 3463SOL    HW110733   0.427   6.196   6.063
 3463SOL    HW210734   0.288   6.275   6.099
 3464SOL     OW10735   1.547   5.808   7.315
 3464SOL    HW110736   1.542   5.845   7.407
 3464SOL    HW210737   1.475   5.739   7.303
 3465SOL     OW10738   0.614   5.708   5.703
 3465SOL    HW110739   0.712   5.686   5.710
 3465SOL    HW210740   0.583   5.691   5.610
 3466SOL     OW10741   0.781   5.850   7.335
 3466SOL    HW110742   0.848   5.789   7.378
 3466SOL    HW210743   0.708   5.869   7.400
 3467SOL     OW10744   0.888   7.100   6.781
 3467SOL    HW110745   0.865   7.075   6.687
 3467SOL    HW210746   0.949   7.031   6.820
 3468SOL     OW10747   1.351   6.176   7.019
 3468SOL    HW110748   1.379   6.133   7.104
 3468SOL    HW210749   1.376   6.272   7.020
 3469SOL     OW10750   0.803   6.988   6.510
 3469SOL    HW110751   0.893   7.002   6.468
 3469SOL    HW210752   0.732   6.990   6.439
 3470SOL     OW10753   0.922   6.089   6.485
 3470SOL    HW110754   0.897   6.080   6.389
 3470SOL    HW210755   0.970   6.007   6.516
 3471SOL     OW10756   0.539   5.650   6.098
 3471SOL    HW110757   0.458   5.651   6.156
 3471SOL    HW210758   0.542   5.733   6.043
 3472SOL     OW10759   1.434   6.774   5.627
 3472SOL    HW110760   1.466   6.698   5.684
 3472SOL    HW210761   1.342   6.801   5.657
 3473SOL     OW10762   0.297   5.621   5.757
 3473SOL    HW110763   0.346   5.705   5.736
 3473SOL    HW210764   0.359   5.556   5.802
 3474SOL     OW10765   0.935   5.822   6.066
 3474SOL    HW110766   0.887   5.863   5.988
 3474SOL    HW210767   1.034   5.820   6.047
 3475SOL     OW10768   1.076   6.269   7.050
 3475SOL    HW110769   0.996   6.208   7.053
 3475SOL    HW210770   1.157   6.216   7.026
 3476SOL     OW10771   1.227   7.156   6.379
 3476SOL    HW110772   1.248   7.230   6.314
 3476SOL    HW210773   1.295   7.156   6.452
 3477SOL     OW10774   0.459   6.738   6.327
 3477SOL    HW110775   0.388   6.711   6.392
 3477SOL    HW210776   0.433   6.710   6.234
 3478SOL     OW10777   1.271   7.383   6.177
 3478SOL    HW110778   1.315   7.447   6.113
 3478SOL    HW210779   1.221   7.435   6.247
 3479SOL     OW10780   1.032   6.135   5.602
 3479SOL    HW110781   0.991   6.217   5.563
 3479SOL    HW210782   1.096   6.161   5.675
 3480SOL     OW10783   0.078   6.142   6.972
 3480SOL    HW110784   0.170   6.141   6.931
 3480SOL    HW210785   0.072   6.216   7.039
 3481SOL     OW10786   0.561   5.808   6.733
 3481SOL    HW110787   0.599   5.724   6.770
 3481SOL    HW210788   0.473   5.827   6.777
 3482SOL     OW10789   0.866   6.040   6.228
 3482SOL    HW110790   0.834   6.112   6.166
 3482SOL    HW210791   0.890   5.959   6.175
 3483SOL     OW10792   1.017   5.625   6.339
 3483SOL    HW110793   0.945   5.630   6.270
 3483SOL    HW210794   0.993   5.556   6.408
 3484SOL     OW10795   1.429   6.759   6.453
 3484SOL    HW110796   1.374   6.675   6.446
 3484SOL    HW210797   1.455   6.788   6.361
 3485SOL     OW10798   1.466   6.176   6.578
 3485SOL    HW110799   1.436   6.081   6.585
 3485SOL    HW210800   1.539   6.192   6.644
 3486SOL     OW10801   1.857   6.419   5.963
 3486SOL    HW110802   1.899   6.355   6.027
 3486SOL    HW210803   1.819   6.368   5.885
 3487SOL     OW10804   0.488   6.971   5.760
 3487SOL    HW110805   0.401   6.956   5.807
 3487SOL    HW210806   0.471   6.997   5.665
 3488SOL     OW10807   1.664   6.866   6.243
 3488SOL    HW110808   1.763   6.874   6.257
 3488SOL    HW210809   1.619   6.950   6.274
 3489SOL     OW10810   1.390   6.161   5.664
 3489SOL    HW110811   1.336   6.140   5.745
 3489SOL    HW210812   1.481   6.120   5.673
 3490SOL     OW10813   0.527   5.842   5.914
 3490SOL    HW110814   0.554   5.783   5.839
 3490SOL    HW210815   0.527   5.937   5.883
 3491SOL     OW10816   1.754   6.809   7.174
 3491SOL    HW110817   1.845   6.770   7.161
 3491SOL    HW210818   1.762   6.905   7.198
 3492SOL     OW10819   1.064   6.933   6.926
 3492SOL    HW110820   0.984   6.910   6.981
 3492SOL    HW210821   1.147   6.907   6.975
 3493SOL     OW10822   1.592   7.215   7.211
 3493SOL    HW110823   1.619   7.249   7.121
 3493SOL    HW210824   1.671   7.177   7.257
 3494SOL     OW10825   1.111   6.781   6.686
 3494SOL    HW110826   1.071   6.825   6.767
 3494SOL    HW210827   1.070   6.818   6.603
 3495SOL     OW10828   1.638   6.685   6.665
 3495SOL    HW110829   1.643   6.766   6.724
 3495SOL    HW210830   1.552   6.687   6.614
 3496SOL     OW10831   0.915   5.675   6.988
 3496SOL    HW110832   0.940   5.655   6.893
 3496SOL    HW210833   0.987   5.731   7.030
 3497SOL     OW10834   0.980   6.702   7.305
 3497SOL    HW110835   0.881   6.708   7.315
 3497SOL    HW210836   1.003   6.622   7.249
 3498SOL     OW10837   0.705   6.636   5.954
 3498SOL    HW110838   0.691   6.643   6.053
 3498SOL    HW210839   0.789   6.585   5.936
 3499SOL     OW10840   0.410   6.399   6.837
 3499SOL    HW110841   0.496   6.411   6.887
 3499SOL    HW210842   0.368   6.312   6.864
 3500SOL     OW10843   1.274   5.972   6.848
 3500SOL    HW110844   1.295   6.046   6.912
 3500SOL    HW210845   1.185   5.989   6.805
 3501SOL     OW10846   0.064   7.150   6.917
 3501SOL    HW110847   0.018   7.232   6.883
 3501SOL    HW210848   0.162   7.169   6.926
 3502SOL     OW10849   0.367   6.686   6.087
 3502SOL    HW110850   0.360   6.769   6.031
 3502SOL    HW210851   0.371   6.606   6.027
 3503SOL     OW10852   0.566   6.123   6.451
 3503SOL    HW110853   0.578   6.189   6.377
 3503SOL    HW210854   0.612   6.157   6.534
 3504SOL     OW10855   1.252   6.934   5.974
 3504SOL    HW110856   1.302   7.011   6.014
 3504SOL    HW210857   1.157   6.936   6.006
 3505SOL     OW10858   1.272   7.031   6.728
 3505SOL    HW110859   1.319   7.044   6.815
 3505SOL    HW210860   1.206   6.957   6.737
 3506SOL     OW10861   1.582   6.225   6.058
 3506SOL    HW110862   1.551   6.286   6.131
 3506SOL    HW210863   1.632   6.277   5.989
 3507SOL     OW10864   0.354   7.096   6.915
 3507SOL    HW110865   0.333   7.052   6.828
 3507SOL    HW210866   0.451   7.122   6.918
 3508SOL     OW10867   0.402   6.337   7.184
 3508SOL    HW110868   0.470   6.392   7.137
 3508SOL    HW210869   0.442   6.249   7.211
 3509SOL     OW10870   1.587   6.365   7.256
 3509SOL    HW110871   1.495   6.403   7.251
 3509SOL    HW210872   1.647   6.412   7.191
 3510SOL     OW10873   1.013   5.691   7.356
 3510SOL    HW110874   1.019   5.776   7.304
 3510SOL    HW210875   1.045   5.615   7.299
 3511SOL     OW10876   0.504   5.636   7.326
 3511SOL    HW110877   0.462   5.579   7.256
 3511SOL    HW210878   0.438   5.705   7.358
 3512SOL     OW10879   0.573   6.456   6.615
 3512SOL    HW110880   0.617   6.545   6.606
 3512SOL    HW210881   0.510   6.456   6.692
 3513SOL     OW10882   1.360   6.448   6.631
 3513SOL    HW110883   1.285   6.448   6.565
 3513SOL    HW210884   1.397   6.356   6.640
 3514SOL     OW10885   1.209   6.111   5.861
 3514SOL    HW110886   1.222   6.027   5.915
 3514SOL    HW210887   1.180   6.185   5.921
 3515SOL     OW10888   0.307   5.799   6.817
 3515SOL    HW110889   0.284   5.836   6.907
 3515SOL    HW210890   0.277   5.704   6.811
 3516SOL     OW10891   0.037   6.896   6.868
 3516SOL    HW110892   0.090   6.847   6.936
 3516SOL    HW210893   0.059   6.994   6.873
 3517SOL     OW10894   0.732   6.220   6.650
 3517SOL    HW110895   0.791   6.194   6.574
 3517SOL    HW210896   0.704   6.316   6.639
 3518SOL     OW10897   1.728   6.521   7.440
 3518SOL    HW110898   1.682   6.514   7.351
 3518SOL    HW210899   1.666   6.565   7.506
 3519SOL     OW10900   0.307   5.649   6.204
 3519SOL    HW110901   0.296   5.743   6.237
 3519SOL    HW210902   0.302   5.586   6.281
 3520SOL     OW10903   1.622   5.953   5.960
 3520SOL    HW110904   1.624   5.877   6.024
 3520SOL    HW210905   1.574   6.030   6.000
 3521SOL     OW10906   1.023   6.352   6.552
 3521SOL    HW110907   1.038   6.373   6.648
 3521SOL    HW210908   0.993   6.257   6.543
 3522SOL     OW10909   0.980   7.159   7.286
 3522SOL    HW110910   0.960   7.203   7.198
 3522SOL    HW210911   1.019   7.068   7.270
 3523SOL     OW10912   1.859   7.104   7.191
 3523SOL    HW110913   1.873   7.131   7.096
 3523SOL    HW210914   1.942   7.126   7.244
 3524SOL     OW10915   0.350   6.484   7.390
 3524SOL    HW110916   0.426   6.528   7.438
 3524SOL    HW210917   0.385   6.437   7.308
 3525SOL     OW10918   1.540   5.860   5.711
 3525SOL    HW110919   1.479   5.785   5.734
 3525SOL    HW210920   1.562   5.912   5.794
 3526SOL     OW10921   1.303   6.424   5.628
 3526SOL    HW110922   1.337   6.331   5.643
 3526SOL    HW210923   1.321   6.451   5.533
 3527SOL     OW10924   1.068   6.919   6.435
 3527SOL    HW110925   1.075   6.835   6.380
 3527SOL    HW210926   1.130   6.988   6.399
 3528SOL     OW10927   0.319   6.396   6.535
 3528SOL    HW110928   0.412   6.432   6.540
 3528SOL    HW210929   0.313   6.311   6.587
 3529SOL     OW10930   0.339   6.095   6.592
 3529SOL    HW110931   0.287   6.012   6.575
 3529SOL    HW210932   0.416   6.100   6.528
 3530SOL     OW10933   1.138   5.966   7.264
 3530SOL    HW110934   1.093   6.029   7.328
 3530SOL    HW210935   1.231   5.997   7.247
 3531SOL     OW10936   1.160   5.793   7.063
 3531SOL    HW110937   1.160   5.857   7.140
 3531SOL    HW210938   1.188   5.841   6.980
 3532SOL     OW10939   0.008   6.912   5.786
 3532SOL    HW110940  -0.085   6.933   5.755
 3532SOL    HW210941   0.018   6.813   5.799
 3533SOL     OW10942   0.088   7.387   6.513
 3533SOL    HW110943   0.046   7.301   6.486
 3533SOL    HW210944   0.182   7.390   6.479
 3534SOL     OW10945   0.504   7.154   6.496
 3534SOL    HW110946   0.570   7.228   6.505
 3534SOL    HW210947   0.548   7.075   6.454
 3535SOL     OW10948   1.002   6.382   6.824
 3535SOL    HW110949   1.043   6.350   6.910
 3535SOL    HW210950   0.906   6.355   6.821
 3536SOL     OW10951   0.040   6.130   6.700
 3536SOL    HW110952   0.125   6.097   6.659
 3536SOL    HW210953   0.053   6.145   6.798
 3537SOL     OW10954   0.189   6.106   7.308
 3537SOL    HW110955   0.248   6.066   7.238
 3537SOL    HW210956   0.131   6.177   7.267
 3538SOL     OW10957   1.369   6.536   7.246
 3538SOL    HW110958   1.408   6.625   7.266
 3538SOL    HW210959   1.379   6.516   7.149
 3539SOL     OW10960   0.815   6.158   5.911
 3539SOL    HW110961   0.822   6.069   5.865
 3539SOL    HW210962   0.721   6.192   5.903
 3540SOL     OW10963   1.657   6.190   6.792
 3540SOL    HW110964   1.619   6.121   6.854
 3540SOL    HW210965   1.739   6.154   6.748
 3541SOL     OW10966   0.252   7.150   7.330
 3541SOL    HW110967   0.222   7.207   7.406
 3541SOL    HW210968   0.245   7.053   7.356
 3542SOL     OW10969   0.671   6.050   6.855
 3542SOL    HW110970   0.637   5.961   6.825
 3542SOL    HW210971   0.697   6.104   6.775
 3543SOL     OW10972   0.930   7.264   7.051
 3543SOL    HW110973   0.906   7.246   6.956
 3543SOL    HW210974   0.960   7.358   7.061
 3544SOL     OW10975   0.473   6.086   5.777
 3544SOL    HW110976   0.534   6.166   5.781
 3544SOL    HW210977   0.378   6.117   5.784
 3545SOL     OW10978   0.159   6.723   7.052
 3545SOL    HW110979   0.181   6.662   7.128
 3545SOL    HW210980   0.169   6.674   6.966
 3546SOL     OW10981   1.347   6.645   6.820
 3546SOL    HW110982   1.371   6.582   6.746
 3546SOL    HW210983   1.257   6.685   6.802
 3547SOL     OW10984   1.302   6.441   5.895
 3547SOL    HW110985   1.216   6.410   5.937
 3547SOL    HW210986   1.298   6.427   5.796
 3548SOL     OW10987   1.759   7.333   6.740
 3548SOL    HW110988   1.820   7.363   6.667
 3548SOL    HW210989   1.721   7.244   6.718
 3549SOL     OW10990   1.252   7.317   6.714
 3549SOL    HW110991   1.336   7.322   6.660
 3549SOL    HW210992   1.229   7.221   6.732
 3550SOL     OW10993   0.083   6.844   6.608
 3550SOL    HW110994   0.078   6.843   6.708
 3550SOL    HW210995   0.000   6.803   6.570
 3551SOL     OW10996   0.688   7.248   7.302
 3551SOL    HW110997   0.632   7.329   7.311
 3551SOL    HW210998   0.740   7.252   7.216
 3552SOL     OW10999   1.726   5.721   6.109
 3552SOL    HW111000   1.799   5.704   6.042
 3552SOL    HW211001   1.695   5.634   6.147
 3553SOL     OW11002   1.388   7.159   6.063
 3553SOL    HW111003   1.455   7.171   5.989
 3553SOL    HW211004   1.348   7.248   6.086
 3554SOL     OW11005   0.130   7.380   7.437
 3554SOL    HW111006   0.089   7.306   7.490
 3554SOL    HW211007   0.194   7.431   7.495
 3555SOL     OW11008   1.280   6.513   6.258
 3555SOL    HW111009   1.340   6.432   6.260
 3555SOL    HW211010   1.320   6.582   6.198
 3556SOL     OW11011   0.830   6.859   7.008
 3556SOL    HW111012   0.825   6.892   7.103
 3556SOL    HW211013   0.744   6.878   6.962
 3557SOL     OW11014   0.672   7.202   5.740
 3557SOL    HW111015   0.681   7.212   5.641
 3557SOL    HW211016   0.632   7.113   5.761
 3558SOL     OW11017   1.650   7.306   6.980
 3558SOL    HW111018   1.703   7.316   6.896
 3558SOL    HW211019   1.623   7.396   7.014
 3559SOL     OW11020   1.841   5.761   6.549
 3559SOL    HW111021   1.880   5.676   6.513
 3559SOL    HW211022   1.743   5.763   6.530
 3560SOL     OW11023   0.263   5.912   6.306
 3560SOL    HW111024   0.184   5.963   6.272
 3560SOL    HW211025   0.254   5.897   6.404
 3561SOL     OW11026   1.194   7.198   5.617
 3561SOL    HW111027   1.200   7.105   5.654
 3561SOL    HW211028   1.135   7.198   5.537
 3562SOL     OW11029   0.822   6.588   6.958
 3562SOL    HW111030   0.862   6.587   6.866
 3562SOL    HW211031   0.832   6.680   6.998
 3563SOL     OW11032   0.916   6.496   5.877
 3563SOL    HW111033   0.979   6.534   5.809
 3563SOL    HW211034   0.956   6.413   5.916
 3564SOL     OW11035   1.504   7.193   5.630
 3564SOL    HW111036   1.412   7.230   5.637
 3564SOL    HW211037   1.542   7.213   5.540
 3565SOL     OW11038   0.372   6.874   7.076
 3565SOL    HW111039   0.359   6.967   7.042
 3565SOL    HW211040   0.288   6.822   7.063
 3566SOL     OW11041   1.614   6.878   6.875
 3566SOL    HW111042   1.674   6.881   6.955
 3566SOL    HW211043   1.539   6.942   6.888
 3567SOL     OW11044   1.039   6.684   6.282
 3567SOL    HW111045   0.969   6.637   6.336
 3567SOL    HW211046   1.098   6.616   6.239
 3568SOL     OW11047   1.014   5.822   6.557
 3568SOL    HW111048   1.006   5.786   6.464
 3568SOL    HW211049   1.012   5.746   6.622
 3569SOL     OW11050   0.590   7.073   6.077
 3569SOL    HW111051   0.632   7.015   6.007
 3569SOL    HW211052   0.546   7.152   6.033
 3570SOL     OW11053   1.709   5.971   6.967
 3570SOL    HW111054   1.782   6.040   6.971
 3570SOL    HW211055   1.737   5.896   6.908
 3571SOL     OW11056   0.255   6.934   5.876
 3571SOL    HW111057   0.159   6.935   5.849
 3571SOL    HW211058   0.267   6.987   5.960
 3572SOL     OW11059   0.105   6.599   7.312
 3572SOL    HW111060   0.028   6.566   7.366
 3572SOL    HW211061   0.190   6.569   7.354
 3573SOL     OW11062   0.672   5.789   7.075
 3573SOL    HW111063   0.762   5.773   7.035
 3573SOL    HW211064   0.680   5.794   7.174
 3574SOL     OW11065   0.075   5.931   5.619
 3574SOL    HW111066  -0.017   5.903   5.590
 3574SOL    HW211067   0.106   6.008   5.563
 3575SOL     OW11068   1.440   6.442   6.984
 3575SOL    HW111069   1.383   6.494   6.921
 3575SOL    HW211070   1.536   6.454   6.960
 3576SOL     OW11071   0.072   5.752   5.904
 3576SOL    HW111072   0.055   5.835   5.850
 3576SOL    HW211073   0.162   5.715   5.882
 3577SOL     OW11074   1.183   6.921   5.705
 3577SOL    HW111075   1.084   6.910   5.707
 3577SOL    HW211076   1.217   6.936   5.798
 3578SOL     OW11077   0.613   6.428   7.017
 3578SOL    HW111078   0.669   6.509   7.000
 3578SOL    HW211079   0.672   6.348   7.020
 3579SOL     OW11080   1.493   7.353   6.545
 3579SOL    HW111081   1.526   7.417   6.476
 3579SOL    HW211082   1.559   7.347   6.620
 3580SOL     OW11083   0.716   6.151   7.294
 3580SOL    HW111084   0.735   6.216   7.368
 3580SOL    HW211085   0.776   6.071   7.303
 3581SOL     OW11086   1.450   6.806   7.219
 3581SOL    HW111087   1.441   6.796   7.318
 3581SOL    HW211088   1.546   6.799   7.193
 3582SOL     OW11089   0.390   7.327   7.146
 3582SOL    HW111090   0.299   7.368   7.144
 3582SOL    HW211091   0.383   7.233   7.178
 3583SOL     OW11092   1.674   6.469   6.840
 3583SOL    HW111093   1.647   6.380   6.803
 3583SOL    HW211094   1.675   6.537   6.767
 3584SOL     OW11095   1.225   5.911   6.035
 3584SOL    HW111096   1.290   5.837   6.024
 3584SOL    HW211097   1.245   5.961   6.119
 3585SOL     OW11098   0.594   6.331   6.238
 3585SOL    HW111099   0.644   6.416   6.219
 3585SOL    HW211100   0.506   6.333   6.190
 3586SOL     OW11101   1.777   5.928   7.228
 3586SOL    HW111102   1.760   5.959   7.134
 3586SOL    HW211103   1.693   5.891   7.266
 3587SOL     OW11104   1.730   6.520   7.103
 3587SOL    HW111105   1.768   6.611   7.118
 3587SOL    HW211106   1.722   6.503   7.004
 3588SOL     OW11107   0.859   6.960   5.602
 3588SOL    HW111108   0.813   6.975   5.690
 3588SOL    HW211109   0.903   7.045   5.572
 3589SOL     OW11110   0.661   7.376   6.539
 3589SOL    HW111111   0.615   7.464   6.526
 3589SOL    HW211112   0.760   7.388   6.532
 3590SOL     OW11113   0.859   6.542   6.447
 3590SOL    HW111114   0.913   6.473   6.495
 3590SOL    HW211115   0.827   6.611   6.513
 3591SOL     OW11116   1.083   6.570   5.673
 3591SOL    HW111117   1.060   6.623   5.591
 3591SOL    HW211118   1.164   6.514   5.654
 3592SOL     OW11119   1.861   7.155   6.437
 3592SOL    HW111120   1.790   7.143   6.367
 3592SOL    HW211121   1.862   7.076   6.497
 3593SOL     OW11122   0.221   6.900   7.430
 3593SOL    HW111123   0.156   6.827   7.409
 3593SOL    HW211124   0.225   6.914   7.528
 3594SOL     OW11125   0.079   6.826   6.239
 3594SOL    HW111126   0.078   6.779   6.327
 3594SOL    HW211127   0.161   6.798   6.188
 3595SOL     OW11128   0.672   6.977   7.210
 3595SOL    HW111129   0.594   6.927   7.248
 3595SOL    HW211130   0.669   7.072   7.241
 3596SOL     OW11131   1.824   5.778   6.813
 3596SOL    HW111132   1.820   5.688   6.857
 3596SOL    HW211133   1.827   5.767   6.714
 3597SOL     OW11134   0.428   6.010   6.106
 3597SOL    HW111135   0.458   5.938   6.044
 3597SOL    HW211136   0.389   5.970   6.189
 3598SOL     OW11137   1.705   7.073   6.690
 3598SOL    HW111138   1.612   7.048   6.663
 3598SOL    HW211139   1.731   7.023   6.772
 3599SOL     OW11140   0.317   6.133   6.866
 3599SOL    HW111141   0.355   6.074   6.938
 3599SOL    HW211142   0.357   6.107   6.778
 3600SOL     OW11143   0.812   7.172   6.273
 3600SOL    HW111144   0.844   7.182   6.179
 3600SOL    HW211145   0.733   7.110   6.275
 3601SOL     OW11146   1.424   5.800   6.698
 3601SOL    HW111147   1.476   5.735   6.753
 3601SOL    HW211148   1.375   5.863   6.759
 3602SOL     OW11149   1.001   5.620   6.740
 3602SOL    HW111150   0.938   5.548   6.709
 3602SOL    HW211151   1.094   5.584   6.740
 3603SOL     OW11152   0.770   6.916   5.887
 3603SOL    HW111153   0.724   6.829   5.904
 3603SOL    HW211154   0.861   6.913   5.928
 3604SOL     OW11155   0.618   7.153   6.870
 3604SOL    HW111156   0.613   7.235   6.927
 3604SOL    HW211157   0.707   7.150   6.825
 3605SOL     OW11158   1.352   5.638   5.754
 3605SOL    HW111159   1.387   5.597   5.670
 3605SOL    HW211160   1.262   5.600   5.774
 3606SOL     OW11161   1.300   6.039   6.277
 3606SOL    HW111162   1.241   6.119   6.281
 3606SOL    HW211163   1.315   6.004   6.370
 3607SOL     OW11164   1.593   5.807   6.468
 3607SOL    HW111165   1.509   5.806   6.522
 3607SOL    HW211166   1.595   5.890   6.412
 3608SOL     OW11167   0.039   6.663   5.886
 3608SOL    HW111168   0.138   6.652   5.877
 3608SOL    HW211169  -0.001   6.577   5.918
 3609SOL     OW11170   0.875   7.232   5.923
 3609SOL    HW111171   0.798   7.197   5.869
 3609SOL    HW211172   0.843   7.303   5.985
 3610SOL     OW11173   0.230   6.214   7.561
 3610SOL    HW111174   0.137   6.212   7.598
 3610SOL    HW211175   0.231   6.175   7.469
 3611SOL     OW11176   1.755   6.193   7.679
 3611SOL    HW111177   1.743   6.180   7.580
 3611SOL    HW211178   1.725   6.112   7.728
 3612SOL     OW11179   0.231   7.299   7.931
 3612SOL    HW111180   0.265   7.376   7.985
 3612SOL    HW211181   0.275   7.299   7.841
 3613SOL     OW11182   0.606   6.550   7.571
 3613SOL    HW111183   0.613   6.634   7.517
 3613SOL    HW211184   0.652   6.563   7.659
 3614SOL     OW11185   1.842   7.353   7.807
 3614SOL    HW111186   1.896   7.324   7.887
 3614SOL    HW211187   1.872   7.443   7.778
 3615SOL     OW11188   0.027   7.182   7.565
 3615SOL    HW111189   0.008   7.086   7.586
 3615SOL    HW211190  -0.006   7.240   7.640
 3616SOL     OW11191   1.641   6.694   7.880
 3616SOL    HW111192   1.727   6.696   7.828
 3616SOL    HW211193   1.655   6.741   7.968
 3617SOL     OW11194   0.809   5.590   7.950
 3617SOL    HW111195   0.849   5.681   7.941
 3617SOL    HW211196   0.709   5.598   7.956
 3618SOL     OW11197   1.525   6.585   7.638
 3618SOL    HW111198   1.462   6.509   7.651
 3618SOL    HW211199   1.573   6.603   7.724
 3619SOL     OW11200   1.667   7.300   8.020
 3619SOL    HW111201   1.626   7.277   7.932
 3619SOL    HW211202   1.649   7.226   8.085
 3620SOL     OW11203   0.598   6.315   7.718
 3620SOL    HW111204   0.622   6.384   7.650
 3620SOL    HW211205   0.520   6.348   7.772
 3621SOL     OW11206   1.576   7.248   7.755
 3621SOL    HW111207   1.665   7.294   7.758
 3621SOL    HW211208   1.555   7.224   7.660
 3622SOL     OW11209   1.041   6.287   7.877
 3622SOL    HW111210   1.067   6.283   7.973
 3622SOL    HW211211   0.956   6.236   7.863
 3623SOL     OW11212   0.865   5.934   7.643
 3623SOL    HW111213   0.924   5.997   7.594
 3623SOL    HW211214   0.884   5.840   7.614
 3624SOL     OW11215   1.362   6.730   7.993
 3624SOL    HW111216   1.445   6.701   7.945
 3624SOL    HW211217   1.313   6.797   7.937
 3625SOL     OW11218   1.008   7.042   7.925
 3625SOL    HW111219   0.962   7.114   7.873
 3625SOL    HW211220   1.004   7.062   8.023
 3626SOL     OW11221   0.321   6.529   7.690
 3626SOL    HW111222   0.403   6.568   7.648
 3626SOL    HW211223   0.294   6.447   7.641
 3627SOL     OW11224   1.111   7.362   7.685
 3627SOL    HW111225   1.051   7.300   7.735
 3627SOL    HW211226   1.142   7.318   7.600
 3628SOL     OW11227   1.632   6.963   7.529
 3628SOL    HW111228   1.600   7.057   7.519
 3628SOL    HW211229   1.556   6.900   7.517
 3629SOL     OW11230   0.464   7.329   7.771
 3629SOL    HW111231   0.497   7.368   7.857
 3629SOL    HW211232   0.540   7.322   7.706
 3630SOL     OW11233   1.400   5.693   7.874
 3630SOL    HW111234   1.376   5.656   7.784
 3630SOL    HW211235   1.499   5.709   7.878
 3631SOL     OW11236   0.382   6.286   7.928
 3631SOL    HW111237   0.427   6.196   7.925
 3631SOL    HW211238   0.288   6.275   7.961
 3632SOL     OW11239   0.614   5.708   7.565
 3632SOL    HW111240   0.712   5.686   7.572
 3632SOL    HW211241   0.583   5.691   7.472
 3633SOL     OW11242   0.539   5.650   7.960
 3633SOL    HW111243   0.458   5.651   8.018
 3633SOL    HW211244   0.542   5.733   7.905
 3634SOL     OW11245   1.434   6.774   7.489
 3634SOL    HW111246   1.466   6.698   7.546
 3634SOL    HW211247   1.342   6.801   7.519
 3635SOL     OW11248   0.297   5.621   7.619
 3635SOL    HW111249   0.346   5.705   7.598
 3635SOL    HW211250   0.359   5.556   7.664
 3636SOL     OW11251   0.935   5.822   7.928
 3636SOL    HW111252   0.887   5.863   7.850
 3636SOL    HW211253   1.034   5.820   7.909
 3637SOL     OW11254   1.032   6.135   7.464
 3637SOL    HW111255   0.991   6.217   7.425
 3637SOL    HW211256   1.096   6.161   7.537
 3638SOL     OW11257   1.857   6.419   7.825
 3638SOL    HW111258   1.899   6.355   7.889
 3638SOL    HW211259   1.819   6.368   7.747
 3639SOL     OW11260   0.488   6.971   7.622
 3639SOL    HW111261   0.401   6.956   7.669
 3639SOL    HW211262   0.471   6.997   7.527
 3640SOL     OW11263   1.390   6.161   7.526
 3640SOL    HW111264   1.336   6.140   7.607
 3640SOL    HW211265   1.481   6.120   7.535
 3641SOL     OW11266   0.527   5.842   7.776
 3641SOL    HW111267   0.554   5.783   7.701
 3641SOL    HW211268   0.527   5.937   7.745
 3642SOL     OW11269   0.705   6.636   7.816
 3642SOL    HW111270   0.691   6.643   7.915
 3642SOL    HW211271   0.789   6.585   7.798
 3643SOL     OW11272   0.367   6.686   7.949
 3643SOL    HW111273   0.360   6.769   7.893
 3643SOL    HW211274   0.371   6.606   7.889
 3644SOL     OW11275   1.252   6.934   7.836
 3644SOL    HW111276   1.302   7.011   7.876
 3644SOL    HW211277   1.157   6.936   7.868
 3645SOL     OW11278   1.582   6.225   7.920
 3645SOL    HW111279   1.551   6.286   7.993
 3645SOL    HW211280   1.632   6.277   7.851
 3646SOL     OW11281   1.209   6.111   7.723
 3646SOL    HW111282   1.222   6.027   7.777
 3646SOL    HW211283   1.180   6.185   7.783
 3647SOL     OW11284   1.622   5.953   7.822
 3647SOL    HW111285   1.624   5.877   7.886
 3647SOL    HW211286   1.574   6.030   7.862
 3648SOL     OW11287   1.540   5.860   7.573
 3648SOL    HW111288   1.479   5.785   7.596
 3648SOL    HW211289   1.562   5.912   7.656
 3649SOL     OW11290   1.303   6.424   7.490
 3649SOL    HW111291   1.337   6.331   7.505
 3649SOL    HW211292   1.321   6.451   7.395
 3650SOL     OW11293   0.008   6.912   7.648
 3650SOL    HW111294  -0.085   6.933   7.617
 3650SOL    HW211295   0.018   6.813   7.661
 3651SOL     OW11296   0.815   6.158   7.773
 3651SOL    HW111297   0.822   6.069   7.727
 3651SOL    HW211298   0.721   6.192   7.765
 3652SOL     OW11299   0.473   6.086   7.639
 3652SOL    HW111300   0.534   6.166   7.643
 3652SOL    HW211301   0.378   6.117   7.646
 3653SOL     OW11302   1.302   6.441   7.757
 3653SOL    HW111303   1.216   6.410   7.799
 3653SOL    HW211304   1.298   6.427   7.658
 3654SOL     OW11305   1.726   5.721   7.971
 3654SOL    HW111306   1.799   5.704   7.904
 3654SOL    HW211307   1.695   5.634   8.009
 3655SOL     OW11308   1.388   7.159   7.925
 3655SOL    HW111309   1.455   7.171   7.851
 3655SOL    HW211310   1.348   7.248   7.948
 3656SOL     OW11311   0.672   7.202   7.602
 3656SOL    HW111312   0.681   7.212   7.503
 3656SOL    HW211313   0.632   7.113   7.623
 3657SOL     OW11314   1.194   7.198   7.479
 3657SOL    HW111315   1.200   7.105   7.516
 3657SOL    HW211316   1.135   7.198   7.399
 3658SOL     OW11317   0.916   6.496   7.739
 3658SOL    HW111318   0.979   6.534   7.671
 3658SOL    HW211319   0.956   6.413   7.778
 3659SOL     OW11320   1.504   7.193   7.492
 3659SOL    HW111321   1.412   7.230   7.499
 3659SOL    HW211322   1.542   7.213   7.402
 3660SOL     OW11323   0.590   7.073   7.939
 3660SOL    HW111324   0.632   7.015   7.869
 3660SOL    HW211325   0.546   7.152   7.895
 3661SOL     OW11326   0.255   6.934   7.738
 3661SOL    HW111327   0.159   6.935   7.711
 3661SOL    HW211328   0.267   6.987   7.822
 3662SOL     OW11329   0.075   5.931   7.481
 3662SOL    HW111330  -0.017   5.903   7.452
 3662SOL    HW211331   0.106   6.008   7.425
 3663SOL     OW11332   0.072   5.752   7.766
 3663SOL    HW111333   0.055   5.835   7.712
 3663SOL    HW211334   0.162   5.715   7.744
 3664SOL     OW11335   1.183   6.921   7.567
 3664SOL    HW111336   1.084   6.910   7.569
 3664SOL    HW211337   1.217   6.936   7.660
 3665SOL     OW11338   1.225   5.911   7.897
 3665SOL    HW111339   1.290   5.837   7.886
 3665SOL    HW211340   1.245   5.961   7.981
 3666SOL     OW11341   0.859   6.960   7.464
 3666SOL    HW111342   0.813   6.975   7.552
 3666SOL    HW211343   0.903   7.045   7.434
 3667SOL     OW11344   1.083   6.570   7.535
 3667SOL    HW111345   1.060   6.623   7.453
 3667SOL    HW211346   1.164   6.514   7.516
 3668SOL     OW11347   0.428   6.010   7.968
 3668SOL    HW111348   0.458   5.938   7.906
 3668SOL    HW211349   0.389   5.970   8.051
 3669SOL     OW11350   0.770   6.916   7.749
 3669SOL    HW111351   0.724   6.829   7.766
 3669SOL    HW211352   0.861   6.913   7.790
 3670SOL     OW11353   1.352   5.638   7.616
 3670SOL    HW111354   1.387   5.597   7.532
 3670SOL    HW211355   1.262   5.600   7.636
 3671SOL     OW11356   0.039   6.663   7.748
 3671SOL    HW111357   0.138   6.652   7.739
 3671SOL    HW211358  -0.001   6.577   7.780
 3672SOL     OW11359   0.875   7.232   7.785
 3672SOL    HW111360   0.798   7.197   7.731
 3672SOL    HW211361   0.843   7.303   7.847
 3673SOL     OW11362   0.230   8.076   0.113
 3673SOL    HW111363   0.137   8.074   0.150
 3673SOL    HW211364   0.231   8.037   0.021
 3674SOL     OW11365   0.225   7.723   0.996
 3674SOL    HW111366   0.260   7.706   1.088
 3674SOL    HW211367   0.137   7.678   0.984
 3675SOL     OW11368   0.019   7.816   0.647
 3675SOL    HW111369  -0.063   7.859   0.686
 3675SOL    HW211370  -0.009   7.743   0.584
 3676SOL     OW11371   0.569   8.723   1.165
 3676SOL    HW111372   0.476   8.716   1.128
 3676SOL    HW211373   0.580   8.812   1.209
 3677SOL     OW11374   1.555   8.959   0.703
 3677SOL    HW111375   1.498   8.943   0.784
 3677SOL    HW211376   1.496   8.969   0.623
 3678SOL     OW11377   1.135   8.151   0.717
 3678SOL    HW111378   1.192   8.229   0.692
 3678SOL    HW211379   1.075   8.177   0.793
 3679SOL     OW11380   1.755   8.055   0.231
 3679SOL    HW111381   1.743   8.042   0.132
 3679SOL    HW211382   1.725   7.974   0.280
 3680SOL     OW11383   0.768   8.592   1.023
 3680SOL    HW111384   0.690   8.609   1.083
 3680SOL    HW211385   0.802   8.679   0.987
 3681SOL     OW11386   0.850   8.246   1.823
 3681SOL    HW111387   0.846   8.322   1.888
 3681SOL    HW211388   0.872   8.282   1.732
 3682SOL     OW11389   0.685   8.460   0.665
 3682SOL    HW111390   0.754   8.444   0.735
 3682SOL    HW211391   0.612   8.517   0.703
 3683SOL     OW11392   0.686   8.609   1.803
 3683SOL    HW111393   0.746   8.688   1.817
 3683SOL    HW211394   0.600   8.640   1.762
 3684SOL     OW11395   0.335   8.883   1.061
 3684SOL    HW111396   0.257   8.852   1.008
 3684SOL    HW211397   0.393   8.941   1.004
 3685SOL     OW11398   1.460   8.953   1.339
 3685SOL    HW111399   1.484   9.047   1.365
 3685SOL    HW211400   1.444   8.899   1.421
 3686SOL     OW11401   0.438   7.840   1.499
 3686SOL    HW111402   0.520   7.784   1.508
 3686SOL    HW211403   0.357   7.782   1.503
 3687SOL     OW11404   1.603   7.895   0.737
 3687SOL    HW111405   1.529   7.941   0.687
 3687SOL    HW211406   1.654   7.963   0.790
 3688SOL     OW11407   1.127   8.789   1.690
 3688SOL    HW111408   1.174   8.789   1.778
 3688SOL    HW211409   1.079   8.702   1.679
 3689SOL     OW11410   0.230   8.882   0.538
 3689SOL    HW111411   0.204   8.978   0.538
 3689SOL    HW211412   0.159   8.828   0.583
 3690SOL     OW11413   0.240   8.539   0.886
 3690SOL    HW111414   0.254   8.455   0.938
 3690SOL    HW211415   0.185   8.603   0.941
 3691SOL     OW11416   0.606   8.412   0.123
 3691SOL    HW111417   0.613   8.496   0.069
 3691SOL    HW211418   0.652   8.425   0.211
 3692SOL     OW11419   1.594   7.562   1.480
 3692SOL    HW111420   1.576   7.629   1.408
 3692SOL    HW211421   1.591   7.608   1.569
 3693SOL     OW11422   0.122   8.091   0.563
 3693SOL    HW111423   0.077   8.003   0.580
 3693SOL    HW211424   0.121   8.145   0.647
 3694SOL     OW11425   0.027   9.044   0.117
 3694SOL    HW111426   0.008   8.948   0.138
 3694SOL    HW211427  -0.006   9.102   0.192
 3695SOL     OW11428   1.689   8.370   0.612
 3695SOL    HW111429   1.784   8.341   0.620
 3695SOL    HW211430   1.681   8.435   0.537
 3696SOL     OW11431   1.641   8.556   0.432
 3696SOL    HW111432   1.727   8.558   0.380
 3696SOL    HW211433   1.655   8.603   0.520
 3697SOL     OW11434   0.113   8.185   1.597
 3697SOL    HW111435   0.201   8.172   1.642
 3697SOL    HW211436   0.100   8.282   1.575
 3698SOL     OW11437   0.613   8.813   0.726
 3698SOL    HW111438   0.564   8.726   0.735
 3698SOL    HW211439   0.590   8.856   0.639
 3699SOL     OW11440   1.293   8.676   1.423
 3699SOL    HW111441   1.330   8.603   1.365
 3699SOL    HW211442   1.345   8.681   1.508
 3700SOL     OW11443   0.809   7.452   0.502
 3700SOL    HW111444   0.849   7.543   0.493
 3700SOL    HW211445   0.709   7.460   0.508
 3701SOL     OW11446   0.197   8.424   1.264
 3701SOL    HW111447   0.286   8.379   1.250
 3701SOL    HW211448   0.124   8.359   1.245
 3702SOL     OW11449   1.525   8.447   0.190
 3702SOL    HW111450   1.462   8.371   0.203
 3702SOL    HW211451   1.573   8.465   0.276
 3703SOL     OW11452   1.187   9.240   1.616
 3703SOL    HW111453   1.211   9.300   1.540
 3703SOL    HW211454   1.194   9.145   1.586
 3704SOL     OW11455   0.317   7.699   1.801
 3704SOL    HW111456   0.388   7.770   1.807
 3704SOL    HW211457   0.229   7.738   1.829
 3705SOL     OW11458   1.466   8.865   0.953
 3705SOL    HW111459   1.407   8.871   1.033
 3705SOL    HW211460   1.451   8.777   0.907
 3706SOL     OW11461   1.667   9.162   0.572
 3706SOL    HW111462   1.626   9.139   0.484
 3706SOL    HW211463   1.649   9.088   0.637
 3707SOL     OW11464   0.598   8.177   0.270
 3707SOL    HW111465   0.622   8.246   0.202
 3707SOL    HW211466   0.520   8.210   0.324
 3708SOL     OW11467   1.281   7.793   0.944
 3708SOL    HW111468   1.195   7.743   0.931
 3708SOL    HW211469   1.343   7.739   1.000
 3709SOL     OW11470   1.576   9.110   0.307
 3709SOL    HW111471   1.665   9.156   0.310
 3709SOL    HW211472   1.555   9.086   0.212
 3710SOL     OW11473   0.807   8.053   1.465
 3710SOL    HW111474   0.760   8.050   1.554
 3710SOL    HW211475   0.756   7.998   1.399
 3711SOL     OW11476   1.394   7.917   1.674
 3711SOL    HW111477   1.374   7.960   1.762
 3711SOL    HW211478   1.472   7.855   1.683
 3712SOL     OW11479   0.973   8.338   1.572
 3712SOL    HW111480   1.019   8.254   1.543
 3712SOL    HW211481   0.917   8.372   1.497
 3713SOL     OW11482   0.991   7.858   1.242
 3713SOL    HW111483   0.914   7.892   1.296
 3713SOL    HW211484   0.957   7.807   1.163
 3714SOL     OW11485   1.041   8.149   0.429
 3714SOL    HW111486   1.067   8.145   0.525
 3714SOL    HW211487   0.956   8.098   0.415
 3715SOL     OW11488   0.076   8.259   0.789
 3715SOL    HW111489   0.175   8.247   0.798
 3715SOL    HW211490   0.052   8.354   0.810
 3716SOL     OW11491   0.865   7.796   0.195
 3716SOL    HW111492   0.924   7.859   0.146
 3716SOL    HW211493   0.884   7.702   0.166
 3717SOL     OW11494   1.719   8.033   1.831
 3717SOL    HW111495   1.693   8.122   1.795
 3717SOL    HW211496   1.717   7.965   1.758
 3718SOL     OW11497   1.362   8.592   0.545
 3718SOL    HW111498   1.445   8.563   0.497
 3718SOL    HW211499   1.313   8.659   0.489
 3719SOL     OW11500   0.550   7.644   0.885
 3719SOL    HW111501   0.545   7.639   0.985
 3719SOL    HW211502   0.552   7.740   0.856
 3720SOL     OW11503   1.008   8.904   0.477
 3720SOL    HW111504   0.962   8.976   0.425
 3720SOL    HW211505   1.004   8.924   0.575
 3721SOL     OW11506   1.795   8.514   0.873
 3721SOL    HW111507   1.733   8.499   0.797
 3721SOL    HW211508   1.743   8.525   0.958
 3722SOL     OW11509   1.227   8.998   1.506
 3722SOL    HW111510   1.233   8.921   1.570
 3722SOL    HW211511   1.175   8.972   1.426
 3723SOL     OW11512   0.321   8.391   0.242
 3723SOL    HW111513   0.403   8.430   0.200
 3723SOL    HW211514   0.294   8.309   0.193
 3724SOL     OW11515   1.458   8.183   0.728
 3724SOL    HW111516   1.453   8.118   0.803
 3724SOL    HW211517   1.538   8.242   0.741
 3725SOL     OW11518   0.461   8.714   1.727
 3725SOL    HW111519   0.411   8.715   1.641
 3725SOL    HW211520   0.398   8.696   1.803
 3726SOL     OW11521   0.202   7.733   1.498
 3726SOL    HW111522   0.122   7.793   1.485
 3726SOL    HW211523   0.192   7.684   1.584
 3727SOL     OW11524   1.632   8.825   0.081
 3727SOL    HW111525   1.600   8.919   0.071
 3727SOL    HW211526   1.556   8.762   0.069
 3728SOL     OW11527   1.400   7.555   0.426
 3728SOL    HW111528   1.376   7.518   0.336
 3728SOL    HW211529   1.499   7.571   0.430
 3729SOL     OW11530   0.940   9.146   0.904
 3729SOL    HW111531   1.020   9.089   0.925
 3729SOL    HW211532   0.891   9.106   0.827
 3730SOL     OW11533   0.382   8.148   0.480
 3730SOL    HW111534   0.427   8.058   0.477
 3730SOL    HW211535   0.288   8.137   0.513
 3731SOL     OW11536   1.547   7.670   1.729
 3731SOL    HW111537   1.542   7.707   1.821
 3731SOL    HW211538   1.475   7.601   1.717
 3732SOL     OW11539   0.614   7.570   0.117
 3732SOL    HW111540   0.712   7.548   0.124
 3732SOL    HW211541   0.583   7.553   0.024
 3733SOL     OW11542   0.781   7.712   1.749
 3733SOL    HW111543   0.848   7.651   1.792
 3733SOL    HW211544   0.708   7.731   1.814
 3734SOL     OW11545   0.888   8.962   1.195
 3734SOL    HW111546   0.865   8.937   1.101
 3734SOL    HW211547   0.949   8.893   1.234
 3735SOL     OW11548   1.351   8.038   1.433
 3735SOL    HW111549   1.379   7.995   1.518
 3735SOL    HW211550   1.376   8.134   1.434
 3736SOL     OW11551   0.803   8.850   0.924
 3736SOL    HW111552   0.893   8.864   0.882
 3736SOL    HW211553   0.732   8.852   0.853
 3737SOL     OW11554   0.922   7.951   0.899
 3737SOL    HW111555   0.897   7.942   0.803
 3737SOL    HW211556   0.970   7.869   0.930
 3738SOL     OW11557   0.539   7.512   0.512
 3738SOL    HW111558   0.458   7.513   0.570
 3738SOL    HW211559   0.542   7.595   0.457
 3739SOL     OW11560   1.434   8.636   0.041
 3739SOL    HW111561   1.466   8.560   0.098
 3739SOL    HW211562   1.342   8.663   0.071
 3740SOL     OW11563   0.297   7.483   0.171
 3740SOL    HW111564   0.346   7.567   0.150
 3740SOL    HW211565   0.359   7.418   0.216
 3741SOL     OW11566   0.935   7.684   0.480
 3741SOL    HW111567   0.887   7.725   0.402
 3741SOL    HW211568   1.034   7.682   0.461
 3742SOL     OW11569   1.076   8.131   1.464
 3742SOL    HW111570   0.996   8.070   1.467
 3742SOL    HW211571   1.157   8.078   1.440
 3743SOL     OW11572   1.227   9.018   0.793
 3743SOL    HW111573   1.248   9.092   0.728
 3743SOL    HW211574   1.295   9.018   0.866
 3744SOL     OW11575   0.459   8.600   0.741
 3744SOL    HW111576   0.388   8.573   0.806
 3744SOL    HW211577   0.433   8.572   0.648
 3745SOL     OW11578   1.032   7.997   0.016
 3745SOL    HW111579   0.991   8.079  -0.023
 3745SOL    HW211580   1.096   8.023   0.089
 3746SOL     OW11581   0.078   8.004   1.386
 3746SOL    HW111582   0.170   8.003   1.345
 3746SOL    HW211583   0.072   8.078   1.453
 3747SOL     OW11584   0.561   7.670   1.147
 3747SOL    HW111585   0.599   7.586   1.184
 3747SOL    HW211586   0.473   7.689   1.191
 3748SOL     OW11587   0.866   7.902   0.642
 3748SOL    HW111588   0.834   7.974   0.580
 3748SOL    HW211589   0.890   7.821   0.589
 3749SOL     OW11590   1.017   7.487   0.753
 3749SOL    HW111591   0.945   7.492   0.684
 3749SOL    HW211592   0.993   7.418   0.822
 3750SOL     OW11593   1.429   8.621   0.867
 3750SOL    HW111594   1.374   8.537   0.860
 3750SOL    HW211595   1.455   8.650   0.775
 3751SOL     OW11596   1.466   8.038   0.992
 3751SOL    HW111597   1.436   7.943   0.999
 3751SOL    HW211598   1.539   8.054   1.058
 3752SOL     OW11599   1.857   8.281   0.377
 3752SOL    HW111600   1.899   8.217   0.441
 3752SOL    HW211601   1.819   8.230   0.299
 3753SOL     OW11602   0.488   8.833   0.174
 3753SOL    HW111603   0.401   8.818   0.221
 3753SOL    HW211604   0.471   8.859   0.079
 3754SOL     OW11605   1.664   8.728   0.657
 3754SOL    HW111606   1.763   8.736   0.671
 3754SOL    HW211607   1.619   8.812   0.688
 3755SOL     OW11608   1.390   8.023   0.078
 3755SOL    HW111609   1.336   8.002   0.159
 3755SOL    HW211610   1.481   7.982   0.087
 3756SOL     OW11611   0.527   7.704   0.328
 3756SOL    HW111612   0.554   7.645   0.253
 3756SOL    HW211613   0.527   7.799   0.297
 3757SOL     OW11614   1.754   8.671   1.588
 3757SOL    HW111615   1.845   8.632   1.575
 3757SOL    HW211616   1.762   8.767   1.612
 3758SOL     OW11617   1.064   8.795   1.340
 3758SOL    HW111618   0.984   8.772   1.395
 3758SOL    HW211619   1.147   8.769   1.389
 3759SOL     OW11620   1.592   9.077   1.625
 3759SOL    HW111621   1.619   9.111   1.535
 3759SOL    HW211622   1.671   9.039   1.671
 3760SOL     OW11623   1.111   8.643   1.100
 3760SOL    HW111624   1.071   8.687   1.181
 3760SOL    HW211625   1.070   8.680   1.017
 3761SOL     OW11626   1.638   8.547   1.079
 3761SOL    HW111627   1.643   8.628   1.138
 3761SOL    HW211628   1.552   8.549   1.028
 3762SOL     OW11629   0.915   7.537   1.402
 3762SOL    HW111630   0.940   7.517   1.307
 3762SOL    HW211631   0.987   7.593   1.444
 3763SOL     OW11632   0.980   8.564   1.719
 3763SOL    HW111633   0.881   8.570   1.729
 3763SOL    HW211634   1.003   8.484   1.663
 3764SOL     OW11635   0.705   8.498   0.368
 3764SOL    HW111636   0.691   8.505   0.467
 3764SOL    HW211637   0.789   8.447   0.350
 3765SOL     OW11638   0.410   8.261   1.251
 3765SOL    HW111639   0.496   8.273   1.301
 3765SOL    HW211640   0.368   8.174   1.278
 3766SOL     OW11641   1.274   7.834   1.262
 3766SOL    HW111642   1.295   7.908   1.326
 3766SOL    HW211643   1.185   7.851   1.219
 3767SOL     OW11644   0.064   9.012   1.331
 3767SOL    HW111645   0.018   9.094   1.297
 3767SOL    HW211646   0.162   9.031   1.340
 3768SOL     OW11647   0.367   8.548   0.501
 3768SOL    HW111648   0.360   8.631   0.445
 3768SOL    HW211649   0.371   8.468   0.441
 3769SOL     OW11650   0.566   7.985   0.865
 3769SOL    HW111651   0.578   8.051   0.791
 3769SOL    HW211652   0.612   8.019   0.948
 3770SOL     OW11653   1.252   8.796   0.388
 3770SOL    HW111654   1.302   8.873   0.428
 3770SOL    HW211655   1.157   8.798   0.420
 3771SOL     OW11656   1.272   8.893   1.142
 3771SOL    HW111657   1.319   8.906   1.229
 3771SOL    HW211658   1.206   8.819   1.151
 3772SOL     OW11659   1.582   8.087   0.472
 3772SOL    HW111660   1.551   8.148   0.545
 3772SOL    HW211661   1.632   8.139   0.403
 3773SOL     OW11662   0.354   8.958   1.329
 3773SOL    HW111663   0.333   8.914   1.242
 3773SOL    HW211664   0.451   8.984   1.332
 3774SOL     OW11665   0.402   8.199   1.598
 3774SOL    HW111666   0.470   8.254   1.551
 3774SOL    HW211667   0.442   8.111   1.625
 3775SOL     OW11668   1.587   8.227   1.670
 3775SOL    HW111669   1.495   8.265   1.665
 3775SOL    HW211670   1.647   8.274   1.605
 3776SOL     OW11671   1.013   7.553   1.770
 3776SOL    HW111672   1.019   7.638   1.718
 3776SOL    HW211673   1.045   7.477   1.713
 3777SOL     OW11674   0.504   7.498   1.740
 3777SOL    HW111675   0.462   7.441   1.670
 3777SOL    HW211676   0.438   7.567   1.772
 3778SOL     OW11677   0.573   8.318   1.029
 3778SOL    HW111678   0.617   8.407   1.020
 3778SOL    HW211679   0.510   8.318   1.106
 3779SOL     OW11680   1.360   8.310   1.045
 3779SOL    HW111681   1.285   8.310   0.979
 3779SOL    HW211682   1.397   8.218   1.054
 3780SOL     OW11683   1.209   7.973   0.275
 3780SOL    HW111684   1.222   7.889   0.329
 3780SOL    HW211685   1.180   8.047   0.335
 3781SOL     OW11686   0.307   7.661   1.231
 3781SOL    HW111687   0.284   7.698   1.321
 3781SOL    HW211688   0.277   7.566   1.225
 3782SOL     OW11689   0.037   8.758   1.282
 3782SOL    HW111690   0.090   8.709   1.350
 3782SOL    HW211691   0.059   8.856   1.287
 3783SOL     OW11692   0.732   8.082   1.064
 3783SOL    HW111693   0.791   8.056   0.988
 3783SOL    HW211694   0.704   8.178   1.053
 3784SOL     OW11695   1.728   8.383   1.854
 3784SOL    HW111696   1.682   8.376   1.765
 3784SOL    HW211697   1.666   8.427   1.920
 3785SOL     OW11698   0.307   7.511   0.618
 3785SOL    HW111699   0.296   7.605   0.651
 3785SOL    HW211700   0.302   7.448   0.695
 3786SOL     OW11701   1.622   7.815   0.374
 3786SOL    HW111702   1.624   7.739   0.438
 3786SOL    HW211703   1.574   7.892   0.414
 3787SOL     OW11704   1.023   8.214   0.966
 3787SOL    HW111705   1.038   8.235   1.062
 3787SOL    HW211706   0.993   8.119   0.957
 3788SOL     OW11707   0.980   9.021   1.700
 3788SOL    HW111708   0.960   9.065   1.612
 3788SOL    HW211709   1.019   8.930   1.684
 3789SOL     OW11710   1.859   8.966   1.605
 3789SOL    HW111711   1.873   8.993   1.510
 3789SOL    HW211712   1.942   8.988   1.658
 3790SOL     OW11713   0.350   8.346   1.804
 3790SOL    HW111714   0.426   8.390   1.852
 3790SOL    HW211715   0.385   8.299   1.722
 3791SOL     OW11716   1.540   7.722   0.125
 3791SOL    HW111717   1.479   7.647   0.148
 3791SOL    HW211718   1.562   7.774   0.208
 3792SOL     OW11719   1.303   8.286   0.042
 3792SOL    HW111720   1.337   8.193   0.057
 3792SOL    HW211721   1.321   8.313  -0.053
 3793SOL     OW11722   1.068   8.781   0.849
 3793SOL    HW111723   1.075   8.697   0.794
 3793SOL    HW211724   1.130   8.850   0.813
 3794SOL     OW11725   0.319   8.258   0.949
 3794SOL    HW111726   0.412   8.294   0.954
 3794SOL    HW211727   0.313   8.173   1.001
 3795SOL     OW11728   0.339   7.957   1.006
 3795SOL    HW111729   0.287   7.874   0.989
 3795SOL    HW211730   0.416   7.962   0.942
 3796SOL     OW11731   1.138   7.828   1.678
 3796SOL    HW111732   1.093   7.891   1.742
 3796SOL    HW211733   1.231   7.859   1.661
 3797SOL     OW11734   1.160   7.655   1.477
 3797SOL    HW111735   1.160   7.719   1.554
 3797SOL    HW211736   1.188   7.703   1.394
 3798SOL     OW11737   0.008   8.774   0.200
 3798SOL    HW111738  -0.085   8.795   0.169
 3798SOL    HW211739   0.018   8.675   0.213
 3799SOL     OW11740   0.504   9.016   0.910
 3799SOL    HW111741   0.570   9.090   0.919
 3799SOL    HW211742   0.548   8.937   0.868
 3800SOL     OW11743   1.002   8.244   1.238
 3800SOL    HW111744   1.043   8.212   1.324
 3800SOL    HW211745   0.906   8.217   1.235
 3801SOL     OW11746   0.040   7.992   1.114
 3801SOL    HW111747   0.125   7.959   1.073
 3801SOL    HW211748   0.053   8.007   1.212
 3802SOL     OW11749   0.189   7.968   1.722
 3802SOL    HW111750   0.248   7.928   1.652
 3802SOL    HW211751   0.131   8.039   1.681
 3803SOL     OW11752   1.369   8.398   1.660
 3803SOL    HW111753   1.408   8.487   1.680
 3803SOL    HW211754   1.379   8.378   1.563
 3804SOL     OW11755   0.815   8.020   0.325
 3804SOL    HW111756   0.822   7.931   0.279
 3804SOL    HW211757   0.721   8.054   0.317
 3805SOL     OW11758   1.657   8.052   1.206
 3805SOL    HW111759   1.619   7.983   1.268
 3805SOL    HW211760   1.739   8.016   1.162
 3806SOL     OW11761   0.252   9.012   1.744
 3806SOL    HW111762   0.222   9.069   1.820
 3806SOL    HW211763   0.245   8.915   1.770
 3807SOL     OW11764   0.671   7.912   1.269
 3807SOL    HW111765   0.637   7.823   1.239
 3807SOL    HW211766   0.697   7.966   1.189
 3808SOL     OW11767   0.930   9.126   1.465
 3808SOL    HW111768   0.906   9.108   1.370
 3808SOL    HW211769   0.960   9.220   1.475
 3809SOL     OW11770   0.473   7.948   0.191
 3809SOL    HW111771   0.534   8.028   0.195
 3809SOL    HW211772   0.378   7.979   0.198
 3810SOL     OW11773   0.159   8.585   1.466
 3810SOL    HW111774   0.181   8.524   1.542
 3810SOL    HW211775   0.169   8.536   1.380
 3811SOL     OW11776   1.347   8.507   1.234
 3811SOL    HW111777   1.371   8.444   1.160
 3811SOL    HW211778   1.257   8.547   1.216
 3812SOL     OW11779   1.302   8.303   0.309
 3812SOL    HW111780   1.216   8.272   0.351
 3812SOL    HW211781   1.298   8.289   0.210
 3813SOL     OW11782   1.759   9.195   1.154
 3813SOL    HW111783   1.820   9.225   1.081
 3813SOL    HW211784   1.721   9.106   1.132
 3814SOL     OW11785   1.252   9.179   1.128
 3814SOL    HW111786   1.336   9.184   1.074
 3814SOL    HW211787   1.229   9.083   1.146
 3815SOL     OW11788   0.083   8.706   1.022
 3815SOL    HW111789   0.078   8.705   1.122
 3815SOL    HW211790   0.000   8.665   0.984
 3816SOL     OW11791   0.688   9.110   1.716
 3816SOL    HW111792   0.632   9.191   1.725
 3816SOL    HW211793   0.740   9.114   1.630
 3817SOL     OW11794   0.903   7.534   0.133
 3817SOL    HW111795   0.954   7.535   0.047
 3817SOL    HW211796   0.959   7.492   0.204
 3818SOL     OW11797   1.726   7.583   0.523
 3818SOL    HW111798   1.799   7.566   0.456
 3818SOL    HW211799   1.695   7.496   0.561
 3819SOL     OW11800   1.388   9.021   0.477
 3819SOL    HW111801   1.455   9.033   0.403
 3819SOL    HW211802   1.348   9.110   0.500
 3820SOL     OW11803   1.280   8.375   0.672
 3820SOL    HW111804   1.340   8.294   0.674
 3820SOL    HW211805   1.320   8.444   0.612
 3821SOL     OW11806   0.830   8.721   1.422
 3821SOL    HW111807   0.825   8.754   1.517
 3821SOL    HW211808   0.744   8.740   1.376
 3822SOL     OW11809   0.672   9.064   0.154
 3822SOL    HW111810   0.681   9.074   0.055
 3822SOL    HW211811   0.632   8.975   0.175
 3823SOL     OW11812   1.841   7.623   0.963
 3823SOL    HW111813   1.880   7.538   0.927
 3823SOL    HW211814   1.743   7.625   0.944
 3824SOL     OW11815   0.263   7.774   0.720
 3824SOL    HW111816   0.184   7.825   0.686
 3824SOL    HW211817   0.254   7.759   0.818
 3825SOL     OW11818   1.194   9.060   0.031
 3825SOL    HW111819   1.200   8.967   0.068
 3825SOL    HW211820   1.135   9.060  -0.049
 3826SOL     OW11821   0.822   8.450   1.372
 3826SOL    HW111822   0.862   8.449   1.280
 3826SOL    HW211823   0.832   8.542   1.412
 3827SOL     OW11824   0.916   8.358   0.291
 3827SOL    HW111825   0.979   8.396   0.223
 3827SOL    HW211826   0.956   8.275   0.330
 3828SOL     OW11827   1.504   9.055   0.044
 3828SOL    HW111828   1.412   9.092   0.051
 3828SOL    HW211829   1.542   9.075  -0.046
 3829SOL     OW11830   0.372   8.736   1.490
 3829SOL    HW111831   0.359   8.829   1.456
 3829SOL    HW211832   0.288   8.684   1.477
 3830SOL     OW11833   1.614   8.740   1.289
 3830SOL    HW111834   1.674   8.743   1.369
 3830SOL    HW211835   1.539   8.804   1.302
 3831SOL     OW11836   1.039   8.546   0.696
 3831SOL    HW111837   0.969   8.499   0.750
 3831SOL    HW211838   1.098   8.478   0.653
 3832SOL     OW11839   1.014   7.684   0.971
 3832SOL    HW111840   1.006   7.648   0.878
 3832SOL    HW211841   1.012   7.608   1.036
 3833SOL     OW11842   0.590   8.935   0.491
 3833SOL    HW111843   0.632   8.877   0.421
 3833SOL    HW211844   0.546   9.014   0.447
 3834SOL     OW11845   1.709   7.833   1.381
 3834SOL    HW111846   1.782   7.902   1.385
 3834SOL    HW211847   1.737   7.758   1.322
 3835SOL     OW11848   0.255   8.796   0.290
 3835SOL    HW111849   0.159   8.797   0.263
 3835SOL    HW211850   0.267   8.849   0.374
 3836SOL     OW11851   0.105   8.461   1.726
 3836SOL    HW111852   0.028   8.428   1.780
 3836SOL    HW211853   0.190   8.431   1.768
 3837SOL     OW11854   0.672   7.651   1.489
 3837SOL    HW111855   0.762   7.635   1.449
 3837SOL    HW211856   0.680   7.656   1.588
 3838SOL     OW11857   0.075   7.793   0.033
 3838SOL    HW111858  -0.017   7.765   0.004
 3838SOL    HW211859   0.106   7.870  -0.023
 3839SOL     OW11860   1.440   8.304   1.398
 3839SOL    HW111861   1.383   8.356   1.335
 3839SOL    HW211862   1.536   8.316   1.374
 3840SOL     OW11863   0.072   7.614   0.318
 3840SOL    HW111864   0.055   7.697   0.264
 3840SOL    HW211865   0.162   7.577   0.296
 3841SOL     OW11866   1.183   8.783   0.119
 3841SOL    HW111867   1.084   8.772   0.121
 3841SOL    HW211868   1.217   8.798   0.212
 3842SOL     OW11869   0.613   8.290   1.431
 3842SOL    HW111870   0.669   8.371   1.414
 3842SOL    HW211871   0.672   8.210   1.434
 3843SOL     OW11872   0.716   8.013   1.708
 3843SOL    HW111873   0.735   8.078   1.782
 3843SOL    HW211874   0.776   7.933   1.717
 3844SOL     OW11875   1.450   8.668   1.633
 3844SOL    HW111876   1.441   8.658   1.732
 3844SOL    HW211877   1.546   8.661   1.607
 3845SOL     OW11878   0.390   9.189   1.560
 3845SOL    HW111879   0.299   9.230   1.558
 3845SOL    HW211880   0.383   9.095   1.592
 3846SOL     OW11881   1.674   8.331   1.254
 3846SOL    HW111882   1.647   8.242   1.217
 3846SOL    HW211883   1.675   8.399   1.181
 3847SOL     OW11884   1.225   7.773   0.449
 3847SOL    HW111885   1.290   7.699   0.438
 3847SOL    HW211886   1.245   7.823   0.533
 3848SOL     OW11887   0.594   8.193   0.652
 3848SOL    HW111888   0.644   8.278   0.633
 3848SOL    HW211889   0.506   8.195   0.604
 3849SOL     OW11890   1.777   7.790   1.642
 3849SOL    HW111891   1.760   7.821   1.548
 3849SOL    HW211892   1.693   7.753   1.680
 3850SOL     OW11893   1.730   8.382   1.517
 3850SOL    HW111894   1.768   8.473   1.532
 3850SOL    HW211895   1.722   8.365   1.418
 3851SOL     OW11896   0.859   8.822   0.016
 3851SOL    HW111897   0.813   8.837   0.104
 3851SOL    HW211898   0.903   8.907  -0.014
 3852SOL     OW11899   0.859   8.404   0.861
 3852SOL    HW111900   0.913   8.335   0.909
 3852SOL    HW211901   0.827   8.473   0.927
 3853SOL     OW11902   1.083   8.432   0.087
 3853SOL    HW111903   1.060   8.485   0.005
 3853SOL    HW211904   1.164   8.376   0.068
 3854SOL     OW11905   1.861   9.017   0.851
 3854SOL    HW111906   1.790   9.005   0.781
 3854SOL    HW211907   1.862   8.938   0.911
 3855SOL     OW11908   0.221   8.762   1.844
 3855SOL    HW111909   0.156   8.689   1.823
 3855SOL    HW211910   0.225   8.776   1.942
 3856SOL     OW11911   0.079   8.688   0.653
 3856SOL    HW111912   0.078   8.641   0.741
 3856SOL    HW211913   0.161   8.660   0.602
 3857SOL     OW11914   0.672   8.839   1.624
 3857SOL    HW111915   0.594   8.789   1.662
 3857SOL    HW211916   0.669   8.934   1.655
 3858SOL     OW11917   1.824   7.640   1.227
 3858SOL    HW111918   1.820   7.550   1.271
 3858SOL    HW211919   1.827   7.629   1.128
 3859SOL     OW11920   0.428   7.872   0.520
 3859SOL    HW111921   0.458   7.800   0.458
 3859SOL    HW211922   0.389   7.832   0.603
 3860SOL     OW11923   1.705   8.935   1.104
 3860SOL    HW111924   1.612   8.910   1.077
 3860SOL    HW211925   1.731   8.885   1.186
 3861SOL     OW11926   0.317   7.995   1.280
 3861SOL    HW111927   0.355   7.936   1.352
 3861SOL    HW211928   0.357   7.969   1.192
 3862SOL     OW11929   0.812   9.034   0.687
 3862SOL    HW111930   0.844   9.044   0.593
 3862SOL    HW211931   0.733   8.972   0.689
 3863SOL     OW11932   1.424   7.662   1.112
 3863SOL    HW111933   1.476   7.597   1.167
 3863SOL    HW211934   1.375   7.725   1.173
 3864SOL     OW11935   1.001   7.482   1.154
 3864SOL    HW111936   0.938   7.410   1.123
 3864SOL    HW211937   1.094   7.446   1.154
 3865SOL     OW11938   0.770   8.778   0.301
 3865SOL    HW111939   0.724   8.691   0.318
 3865SOL    HW211940   0.861   8.775   0.342
 3866SOL     OW11941   0.618   9.015   1.284
 3866SOL    HW111942   0.613   9.097   1.341
 3866SOL    HW211943   0.707   9.012   1.239
 3867SOL     OW11944   1.352   7.500   0.168
 3867SOL    HW111945   1.387   7.459   0.084
 3867SOL    HW211946   1.262   7.462   0.188
 3868SOL     OW11947   1.300   7.901   0.691
 3868SOL    HW111948   1.241   7.981   0.695
 3868SOL    HW211949   1.315   7.866   0.784
 3869SOL     OW11950   1.593   7.669   0.882
 3869SOL    HW111951   1.509   7.668   0.936
 3869SOL    HW211952   1.595   7.752   0.826
 3870SOL     OW11953   0.039   8.525   0.300
 3870SOL    HW111954   0.138   8.514   0.291
 3870SOL    HW211955  -0.001   8.439   0.332
 3871SOL     OW11956   0.875   9.094   0.337
 3871SOL    HW111957   0.798   9.059   0.283
 3871SOL    HW211958   0.843   9.165   0.399
 3872SOL     OW11959   0.230   8.076   1.975
 3872SOL    HW111960   0.137   8.074   2.012
 3872SOL    HW211961   0.231   8.037   1.883
 3873SOL     OW11962   0.225   7.723   2.858
 3873SOL    HW111963   0.260   7.706   2.950
 3873SOL    HW211964   0.137   7.678   2.846
 3874SOL     OW11965   0.019   7.816   2.509
 3874SOL    HW111966  -0.063   7.859   2.548
 3874SOL    HW211967  -0.009   7.743   2.446
 3875SOL     OW11968   0.569   8.723   3.027
 3875SOL    HW111969   0.476   8.716   2.990
 3875SOL    HW211970   0.580   8.812   3.071
 3876SOL     OW11971   1.555   8.959   2.565
 3876SOL    HW111972   1.498   8.943   2.646
 3876SOL    HW211973   1.496   8.969   2.485
 3877SOL     OW11974   1.135   8.151   2.579
 3877SOL    HW111975   1.192   8.229   2.554
 3877SOL    HW211976   1.075   8.177   2.655
 3878SOL     OW11977   1.755   8.055   2.093
 3878SOL    HW111978   1.743   8.042   1.994
 3878SOL    HW211979   1.725   7.974   2.142
 3879SOL     OW11980   0.768   8.592   2.885
 3879SOL    HW111981   0.690   8.609   2.945
 3879SOL    HW211982   0.802   8.679   2.849
 3880SOL     OW11983   0.850   8.246   3.685
 3880SOL    HW111984   0.846   8.322   3.750
 3880SOL    HW211985   0.872   8.282   3.594
 3881SOL     OW11986   0.685   8.460   2.527
 3881SOL    HW111987   0.754   8.444   2.597
 3881SOL    HW211988   0.612   8.517   2.565
 3882SOL     OW11989   0.686   8.609   3.665
 3882SOL    HW111990   0.746   8.688   3.679
 3882SOL    HW211991   0.600   8.640   3.624
 3883SOL     OW11992   0.335   8.883   2.923
 3883SOL    HW111993   0.257   8.852   2.870
 3883SOL    HW211994   0.393   8.941   2.866
 3884SOL     OW11995   1.460   8.953   3.201
 3884SOL    HW111996   1.484   9.047   3.227
 3884SOL    HW211997   1.444   8.899   3.283
 3885SOL     OW11998   0.438   7.840   3.361
 3885SOL    HW111999   0.520   7.784   3.370
 3885SOL    HW212000   0.357   7.782   3.365
 3886SOL     OW12001   1.603   7.895   2.599
 3886SOL    HW112002   1.529   7.941   2.549
 3886SOL    HW212003   1.654   7.963   2.652
 3887SOL     OW12004   1.127   8.789   3.552
 3887SOL    HW112005   1.174   8.789   3.640
 3887SOL    HW212006   1.079   8.702   3.541
 3888SOL     OW12007   0.230   8.882   2.400
 3888SOL    HW112008   0.204   8.978   2.400
 3888SOL    HW212009   0.159   8.828   2.445
 3889SOL     OW12010   0.240   8.539   2.748
 3889SOL    HW112011   0.254   8.455   2.800
 3889SOL    HW212012   0.185   8.603   2.803
 3890SOL     OW12013   0.606   8.412   1.985
 3890SOL    HW112014   0.613   8.496   1.931
 3890SOL    HW212015   0.652   8.425   2.073
 3891SOL     OW12016   1.594   7.562   3.342
 3891SOL    HW112017   1.576   7.629   3.270
 3891SOL    HW212018   1.591   7.608   3.431
 3892SOL     OW12019   0.122   8.091   2.425
 3892SOL    HW112020   0.077   8.003   2.442
 3892SOL    HW212021   0.121   8.145   2.509
 3893SOL     OW12022   0.027   9.044   1.979
 3893SOL    HW112023   0.008   8.948   2.000
 3893SOL    HW212024  -0.006   9.102   2.054
 3894SOL     OW12025   1.689   8.370   2.474
 3894SOL    HW112026   1.784   8.341   2.482
 3894SOL    HW212027   1.681   8.435   2.399
 3895SOL     OW12028   1.641   8.556   2.294
 3895SOL    HW112029   1.727   8.558   2.242
 3895SOL    HW212030   1.655   8.603   2.382
 3896SOL     OW12031   0.113   8.185   3.459
 3896SOL    HW112032   0.201   8.172   3.504
 3896SOL    HW212033   0.100   8.282   3.437
 3897SOL     OW12034   0.613   8.813   2.588
 3897SOL    HW112035   0.564   8.726   2.597
 3897SOL    HW212036   0.590   8.856   2.501
 3898SOL     OW12037   1.293   8.676   3.285
 3898SOL    HW112038   1.330   8.603   3.227
 3898SOL    HW212039   1.345   8.681   3.370
 3899SOL     OW12040   0.809   7.452   2.364
 3899SOL    HW112041   0.849   7.543   2.355
 3899SOL    HW212042   0.709   7.460   2.370
 3900SOL     OW12043   0.197   8.424   3.126
 3900SOL    HW112044   0.286   8.379   3.112
 3900SOL    HW212045   0.124   8.359   3.107
 3901SOL     OW12046   1.525   8.447   2.052
 3901SOL    HW112047   1.462   8.371   2.065
 3901SOL    HW212048   1.573   8.465   2.138
 3902SOL     OW12049   1.187   9.240   3.478
 3902SOL    HW112050   1.211   9.300   3.402
 3902SOL    HW212051   1.194   9.145   3.448
 3903SOL     OW12052   0.317   7.699   3.663
 3903SOL    HW112053   0.388   7.770   3.669
 3903SOL    HW212054   0.229   7.738   3.691
 3904SOL     OW12055   1.466   8.865   2.815
 3904SOL    HW112056   1.407   8.871   2.895
 3904SOL    HW212057   1.451   8.777   2.769
 3905SOL     OW12058   1.667   9.162   2.434
 3905SOL    HW112059   1.626   9.139   2.346
 3905SOL    HW212060   1.649   9.088   2.499
 3906SOL     OW12061   0.598   8.177   2.132
 3906SOL    HW112062   0.622   8.246   2.064
 3906SOL    HW212063   0.520   8.210   2.186
 3907SOL     OW12064   1.281   7.793   2.806
 3907SOL    HW112065   1.195   7.743   2.793
 3907SOL    HW212066   1.343   7.739   2.862
 3908SOL     OW12067   1.576   9.110   2.169
 3908SOL    HW112068   1.665   9.156   2.172
 3908SOL    HW212069   1.555   9.086   2.074
 3909SOL     OW12070   0.807   8.053   3.327
 3909SOL    HW112071   0.760   8.050   3.416
 3909SOL    HW212072   0.756   7.998   3.261
 3910SOL     OW12073   1.394   7.917   3.536
 3910SOL    HW112074   1.374   7.960   3.624
 3910SOL    HW212075   1.472   7.855   3.545
 3911SOL     OW12076   0.973   8.338   3.434
 3911SOL    HW112077   1.019   8.254   3.405
 3911SOL    HW212078   0.917   8.372   3.359
 3912SOL     OW12079   0.991   7.858   3.104
 3912SOL    HW112080   0.914   7.892   3.158
 3912SOL    HW212081   0.957   7.807   3.025
 3913SOL     OW12082   1.041   8.149   2.291
 3913SOL    HW112083   1.067   8.145   2.387
 3913SOL    HW212084   0.956   8.098   2.277
 3914SOL     OW12085   0.076   8.259   2.651
 3914SOL    HW112086   0.175   8.247   2.660
 3914SOL    HW212087   0.052   8.354   2.672
 3915SOL     OW12088   0.865   7.796   2.057
 3915SOL    HW112089   0.924   7.859   2.008
 3915SOL    HW212090   0.884   7.702   2.028
 3916SOL     OW12091   1.719   8.033   3.693
 3916SOL    HW112092   1.693   8.122   3.657
 3916SOL    HW212093   1.717   7.965   3.620
 3917SOL     OW12094   1.362   8.592   2.407
 3917SOL    HW112095   1.445   8.563   2.359
 3917SOL    HW212096   1.313   8.659   2.351
 3918SOL     OW12097   0.550   7.644   2.747
 3918SOL    HW112098   0.545   7.639   2.847
 3918SOL    HW212099   0.552   7.740   2.718
 3919SOL     OW12100   1.008   8.904   2.339
 3919SOL    HW112101   0.962   8.976   2.287
 3919SOL    HW212102   1.004   8.924   2.437
 3920SOL     OW12103   1.795   8.514   2.735
 3920SOL    HW112104   1.733   8.499   2.659
 3920SOL    HW212105   1.743   8.525   2.820
 3921SOL     OW12106   1.227   8.998   3.368
 3921SOL    HW112107   1.233   8.921   3.432
 3921SOL    HW212108   1.175   8.972   3.288
 3922SOL     OW12109   0.321   8.391   2.104
 3922SOL    HW112110   0.403   8.430   2.062
 3922SOL    HW212111   0.294   8.309   2.055
 3923SOL     OW12112   1.458   8.183   2.590
 3923SOL    HW112113   1.453   8.118   2.665
 3923SOL    HW212114   1.538   8.242   2.603
 3924SOL     OW12115   0.461   8.714   3.589
 3924SOL    HW112116   0.411   8.715   3.503
 3924SOL    HW212117   0.398   8.696   3.665
 3925SOL     OW12118   0.202   7.733   3.360
 3925SOL    HW112119   0.122   7.793   3.347
 3925SOL    HW212120   0.192   7.684   3.446
 3926SOL     OW12121   1.632   8.825   1.943
 3926SOL    HW112122   1.600   8.919   1.933
 3926SOL    HW212123   1.556   8.762   1.931
 3927SOL     OW12124   1.400   7.555   2.288
 3927SOL    HW112125   1.376   7.518   2.198
 3927SOL    HW212126   1.499   7.571   2.292
 3928SOL     OW12127   0.940   9.146   2.766
 3928SOL    HW112128   1.020   9.089   2.787
 3928SOL    HW212129   0.891   9.106   2.689
 3929SOL     OW12130   0.382   8.148   2.342
 3929SOL    HW112131   0.427   8.058   2.339
 3929SOL    HW212132   0.288   8.137   2.375
 3930SOL     OW12133   1.547   7.670   3.591
 3930SOL    HW112134   1.542   7.707   3.683
 3930SOL    HW212135   1.475   7.601   3.579
 3931SOL     OW12136   0.614   7.570   1.979
 3931SOL    HW112137   0.712   7.548   1.986
 3931SOL    HW212138   0.583   7.553   1.886
 3932SOL     OW12139   0.781   7.712   3.611
 3932SOL    HW112140   0.848   7.651   3.654
 3932SOL    HW212141   0.708   7.731   3.676
 3933SOL     OW12142   0.888   8.962   3.057
 3933SOL    HW112143   0.865   8.937   2.963
 3933SOL    HW212144   0.949   8.893   3.096
 3934SOL     OW12145   1.351   8.038   3.295
 3934SOL    HW112146   1.379   7.995   3.380
 3934SOL    HW212147   1.376   8.134   3.296
 3935SOL     OW12148   0.803   8.850   2.786
 3935SOL    HW112149   0.893   8.864   2.744
 3935SOL    HW212150   0.732   8.852   2.715
 3936SOL     OW12151   0.922   7.951   2.761
 3936SOL    HW112152   0.897   7.942   2.665
 3936SOL    HW212153   0.970   7.869   2.792
 3937SOL     OW12154   0.539   7.512   2.374
 3937SOL    HW112155   0.458   7.513   2.432
 3937SOL    HW212156   0.542   7.595   2.319
 3938SOL     OW12157   1.434   8.636   1.903
 3938SOL    HW112158   1.466   8.560   1.960
 3938SOL    HW212159   1.342   8.663   1.933
 3939SOL     OW12160   0.297   7.483   2.033
 3939SOL    HW112161   0.346   7.567   2.012
 3939SOL    HW212162   0.359   7.418   2.078
 3940SOL     OW12163   0.935   7.684   2.342
 3940SOL    HW112164   0.887   7.725   2.264
 3940SOL    HW212165   1.034   7.682   2.323
 3941SOL     OW12166   1.076   8.131   3.326
 3941SOL    HW112167   0.996   8.070   3.329
 3941SOL    HW212168   1.157   8.078   3.302
 3942SOL     OW12169   1.227   9.018   2.655
 3942SOL    HW112170   1.248   9.092   2.590
 3942SOL    HW212171   1.295   9.018   2.728
 3943SOL     OW12172   0.459   8.600   2.603
 3943SOL    HW112173   0.388   8.573   2.668
 3943SOL    HW212174   0.433   8.572   2.510
 3944SOL     OW12175   1.032   7.997   1.878
 3944SOL    HW112176   0.991   8.079   1.839
 3944SOL    HW212177   1.096   8.023   1.951
 3945SOL     OW12178   0.078   8.004   3.248
 3945SOL    HW112179   0.170   8.003   3.207
 3945SOL    HW212180   0.072   8.078   3.315
 3946SOL     OW12181   0.561   7.670   3.009
 3946SOL    HW112182   0.599   7.586   3.046
 3946SOL    HW212183   0.473   7.689   3.053
 3947SOL     OW12184   0.866   7.902   2.504
 3947SOL    HW112185   0.834   7.974   2.442
 3947SOL    HW212186   0.890   7.821   2.451
 3948SOL     OW12187   1.017   7.487   2.615
 3948SOL    HW112188   0.945   7.492   2.546
 3948SOL    HW212189   0.993   7.418   2.684
 3949SOL     OW12190   1.429   8.621   2.729
 3949SOL    HW112191   1.374   8.537   2.722
 3949SOL    HW212192   1.455   8.650   2.637
 3950SOL     OW12193   1.466   8.038   2.854
 3950SOL    HW112194   1.436   7.943   2.861
 3950SOL    HW212195   1.539   8.054   2.920
 3951SOL     OW12196   1.857   8.281   2.239
 3951SOL    HW112197   1.899   8.217   2.303
 3951SOL    HW212198   1.819   8.230   2.161
 3952SOL     OW12199   0.488   8.833   2.036
 3952SOL    HW112200   0.401   8.818   2.083
 3952SOL    HW212201   0.471   8.859   1.941
 3953SOL     OW12202   1.664   8.728   2.519
 3953SOL    HW112203   1.763   8.736   2.533
 3953SOL    HW212204   1.619   8.812   2.550
 3954SOL     OW12205   1.390   8.023   1.940
 3954SOL    HW112206   1.336   8.002   2.021
 3954SOL    HW212207   1.481   7.982   1.949
 3955SOL     OW12208   0.527   7.704   2.190
 3955SOL    HW112209   0.554   7.645   2.115
 3955SOL    HW212210   0.527   7.799   2.159
 3956SOL     OW12211   1.754   8.671   3.450
 3956SOL    HW112212   1.845   8.632   3.437
 3956SOL    HW212213   1.762   8.767   3.474
 3957SOL     OW12214   1.064   8.795   3.202
 3957SOL    HW112215   0.984   8.772   3.257
 3957SOL    HW212216   1.147   8.769   3.251
 3958SOL     OW12217   1.592   9.077   3.487
 3958SOL    HW112218   1.619   9.111   3.397
 3958SOL    HW212219   1.671   9.039   3.533
 3959SOL     OW12220   1.111   8.643   2.962
 3959SOL    HW112221   1.071   8.687   3.043
 3959SOL    HW212222   1.070   8.680   2.879
 3960SOL     OW12223   1.638   8.547   2.941
 3960SOL    HW112224   1.643   8.628   3.000
 3960SOL    HW212225   1.552   8.549   2.890
 3961SOL     OW12226   0.915   7.537   3.264
 3961SOL    HW112227   0.940   7.517   3.169
 3961SOL    HW212228   0.987   7.593   3.306
 3962SOL     OW12229   0.980   8.564   3.581
 3962SOL    HW112230   0.881   8.570   3.591
 3962SOL    HW212231   1.003   8.484   3.525
 3963SOL     OW12232   0.705   8.498   2.230
 3963SOL    HW112233   0.691   8.505   2.329
 3963SOL    HW212234   0.789   8.447   2.212
 3964SOL     OW12235   0.410   8.261   3.113
 3964SOL    HW112236   0.496   8.273   3.163
 3964SOL    HW212237   0.368   8.174   3.140
 3965SOL     OW12238   1.274   7.834   3.124
 3965SOL    HW112239   1.295   7.908   3.188
 3965SOL    HW212240   1.185   7.851   3.081
 3966SOL     OW12241   0.064   9.012   3.193
 3966SOL    HW112242   0.018   9.094   3.159
 3966SOL    HW212243   0.162   9.031   3.202
 3967SOL     OW12244   0.367   8.548   2.363
 3967SOL    HW112245   0.360   8.631   2.307
 3967SOL    HW212246   0.371   8.468   2.303
 3968SOL     OW12247   0.566   7.985   2.727
 3968SOL    HW112248   0.578   8.051   2.653
 3968SOL    HW212249   0.612   8.019   2.810
 3969SOL     OW12250   1.252   8.796   2.250
 3969SOL    HW112251   1.302   8.873   2.290
 3969SOL    HW212252   1.157   8.798   2.282
 3970SOL     OW12253   1.272   8.893   3.004
 3970SOL    HW112254   1.319   8.906   3.091
 3970SOL    HW212255   1.206   8.819   3.013
 3971SOL     OW12256   1.582   8.087   2.334
 3971SOL    HW112257   1.551   8.148   2.407
 3971SOL    HW212258   1.632   8.139   2.265
 3972SOL     OW12259   0.354   8.958   3.191
 3972SOL    HW112260   0.333   8.914   3.104
 3972SOL    HW212261   0.451   8.984   3.194
 3973SOL     OW12262   0.402   8.199   3.460
 3973SOL    HW112263   0.470   8.254   3.413
 3973SOL    HW212264   0.442   8.111   3.487
 3974SOL     OW12265   1.587   8.227   3.532
 3974SOL    HW112266   1.495   8.265   3.527
 3974SOL    HW212267   1.647   8.274   3.467
 3975SOL     OW12268   1.013   7.553   3.632
 3975SOL    HW112269   1.019   7.638   3.580
 3975SOL    HW212270   1.045   7.477   3.575
 3976SOL     OW12271   0.504   7.498   3.602
 3976SOL    HW112272   0.462   7.441   3.532
 3976SOL    HW212273   0.438   7.567   3.634
 3977SOL     OW12274   0.573   8.318   2.891
 3977SOL    HW112275   0.617   8.407   2.882
 3977SOL    HW212276   0.510   8.318   2.968
 3978SOL     OW12277   1.360   8.310   2.907
 3978SOL    HW112278   1.285   8.310   2.841
 3978SOL    HW212279   1.397   8.218   2.916
 3979SOL     OW12280   1.209   7.973   2.137
 3979SOL    HW112281   1.222   7.889   2.191
 3979SOL    HW212282   1.180   8.047   2.197
 3980SOL     OW12283   0.307   7.661   3.093
 3980SOL    HW112284   0.284   7.698   3.183
 3980SOL    HW212285   0.277   7.566   3.087
 3981SOL     OW12286   0.037   8.758   3.144
 3981SOL    HW112287   0.090   8.709   3.212
 3981SOL    HW212288   0.059   8.856   3.149
 3982SOL     OW12289   0.732   8.082   2.926
 3982SOL    HW112290   0.791   8.056   2.850
 3982SOL    HW212291   0.704   8.178   2.915
 3983SOL     OW12292   1.728   8.383   3.716
 3983SOL    HW112293   1.682   8.376   3.627
 3983SOL    HW212294   1.666   8.427   3.782
 3984SOL     OW12295   0.307   7.511   2.480
 3984SOL    HW112296   0.296   7.605   2.513
 3984SOL    HW212297   0.302   7.448   2.557
 3985SOL     OW12298   1.622   7.815   2.236
 3985SOL    HW112299   1.624   7.739   2.300
 3985SOL    HW212300   1.574   7.892   2.276
 3986SOL     OW12301   1.023   8.214   2.828
 3986SOL    HW112302   1.038   8.235   2.924
 3986SOL    HW212303   0.993   8.119   2.819
 3987SOL     OW12304   0.980   9.021   3.562
 3987SOL    HW112305   0.960   9.065   3.474
 3987SOL    HW212306   1.019   8.930   3.546
 3988SOL     OW12307   1.859   8.966   3.467
 3988SOL    HW112308   1.873   8.993   3.372
 3988SOL    HW212309   1.942   8.988   3.520
 3989SOL     OW12310   0.350   8.346   3.666
 3989SOL    HW112311   0.426   8.390   3.714
 3989SOL    HW212312   0.385   8.299   3.584
 3990SOL     OW12313   1.540   7.722   1.987
 3990SOL    HW112314   1.479   7.647   2.010
 3990SOL    HW212315   1.562   7.774   2.070
 3991SOL     OW12316   1.303   8.286   1.904
 3991SOL    HW112317   1.337   8.193   1.919
 3991SOL    HW212318   1.321   8.313   1.809
 3992SOL     OW12319   1.068   8.781   2.711
 3992SOL    HW112320   1.075   8.697   2.656
 3992SOL    HW212321   1.130   8.850   2.675
 3993SOL     OW12322   0.319   8.258   2.811
 3993SOL    HW112323   0.412   8.294   2.816
 3993SOL    HW212324   0.313   8.173   2.863
 3994SOL     OW12325   0.339   7.957   2.868
 3994SOL    HW112326   0.287   7.874   2.851
 3994SOL    HW212327   0.416   7.962   2.804
 3995SOL     OW12328   1.138   7.828   3.540
 3995SOL    HW112329   1.093   7.891   3.604
 3995SOL    HW212330   1.231   7.859   3.523
 3996SOL     OW12331   1.160   7.655   3.339
 3996SOL    HW112332   1.160   7.719   3.416
 3996SOL    HW212333   1.188   7.703   3.256
 3997SOL     OW12334   0.008   8.774   2.062
 3997SOL    HW112335  -0.085   8.795   2.031
 3997SOL    HW212336   0.018   8.675   2.075
 3998SOL     OW12337   0.504   9.016   2.772
 3998SOL    HW112338   0.570   9.090   2.781
 3998SOL    HW212339   0.548   8.937   2.730
 3999SOL     OW12340   1.002   8.244   3.100
 3999SOL    HW112341   1.043   8.212   3.186
 3999SOL    HW212342   0.906   8.217   3.097
 4000SOL     OW12343   0.040   7.992   2.976
 4000SOL    HW112344   0.125   7.959   2.935
 4000SOL    HW212345   0.053   8.007   3.074
 4001SOL     OW12346   0.189   7.968   3.584
 4001SOL    HW112347   0.248   7.928   3.514
 4001SOL    HW212348   0.131   8.039   3.543
 4002SOL     OW12349   1.369   8.398   3.522
 4002SOL    HW112350   1.408   8.487   3.542
 4002SOL    HW212351   1.379   8.378   3.425
 4003SOL     OW12352   0.815   8.020   2.187
 4003SOL    HW112353   0.822   7.931   2.141
 4003SOL    HW212354   0.721   8.054   2.179
 4004SOL     OW12355   1.657   8.052   3.068
 4004SOL    HW112356   1.619   7.983   3.130
 4004SOL    HW212357   1.739   8.016   3.024
 4005SOL     OW12358   0.252   9.012   3.606
 4005SOL    HW112359   0.222   9.069   3.682
 4005SOL    HW212360   0.245   8.915   3.632
 4006SOL     OW12361   0.671   7.912   3.131
 4006SOL    HW112362   0.637   7.823   3.101
 4006SOL    HW212363   0.697   7.966   3.051
 4007SOL     OW12364   0.930   9.126   3.327
 4007SOL    HW112365   0.906   9.108   3.232
 4007SOL    HW212366   0.960   9.220   3.337
 4008SOL     OW12367   0.473   7.948   2.053
 4008SOL    HW112368   0.534   8.028   2.057
 4008SOL    HW212369   0.378   7.979   2.060
 4009SOL     OW12370   0.159   8.585   3.328
 4009SOL    HW112371   0.181   8.524   3.404
 4009SOL    HW212372   0.169   8.536   3.242
 4010SOL     OW12373   1.347   8.507   3.096
 4010SOL    HW112374   1.371   8.444   3.022
 4010SOL    HW212375   1.257   8.547   3.078
 4011SOL     OW12376   1.302   8.303   2.171
 4011SOL    HW112377   1.216   8.272   2.213
 4011SOL    HW212378   1.298   8.289   2.072
 4012SOL     OW12379   1.759   9.195   3.016
 4012SOL    HW112380   1.820   9.225   2.943
 4012SOL    HW212381   1.721   9.106   2.994
 4013SOL     OW12382   1.252   9.179   2.990
 4013SOL    HW112383   1.336   9.184   2.936
 4013SOL    HW212384   1.229   9.083   3.008
 4014SOL     OW12385   0.083   8.706   2.884
 4014SOL    HW112386   0.078   8.705   2.984
 4014SOL    HW212387   0.000   8.665   2.846
 4015SOL     OW12388   0.688   9.110   3.578
 4015SOL    HW112389   0.632   9.191   3.587
 4015SOL    HW212390   0.740   9.114   3.492
 4016SOL     OW12391   1.726   7.583   2.385
 4016SOL    HW112392   1.799   7.566   2.318
 4016SOL    HW212393   1.695   7.496   2.423
 4017SOL     OW12394   1.388   9.021   2.339
 4017SOL    HW112395   1.455   9.033   2.265
 4017SOL    HW212396   1.348   9.110   2.362
 4018SOL     OW12397   1.280   8.375   2.534
 4018SOL    HW112398   1.340   8.294   2.536
 4018SOL    HW212399   1.320   8.444   2.474
 4019SOL     OW12400   0.830   8.721   3.284
 4019SOL    HW112401   0.825   8.754   3.379
 4019SOL    HW212402   0.744   8.740   3.238
 4020SOL     OW12403   0.672   9.064   2.016
 4020SOL    HW112404   0.681   9.074   1.917
 4020SOL    HW212405   0.632   8.975   2.037
 4021SOL     OW12406   1.841   7.623   2.825
 4021SOL    HW112407   1.880   7.538   2.789
 4021SOL    HW212408   1.743   7.625   2.806
 4022SOL     OW12409   0.263   7.774   2.582
 4022SOL    HW112410   0.184   7.825   2.548
 4022SOL    HW212411   0.254   7.759   2.680
 4023SOL     OW12412   1.194   9.060   1.893
 4023SOL    HW112413   1.200   8.967   1.930
 4023SOL    HW212414   1.135   9.060   1.813
 4024SOL     OW12415   0.822   8.450   3.234
 4024SOL    HW112416   0.862   8.449   3.142
 4024SOL    HW212417   0.832   8.542   3.274
 4025SOL     OW12418   0.916   8.358   2.153
 4025SOL    HW112419   0.979   8.396   2.085
 4025SOL    HW212420   0.956   8.275   2.192
 4026SOL     OW12421   1.504   9.055   1.906
 4026SOL    HW112422   1.412   9.092   1.913
 4026SOL    HW212423   1.542   9.075   1.816
 4027SOL     OW12424   0.372   8.736   3.352
 4027SOL    HW112425   0.359   8.829   3.318
 4027SOL    HW212426   0.288   8.684   3.339
 4028SOL     OW12427   1.614   8.740   3.151
 4028SOL    HW112428   1.674   8.743   3.231
 4028SOL    HW212429   1.539   8.804   3.164
 4029SOL     OW12430   1.039   8.546   2.558
 4029SOL    HW112431   0.969   8.499   2.612
 4029SOL    HW212432   1.098   8.478   2.515
 4030SOL     OW12433   1.014   7.684   2.833
 4030SOL    HW112434   1.006   7.648   2.740
 4030SOL    HW212435   1.012   7.608   2.898
 4031SOL     OW12436   0.590   8.935   2.353
 4031SOL    HW112437   0.632   8.877   2.283
 4031SOL    HW212438   0.546   9.014   2.309
 4032SOL     OW12439   1.709   7.833   3.243
 4032SOL    HW112440   1.782   7.902   3.247
 4032SOL    HW212441   1.737   7.758   3.184
 4033SOL     OW12442   0.255   8.796   2.152
 4033SOL    HW112443   0.159   8.797   2.125
 4033SOL    HW212444   0.267   8.849   2.236
 4034SOL     OW12445   0.105   8.461   3.588
 4034SOL    HW112446   0.028   8.428   3.642
 4034SOL    HW212447   0.190   8.431   3.630
 4035SOL     OW12448   0.672   7.651   3.351
 4035SOL    HW112449   0.762   7.635   3.311
 4035SOL    HW212450   0.680   7.656   3.450
 4036SOL     OW12451   0.075   7.793   1.895
 4036SOL    HW112452  -0.017   7.765   1.866
 4036SOL    HW212453   0.106   7.870   1.839
 4037SOL     OW12454   1.440   8.304   3.260
 4037SOL    HW112455   1.383   8.356   3.197
 4037SOL    HW212456   1.536   8.316   3.236
 4038SOL     OW12457   0.072   7.614   2.180
 4038SOL    HW112458   0.055   7.697   2.126
 4038SOL    HW212459   0.162   7.577   2.158
 4039SOL     OW12460   1.183   8.783   1.981
 4039SOL    HW112461   1.084   8.772   1.983
 4039SOL    HW212462   1.217   8.798   2.074
 4040SOL     OW12463   0.613   8.290   3.293
 4040SOL    HW112464   0.669   8.371   3.276
 4040SOL    HW212465   0.672   8.210   3.296
 4041SOL     OW12466   0.716   8.013   3.570
 4041SOL    HW112467   0.735   8.078   3.644
 4041SOL    HW212468   0.776   7.933   3.579
 4042SOL     OW12469   1.450   8.668   3.495
 4042SOL    HW112470   1.441   8.658   3.594
 4042SOL    HW212471   1.546   8.661   3.469
 4043SOL     OW12472   0.390   9.189   3.422
 4043SOL    HW112473   0.299   9.230   3.420
 4043SOL    HW212474   0.383   9.095   3.454
 4044SOL     OW12475   1.674   8.331   3.116
 4044SOL    HW112476   1.647   8.242   3.079
 4044SOL    HW212477   1.675   8.399   3.043
 4045SOL     OW12478   1.225   7.773   2.311
 4045SOL    HW112479   1.290   7.699   2.300
 4045SOL    HW212480   1.245   7.823   2.395
 4046SOL     OW12481   0.594   8.193   2.514
 4046SOL    HW112482   0.644   8.278   2.495
 4046SOL    HW212483   0.506   8.195   2.466
 4047SOL     OW12484   1.777   7.790   3.504
 4047SOL    HW112485   1.760   7.821   3.410
 4047SOL    HW212486   1.693   7.753   3.542
 4048SOL     OW12487   1.730   8.382   3.379
 4048SOL    HW112488   1.768   8.473   3.394
 4048SOL    HW212489   1.722   8.365   3.280
 4049SOL     OW12490   0.859   8.822   1.878
 4049SOL    HW112491   0.813   8.837   1.966
 4049SOL    HW212492   0.903   8.907   1.848
 4050SOL     OW12493   0.859   8.404   2.723
 4050SOL    HW112494   0.913   8.335   2.771
 4050SOL    HW212495   0.827   8.473   2.789
 4051SOL     OW12496   1.083   8.432   1.949
 4051SOL    HW112497   1.060   8.485   1.867
 4051SOL    HW212498   1.164   8.376   1.930
 4052SOL     OW12499   1.861   9.017   2.713
 4052SOL    HW112500   1.790   9.005   2.643
 4052SOL    HW212501   1.862   8.938   2.773
 4053SOL     OW12502   0.221   8.762   3.706
 4053SOL    HW112503   0.156   8.689   3.685
 4053SOL    HW212504   0.225   8.776   3.804
 4054SOL     OW12505   0.079   8.688   2.515
 4054SOL    HW112506   0.078   8.641   2.603
 4054SOL    HW212507   0.161   8.660   2.464
 4055SOL     OW12508   0.672   8.839   3.486
 4055SOL    HW112509   0.594   8.789   3.524
 4055SOL    HW212510   0.669   8.934   3.517
 4056SOL     OW12511   1.824   7.640   3.089
 4056SOL    HW112512   1.820   7.550   3.133
 4056SOL    HW212513   1.827   7.629   2.990
 4057SOL     OW12514   0.428   7.872   2.382
 4057SOL    HW112515   0.458   7.800   2.320
 4057SOL    HW212516   0.389   7.832   2.465
 4058SOL     OW12517   1.705   8.935   2.966
 4058SOL    HW112518   1.612   8.910   2.939
 4058SOL    HW212519   1.731   8.885   3.048
 4059SOL     OW12520   0.317   7.995   3.142
 4059SOL    HW112521   0.355   7.936   3.214
 4059SOL    HW212522   0.357   7.969   3.054
 4060SOL     OW12523   0.812   9.034   2.549
 4060SOL    HW112524   0.844   9.044   2.455
 4060SOL    HW212525   0.733   8.972   2.551
 4061SOL     OW12526   1.424   7.662   2.974
 4061SOL    HW112527   1.476   7.597   3.029
 4061SOL    HW212528   1.375   7.725   3.035
 4062SOL     OW12529   1.001   7.482   3.016
 4062SOL    HW112530   0.938   7.410   2.985
 4062SOL    HW212531   1.094   7.446   3.016
 4063SOL     OW12532   0.770   8.778   2.163
 4063SOL    HW112533   0.724   8.691   2.180
 4063SOL    HW212534   0.861   8.775   2.204
 4064SOL     OW12535   0.618   9.015   3.146
 4064SOL    HW112536   0.613   9.097   3.203
 4064SOL    HW212537   0.707   9.012   3.101
 4065SOL     OW12538   1.352   7.500   2.030
 4065SOL    HW112539   1.387   7.459   1.946
 4065SOL    HW212540   1.262   7.462   2.050
 4066SOL     OW12541   1.300   7.901   2.553
 4066SOL    HW112542   1.241   7.981   2.557
 4066SOL    HW212543   1.315   7.866   2.646
 4067SOL     OW12544   1.593   7.669   2.744
 4067SOL    HW112545   1.509   7.668   2.798
 4067SOL    HW212546   1.595   7.752   2.688
 4068SOL     OW12547   0.039   8.525   2.162
 4068SOL    HW112548   0.138   8.514   2.153
 4068SOL    HW212549  -0.001   8.439   2.194
 4069SOL     OW12550   0.875   9.094   2.199
 4069SOL    HW112551   0.798   9.059   2.145
 4069SOL    HW212552   0.843   9.165   2.261
 4070SOL     OW12553   0.230   8.076   3.837
 4070SOL    HW112554   0.137   8.074   3.874
 4070SOL    HW212555   0.231   8.037   3.745
 4071SOL     OW12556   0.225   7.723   4.720
 4071SOL    HW112557   0.260   7.706   4.812
 4071SOL    HW212558   0.137   7.678   4.708
 4072SOL     OW12559   0.019   7.816   4.371
 4072SOL    HW112560  -0.063   7.859   4.410
 4072SOL    HW212561  -0.009   7.743   4.308
 4073SOL     OW12562   0.569   8.723   4.889
 4073SOL    HW112563   0.476   8.716   4.852
 4073SOL    HW212564   0.580   8.812   4.933
 4074SOL     OW12565   1.555   8.959   4.427
 4074SOL    HW112566   1.498   8.943   4.508
 4074SOL    HW212567   1.496   8.969   4.347
 4075SOL     OW12568   1.135   8.151   4.441
 4075SOL    HW112569   1.192   8.229   4.416
 4075SOL    HW212570   1.075   8.177   4.517
 4076SOL     OW12571   1.755   8.055   3.955
 4076SOL    HW112572   1.743   8.042   3.856
 4076SOL    HW212573   1.725   7.974   4.004
 4077SOL     OW12574   0.768   8.592   4.747
 4077SOL    HW112575   0.690   8.609   4.807
 4077SOL    HW212576   0.802   8.679   4.711
 4078SOL     OW12577   0.850   8.246   5.547
 4078SOL    HW112578   0.846   8.322   5.612
 4078SOL    HW212579   0.872   8.282   5.456
 4079SOL     OW12580   0.685   8.460   4.389
 4079SOL    HW112581   0.754   8.444   4.459
 4079SOL    HW212582   0.612   8.517   4.427
 4080SOL     OW12583   0.686   8.609   5.527
 4080SOL    HW112584   0.746   8.688   5.541
 4080SOL    HW212585   0.600   8.640   5.486
 4081SOL     OW12586   0.335   8.883   4.785
 4081SOL    HW112587   0.257   8.852   4.732
 4081SOL    HW212588   0.393   8.941   4.728
 4082SOL     OW12589   1.460   8.953   5.063
 4082SOL    HW112590   1.484   9.047   5.089
 4082SOL    HW212591   1.444   8.899   5.145
 4083SOL     OW12592   0.438   7.840   5.223
 4083SOL    HW112593   0.520   7.784   5.232
 4083SOL    HW212594   0.357   7.782   5.227
 4084SOL     OW12595   1.603   7.895   4.461
 4084SOL    HW112596   1.529   7.941   4.411
 4084SOL    HW212597   1.654   7.963   4.514
 4085SOL     OW12598   1.127   8.789   5.414
 4085SOL    HW112599   1.174   8.789   5.502
 4085SOL    HW212600   1.079   8.702   5.403
 4086SOL     OW12601   0.230   8.882   4.262
 4086SOL    HW112602   0.204   8.978   4.262
 4086SOL    HW212603   0.159   8.828   4.307
 4087SOL     OW12604   0.240   8.539   4.610
 4087SOL    HW112605   0.254   8.455   4.662
 4087SOL    HW212606   0.185   8.603   4.665
 4088SOL     OW12607   0.606   8.412   3.847
 4088SOL    HW112608   0.613   8.496   3.793
 4088SOL    HW212609   0.652   8.425   3.935
 4089SOL     OW12610   1.594   7.562   5.204
 4089SOL    HW112611   1.576   7.629   5.132
 4089SOL    HW212612   1.591   7.608   5.293
 4090SOL     OW12613   0.122   8.091   4.287
 4090SOL    HW112614   0.077   8.003   4.304
 4090SOL    HW212615   0.121   8.145   4.371
 4091SOL     OW12616   0.027   9.044   3.841
 4091SOL    HW112617   0.008   8.948   3.862
 4091SOL    HW212618  -0.006   9.102   3.916
 4092SOL     OW12619   1.689   8.370   4.336
 4092SOL    HW112620   1.784   8.341   4.344
 4092SOL    HW212621   1.681   8.435   4.261
 4093SOL     OW12622   1.641   8.556   4.156
 4093SOL    HW112623   1.727   8.558   4.104
 4093SOL    HW212624   1.655   8.603   4.244
 4094SOL     OW12625   0.113   8.185   5.321
 4094SOL    HW112626   0.201   8.172   5.366
 4094SOL    HW212627   0.100   8.282   5.299
 4095SOL     OW12628   0.613   8.813   4.450
 4095SOL    HW112629   0.564   8.726   4.459
 4095SOL    HW212630   0.590   8.856   4.363
 4096SOL     OW12631   1.293   8.676   5.147
 4096SOL    HW112632   1.330   8.603   5.089
 4096SOL    HW212633   1.345   8.681   5.232
 4097SOL     OW12634   0.809   7.452   4.226
 4097SOL    HW112635   0.849   7.543   4.217
 4097SOL    HW212636   0.709   7.460   4.232
 4098SOL     OW12637   0.197   8.424   4.988
 4098SOL    HW112638   0.286   8.379   4.974
 4098SOL    HW212639   0.124   8.359   4.969
 4099SOL     OW12640   1.525   8.447   3.914
 4099SOL    HW112641   1.462   8.371   3.927
 4099SOL    HW212642   1.573   8.465   4.000
 4100SOL     OW12643   1.187   9.240   5.340
 4100SOL    HW112644   1.211   9.300   5.264
 4100SOL    HW212645   1.194   9.145   5.310
 4101SOL     OW12646   0.317   7.699   5.525
 4101SOL    HW112647   0.388   7.770   5.531
 4101SOL    HW212648   0.229   7.738   5.553
 4102SOL     OW12649   1.466   8.865   4.677
 4102SOL    HW112650   1.407   8.871   4.757
 4102SOL    HW212651   1.451   8.777   4.631
 4103SOL     OW12652   1.667   9.162   4.296
 4103SOL    HW112653   1.626   9.139   4.208
 4103SOL    HW212654   1.649   9.088   4.361
 4104SOL     OW12655   0.598   8.177   3.994
 4104SOL    HW112656   0.622   8.246   3.926
 4104SOL    HW212657   0.520   8.210   4.048
 4105SOL     OW12658   1.281   7.793   4.668
 4105SOL    HW112659   1.195   7.743   4.655
 4105SOL    HW212660   1.343   7.739   4.724
 4106SOL     OW12661   1.576   9.110   4.031
 4106SOL    HW112662   1.665   9.156   4.034
 4106SOL    HW212663   1.555   9.086   3.936
 4107SOL     OW12664   0.807   8.053   5.189
 4107SOL    HW112665   0.760   8.050   5.278
 4107SOL    HW212666   0.756   7.998   5.123
 4108SOL     OW12667   1.394   7.917   5.398
 4108SOL    HW112668   1.374   7.960   5.486
 4108SOL    HW212669   1.472   7.855   5.407
 4109SOL     OW12670   0.973   8.338   5.296
 4109SOL    HW112671   1.019   8.254   5.267
 4109SOL    HW212672   0.917   8.372   5.221
 4110SOL     OW12673   0.991   7.858   4.966
 4110SOL    HW112674   0.914   7.892   5.020
 4110SOL    HW212675   0.957   7.807   4.887
 4111SOL     OW12676   1.041   8.149   4.153
 4111SOL    HW112677   1.067   8.145   4.249
 4111SOL    HW212678   0.956   8.098   4.139
 4112SOL     OW12679   0.076   8.259   4.513
 4112SOL    HW112680   0.175   8.247   4.522
 4112SOL    HW212681   0.052   8.354   4.534
 4113SOL     OW12682   0.865   7.796   3.919
 4113SOL    HW112683   0.924   7.859   3.870
 4113SOL    HW212684   0.884   7.702   3.890
 4114SOL     OW12685   1.719   8.033   5.555
 4114SOL    HW112686   1.693   8.122   5.519
 4114SOL    HW212687   1.717   7.965   5.482
 4115SOL     OW12688   1.362   8.592   4.269
 4115SOL    HW112689   1.445   8.563   4.221
 4115SOL    HW212690   1.313   8.659   4.213
 4116SOL     OW12691   0.550   7.644   4.609
 4116SOL    HW112692   0.545   7.639   4.709
 4116SOL    HW212693   0.552   7.740   4.580
 4117SOL     OW12694   1.008   8.904   4.201
 4117SOL    HW112695   0.962   8.976   4.149
 4117SOL    HW212696   1.004   8.924   4.299
 4118SOL     OW12697   1.795   8.514   4.597
 4118SOL    HW112698   1.733   8.499   4.521
 4118SOL    HW212699   1.743   8.525   4.682
 4119SOL     OW12700   1.227   8.998   5.230
 4119SOL    HW112701   1.233   8.921   5.294
 4119SOL    HW212702   1.175   8.972   5.150
 4120SOL     OW12703   0.321   8.391   3.966
 4120SOL    HW112704   0.403   8.430   3.924
 4120SOL    HW212705   0.294   8.309   3.917
 4121SOL     OW12706   1.458   8.183   4.452
 4121SOL    HW112707   1.453   8.118   4.527
 4121SOL    HW212708   1.538   8.242   4.465
 4122SOL     OW12709   0.461   8.714   5.451
 4122SOL    HW112710   0.411   8.715   5.365
 4122SOL    HW212711   0.398   8.696   5.527
 4123SOL     OW12712   0.202   7.733   5.222
 4123SOL    HW112713   0.122   7.793   5.209
 4123SOL    HW212714   0.192   7.684   5.308
 4124SOL     OW12715   1.632   8.825   3.805
 4124SOL    HW112716   1.600   8.919   3.795
 4124SOL    HW212717   1.556   8.762   3.793
 4125SOL     OW12718   1.400   7.555   4.150
 4125SOL    HW112719   1.376   7.518   4.060
 4125SOL    HW212720   1.499   7.571   4.154
 4126SOL     OW12721   0.940   9.146   4.628
 4126SOL    HW112722   1.020   9.089   4.649
 4126SOL    HW212723   0.891   9.106   4.551
 4127SOL     OW12724   0.382   8.148   4.204
 4127SOL    HW112725   0.427   8.058   4.201
 4127SOL    HW212726   0.288   8.137   4.237
 4128SOL     OW12727   1.547   7.670   5.453
 4128SOL    HW112728   1.542   7.707   5.545
 4128SOL    HW212729   1.475   7.601   5.441
 4129SOL     OW12730   0.614   7.570   3.841
 4129SOL    HW112731   0.712   7.548   3.848
 4129SOL    HW212732   0.583   7.553   3.748
 4130SOL     OW12733   0.781   7.712   5.473
 4130SOL    HW112734   0.848   7.651   5.516
 4130SOL    HW212735   0.708   7.731   5.538
 4131SOL     OW12736   0.888   8.962   4.919
 4131SOL    HW112737   0.865   8.937   4.825
 4131SOL    HW212738   0.949   8.893   4.958
 4132SOL     OW12739   1.351   8.038   5.157
 4132SOL    HW112740   1.379   7.995   5.242
 4132SOL    HW212741   1.376   8.134   5.158
 4133SOL     OW12742   0.803   8.850   4.648
 4133SOL    HW112743   0.893   8.864   4.606
 4133SOL    HW212744   0.732   8.852   4.577
 4134SOL     OW12745   0.922   7.951   4.623
 4134SOL    HW112746   0.897   7.942   4.527
 4134SOL    HW212747   0.970   7.869   4.654
 4135SOL     OW12748   0.539   7.512   4.236
 4135SOL    HW112749   0.458   7.513   4.294
 4135SOL    HW212750   0.542   7.595   4.181
 4136SOL     OW12751   1.434   8.636   3.765
 4136SOL    HW112752   1.466   8.560   3.822
 4136SOL    HW212753   1.342   8.663   3.795
 4137SOL     OW12754   0.297   7.483   3.895
 4137SOL    HW112755   0.346   7.567   3.874
 4137SOL    HW212756   0.359   7.418   3.940
 4138SOL     OW12757   0.935   7.684   4.204
 4138SOL    HW112758   0.887   7.725   4.126
 4138SOL    HW212759   1.034   7.682   4.185
 4139SOL     OW12760   1.076   8.131   5.188
 4139SOL    HW112761   0.996   8.070   5.191
 4139SOL    HW212762   1.157   8.078   5.164
 4140SOL     OW12763   1.227   9.018   4.517
 4140SOL    HW112764   1.248   9.092   4.452
 4140SOL    HW212765   1.295   9.018   4.590
 4141SOL     OW12766   0.459   8.600   4.465
 4141SOL    HW112767   0.388   8.573   4.530
 4141SOL    HW212768   0.433   8.572   4.372
 4142SOL     OW12769   1.032   7.997   3.740
 4142SOL    HW112770   0.991   8.079   3.701
 4142SOL    HW212771   1.096   8.023   3.813
 4143SOL     OW12772   0.078   8.004   5.110
 4143SOL    HW112773   0.170   8.003   5.069
 4143SOL    HW212774   0.072   8.078   5.177
 4144SOL     OW12775   0.561   7.670   4.871
 4144SOL    HW112776   0.599   7.586   4.908
 4144SOL    HW212777   0.473   7.689   4.915
 4145SOL     OW12778   0.866   7.902   4.366
 4145SOL    HW112779   0.834   7.974   4.304
 4145SOL    HW212780   0.890   7.821   4.313
 4146SOL     OW12781   1.017   7.487   4.477
 4146SOL    HW112782   0.945   7.492   4.408
 4146SOL    HW212783   0.993   7.418   4.546
 4147SOL     OW12784   1.429   8.621   4.591
 4147SOL    HW112785   1.374   8.537   4.584
 4147SOL    HW212786   1.455   8.650   4.499
 4148SOL     OW12787   1.466   8.038   4.716
 4148SOL    HW112788   1.436   7.943   4.723
 4148SOL    HW212789   1.539   8.054   4.782
 4149SOL     OW12790   1.857   8.281   4.101
 4149SOL    HW112791   1.899   8.217   4.165
 4149SOL    HW212792   1.819   8.230   4.023
 4150SOL     OW12793   0.488   8.833   3.898
 4150SOL    HW112794   0.401   8.818   3.945
 4150SOL    HW212795   0.471   8.859   3.803
 4151SOL     OW12796   1.664   8.728   4.381
 4151SOL    HW112797   1.763   8.736   4.395
 4151SOL    HW212798   1.619   8.812   4.412
 4152SOL     OW12799   1.390   8.023   3.802
 4152SOL    HW112800   1.336   8.002   3.883
 4152SOL    HW212801   1.481   7.982   3.811
 4153SOL     OW12802   0.527   7.704   4.052
 4153SOL    HW112803   0.554   7.645   3.977
 4153SOL    HW212804   0.527   7.799   4.021
 4154SOL     OW12805   1.754   8.671   5.312
 4154SOL    HW112806   1.845   8.632   5.299
 4154SOL    HW212807   1.762   8.767   5.336
 4155SOL     OW12808   1.064   8.795   5.064
 4155SOL    HW112809   0.984   8.772   5.119
 4155SOL    HW212810   1.147   8.769   5.113
 4156SOL     OW12811   1.592   9.077   5.349
 4156SOL    HW112812   1.619   9.111   5.259
 4156SOL    HW212813   1.671   9.039   5.395
 4157SOL     OW12814   1.111   8.643   4.824
 4157SOL    HW112815   1.071   8.687   4.905
 4157SOL    HW212816   1.070   8.680   4.741
 4158SOL     OW12817   1.638   8.547   4.803
 4158SOL    HW112818   1.643   8.628   4.862
 4158SOL    HW212819   1.552   8.549   4.752
 4159SOL     OW12820   0.915   7.537   5.126
 4159SOL    HW112821   0.940   7.517   5.031
 4159SOL    HW212822   0.987   7.593   5.168
 4160SOL     OW12823   0.980   8.564   5.443
 4160SOL    HW112824   0.881   8.570   5.453
 4160SOL    HW212825   1.003   8.484   5.387
 4161SOL     OW12826   0.705   8.498   4.092
 4161SOL    HW112827   0.691   8.505   4.191
 4161SOL    HW212828   0.789   8.447   4.074
 4162SOL     OW12829   0.410   8.261   4.975
 4162SOL    HW112830   0.496   8.273   5.025
 4162SOL    HW212831   0.368   8.174   5.002
 4163SOL     OW12832   1.274   7.834   4.986
 4163SOL    HW112833   1.295   7.908   5.050
 4163SOL    HW212834   1.185   7.851   4.943
 4164SOL     OW12835   0.064   9.012   5.055
 4164SOL    HW112836   0.018   9.094   5.021
 4164SOL    HW212837   0.162   9.031   5.064
 4165SOL     OW12838   0.367   8.548   4.225
 4165SOL    HW112839   0.360   8.631   4.169
 4165SOL    HW212840   0.371   8.468   4.165
 4166SOL     OW12841   0.566   7.985   4.589
 4166SOL    HW112842   0.578   8.051   4.515
 4166SOL    HW212843   0.612   8.019   4.672
 4167SOL     OW12844   1.252   8.796   4.112
 4167SOL    HW112845   1.302   8.873   4.152
 4167SOL    HW212846   1.157   8.798   4.144
 4168SOL     OW12847   1.272   8.893   4.866
 4168SOL    HW112848   1.319   8.906   4.953
 4168SOL    HW212849   1.206   8.819   4.875
 4169SOL     OW12850   1.582   8.087   4.196
 4169SOL    HW112851   1.551   8.148   4.269
 4169SOL    HW212852   1.632   8.139   4.127
 4170SOL     OW12853   0.354   8.958   5.053
 4170SOL    HW112854   0.333   8.914   4.966
 4170SOL    HW212855   0.451   8.984   5.056
 4171SOL     OW12856   0.402   8.199   5.322
 4171SOL    HW112857   0.470   8.254   5.275
 4171SOL    HW212858   0.442   8.111   5.349
 4172SOL     OW12859   1.587   8.227   5.394
 4172SOL    HW112860   1.495   8.265   5.389
 4172SOL    HW212861   1.647   8.274   5.329
 4173SOL     OW12862   1.013   7.553   5.494
 4173SOL    HW112863   1.019   7.638   5.442
 4173SOL    HW212864   1.045   7.477   5.437
 4174SOL     OW12865   0.504   7.498   5.464
 4174SOL    HW112866   0.462   7.441   5.394
 4174SOL    HW212867   0.438   7.567   5.496
 4175SOL     OW12868   0.573   8.318   4.753
 4175SOL    HW112869   0.617   8.407   4.744
 4175SOL    HW212870   0.510   8.318   4.830
 4176SOL     OW12871   1.360   8.310   4.769
 4176SOL    HW112872   1.285   8.310   4.703
 4176SOL    HW212873   1.397   8.218   4.778
 4177SOL     OW12874   1.209   7.973   3.999
 4177SOL    HW112875   1.222   7.889   4.053
 4177SOL    HW212876   1.180   8.047   4.059
 4178SOL     OW12877   0.307   7.661   4.955
 4178SOL    HW112878   0.284   7.698   5.045
 4178SOL    HW212879   0.277   7.566   4.949
 4179SOL     OW12880   0.037   8.758   5.006
 4179SOL    HW112881   0.090   8.709   5.074
 4179SOL    HW212882   0.059   8.856   5.011
 4180SOL     OW12883   0.732   8.082   4.788
 4180SOL    HW112884   0.791   8.056   4.712
 4180SOL    HW212885   0.704   8.178   4.777
 4181SOL     OW12886   1.728   8.383   5.578
 4181SOL    HW112887   1.682   8.376   5.489
 4181SOL    HW212888   1.666   8.427   5.644
 4182SOL     OW12889   0.307   7.511   4.342
 4182SOL    HW112890   0.296   7.605   4.375
 4182SOL    HW212891   0.302   7.448   4.419
 4183SOL     OW12892   1.622   7.815   4.098
 4183SOL    HW112893   1.624   7.739   4.162
 4183SOL    HW212894   1.574   7.892   4.138
 4184SOL     OW12895   1.023   8.214   4.690
 4184SOL    HW112896   1.038   8.235   4.786
 4184SOL    HW212897   0.993   8.119   4.681
 4185SOL     OW12898   0.980   9.021   5.424
 4185SOL    HW112899   0.960   9.065   5.336
 4185SOL    HW212900   1.019   8.930   5.408
 4186SOL     OW12901   1.859   8.966   5.329
 4186SOL    HW112902   1.873   8.993   5.234
 4186SOL    HW212903   1.942   8.988   5.382
 4187SOL     OW12904   0.350   8.346   5.528
 4187SOL    HW112905   0.426   8.390   5.576
 4187SOL    HW212906   0.385   8.299   5.446
 4188SOL     OW12907   1.540   7.722   3.849
 4188SOL    HW112908   1.479   7.647   3.872
 4188SOL    HW212909   1.562   7.774   3.932
 4189SOL     OW12910   1.303   8.286   3.766
 4189SOL    HW112911   1.337   8.193   3.781
 4189SOL    HW212912   1.321   8.313   3.671
 4190SOL     OW12913   1.068   8.781   4.573
 4190SOL    HW112914   1.075   8.697   4.518
 4190SOL    HW212915   1.130   8.850   4.537
 4191SOL     OW12916   0.319   8.258   4.673
 4191SOL    HW112917   0.412   8.294   4.678
 4191SOL    HW212918   0.313   8.173   4.725
 4192SOL     OW12919   0.339   7.957   4.730
 4192SOL    HW112920   0.287   7.874   4.713
 4192SOL    HW212921   0.416   7.962   4.666
 4193SOL     OW12922   1.138   7.828   5.402
 4193SOL    HW112923   1.093   7.891   5.466
 4193SOL    HW212924   1.231   7.859   5.385
 4194SOL     OW12925   1.160   7.655   5.201
 4194SOL    HW112926   1.160   7.719   5.278
 4194SOL    HW212927   1.188   7.703   5.118
 4195SOL     OW12928   0.008   8.774   3.924
 4195SOL    HW112929  -0.085   8.795   3.893
 4195SOL    HW212930   0.018   8.675   3.937
 4196SOL     OW12931   0.504   9.016   4.634
 4196SOL    HW112932   0.570   9.090   4.643
 4196SOL    HW212933   0.548   8.937   4.592
 4197SOL     OW12934   1.002   8.244   4.962
 4197SOL    HW112935   1.043   8.212   5.048
 4197SOL    HW212936   0.906   8.217   4.959
 4198SOL     OW12937   0.040   7.992   4.838
 4198SOL    HW112938   0.125   7.959   4.797
 4198SOL    HW212939   0.053   8.007   4.936
 4199SOL     OW12940   0.189   7.968   5.446
 4199SOL    HW112941   0.248   7.928   5.376
 4199SOL    HW212942   0.131   8.039   5.405
 4200SOL     OW12943   1.369   8.398   5.384
 4200SOL    HW112944   1.408   8.487   5.404
 4200SOL    HW212945   1.379   8.378   5.287
 4201SOL     OW12946   0.815   8.020   4.049
 4201SOL    HW112947   0.822   7.931   4.003
 4201SOL    HW212948   0.721   8.054   4.041
 4202SOL     OW12949   1.657   8.052   4.930
 4202SOL    HW112950   1.619   7.983   4.992
 4202SOL    HW212951   1.739   8.016   4.886
 4203SOL     OW12952   0.252   9.012   5.468
 4203SOL    HW112953   0.222   9.069   5.544
 4203SOL    HW212954   0.245   8.915   5.494
 4204SOL     OW12955   0.671   7.912   4.993
 4204SOL    HW112956   0.637   7.823   4.963
 4204SOL    HW212957   0.697   7.966   4.913
 4205SOL     OW12958   0.930   9.126   5.189
 4205SOL    HW112959   0.906   9.108   5.094
 4205SOL    HW212960   0.960   9.220   5.199
 4206SOL     OW12961   0.473   7.948   3.915
 4206SOL    HW112962   0.534   8.028   3.919
 4206SOL    HW212963   0.378   7.979   3.922
 4207SOL     OW12964   0.159   8.585   5.190
 4207SOL    HW112965   0.181   8.524   5.266
 4207SOL    HW212966   0.169   8.536   5.104
 4208SOL     OW12967   1.347   8.507   4.958
 4208SOL    HW112968   1.371   8.444   4.884
 4208SOL    HW212969   1.257   8.547   4.940
 4209SOL     OW12970   1.302   8.303   4.033
 4209SOL    HW112971   1.216   8.272   4.075
 4209SOL    HW212972   1.298   8.289   3.934
 4210SOL     OW12973   1.759   9.195   4.878
 4210SOL    HW112974   1.820   9.225   4.805
 4210SOL    HW212975   1.721   9.106   4.856
 4211SOL     OW12976   1.252   9.179   4.852
 4211SOL    HW112977   1.336   9.184   4.798
 4211SOL    HW212978   1.229   9.083   4.870
 4212SOL     OW12979   0.083   8.706   4.746
 4212SOL    HW112980   0.078   8.705   4.846
 4212SOL    HW212981   0.000   8.665   4.708
 4213SOL     OW12982   0.688   9.110   5.440
 4213SOL    HW112983   0.632   9.191   5.449
 4213SOL    HW212984   0.740   9.114   5.354
 4214SOL     OW12985   1.726   7.583   4.247
 4214SOL    HW112986   1.799   7.566   4.180
 4214SOL    HW212987   1.695   7.496   4.285
 4215SOL     OW12988   1.388   9.021   4.201
 4215SOL    HW112989   1.455   9.033   4.127
 4215SOL    HW212990   1.348   9.110   4.224
 4216SOL     OW12991   1.280   8.375   4.396
 4216SOL    HW112992   1.340   8.294   4.398
 4216SOL    HW212993   1.320   8.444   4.336
 4217SOL     OW12994   0.830   8.721   5.146
 4217SOL    HW112995   0.825   8.754   5.241
 4217SOL    HW212996   0.744   8.740   5.100
 4218SOL     OW12997   0.672   9.064   3.878
 4218SOL    HW112998   0.681   9.074   3.779
 4218SOL    HW212999   0.632   8.975   3.899
 4219SOL     OW13000   1.841   7.623   4.687
 4219SOL    HW113001   1.880   7.538   4.651
 4219SOL    HW213002   1.743   7.625   4.668
 4220SOL     OW13003   0.263   7.774   4.444
 4220SOL    HW113004   0.184   7.825   4.410
 4220SOL    HW213005   0.254   7.759   4.542
 4221SOL     OW13006   1.194   9.060   3.755
 4221SOL    HW113007   1.200   8.967   3.792
 4221SOL    HW213008   1.135   9.060   3.675
 4222SOL     OW13009   0.822   8.450   5.096
 4222SOL    HW113010   0.862   8.449   5.004
 4222SOL    HW213011   0.832   8.542   5.136
 4223SOL     OW13012   0.916   8.358   4.015
 4223SOL    HW113013   0.979   8.396   3.947
 4223SOL    HW213014   0.956   8.275   4.054
 4224SOL     OW13015   1.504   9.055   3.768
 4224SOL    HW113016   1.412   9.092   3.775
 4224SOL    HW213017   1.542   9.075   3.678
 4225SOL     OW13018   0.372   8.736   5.214
 4225SOL    HW113019   0.359   8.829   5.180
 4225SOL    HW213020   0.288   8.684   5.201
 4226SOL     OW13021   1.614   8.740   5.013
 4226SOL    HW113022   1.674   8.743   5.093
 4226SOL    HW213023   1.539   8.804   5.026
 4227SOL     OW13024   1.039   8.546   4.420
 4227SOL    HW113025   0.969   8.499   4.474
 4227SOL    HW213026   1.098   8.478   4.377
 4228SOL     OW13027   1.014   7.684   4.695
 4228SOL    HW113028   1.006   7.648   4.602
 4228SOL    HW213029   1.012   7.608   4.760
 4229SOL     OW13030   0.590   8.935   4.215
 4229SOL    HW113031   0.632   8.877   4.145
 4229SOL    HW213032   0.546   9.014   4.171
 4230SOL     OW13033   1.709   7.833   5.105
 4230SOL    HW113034   1.782   7.902   5.109
 4230SOL    HW213035   1.737   7.758   5.046
 4231SOL     OW13036   0.255   8.796   4.014
 4231SOL    HW113037   0.159   8.797   3.987
 4231SOL    HW213038   0.267   8.849   4.098
 4232SOL     OW13039   0.105   8.461   5.450
 4232SOL    HW113040   0.028   8.428   5.504
 4232SOL    HW213041   0.190   8.431   5.492
 4233SOL     OW13042   0.672   7.651   5.213
 4233SOL    HW113043   0.762   7.635   5.173
 4233SOL    HW213044   0.680   7.656   5.312
 4234SOL     OW13045   0.075   7.793   3.757
 4234SOL    HW113046  -0.017   7.765   3.728
 4234SOL    HW213047   0.106   7.870   3.701
 4235SOL     OW13048   1.440   8.304   5.122
 4235SOL    HW113049   1.383   8.356   5.059
 4235SOL    HW213050   1.536   8.316   5.098
 4236SOL     OW13051   0.072   7.614   4.042
 4236SOL    HW113052   0.055   7.697   3.988
 4236SOL    HW213053   0.162   7.577   4.020
 4237SOL     OW13054   1.183   8.783   3.843
 4237SOL    HW113055   1.084   8.772   3.845
 4237SOL    HW213056   1.217   8.798   3.936
 4238SOL     OW13057   0.613   8.290   5.155
 4238SOL    HW113058   0.669   8.371   5.138
 4238SOL    HW213059   0.672   8.210   5.158
 4239SOL     OW13060   0.716   8.013   5.432
 4239SOL    HW113061   0.735   8.078   5.506
 4239SOL    HW213062   0.776   7.933   5.441
 4240SOL     OW13063   1.450   8.668   5.357
 4240SOL    HW113064   1.441   8.658   5.456
 4240SOL    HW213065   1.546   8.661   5.331
 4241SOL     OW13066   0.390   9.189   5.284
 4241SOL    HW113067   0.299   9.230   5.282
 4241SOL    HW213068   0.383   9.095   5.316
 4242SOL     OW13069   1.674   8.331   4.978
 4242SOL    HW113070   1.647   8.242   4.941
 4242SOL    HW213071   1.675   8.399   4.905
 4243SOL     OW13072   1.225   7.773   4.173
 4243SOL    HW113073   1.290   7.699   4.162
 4243SOL    HW213074   1.245   7.823   4.257
 4244SOL     OW13075   0.594   8.193   4.376
 4244SOL    HW113076   0.644   8.278   4.357
 4244SOL    HW213077   0.506   8.195   4.328
 4245SOL     OW13078   1.777   7.790   5.366
 4245SOL    HW113079   1.760   7.821   5.272
 4245SOL    HW213080   1.693   7.753   5.404
 4246SOL     OW13081   1.730   8.382   5.241
 4246SOL    HW113082   1.768   8.473   5.256
 4246SOL    HW213083   1.722   8.365   5.142
 4247SOL     OW13084   0.859   8.822   3.740
 4247SOL    HW113085   0.813   8.837   3.828
 4247SOL    HW213086   0.903   8.907   3.710
 4248SOL     OW13087   0.859   8.404   4.585
 4248SOL    HW113088   0.913   8.335   4.633
 4248SOL    HW213089   0.827   8.473   4.651
 4249SOL     OW13090   1.083   8.432   3.811
 4249SOL    HW113091   1.060   8.485   3.729
 4249SOL    HW213092   1.164   8.376   3.792
 4250SOL     OW13093   1.861   9.017   4.575
 4250SOL    HW113094   1.790   9.005   4.505
 4250SOL    HW213095   1.862   8.938   4.635
 4251SOL     OW13096   0.221   8.762   5.568
 4251SOL    HW113097   0.156   8.689   5.547
 4251SOL    HW213098   0.225   8.776   5.666
 4252SOL     OW13099   0.079   8.688   4.377
 4252SOL    HW113100   0.078   8.641   4.465
 4252SOL    HW213101   0.161   8.660   4.326
 4253SOL     OW13102   0.672   8.839   5.348
 4253SOL    HW113103   0.594   8.789   5.386
 4253SOL    HW213104   0.669   8.934   5.379
 4254SOL     OW13105   1.824   7.640   4.951
 4254SOL    HW113106   1.820   7.550   4.995
 4254SOL    HW213107   1.827   7.629   4.852
 4255SOL     OW13108   0.428   7.872   4.244
 4255SOL    HW113109   0.458   7.800   4.182
 4255SOL    HW213110   0.389   7.832   4.327
 4256SOL     OW13111   1.705   8.935   4.828
 4256SOL    HW113112   1.612   8.910   4.801
 4256SOL    HW213113   1.731   8.885   4.910
 4257SOL     OW13114   0.317   7.995   5.004
 4257SOL    HW113115   0.355   7.936   5.076
 4257SOL    HW213116   0.357   7.969   4.916
 4258SOL     OW13117   0.812   9.034   4.411
 4258SOL    HW113118   0.844   9.044   4.317
 4258SOL    HW213119   0.733   8.972   4.413
 4259SOL     OW13120   1.424   7.662   4.836
 4259SOL    HW113121   1.476   7.597   4.891
 4259SOL    HW213122   1.375   7.725   4.897
 4260SOL     OW13123   1.001   7.482   4.878
 4260SOL    HW113124   0.938   7.410   4.847
 4260SOL    HW213125   1.094   7.446   4.878
 4261SOL     OW13126   0.770   8.778   4.025
 4261SOL    HW113127   0.724   8.691   4.042
 4261SOL    HW213128   0.861   8.775   4.066
 4262SOL     OW13129   0.618   9.015   5.008
 4262SOL    HW113130   0.613   9.097   5.065
 4262SOL    HW213131   0.707   9.012   4.963
 4263SOL     OW13132   1.352   7.500   3.892
 4263SOL    HW113133   1.387   7.459   3.808
 4263SOL    HW213134   1.262   7.462   3.912
 4264SOL     OW13135   1.300   7.901   4.415
 4264SOL    HW113136   1.241   7.981   4.419
 4264SOL    HW213137   1.315   7.866   4.508
 4265SOL     OW13138   1.593   7.669   4.606
 4265SOL    HW113139   1.509   7.668   4.660
 4265SOL    HW213140   1.595   7.752   4.550
 4266SOL     OW13141   0.039   8.525   4.024
 4266SOL    HW113142   0.138   8.514   4.015
 4266SOL    HW213143  -0.001   8.439   4.056
 4267SOL     OW13144   0.875   9.094   4.061
 4267SOL    HW113145   0.798   9.059   4.007
 4267SOL    HW213146   0.843   9.165   4.123
 4268SOL     OW13147   0.230   8.076   5.699
 4268SOL    HW113148   0.137   8.074   5.736
 4268SOL    HW213149   0.231   8.037   5.607
 4269SOL     OW13150   0.225   7.723   6.582
 4269SOL    HW113151   0.260   7.706   6.674
 4269SOL    HW213152   0.137   7.678   6.570
 4270SOL     OW13153   0.019   7.816   6.233
 4270SOL    HW113154  -0.063   7.859   6.272
 4270SOL    HW213155  -0.009   7.743   6.170
 4271SOL     OW13156   0.569   8.723   6.751
 4271SOL    HW113157   0.476   8.716   6.714
 4271SOL    HW213158   0.580   8.812   6.795
 4272SOL     OW13159   1.555   8.959   6.289
 4272SOL    HW113160   1.498   8.943   6.370
 4272SOL    HW213161   1.496   8.969   6.209
 4273SOL     OW13162   1.135   8.151   6.303
 4273SOL    HW113163   1.192   8.229   6.278
 4273SOL    HW213164   1.075   8.177   6.379
 4274SOL     OW13165   1.755   8.055   5.817
 4274SOL    HW113166   1.743   8.042   5.718
 4274SOL    HW213167   1.725   7.974   5.866
 4275SOL     OW13168   0.768   8.592   6.609
 4275SOL    HW113169   0.690   8.609   6.669
 4275SOL    HW213170   0.802   8.679   6.573
 4276SOL     OW13171   0.850   8.246   7.409
 4276SOL    HW113172   0.846   8.322   7.474
 4276SOL    HW213173   0.872   8.282   7.318
 4277SOL     OW13174   0.685   8.460   6.251
 4277SOL    HW113175   0.754   8.444   6.321
 4277SOL    HW213176   0.612   8.517   6.289
 4278SOL     OW13177   0.686   8.609   7.389
 4278SOL    HW113178   0.746   8.688   7.403
 4278SOL    HW213179   0.600   8.640   7.348
 4279SOL     OW13180   0.335   8.883   6.647
 4279SOL    HW113181   0.257   8.852   6.594
 4279SOL    HW213182   0.393   8.941   6.590
 4280SOL     OW13183   1.460   8.953   6.925
 4280SOL    HW113184   1.484   9.047   6.951
 4280SOL    HW213185   1.444   8.899   7.007
 4281SOL     OW13186   0.438   7.840   7.085
 4281SOL    HW113187   0.520   7.784   7.094
 4281SOL    HW213188   0.357   7.782   7.089
 4282SOL     OW13189   1.603   7.895   6.323
 4282SOL    HW113190   1.529   7.941   6.273
 4282SOL    HW213191   1.654   7.963   6.376
 4283SOL     OW13192   1.127   8.789   7.276
 4283SOL    HW113193   1.174   8.789   7.364
 4283SOL    HW213194   1.079   8.702   7.265
 4284SOL     OW13195   0.230   8.882   6.124
 4284SOL    HW113196   0.204   8.978   6.124
 4284SOL    HW213197   0.159   8.828   6.169
 4285SOL     OW13198   0.240   8.539   6.472
 4285SOL    HW113199   0.254   8.455   6.524
 4285SOL    HW213200   0.185   8.603   6.527
 4286SOL     OW13201   0.606   8.412   5.709
 4286SOL    HW113202   0.613   8.496   5.655
 4286SOL    HW213203   0.652   8.425   5.797
 4287SOL     OW13204   1.594   7.562   7.066
 4287SOL    HW113205   1.576   7.629   6.994
 4287SOL    HW213206   1.591   7.608   7.155
 4288SOL     OW13207   0.122   8.091   6.149
 4288SOL    HW113208   0.077   8.003   6.166
 4288SOL    HW213209   0.121   8.145   6.233
 4289SOL     OW13210   0.027   9.044   5.703
 4289SOL    HW113211   0.008   8.948   5.724
 4289SOL    HW213212  -0.006   9.102   5.778
 4290SOL     OW13213   1.689   8.370   6.198
 4290SOL    HW113214   1.784   8.341   6.206
 4290SOL    HW213215   1.681   8.435   6.123
 4291SOL     OW13216   1.641   8.556   6.018
 4291SOL    HW113217   1.727   8.558   5.966
 4291SOL    HW213218   1.655   8.603   6.106
 4292SOL     OW13219   0.113   8.185   7.183
 4292SOL    HW113220   0.201   8.172   7.228
 4292SOL    HW213221   0.100   8.282   7.161
 4293SOL     OW13222   0.613   8.813   6.312
 4293SOL    HW113223   0.564   8.726   6.321
 4293SOL    HW213224   0.590   8.856   6.225
 4294SOL     OW13225   1.293   8.676   7.009
 4294SOL    HW113226   1.330   8.603   6.951
 4294SOL    HW213227   1.345   8.681   7.094
 4295SOL     OW13228   0.809   7.452   6.088
 4295SOL    HW113229   0.849   7.543   6.079
 4295SOL    HW213230   0.709   7.460   6.094
 4296SOL     OW13231   0.197   8.424   6.850
 4296SOL    HW113232   0.286   8.379   6.836
 4296SOL    HW213233   0.124   8.359   6.831
 4297SOL     OW13234   1.525   8.447   5.776
 4297SOL    HW113235   1.462   8.371   5.789
 4297SOL    HW213236   1.573   8.465   5.862
 4298SOL     OW13237   1.187   9.240   7.202
 4298SOL    HW113238   1.211   9.300   7.126
 4298SOL    HW213239   1.194   9.145   7.172
 4299SOL     OW13240   0.317   7.699   7.387
 4299SOL    HW113241   0.388   7.770   7.393
 4299SOL    HW213242   0.229   7.738   7.415
 4300SOL     OW13243   1.466   8.865   6.539
 4300SOL    HW113244   1.407   8.871   6.619
 4300SOL    HW213245   1.451   8.777   6.493
 4301SOL     OW13246   1.667   9.162   6.158
 4301SOL    HW113247   1.626   9.139   6.070
 4301SOL    HW213248   1.649   9.088   6.223
 4302SOL     OW13249   0.598   8.177   5.856
 4302SOL    HW113250   0.622   8.246   5.788
 4302SOL    HW213251   0.520   8.210   5.910
 4303SOL     OW13252   1.281   7.793   6.530
 4303SOL    HW113253   1.195   7.743   6.517
 4303SOL    HW213254   1.343   7.739   6.586
 4304SOL     OW13255   1.576   9.110   5.893
 4304SOL    HW113256   1.665   9.156   5.896
 4304SOL    HW213257   1.555   9.086   5.798
 4305SOL     OW13258   0.807   8.053   7.051
 4305SOL    HW113259   0.760   8.050   7.140
 4305SOL    HW213260   0.756   7.998   6.985
 4306SOL     OW13261   1.394   7.917   7.260
 4306SOL    HW113262   1.374   7.960   7.348
 4306SOL    HW213263   1.472   7.855   7.269
 4307SOL     OW13264   0.973   8.338   7.158
 4307SOL    HW113265   1.019   8.254   7.129
 4307SOL    HW213266   0.917   8.372   7.083
 4308SOL     OW13267   0.991   7.858   6.828
 4308SOL    HW113268   0.914   7.892   6.882
 4308SOL    HW213269   0.957   7.807   6.749
 4309SOL     OW13270   1.041   8.149   6.015
 4309SOL    HW113271   1.067   8.145   6.111
 4309SOL    HW213272   0.956   8.098   6.001
 4310SOL     OW13273   0.076   8.259   6.375
 4310SOL    HW113274   0.175   8.247   6.384
 4310SOL    HW213275   0.052   8.354   6.396
 4311SOL     OW13276   0.865   7.796   5.781
 4311SOL    HW113277   0.924   7.859   5.732
 4311SOL    HW213278   0.884   7.702   5.752
 4312SOL     OW13279   1.719   8.033   7.417
 4312SOL    HW113280   1.693   8.122   7.381
 4312SOL    HW213281   1.717   7.965   7.344
 4313SOL     OW13282   1.362   8.592   6.131
 4313SOL    HW113283   1.445   8.563   6.083
 4313SOL    HW213284   1.313   8.659   6.075
 4314SOL     OW13285   0.550   7.644   6.471
 4314SOL    HW113286   0.545   7.639   6.571
 4314SOL    HW213287   0.552   7.740   6.442
 4315SOL     OW13288   1.008   8.904   6.063
 4315SOL    HW113289   0.962   8.976   6.011
 4315SOL    HW213290   1.004   8.924   6.161
 4316SOL     OW13291   1.795   8.514   6.459
 4316SOL    HW113292   1.733   8.499   6.383
 4316SOL    HW213293   1.743   8.525   6.544
 4317SOL     OW13294   1.227   8.998   7.092
 4317SOL    HW113295   1.233   8.921   7.156
 4317SOL    HW213296   1.175   8.972   7.012
 4318SOL     OW13297   0.321   8.391   5.828
 4318SOL    HW113298   0.403   8.430   5.786
 4318SOL    HW213299   0.294   8.309   5.779
 4319SOL     OW13300   1.458   8.183   6.314
 4319SOL    HW113301   1.453   8.118   6.389
 4319SOL    HW213302   1.538   8.242   6.327
 4320SOL     OW13303   0.461   8.714   7.313
 4320SOL    HW113304   0.411   8.715   7.227
 4320SOL    HW213305   0.398   8.696   7.389
 4321SOL     OW13306   0.202   7.733   7.084
 4321SOL    HW113307   0.122   7.793   7.071
 4321SOL    HW213308   0.192   7.684   7.170
 4322SOL     OW13309   1.632   8.825   5.667
 4322SOL    HW113310   1.600   8.919   5.657
 4322SOL    HW213311   1.556   8.762   5.655
 4323SOL     OW13312   1.400   7.555   6.012
 4323SOL    HW113313   1.376   7.518   5.922
 4323SOL    HW213314   1.499   7.571   6.016
 4324SOL     OW13315   0.940   9.146   6.490
 4324SOL    HW113316   1.020   9.089   6.511
 4324SOL    HW213317   0.891   9.106   6.413
 4325SOL     OW13318   0.382   8.148   6.066
 4325SOL    HW113319   0.427   8.058   6.063
 4325SOL    HW213320   0.288   8.137   6.099
 4326SOL     OW13321   1.547   7.670   7.315
 4326SOL    HW113322   1.542   7.707   7.407
 4326SOL    HW213323   1.475   7.601   7.303
 4327SOL     OW13324   0.614   7.570   5.703
 4327SOL    HW113325   0.712   7.548   5.710
 4327SOL    HW213326   0.583   7.553   5.610
 4328SOL     OW13327   0.781   7.712   7.335
 4328SOL    HW113328   0.848   7.651   7.378
 4328SOL    HW213329   0.708   7.731   7.400
 4329SOL     OW13330   0.888   8.962   6.781
 4329SOL    HW113331   0.865   8.937   6.687
 4329SOL    HW213332   0.949   8.893   6.820
 4330SOL     OW13333   1.351   8.038   7.019
 4330SOL    HW113334   1.379   7.995   7.104
 4330SOL    HW213335   1.376   8.134   7.020
 4331SOL     OW13336   0.803   8.850   6.510
 4331SOL    HW113337   0.893   8.864   6.468
 4331SOL    HW213338   0.732   8.852   6.439
 4332SOL     OW13339   0.922   7.951   6.485
 4332SOL    HW113340   0.897   7.942   6.389
 4332SOL    HW213341   0.970   7.869   6.516
 4333SOL     OW13342   0.539   7.512   6.098
 4333SOL    HW113343   0.458   7.513   6.156
 4333SOL    HW213344   0.542   7.595   6.043
 4334SOL     OW13345   1.434   8.636   5.627
 4334SOL    HW113346   1.466   8.560   5.684
 4334SOL    HW213347   1.342   8.663   5.657
 4335SOL     OW13348   0.297   7.483   5.757
 4335SOL    HW113349   0.346   7.567   5.736
 4335SOL    HW213350   0.359   7.418   5.802
 4336SOL     OW13351   0.935   7.684   6.066
 4336SOL    HW113352   0.887   7.725   5.988
 4336SOL    HW213353   1.034   7.682   6.047
 4337SOL     OW13354   1.076   8.131   7.050
 4337SOL    HW113355   0.996   8.070   7.053
 4337SOL    HW213356   1.157   8.078   7.026
 4338SOL     OW13357   1.227   9.018   6.379
 4338SOL    HW113358   1.248   9.092   6.314
 4338SOL    HW213359   1.295   9.018   6.452
 4339SOL     OW13360   0.459   8.600   6.327
 4339SOL    HW113361   0.388   8.573   6.392
 4339SOL    HW213362   0.433   8.572   6.234
 4340SOL     OW13363   1.032   7.997   5.602
 4340SOL    HW113364   0.991   8.079   5.563
 4340SOL    HW213365   1.096   8.023   5.675
 4341SOL     OW13366   0.078   8.004   6.972
 4341SOL    HW113367   0.170   8.003   6.931
 4341SOL    HW213368   0.072   8.078   7.039
 4342SOL     OW13369   0.561   7.670   6.733
 4342SOL    HW113370   0.599   7.586   6.770
 4342SOL    HW213371   0.473   7.689   6.777
 4343SOL     OW13372   0.866   7.902   6.228
 4343SOL    HW113373   0.834   7.974   6.166
 4343SOL    HW213374   0.890   7.821   6.175
 4344SOL     OW13375   1.017   7.487   6.339
 4344SOL    HW113376   0.945   7.492   6.270
 4344SOL    HW213377   0.993   7.418   6.408
 4345SOL     OW13378   1.429   8.621   6.453
 4345SOL    HW113379   1.374   8.537   6.446
 4345SOL    HW213380   1.455   8.650   6.361
 4346SOL     OW13381   1.466   8.038   6.578
 4346SOL    HW113382   1.436   7.943   6.585
 4346SOL    HW213383   1.539   8.054   6.644
 4347SOL     OW13384   1.857   8.281   5.963
 4347SOL    HW113385   1.899   8.217   6.027
 4347SOL    HW213386   1.819   8.230   5.885
 4348SOL     OW13387   0.488   8.833   5.760
 4348SOL    HW113388   0.401   8.818   5.807
 4348SOL    HW213389   0.471   8.859   5.665
 4349SOL     OW13390   1.664   8.728   6.243
 4349SOL    HW113391   1.763   8.736   6.257
 4349SOL    HW213392   1.619   8.812   6.274
 4350SOL     OW13393   1.390   8.023   5.664
 4350SOL    HW113394   1.336   8.002   5.745
 4350SOL    HW213395   1.481   7.982   5.673
 4351SOL     OW13396   0.527   7.704   5.914
 4351SOL    HW113397   0.554   7.645   5.839
 4351SOL    HW213398   0.527   7.799   5.883
 4352SOL     OW13399   1.754   8.671   7.174
 4352SOL    HW113400   1.845   8.632   7.161
 4352SOL    HW213401   1.762   8.767   7.198
 4353SOL     OW13402   1.064   8.795   6.926
 4353SOL    HW113403   0.984   8.772   6.981
 4353SOL    HW213404   1.147   8.769   6.975
 4354SOL     OW13405   1.592   9.077   7.211
 4354SOL    HW113406   1.619   9.111   7.121
 4354SOL    HW213407   1.671   9.039   7.257
 4355SOL     OW13408   1.111   8.643   6.686
 4355SOL    HW113409   1.071   8.687   6.767
 4355SOL    HW213410   1.070   8.680   6.603
 4356SOL     OW13411   1.638   8.547   6.665
 4356SOL    HW113412   1.643   8.628   6.724
 4356SOL    HW213413   1.552   8.549   6.614
 4357SOL     OW13414   0.915   7.537   6.988
 4357SOL    HW113415   0.940   7.517   6.893
 4357SOL    HW213416   0.987   7.593   7.030
 4358SOL     OW13417   0.980   8.564   7.305
 4358SOL    HW113418   0.881   8.570   7.315
 4358SOL    HW213419   1.003   8.484   7.249
 4359SOL     OW13420   0.705   8.498   5.954
 4359SOL    HW113421   0.691   8.505   6.053
 4359SOL    HW213422   0.789   8.447   5.936
 4360SOL     OW13423   0.410   8.261   6.837
 4360SOL    HW113424   0.496   8.273   6.887
 4360SOL    HW213425   0.368   8.174   6.864
 4361SOL     OW13426   1.274   7.834   6.848
 4361SOL    HW113427   1.295   7.908   6.912
 4361SOL    HW213428   1.185   7.851   6.805
 4362SOL     OW13429   0.064   9.012   6.917
 4362SOL    HW113430   0.018   9.094   6.883
 4362SOL    HW213431   0.162   9.031   6.926
 4363SOL     OW13432   0.367   8.548   6.087
 4363SOL    HW113433   0.360   8.631   6.031
 4363SOL    HW213434   0.371   8.468   6.027
 4364SOL     OW13435   0.566   7.985   6.451
 4364SOL    HW113436   0.578   8.051   6.377
 4364SOL    HW213437   0.612   8.019   6.534
 4365SOL     OW13438   1.252   8.796   5.974
 4365SOL    HW113439   1.302   8.873   6.014
 4365SOL    HW213440   1.157   8.798   6.006
 4366SOL     OW13441   1.272   8.893   6.728
 4366SOL    HW113442   1.319   8.906   6.815
 4366SOL    HW213443   1.206   8.819   6.737
 4367SOL     OW13444   1.582   8.087   6.058
 4367SOL    HW113445   1.551   8.148   6.131
 4367SOL    HW213446   1.632   8.139   5.989
 4368SOL     OW13447   0.354   8.958   6.915
 4368SOL    HW113448   0.333   8.914   6.828
 4368SOL    HW213449   0.451   8.984   6.918
 4369SOL     OW13450   0.402   8.199   7.184
 4369SOL    HW113451   0.470   8.254   7.137
 4369SOL    HW213452   0.442   8.111   7.211
 4370SOL     OW13453   1.587   8.227   7.256
 4370SOL    HW113454   1.495   8.265   7.251
 4370SOL    HW213455   1.647   8.274   7.191
 4371SOL     OW13456   1.013   7.553   7.356
 4371SOL    HW113457   1.019   7.638   7.304
 4371SOL    HW213458   1.045   7.477   7.299
 4372SOL     OW13459   0.504   7.498   7.326
 4372SOL    HW113460   0.462   7.441   7.256
 4372SOL    HW213461   0.438   7.567   7.358
 4373SOL     OW13462   0.573   8.318   6.615
 4373SOL    HW113463   0.617   8.407   6.606
 4373SOL    HW213464   0.510   8.318   6.692
 4374SOL     OW13465   1.360   8.310   6.631
 4374SOL    HW113466   1.285   8.310   6.565
 4374SOL    HW213467   1.397   8.218   6.640
 4375SOL     OW13468   1.209   7.973   5.861
 4375SOL    HW113469   1.222   7.889   5.915
 4375SOL    HW213470   1.180   8.047   5.921
 4376SOL     OW13471   0.307   7.661   6.817
 4376SOL    HW113472   0.284   7.698   6.907
 4376SOL    HW213473   0.277   7.566   6.811
 4377SOL     OW13474   0.037   8.758   6.868
 4377SOL    HW113475   0.090   8.709   6.936
 4377SOL    HW213476   0.059   8.856   6.873
 4378SOL     OW13477   0.732   8.082   6.650
 4378SOL    HW113478   0.791   8.056   6.574
 4378SOL    HW213479   0.704   8.178   6.639
 4379SOL     OW13480   1.728   8.383   7.440
 4379SOL    HW113481   1.682   8.376   7.351
 4379SOL    HW213482   1.666   8.427   7.506
 4380SOL     OW13483   0.307   7.511   6.204
 4380SOL    HW113484   0.296   7.605   6.237
 4380SOL    HW213485   0.302   7.448   6.281
 4381SOL     OW13486   1.622   7.815   5.960
 4381SOL    HW113487   1.624   7.739   6.024
 4381SOL    HW213488   1.574   7.892   6.000
 4382SOL     OW13489   1.023   8.214   6.552
 4382SOL    HW113490   1.038   8.235   6.648
 4382SOL    HW213491   0.993   8.119   6.543
 4383SOL     OW13492   0.980   9.021   7.286
 4383SOL    HW113493   0.960   9.065   7.198
 4383SOL    HW213494   1.019   8.930   7.270
 4384SOL     OW13495   1.859   8.966   7.191
 4384SOL    HW113496   1.873   8.993   7.096
 4384SOL    HW213497   1.942   8.988   7.244
 4385SOL     OW13498   0.350   8.346   7.390
 4385SOL    HW113499   0.426   8.390   7.438
 4385SOL    HW213500   0.385   8.299   7.308
 4386SOL     OW13501   1.540   7.722   5.711
 4386SOL    HW113502   1.479   7.647   5.734
 4386SOL    HW213503   1.562   7.774   5.794
 4387SOL     OW13504   1.303   8.286   5.628
 4387SOL    HW113505   1.337   8.193   5.643
 4387SOL    HW213506   1.321   8.313   5.533
 4388SOL     OW13507   1.068   8.781   6.435
 4388SOL    HW113508   1.075   8.697   6.380
 4388SOL    HW213509   1.130   8.850   6.399
 4389SOL     OW13510   0.319   8.258   6.535
 4389SOL    HW113511   0.412   8.294   6.540
 4389SOL    HW213512   0.313   8.173   6.587
 4390SOL     OW13513   0.339   7.957   6.592
 4390SOL    HW113514   0.287   7.874   6.575
 4390SOL    HW213515   0.416   7.962   6.528
 4391SOL     OW13516   1.138   7.828   7.264
 4391SOL    HW113517   1.093   7.891   7.328
 4391SOL    HW213518   1.231   7.859   7.247
 4392SOL     OW13519   1.160   7.655   7.063
 4392SOL    HW113520   1.160   7.719   7.140
 4392SOL    HW213521   1.188   7.703   6.980
 4393SOL     OW13522   0.008   8.774   5.786
 4393SOL    HW113523  -0.085   8.795   5.755
 4393SOL    HW213524   0.018   8.675   5.799
 4394SOL     OW13525   0.504   9.016   6.496
 4394SOL    HW113526   0.570   9.090   6.505
 4394SOL    HW213527   0.548   8.937   6.454
 4395SOL     OW13528   1.002   8.244   6.824
 4395SOL    HW113529   1.043   8.212   6.910
 4395SOL    HW213530   0.906   8.217   6.821
 4396SOL     OW13531   0.040   7.992   6.700
 4396SOL    HW113532   0.125   7.959   6.659
 4396SOL    HW213533   0.053   8.007   6.798
 4397SOL     OW13534   0.189   7.968   7.308
 4397SOL    HW113535   0.248   7.928   7.238
 4397SOL    HW213536   0.131   8.039   7.267
 4398SOL     OW13537   1.369   8.398   7.246
 4398SOL    HW113538   1.408   8.487   7.266
 4398SOL    HW213539   1.379   8.378   7.149
 4399SOL     OW13540   0.815   8.020   5.911
 4399SOL    HW113541   0.822   7.931   5.865
 4399SOL    HW213542   0.721   8.054   5.903
 4400SOL     OW13543   1.657   8.052   6.792
 4400SOL    HW113544   1.619   7.983   6.854
 4400SOL    HW213545   1.739   8.016   6.748
 4401SOL     OW13546   0.252   9.012   7.330
 4401SOL    HW113547   0.222   9.069   7.406
 4401SOL    HW213548   0.245   8.915   7.356
 4402SOL     OW13549   0.671   7.912   6.855
 4402SOL    HW113550   0.637   7.823   6.825
 4402SOL    HW213551   0.697   7.966   6.775
 4403SOL     OW13552   0.930   9.126   7.051
 4403SOL    HW113553   0.906   9.108   6.956
 4403SOL    HW213554   0.960   9.220   7.061
 4404SOL     OW13555   0.473   7.948   5.777
 4404SOL    HW113556   0.534   8.028   5.781
 4404SOL    HW213557   0.378   7.979   5.784
 4405SOL     OW13558   0.159   8.585   7.052
 4405SOL    HW113559   0.181   8.524   7.128
 4405SOL    HW213560   0.169   8.536   6.966
 4406SOL     OW13561   1.347   8.507   6.820
 4406SOL    HW113562   1.371   8.444   6.746
 4406SOL    HW213563   1.257   8.547   6.802
 4407SOL     OW13564   1.302   8.303   5.895
 4407SOL    HW113565   1.216   8.272   5.937
 4407SOL    HW213566   1.298   8.289   5.796
 4408SOL     OW13567   1.759   9.195   6.740
 4408SOL    HW113568   1.820   9.225   6.667
 4408SOL    HW213569   1.721   9.106   6.718
 4409SOL     OW13570   1.252   9.179   6.714
 4409SOL    HW113571   1.336   9.184   6.660
 4409SOL    HW213572   1.229   9.083   6.732
 4410SOL     OW13573   0.083   8.706   6.608
 4410SOL    HW113574   0.078   8.705   6.708
 4410SOL    HW213575   0.000   8.665   6.570
 4411SOL     OW13576   0.688   9.110   7.302
 4411SOL    HW113577   0.632   9.191   7.311
 4411SOL    HW213578   0.740   9.114   7.216
 4412SOL     OW13579   1.726   7.583   6.109
 4412SOL    HW113580   1.799   7.566   6.042
 4412SOL    HW213581   1.695   7.496   6.147
 4413SOL     OW13582   1.388   9.021   6.063
 4413SOL    HW113583   1.455   9.033   5.989
 4413SOL    HW213584   1.348   9.110   6.086
 4414SOL     OW13585   1.280   8.375   6.258
 4414SOL    HW113586   1.340   8.294   6.260
 4414SOL    HW213587   1.320   8.444   6.198
 4415SOL     OW13588   0.830   8.721   7.008
 4415SOL    HW113589   0.825   8.754   7.103
 4415SOL    HW213590   0.744   8.740   6.962
 4416SOL     OW13591   0.672   9.064   5.740
 4416SOL    HW113592   0.681   9.074   5.641
 4416SOL    HW213593   0.632   8.975   5.761
 4417SOL     OW13594   1.841   7.623   6.549
 4417SOL    HW113595   1.880   7.538   6.513
 4417SOL    HW213596   1.743   7.625   6.530
 4418SOL     OW13597   0.263   7.774   6.306
 4418SOL    HW113598   0.184   7.825   6.272
 4418SOL    HW213599   0.254   7.759   6.404
 4419SOL     OW13600   1.194   9.060   5.617
 4419SOL    HW113601   1.200   8.967   5.654
 4419SOL    HW213602   1.135   9.060   5.537
 4420SOL     OW13603   0.822   8.450   6.958
 4420SOL    HW113604   0.862   8.449   6.866
 4420SOL    HW213605   0.832   8.542   6.998
 4421SOL     OW13606   0.916   8.358   5.877
 4421SOL    HW113607   0.979   8.396   5.809
 4421SOL    HW213608   0.956   8.275   5.916
 4422SOL     OW13609   1.504   9.055   5.630
 4422SOL    HW113610   1.412   9.092   5.637
 4422SOL    HW213611   1.542   9.075   5.540
 4423SOL     OW13612   0.372   8.736   7.076
 4423SOL    HW113613   0.359   8.829   7.042
 4423SOL    HW213614   0.288   8.684   7.063
 4424SOL     OW13615   1.614   8.740   6.875
 4424SOL    HW113616   1.674   8.743   6.955
 4424SOL    HW213617   1.539   8.804   6.888
 4425SOL     OW13618   1.039   8.546   6.282
 4425SOL    HW113619   0.969   8.499   6.336
 4425SOL    HW213620   1.098   8.478   6.239
 4426SOL     OW13621   1.014   7.684   6.557
 4426SOL    HW113622   1.006   7.648   6.464
 4426SOL    HW213623   1.012   7.608   6.622
 4427SOL     OW13624   0.590   8.935   6.077
 4427SOL    HW113625   0.632   8.877   6.007
 4427SOL    HW213626   0.546   9.014   6.033
 4428SOL     OW13627   1.709   7.833   6.967
 4428SOL    HW113628   1.782   7.902   6.971
 4428SOL    HW213629   1.737   7.758   6.908
 4429SOL     OW13630   0.255   8.796   5.876
 4429SOL    HW113631   0.159   8.797   5.849
 4429SOL    HW213632   0.267   8.849   5.960
 4430SOL     OW13633   0.105   8.461   7.312
 4430SOL    HW113634   0.028   8.428   7.366
 4430SOL    HW213635   0.190   8.431   7.354
 4431SOL     OW13636   0.672   7.651   7.075
 4431SOL    HW113637   0.762   7.635   7.035
 4431SOL    HW213638   0.680   7.656   7.174
 4432SOL     OW13639   0.075   7.793   5.619
 4432SOL    HW113640  -0.017   7.765   5.590
 4432SOL    HW213641   0.106   7.870   5.563
 4433SOL     OW13642   1.440   8.304   6.984
 4433SOL    HW113643   1.383   8.356   6.921
 4433SOL    HW213644   1.536   8.316   6.960
 4434SOL     OW13645   0.072   7.614   5.904
 4434SOL    HW113646   0.055   7.697   5.850
 4434SOL    HW213647   0.162   7.577   5.882
 4435SOL     OW13648   1.183   8.783   5.705
 4435SOL    HW113649   1.084   8.772   5.707
 4435SOL    HW213650   1.217   8.798   5.798
 4436SOL     OW13651   0.613   8.290   7.017
 4436SOL    HW113652   0.669   8.371   7.000
 4436SOL    HW213653   0.672   8.210   7.020
 4437SOL     OW13654   0.716   8.013   7.294
 4437SOL    HW113655   0.735   8.078   7.368
 4437SOL    HW213656   0.776   7.933   7.303
 4438SOL     OW13657   1.450   8.668   7.219
 4438SOL    HW113658   1.441   8.658   7.318
 4438SOL    HW213659   1.546   8.661   7.193
 4439SOL     OW13660   0.390   9.189   7.146
 4439SOL    HW113661   0.299   9.230   7.144
 4439SOL    HW213662   0.383   9.095   7.178
 4440SOL     OW13663   1.674   8.331   6.840
 4440SOL    HW113664   1.647   8.242   6.803
 4440SOL    HW213665   1.675   8.399   6.767
 4441SOL     OW13666   1.225   7.773   6.035
 4441SOL    HW113667   1.290   7.699   6.024
 4441SOL    HW213668   1.245   7.823   6.119
 4442SOL     OW13669   0.594   8.193   6.238
 4442SOL    HW113670   0.644   8.278   6.219
 4442SOL    HW213671   0.506   8.195   6.190
 4443SOL     OW13672   1.777   7.790   7.228
 4443SOL    HW113673   1.760   7.821   7.134
 4443SOL    HW213674   1.693   7.753   7.266
 4444SOL     OW13675   1.730   8.382   7.103
 4444SOL    HW113676   1.768   8.473   7.118
 4444SOL    HW213677   1.722   8.365   7.004
 4445SOL     OW13678   0.859   8.822   5.602
 4445SOL    HW113679   0.813   8.837   5.690
 4445SOL    HW213680   0.903   8.907   5.572
 4446SOL     OW13681   0.859   8.404   6.447
 4446SOL    HW113682   0.913   8.335   6.495
 4446SOL    HW213683   0.827   8.473   6.513
 4447SOL     OW13684   1.083   8.432   5.673
 4447SOL    HW113685   1.060   8.485   5.591
 4447SOL    HW213686   1.164   8.376   5.654
 4448SOL     OW13687   1.861   9.017   6.437
 4448SOL    HW113688   1.790   9.005   6.367
 4448SOL    HW213689   1.862   8.938   6.497
 4449SOL     OW13690   0.221   8.762   7.430
 4449SOL    HW113691   0.156   8.689   7.409
 4449SOL    HW213692   0.225   8.776   7.528
 4450SOL     OW13693   0.079   8.688   6.239
 4450SOL    HW113694   0.078   8.641   6.327
 4450SOL    HW213695   0.161   8.660   6.188
 4451SOL     OW13696   0.672   8.839   7.210
 4451SOL    HW113697   0.594   8.789   7.248
 4451SOL    HW213698   0.669   8.934   7.241
 4452SOL     OW13699   1.824   7.640   6.813
 4452SOL    HW113700   1.820   7.550   6.857
 4452SOL    HW213701   1.827   7.629   6.714
 4453SOL     OW13702   0.428   7.872   6.106
 4453SOL    HW113703   0.458   7.800   6.044
 4453SOL    HW213704   0.389   7.832   6.189
 4454SOL     OW13705   1.705   8.935   6.690
 4454SOL    HW113706   1.612   8.910   6.663
 4454SOL    HW213707   1.731   8.885   6.772
 4455SOL     OW13708   0.317   7.995   6.866
 4455SOL    HW113709   0.355   7.936   6.938
 4455SOL    HW213710   0.357   7.969   6.778
 4456SOL     OW13711   0.812   9.034   6.273
 4456SOL    HW113712   0.844   9.044   6.179
 4456SOL    HW213713   0.733   8.972   6.275
 4457SOL     OW13714   1.424   7.662   6.698
 4457SOL    HW113715   1.476   7.597   6.753
 4457SOL    HW213716   1.375   7.725   6.759
 4458SOL     OW13717   1.001   7.482   6.740
 4458SOL    HW113718   0.938   7.410   6.709
 4458SOL    HW213719   1.094   7.446   6.740
 4459SOL     OW13720   0.770   8.778   5.887
 4459SOL    HW113721   0.724   8.691   5.904
 4459SOL    HW213722   0.861   8.775   5.928
 4460SOL     OW13723   0.618   9.015   6.870
 4460SOL    HW113724   0.613   9.097   6.927
 4460SOL    HW213725   0.707   9.012   6.825
 4461SOL     OW13726   1.352   7.500   5.754
 4461SOL    HW113727   1.387   7.459   5.670
 4461SOL    HW213728   1.262   7.462   5.774
 4462SOL     OW13729   1.300   7.901   6.277
 4462SOL    HW113730   1.241   7.981   6.281
 4462SOL    HW213731   1.315   7.866   6.370
 4463SOL     OW13732   1.593   7.669   6.468
 4463SOL    HW113733   1.509   7.668   6.522
 4463SOL    HW213734   1.595   7.752   6.412
 4464SOL     OW13735   0.039   8.525   5.886
 4464SOL    HW113736   0.138   8.514   5.877
 4464SOL    HW213737  -0.001   8.439   5.918
 4465SOL     OW13738   0.875   9.094   5.923
 4465SOL    HW113739   0.798   9.059   5.869
 4465SOL    HW213740   0.843   9.165   5.985
 4466SOL     OW13741   0.230   8.076   7.561
 4466SOL    HW113742   0.137   8.074   7.598
 4466SOL    HW213743   0.231   8.037   7.469
 4467SOL     OW13744   1.755   8.055   7.679
 4467SOL    HW113745   1.743   8.042   7.580
 4467SOL    HW213746   1.725   7.974   7.728
 4468SOL     OW13747   0.606   8.412   7.571
 4468SOL    HW113748   0.613   8.496   7.517
 4468SOL    HW213749   0.652   8.425   7.659
 4469SOL     OW13750   0.027   9.044   7.565
 4469SOL    HW113751   0.008   8.948   7.586
 4469SOL    HW213752  -0.006   9.102   7.640
 4470SOL     OW13753   1.641   8.556   7.880
 4470SOL    HW113754   1.727   8.558   7.828
 4470SOL    HW213755   1.655   8.603   7.968
 4471SOL     OW13756   0.809   7.452   7.950
 4471SOL    HW113757   0.849   7.543   7.941
 4471SOL    HW213758   0.709   7.460   7.956
 4472SOL     OW13759   1.525   8.447   7.638
 4472SOL    HW113760   1.462   8.371   7.651
 4472SOL    HW213761   1.573   8.465   7.724
 4473SOL     OW13762   1.667   9.162   8.020
 4473SOL    HW113763   1.626   9.139   7.932
 4473SOL    HW213764   1.649   9.088   8.085
 4474SOL     OW13765   0.598   8.177   7.718
 4474SOL    HW113766   0.622   8.246   7.650
 4474SOL    HW213767   0.520   8.210   7.772
 4475SOL     OW13768   1.576   9.110   7.755
 4475SOL    HW113769   1.665   9.156   7.758
 4475SOL    HW213770   1.555   9.086   7.660
 4476SOL     OW13771   1.041   8.149   7.877
 4476SOL    HW113772   1.067   8.145   7.973
 4476SOL    HW213773   0.956   8.098   7.863
 4477SOL     OW13774   0.865   7.796   7.643
 4477SOL    HW113775   0.924   7.859   7.594
 4477SOL    HW213776   0.884   7.702   7.614
 4478SOL     OW13777   1.362   8.592   7.993
 4478SOL    HW113778   1.445   8.563   7.945
 4478SOL    HW213779   1.313   8.659   7.937
 4479SOL     OW13780   1.008   8.904   7.925
 4479SOL    HW113781   0.962   8.976   7.873
 4479SOL    HW213782   1.004   8.924   8.023
 4480SOL     OW13783   0.321   8.391   7.690
 4480SOL    HW113784   0.403   8.430   7.648
 4480SOL    HW213785   0.294   8.309   7.641
 4481SOL     OW13786   1.632   8.825   7.529
 4481SOL    HW113787   1.600   8.919   7.519
 4481SOL    HW213788   1.556   8.762   7.517
 4482SOL     OW13789   1.400   7.555   7.874
 4482SOL    HW113790   1.376   7.518   7.784
 4482SOL    HW213791   1.499   7.571   7.878
 4483SOL     OW13792   0.382   8.148   7.928
 4483SOL    HW113793   0.427   8.058   7.925
 4483SOL    HW213794   0.288   8.137   7.961
 4484SOL     OW13795   0.614   7.570   7.565
 4484SOL    HW113796   0.712   7.548   7.572
 4484SOL    HW213797   0.583   7.553   7.472
 4485SOL     OW13798   0.539   7.512   7.960
 4485SOL    HW113799   0.458   7.513   8.018
 4485SOL    HW213800   0.542   7.595   7.905
 4486SOL     OW13801   1.434   8.636   7.489
 4486SOL    HW113802   1.466   8.560   7.546
 4486SOL    HW213803   1.342   8.663   7.519
 4487SOL     OW13804   0.297   7.483   7.619
 4487SOL    HW113805   0.346   7.567   7.598
 4487SOL    HW213806   0.359   7.418   7.664
 4488SOL     OW13807   0.935   7.684   7.928
 4488SOL    HW113808   0.887   7.725   7.850
 4488SOL    HW213809   1.034   7.682   7.909
 4489SOL     OW13810   1.032   7.997   7.464
 4489SOL    HW113811   0.991   8.079   7.425
 4489SOL    HW213812   1.096   8.023   7.537
 4490SOL     OW13813   1.857   8.281   7.825
 4490SOL    HW113814   1.899   8.217   7.889
 4490SOL    HW213815   1.819   8.230   7.747
 4491SOL     OW13816   0.488   8.833   7.622
 4491SOL    HW113817   0.401   8.818   7.669
 4491SOL    HW213818   0.471   8.859   7.527
 4492SOL     OW13819   1.390   8.023   7.526
 4492SOL    HW113820   1.336   8.002   7.607
 4492SOL    HW213821   1.481   7.982   7.535
 4493SOL     OW13822   0.527   7.704   7.776
 4493SOL    HW113823   0.554   7.645   7.701
 4493SOL    HW213824   0.527   7.799   7.745
 4494SOL     OW13825   0.705   8.498   7.816
 4494SOL    HW113826   0.691   8.505   7.915
 4494SOL    HW213827   0.789   8.447   7.798
 4495SOL     OW13828   0.367   8.548   7.949
 4495SOL    HW113829   0.360   8.631   7.893
 4495SOL    HW213830   0.371   8.468   7.889
 4496SOL     OW13831   1.252   8.796   7.836
 4496SOL    HW113832   1.302   8.873   7.876
 4496SOL    HW213833   1.157   8.798   7.868
 4497SOL     OW13834   1.582   8.087   7.920
 4497SOL    HW113835   1.551   8.148   7.993
 4497SOL    HW213836   1.632   8.139   7.851
 4498SOL     OW13837   1.209   7.973   7.723
 4498SOL    HW113838   1.222   7.889   7.777
 4498SOL    HW213839   1.180   8.047   7.783
 4499SOL     OW13840   1.622   7.815   7.822
 4499SOL    HW113841   1.624   7.739   7.886
 4499SOL    HW213842   1.574   7.892   7.862
 4500SOL     OW13843   1.540   7.722   7.573
 4500SOL    HW113844   1.479   7.647   7.596
 4500SOL    HW213845   1.562   7.774   7.656
 4501SOL     OW13846   1.303   8.286   7.490
 4501SOL    HW113847   1.337   8.193   7.505
 4501SOL    HW213848   1.321   8.313   7.395
 4502SOL     OW13849   0.008   8.774   7.648
 4502SOL    HW113850  -0.085   8.795   7.617
 4502SOL    HW213851   0.018   8.675   7.661
 4503SOL     OW13852   0.815   8.020   7.773
 4503SOL    HW113853   0.822   7.931   7.727
 4503SOL    HW213854   0.721   8.054   7.765
 4504SOL     OW13855   0.473   7.948   7.639
 4504SOL    HW113856   0.534   8.028   7.643
 4504SOL    HW213857   0.378   7.979   7.646
 4505SOL     OW13858   1.302   8.303   7.757
 4505SOL    HW113859   1.216   8.272   7.799
 4505SOL    HW213860   1.298   8.289   7.658
 4506SOL     OW13861   1.726   7.583   7.971
 4506SOL    HW113862   1.799   7.566   7.904
 4506SOL    HW213863   1.695   7.496   8.009
 4507SOL     OW13864   1.388   9.021   7.925
 4507SOL    HW113865   1.455   9.033   7.851
 4507SOL    HW213866   1.348   9.110   7.948
 4508SOL     OW13867   0.672   9.064   7.602
 4508SOL    HW113868   0.681   9.074   7.503
 4508SOL    HW213869   0.632   8.975   7.623
 4509SOL     OW13870   1.194   9.060   7.479
 4509SOL    HW113871   1.200   8.967   7.516
 4509SOL    HW213872   1.135   9.060   7.399
 4510SOL     OW13873   0.916   8.358   7.739
 4510SOL    HW113874   0.979   8.396   7.671
 4510SOL    HW213875   0.956   8.275   7.778
 4511SOL     OW13876   1.504   9.055   7.492
 4511SOL    HW113877   1.412   9.092   7.499
 4511SOL    HW213878   1.542   9.075   7.402
 4512SOL     OW13879   0.590   8.935   7.939
 4512SOL    HW113880   0.632   8.877   7.869
 4512SOL    HW213881   0.546   9.014   7.895
 4513SOL     OW13882   0.255   8.796   7.738
 4513SOL    HW113883   0.159   8.797   7.711
 4513SOL    HW213884   0.267   8.849   7.822
 4514SOL     OW13885   0.075   7.793   7.481
 4514SOL    HW113886  -0.017   7.765   7.452
 4514SOL    HW213887   0.106   7.870   7.425
 4515SOL     OW13888   0.072   7.614   7.766
 4515SOL    HW113889   0.055   7.697   7.712
 4515SOL    HW213890   0.162   7.577   7.744
 4516SOL     OW13891   1.183   8.783   7.567
 4516SOL    HW113892   1.084   8.772   7.569
 4516SOL    HW213893   1.217   8.798   7.660
 4517SOL     OW13894   1.225   7.773   7.897
 4517SOL    HW113895   1.290   7.699   7.886
 4517SOL    HW213896   1.245   7.823   7.981
 4518SOL     OW13897   0.859   8.822   7.464
 4518SOL    HW113898   0.813   8.837   7.552
 4518SOL    HW213899   0.903   8.907   7.434
 4519SOL     OW13900   1.083   8.432   7.535
 4519SOL    HW113901   1.060   8.485   7.453
 4519SOL    HW213902   1.164   8.376   7.516
 4520SOL     OW13903   0.428   7.872   7.968
 4520SOL    HW113904   0.458   7.800   7.906
 4520SOL    HW213905   0.389   7.832   8.051
 4521SOL     OW13906   0.770   8.778   7.749
 4521SOL    HW113907   0.724   8.691   7.766
 4521SOL    HW213908   0.861   8.775   7.790
 4522SOL     OW13909   1.352   7.500   7.616
 4522SOL    HW113910   1.387   7.459   7.532
 4522SOL    HW213911   1.262   7.462   7.636
 4523SOL     OW13912   0.039   8.525   7.748
 4523SOL    HW113913   0.138   8.514   7.739
 4523SOL    HW213914  -0.001   8.439   7.780
 4524SOL     OW13915   0.875   9.094   7.785
 4524SOL    HW113916   0.798   9.059   7.731
 4524SOL    HW213917   0.843   9.165   7.847
 4525SOL     OW13918   2.092   0.628   0.113
 4525SOL    HW113919   1.999   0.626   0.150
 4525SOL    HW213920   2.093   0.589   0.021
 4526SOL     OW13921   2.087   0.275   0.996
 4526SOL    HW113922   2.122   0.258   1.088
 4526SOL    HW213923   1.999   0.230   0.984
 4527SOL     OW13924   1.881   0.368   0.647
 4527SOL    HW113925   1.799   0.411   0.686
 4527SOL    HW213926   1.853   0.295   0.584
 4528SOL     OW13927   2.431   1.275   1.165
 4528SOL    HW113928   2.338   1.268   1.128
 4528SOL    HW213929   2.442   1.364   1.209
 4529SOL     OW13930   3.417   1.511   0.703
 4529SOL    HW113931   3.360   1.495   0.784
 4529SOL    HW213932   3.358   1.521   0.623
 4530SOL     OW13933   2.997   0.703   0.717
 4530SOL    HW113934   3.054   0.781   0.692
 4530SOL    HW213935   2.937   0.729   0.793
 4531SOL     OW13936   3.617   0.607   0.231
 4531SOL    HW113937   3.605   0.594   0.132
 4531SOL    HW213938   3.587   0.526   0.280
 4532SOL     OW13939   2.630   1.144   1.023
 4532SOL    HW113940   2.552   1.161   1.083
 4532SOL    HW213941   2.664   1.231   0.987
 4533SOL     OW13942   2.712   0.798   1.823
 4533SOL    HW113943   2.708   0.874   1.888
 4533SOL    HW213944   2.734   0.834   1.732
 4534SOL     OW13945   2.547   1.012   0.665
 4534SOL    HW113946   2.616   0.996   0.735
 4534SOL    HW213947   2.474   1.069   0.703
 4535SOL     OW13948   2.548   1.161   1.803
 4535SOL    HW113949   2.608   1.240   1.817
 4535SOL    HW213950   2.462   1.192   1.762
 4536SOL     OW13951   2.197   1.435   1.061
 4536SOL    HW113952   2.119   1.404   1.008
 4536SOL    HW213953   2.255   1.493   1.004
 4537SOL     OW13954   3.322   1.505   1.339
 4537SOL    HW113955   3.346   1.599   1.365
 4537SOL    HW213956   3.306   1.451   1.421
 4538SOL     OW13957   2.300   0.392   1.499
 4538SOL    HW113958   2.382   0.336   1.508
 4538SOL    HW213959   2.219   0.334   1.503
 4539SOL     OW13960   3.465   0.447   0.737
 4539SOL    HW113961   3.391   0.493   0.687
 4539SOL    HW213962   3.516   0.515   0.790
 4540SOL     OW13963   2.093   1.713   0.483
 4540SOL    HW113964   2.127   1.790   0.537
 4540SOL    HW213965   2.137   1.713   0.393
 4541SOL     OW13966   2.989   1.341   1.690
 4541SOL    HW113967   3.036   1.341   1.778
 4541SOL    HW213968   2.941   1.254   1.679
 4542SOL     OW13969   2.092   1.434   0.538
 4542SOL    HW113970   2.066   1.530   0.538
 4542SOL    HW213971   2.021   1.380   0.583
 4543SOL     OW13972   2.102   1.091   0.886
 4543SOL    HW113973   2.116   1.007   0.938
 4543SOL    HW213974   2.047   1.155   0.941
 4544SOL     OW13975   2.482   1.786   1.439
 4544SOL    HW113976   2.390   1.769   1.474
 4544SOL    HW213977   2.510   1.878   1.465
 4545SOL     OW13978   2.468   0.964   0.123
 4545SOL    HW113979   2.475   1.048   0.069
 4545SOL    HW213980   2.514   0.977   0.211
 4546SOL     OW13981   3.456   0.114   1.480
 4546SOL    HW113982   3.438   0.181   1.408
 4546SOL    HW213983   3.453   0.160   1.569
 4547SOL     OW13984   1.984   0.643   0.563
 4547SOL    HW113985   1.939   0.555   0.580
 4547SOL    HW213986   1.983   0.697   0.647
 4548SOL     OW13987   3.704   1.767   0.359
 4548SOL    HW113988   3.758   1.738   0.439
 4548SOL    HW213989   3.734   1.857   0.330
 4549SOL     OW13990   1.889   1.596   0.117
 4549SOL    HW113991   1.870   1.500   0.138
 4549SOL    HW213992   1.856   1.654   0.192
 4550SOL     OW13993   3.551   0.922   0.612
 4550SOL    HW113994   3.646   0.893   0.620
 4550SOL    HW213995   3.543   0.987   0.537
 4551SOL     OW13996   1.975   0.737   1.597
 4551SOL    HW113997   2.063   0.724   1.642
 4551SOL    HW213998   1.962   0.834   1.575
 4552SOL     OW13999   2.475   1.365   0.726
 4552SOL    HW114000   2.426   1.278   0.735
 4552SOL    HW214001   2.452   1.408   0.639
 4553SOL     OW14002   3.155   1.228   1.423
 4553SOL    HW114003   3.192   1.155   1.365
 4553SOL    HW214004   3.207   1.233   1.508
 4554SOL     OW14005   2.671   0.004   0.502
 4554SOL    HW114006   2.711   0.095   0.493
 4554SOL    HW214007   2.571   0.012   0.508
 4555SOL     OW14008   2.059   0.976   1.264
 4555SOL    HW114009   2.148   0.931   1.250
 4555SOL    HW214010   1.986   0.911   1.245
 4556SOL     OW14011   3.049   1.792   1.616
 4556SOL    HW114012   3.073   1.852   1.540
 4556SOL    HW214013   3.056   1.697   1.586
 4557SOL     OW14014   2.179   0.251   1.801
 4557SOL    HW114015   2.250   0.322   1.807
 4557SOL    HW214016   2.091   0.290   1.829
 4558SOL     OW14017   3.328   1.417   0.953
 4558SOL    HW114018   3.269   1.423   1.033
 4558SOL    HW214019   3.313   1.329   0.907
 4559SOL     OW14020   3.529   1.714   0.572
 4559SOL    HW114021   3.488   1.691   0.484
 4559SOL    HW214022   3.511   1.640   0.637
 4560SOL     OW14023   2.460   0.729   0.270
 4560SOL    HW114024   2.484   0.798   0.202
 4560SOL    HW214025   2.382   0.762   0.324
 4561SOL     OW14026   3.143   0.345   0.944
 4561SOL    HW114027   3.057   0.295   0.931
 4561SOL    HW214028   3.205   0.291   1.000
 4562SOL     OW14029   2.669   0.605   1.465
 4562SOL    HW114030   2.622   0.602   1.554
 4562SOL    HW214031   2.618   0.550   1.399
 4563SOL     OW14032   3.256   0.469   1.674
 4563SOL    HW114033   3.236   0.512   1.762
 4563SOL    HW214034   3.334   0.407   1.683
 4564SOL     OW14035   2.835   0.890   1.572
 4564SOL    HW114036   2.881   0.806   1.543
 4564SOL    HW214037   2.779   0.924   1.497
 4565SOL     OW14038   2.853   0.410   1.242
 4565SOL    HW114039   2.776   0.444   1.296
 4565SOL    HW214040   2.819   0.359   1.163
 4566SOL     OW14041   2.903   0.701   0.429
 4566SOL    HW114042   2.929   0.697   0.525
 4566SOL    HW214043   2.818   0.650   0.415
 4567SOL     OW14044   1.938   0.811   0.789
 4567SOL    HW114045   2.037   0.799   0.798
 4567SOL    HW214046   1.914   0.906   0.810
 4568SOL     OW14047   1.992   1.821   1.571
 4568SOL    HW114048   1.982   1.806   1.670
 4568SOL    HW214049   1.906   1.857   1.535
 4569SOL     OW14050   2.727   0.348   0.195
 4569SOL    HW114051   2.786   0.411   0.146
 4569SOL    HW214052   2.746   0.254   0.166
 4570SOL     OW14053   3.581   0.585   1.831
 4570SOL    HW114054   3.555   0.674   1.795
 4570SOL    HW214055   3.579   0.517   1.758
 4571SOL     OW14056   3.224   1.144   0.545
 4571SOL    HW114057   3.307   1.115   0.497
 4571SOL    HW214058   3.175   1.211   0.489
 4572SOL     OW14059   2.412   0.196   0.885
 4572SOL    HW114060   2.407   0.191   0.985
 4572SOL    HW214061   2.414   0.292   0.856
 4573SOL     OW14062   2.870   1.456   0.477
 4573SOL    HW114063   2.824   1.528   0.425
 4573SOL    HW214064   2.866   1.476   0.575
 4574SOL     OW14065   2.213   1.801   0.853
 4574SOL    HW114066   2.263   1.715   0.859
 4574SOL    HW214067   2.278   1.878   0.850
 4575SOL     OW14068   3.657   1.066   0.873
 4575SOL    HW114069   3.595   1.051   0.797
 4575SOL    HW214070   3.605   1.077   0.958
 4576SOL     OW14071   3.089   1.550   1.506
 4576SOL    HW114072   3.095   1.473   1.570
 4576SOL    HW214073   3.037   1.524   1.426
 4577SOL     OW14074   2.183   0.943   0.242
 4577SOL    HW114075   2.265   0.982   0.200
 4577SOL    HW214076   2.156   0.861   0.193
 4578SOL     OW14077   3.320   0.735   0.728
 4578SOL    HW114078   3.315   0.670   0.803
 4578SOL    HW214079   3.400   0.794   0.741
 4579SOL     OW14080   2.323   1.266   1.727
 4579SOL    HW114081   2.273   1.267   1.641
 4579SOL    HW214082   2.260   1.248   1.803
 4580SOL     OW14083   2.973   1.776   0.237
 4580SOL    HW114084   2.913   1.714   0.287
 4580SOL    HW214085   3.004   1.732   0.152
 4581SOL     OW14086   2.064   0.285   1.498
 4581SOL    HW114087   1.984   0.345   1.485
 4581SOL    HW214088   2.054   0.236   1.584
 4582SOL     OW14089   2.326   1.743   0.323
 4582SOL    HW114090   2.359   1.782   0.409
 4582SOL    HW214091   2.402   1.736   0.258
 4583SOL     OW14092   3.262   0.107   0.426
 4583SOL    HW114093   3.238   0.070   0.336
 4583SOL    HW214094   3.361   0.123   0.430
 4584SOL     OW14095   2.111   1.785   1.241
 4584SOL    HW114096   2.168   1.720   1.291
 4584SOL    HW214097   2.095   1.752   1.148
 4585SOL     OW14098   2.802   1.698   0.904
 4585SOL    HW114099   2.882   1.641   0.925
 4585SOL    HW214100   2.753   1.658   0.827
 4586SOL     OW14101   2.244   0.700   0.480
 4586SOL    HW114102   2.289   0.610   0.477
 4586SOL    HW214103   2.150   0.689   0.513
 4587SOL     OW14104   3.409   0.222   1.729
 4587SOL    HW114105   3.404   0.259   1.821
 4587SOL    HW214106   3.337   0.153   1.717
 4588SOL     OW14107   2.476   0.122   0.117
 4588SOL    HW114108   2.574   0.100   0.124
 4588SOL    HW214109   2.445   0.105   0.024
 4589SOL     OW14110   2.643   0.264   1.749
 4589SOL    HW114111   2.710   0.203   1.792
 4589SOL    HW214112   2.570   0.283   1.814
 4590SOL     OW14113   2.750   1.514   1.195
 4590SOL    HW114114   2.727   1.489   1.101
 4590SOL    HW214115   2.811   1.445   1.234
 4591SOL     OW14116   3.213   0.590   1.433
 4591SOL    HW114117   3.241   0.547   1.518
 4591SOL    HW214118   3.238   0.686   1.434
 4592SOL     OW14119   2.665   1.402   0.924
 4592SOL    HW114120   2.755   1.416   0.882
 4592SOL    HW214121   2.594   1.404   0.853
 4593SOL     OW14122   2.784   0.503   0.899
 4593SOL    HW114123   2.759   0.494   0.803
 4593SOL    HW214124   2.832   0.421   0.930
 4594SOL     OW14125   2.401   0.064   0.512
 4594SOL    HW114126   2.320   0.065   0.570
 4594SOL    HW214127   2.404   0.147   0.457
 4595SOL     OW14128   2.159   0.035   0.171
 4595SOL    HW114129   2.208   0.119   0.150
 4595SOL    HW214130   2.221  -0.030   0.216
 4596SOL     OW14131   2.797   0.236   0.480
 4596SOL    HW114132   2.749   0.277   0.402
 4596SOL    HW214133   2.896   0.234   0.461
 4597SOL     OW14134   2.938   0.683   1.464
 4597SOL    HW114135   2.858   0.622   1.467
 4597SOL    HW214136   3.019   0.630   1.440
 4598SOL     OW14137   3.089   1.570   0.793
 4598SOL    HW114138   3.110   1.644   0.728
 4598SOL    HW214139   3.157   1.570   0.866
 4599SOL     OW14140   2.321   1.152   0.741
 4599SOL    HW114141   2.250   1.125   0.806
 4599SOL    HW214142   2.295   1.124   0.648
 4600SOL     OW14143   3.133   1.797   0.591
 4600SOL    HW114144   3.177   1.861   0.527
 4600SOL    HW214145   3.083   1.849   0.661
 4601SOL     OW14146   2.894   0.549   0.016
 4601SOL    HW114147   2.853   0.631  -0.023
 4601SOL    HW214148   2.958   0.575   0.089
 4602SOL     OW14149   1.940   0.556   1.386
 4602SOL    HW114150   2.032   0.555   1.345
 4602SOL    HW214151   1.934   0.630   1.453
 4603SOL     OW14152   2.423   0.222   1.147
 4603SOL    HW114153   2.461   0.138   1.184
 4603SOL    HW214154   2.335   0.241   1.191
 4604SOL     OW14155   2.728   0.454   0.642
 4604SOL    HW114156   2.696   0.526   0.580
 4604SOL    HW214157   2.752   0.373   0.589
 4605SOL     OW14158   2.879   0.039   0.753
 4605SOL    HW114159   2.807   0.044   0.684
 4605SOL    HW214160   2.855  -0.030   0.822
 4606SOL     OW14161   3.291   1.173   0.867
 4606SOL    HW114162   3.236   1.089   0.860
 4606SOL    HW214163   3.317   1.202   0.775
 4607SOL     OW14164   3.328   0.590   0.992
 4607SOL    HW114165   3.298   0.495   0.999
 4607SOL    HW214166   3.401   0.606   1.058
 4608SOL     OW14167   2.350   1.385   0.174
 4608SOL    HW114168   2.263   1.370   0.221
 4608SOL    HW214169   2.333   1.411   0.079
 4609SOL     OW14170   3.526   1.280   0.657
 4609SOL    HW114171   3.625   1.288   0.671
 4609SOL    HW214172   3.481   1.364   0.688
 4610SOL     OW14173   2.389   0.256   0.328
 4610SOL    HW114174   2.416   0.197   0.253
 4610SOL    HW214175   2.389   0.351   0.297
 4611SOL     OW14176   3.616   1.223   1.588
 4611SOL    HW114177   3.707   1.184   1.575
 4611SOL    HW214178   3.624   1.319   1.612
 4612SOL     OW14179   2.926   1.347   1.340
 4612SOL    HW114180   2.846   1.324   1.395
 4612SOL    HW214181   3.009   1.321   1.389
 4613SOL     OW14182   3.454   1.629   1.625
 4613SOL    HW114183   3.481   1.663   1.535
 4613SOL    HW214184   3.533   1.591   1.671
 4614SOL     OW14185   2.973   1.195   1.100
 4614SOL    HW114186   2.933   1.239   1.181
 4614SOL    HW214187   2.932   1.232   1.017
 4615SOL     OW14188   3.500   1.099   1.079
 4615SOL    HW114189   3.505   1.180   1.138
 4615SOL    HW214190   3.414   1.101   1.028
 4616SOL     OW14191   2.777   0.089   1.402
 4616SOL    HW114192   2.802   0.069   1.307
 4616SOL    HW214193   2.849   0.145   1.444
 4617SOL     OW14194   2.842   1.116   1.719
 4617SOL    HW114195   2.743   1.122   1.729
 4617SOL    HW214196   2.865   1.036   1.663
 4618SOL     OW14197   2.567   1.050   0.368
 4618SOL    HW114198   2.553   1.057   0.467
 4618SOL    HW214199   2.651   0.999   0.350
 4619SOL     OW14200   2.272   0.813   1.251
 4619SOL    HW114201   2.358   0.825   1.301
 4619SOL    HW214202   2.230   0.726   1.278
 4620SOL     OW14203   3.136   0.386   1.262
 4620SOL    HW114204   3.157   0.460   1.326
 4620SOL    HW214205   3.047   0.403   1.219
 4621SOL     OW14206   1.926   1.564   1.331
 4621SOL    HW114207   1.880   1.646   1.297
 4621SOL    HW214208   2.024   1.583   1.340
 4622SOL     OW14209   2.229   1.100   0.501
 4622SOL    HW114210   2.222   1.183   0.445
 4622SOL    HW214211   2.233   1.020   0.441
 4623SOL     OW14212   2.428   0.537   0.865
 4623SOL    HW114213   2.440   0.603   0.791
 4623SOL    HW214214   2.474   0.571   0.948
 4624SOL     OW14215   3.114   1.348   0.388
 4624SOL    HW114216   3.164   1.425   0.428
 4624SOL    HW214217   3.019   1.350   0.420
 4625SOL     OW14218   3.134   1.445   1.142
 4625SOL    HW114219   3.181   1.458   1.229
 4625SOL    HW214220   3.068   1.371   1.151
 4626SOL     OW14221   3.444   0.639   0.472
 4626SOL    HW114222   3.413   0.700   0.545
 4626SOL    HW214223   3.494   0.691   0.403
 4627SOL     OW14224   2.216   1.510   1.329
 4627SOL    HW114225   2.195   1.466   1.242
 4627SOL    HW214226   2.313   1.536   1.332
 4628SOL     OW14227   2.264   0.751   1.598
 4628SOL    HW114228   2.332   0.806   1.551
 4628SOL    HW214229   2.304   0.663   1.625
 4629SOL     OW14230   3.449   0.779   1.670
 4629SOL    HW114231   3.357   0.817   1.665
 4629SOL    HW214232   3.509   0.826   1.605
 4630SOL     OW14233   2.875   0.105   1.770
 4630SOL    HW114234   2.881   0.190   1.718
 4630SOL    HW214235   2.907   0.029   1.713
 4631SOL     OW14236   2.366   0.050   1.740
 4631SOL    HW114237   2.324  -0.007   1.670
 4631SOL    HW214238   2.300   0.119   1.772
 4632SOL     OW14239   2.435   0.870   1.029
 4632SOL    HW114240   2.479   0.959   1.020
 4632SOL    HW214241   2.372   0.870   1.106
 4633SOL     OW14242   3.222   0.862   1.045
 4633SOL    HW114243   3.147   0.862   0.979
 4633SOL    HW214244   3.259   0.770   1.054
 4634SOL     OW14245   3.071   0.525   0.275
 4634SOL    HW114246   3.084   0.441   0.329
 4634SOL    HW214247   3.042   0.599   0.335
 4635SOL     OW14248   2.169   0.213   1.231
 4635SOL    HW114249   2.146   0.250   1.321
 4635SOL    HW214250   2.139   0.118   1.225
 4636SOL     OW14251   1.899   1.310   1.282
 4636SOL    HW114252   1.952   1.261   1.350
 4636SOL    HW214253   1.921   1.408   1.287
 4637SOL     OW14254   2.594   0.634   1.064
 4637SOL    HW114255   2.653   0.608   0.988
 4637SOL    HW214256   2.566   0.730   1.053
 4638SOL     OW14257   3.590   0.935   1.854
 4638SOL    HW114258   3.544   0.928   1.765
 4638SOL    HW214259   3.528   0.979   1.920
 4639SOL     OW14260   2.169   0.063   0.618
 4639SOL    HW114261   2.158   0.157   0.651
 4639SOL    HW214262   2.164   0.000   0.695
 4640SOL     OW14263   2.885   0.766   0.966
 4640SOL    HW114264   2.900   0.787   1.062
 4640SOL    HW214265   2.855   0.671   0.957
 4641SOL     OW14266   2.842   1.573   1.700
 4641SOL    HW114267   2.822   1.617   1.612
 4641SOL    HW214268   2.881   1.482   1.684
 4642SOL     OW14269   3.721   1.518   1.605
 4642SOL    HW114270   3.735   1.545   1.510
 4642SOL    HW214271   3.804   1.540   1.658
 4643SOL     OW14272   2.212   0.898   1.804
 4643SOL    HW114273   2.288   0.942   1.852
 4643SOL    HW214274   2.247   0.851   1.722
 4644SOL     OW14275   2.930   1.333   0.849
 4644SOL    HW114276   2.937   1.249   0.794
 4644SOL    HW214277   2.992   1.402   0.813
 4645SOL     OW14278   2.181   0.810   0.949
 4645SOL    HW114279   2.274   0.846   0.954
 4645SOL    HW214280   2.175   0.725   1.001
 4646SOL     OW14281   2.201   0.509   1.006
 4646SOL    HW114282   2.149   0.426   0.989
 4646SOL    HW214283   2.278   0.514   0.942
 4647SOL     OW14284   3.000   0.380   1.678
 4647SOL    HW114285   2.955   0.443   1.742
 4647SOL    HW214286   3.093   0.411   1.661
 4648SOL     OW14287   3.022   0.207   1.477
 4648SOL    HW114288   3.022   0.271   1.554
 4648SOL    HW214289   3.050   0.255   1.394
 4649SOL     OW14290   1.870   1.326   0.200
 4649SOL    HW114291   1.777   1.347   0.169
 4649SOL    HW214292   1.880   1.227   0.213
 4650SOL     OW14293   1.950   1.801   0.927
 4650SOL    HW114294   1.908   1.715   0.900
 4650SOL    HW214295   2.044   1.804   0.893
 4651SOL     OW14296   2.366   1.568   0.910
 4651SOL    HW114297   2.432   1.642   0.919
 4651SOL    HW214298   2.410   1.489   0.868
 4652SOL     OW14299   2.864   0.796   1.238
 4652SOL    HW114300   2.905   0.764   1.324
 4652SOL    HW214301   2.768   0.769   1.235
 4653SOL     OW14302   1.902   0.544   1.114
 4653SOL    HW114303   1.987   0.511   1.073
 4653SOL    HW214304   1.915   0.559   1.212
 4654SOL     OW14305   2.051   0.520   1.722
 4654SOL    HW114306   2.110   0.480   1.652
 4654SOL    HW214307   1.993   0.591   1.681
 4655SOL     OW14308   3.231   0.950   1.660
 4655SOL    HW114309   3.270   1.039   1.680
 4655SOL    HW214310   3.241   0.930   1.563
 4656SOL     OW14311   2.677   0.572   0.325
 4656SOL    HW114312   2.684   0.483   0.279
 4656SOL    HW214313   2.583   0.606   0.317
 4657SOL     OW14314   3.519   0.604   1.206
 4657SOL    HW114315   3.481   0.535   1.268
 4657SOL    HW214316   3.601   0.568   1.162
 4658SOL     OW14317   2.114   1.564   1.744
 4658SOL    HW114318   2.084   1.621   1.820
 4658SOL    HW214319   2.107   1.467   1.770
 4659SOL     OW14320   2.533   0.464   1.269
 4659SOL    HW114321   2.499   0.375   1.239
 4659SOL    HW214322   2.559   0.518   1.189
 4660SOL     OW14323   2.792   1.678   1.465
 4660SOL    HW114324   2.768   1.660   1.370
 4660SOL    HW214325   2.822   1.772   1.475
 4661SOL     OW14326   2.335   0.500   0.191
 4661SOL    HW114327   2.396   0.580   0.195
 4661SOL    HW214328   2.240   0.531   0.198
 4662SOL     OW14329   2.021   1.137   1.466
 4662SOL    HW114330   2.043   1.076   1.542
 4662SOL    HW214331   2.031   1.088   1.380
 4663SOL     OW14332   3.209   1.059   1.234
 4663SOL    HW114333   3.233   0.996   1.160
 4663SOL    HW214334   3.119   1.099   1.216
 4664SOL     OW14335   3.164   0.855   0.309
 4664SOL    HW114336   3.078   0.824   0.351
 4664SOL    HW214337   3.160   0.841   0.210
 4665SOL     OW14338   3.621   1.747   1.154
 4665SOL    HW114339   3.682   1.777   1.081
 4665SOL    HW214340   3.583   1.658   1.132
 4666SOL     OW14341   3.114   1.731   1.128
 4666SOL    HW114342   3.198   1.736   1.074
 4666SOL    HW214343   3.091   1.635   1.146
 4667SOL     OW14344   1.945   1.258   1.022
 4667SOL    HW114345   1.940   1.257   1.122
 4667SOL    HW214346   1.862   1.217   0.984
 4668SOL     OW14347   2.550   1.662   1.716
 4668SOL    HW114348   2.494   1.743   1.725
 4668SOL    HW214349   2.602   1.666   1.630
 4669SOL     OW14350   2.765   0.086   0.133
 4669SOL    HW114351   2.816   0.087   0.047
 4669SOL    HW214352   2.821   0.044   0.204
 4670SOL     OW14353   3.588   0.135   0.523
 4670SOL    HW114354   3.661   0.118   0.456
 4670SOL    HW214355   3.557   0.048   0.561
 4671SOL     OW14356   3.250   1.573   0.477
 4671SOL    HW114357   3.317   1.585   0.403
 4671SOL    HW214358   3.210   1.662   0.500
 4672SOL     OW14359   1.992   1.794   1.851
 4672SOL    HW114360   1.951   1.720   1.904
 4672SOL    HW214361   2.056   1.845   1.909
 4673SOL     OW14362   3.142   0.927   0.672
 4673SOL    HW114363   3.202   0.846   0.674
 4673SOL    HW214364   3.182   0.996   0.612
 4674SOL     OW14365   2.692   1.273   1.422
 4674SOL    HW114366   2.687   1.306   1.517
 4674SOL    HW214367   2.606   1.292   1.376
 4675SOL     OW14368   2.534   1.616   0.154
 4675SOL    HW114369   2.543   1.626   0.055
 4675SOL    HW214370   2.494   1.527   0.175
 4676SOL     OW14371   3.512   1.720   1.394
 4676SOL    HW114372   3.565   1.730   1.310
 4676SOL    HW214373   3.485   1.810   1.428
 4677SOL     OW14374   3.703   0.175   0.963
 4677SOL    HW114375   3.742   0.090   0.927
 4677SOL    HW214376   3.605   0.177   0.944
 4678SOL     OW14377   2.125   0.326   0.720
 4678SOL    HW114378   2.046   0.377   0.686
 4678SOL    HW214379   2.116   0.311   0.818
 4679SOL     OW14380   3.056   1.612   0.031
 4679SOL    HW114381   3.062   1.519   0.068
 4679SOL    HW214382   2.997   1.612  -0.049
 4680SOL     OW14383   2.684   1.002   1.372
 4680SOL    HW114384   2.724   1.001   1.280
 4680SOL    HW214385   2.694   1.094   1.412
 4681SOL     OW14386   2.778   0.910   0.291
 4681SOL    HW114387   2.841   0.948   0.223
 4681SOL    HW214388   2.818   0.827   0.330
 4682SOL     OW14389   2.234   1.288   1.490
 4682SOL    HW114390   2.221   1.381   1.456
 4682SOL    HW214391   2.150   1.236   1.477
 4683SOL     OW14392   3.476   1.292   1.289
 4683SOL    HW114393   3.536   1.295   1.369
 4683SOL    HW214394   3.401   1.356   1.302
 4684SOL     OW14395   2.901   1.098   0.696
 4684SOL    HW114396   2.831   1.051   0.750
 4684SOL    HW214397   2.960   1.030   0.653
 4685SOL     OW14398   2.876   0.236   0.971
 4685SOL    HW114399   2.868   0.200   0.878
 4685SOL    HW214400   2.874   0.160   1.036
 4686SOL     OW14401   2.452   1.487   0.491
 4686SOL    HW114402   2.494   1.429   0.421
 4686SOL    HW214403   2.408   1.566   0.447
 4687SOL     OW14404   3.571   0.385   1.381
 4687SOL    HW114405   3.644   0.454   1.385
 4687SOL    HW214406   3.599   0.310   1.322
 4688SOL     OW14407   2.117   1.348   0.290
 4688SOL    HW114408   2.021   1.349   0.263
 4688SOL    HW214409   2.129   1.401   0.374
 4689SOL     OW14410   1.967   1.013   1.726
 4689SOL    HW114411   1.890   0.980   1.780
 4689SOL    HW214412   2.052   0.983   1.768
 4690SOL     OW14413   2.534   0.203   1.489
 4690SOL    HW114414   2.624   0.187   1.449
 4690SOL    HW214415   2.542   0.208   1.588
 4691SOL     OW14416   1.937   0.345   0.033
 4691SOL    HW114417   1.845   0.317   0.004
 4691SOL    HW214418   1.968   0.422  -0.023
 4692SOL     OW14419   3.302   0.856   1.398
 4692SOL    HW114420   3.245   0.908   1.335
 4692SOL    HW214421   3.398   0.868   1.374
 4693SOL     OW14422   1.934   0.166   0.318
 4693SOL    HW114423   1.917   0.249   0.264
 4693SOL    HW214424   2.024   0.129   0.296
 4694SOL     OW14425   3.045   1.335   0.119
 4694SOL    HW114426   2.946   1.324   0.121
 4694SOL    HW214427   3.079   1.350   0.212
 4695SOL     OW14428   2.475   0.842   1.431
 4695SOL    HW114429   2.531   0.923   1.414
 4695SOL    HW214430   2.534   0.762   1.434
 4696SOL     OW14431   3.355   1.767   0.959
 4696SOL    HW114432   3.388   1.831   0.890
 4696SOL    HW214433   3.421   1.761   1.034
 4697SOL     OW14434   2.578   0.565   1.708
 4697SOL    HW114435   2.597   0.630   1.782
 4697SOL    HW214436   2.638   0.485   1.717
 4698SOL     OW14437   3.312   1.220   1.633
 4698SOL    HW114438   3.303   1.210   1.732
 4698SOL    HW214439   3.408   1.213   1.607
 4699SOL     OW14440   2.252   1.741   1.560
 4699SOL    HW114441   2.161   1.782   1.558
 4699SOL    HW214442   2.245   1.647   1.592
 4700SOL     OW14443   3.536   0.883   1.254
 4700SOL    HW114444   3.509   0.794   1.217
 4700SOL    HW214445   3.537   0.951   1.181
 4701SOL     OW14446   3.087   0.325   0.449
 4701SOL    HW114447   3.152   0.251   0.438
 4701SOL    HW214448   3.107   0.375   0.533
 4702SOL     OW14449   2.456   0.745   0.652
 4702SOL    HW114450   2.506   0.830   0.633
 4702SOL    HW214451   2.368   0.747   0.604
 4703SOL     OW14452   3.639   0.342   1.642
 4703SOL    HW114453   3.622   0.373   1.548
 4703SOL    HW214454   3.555   0.305   1.680
 4704SOL     OW14455   3.592   0.934   1.517
 4704SOL    HW114456   3.630   1.025   1.532
 4704SOL    HW214457   3.584   0.917   1.418
 4705SOL     OW14458   2.721   1.374   0.016
 4705SOL    HW114459   2.675   1.389   0.104
 4705SOL    HW214460   2.765   1.459  -0.014
 4706SOL     OW14461   2.523   1.790   0.953
 4706SOL    HW114462   2.477   1.878   0.940
 4706SOL    HW214463   2.622   1.802   0.946
 4707SOL     OW14464   2.721   0.956   0.861
 4707SOL    HW114465   2.775   0.887   0.909
 4707SOL    HW214466   2.689   1.025   0.927
 4708SOL     OW14467   2.945   0.984   0.087
 4708SOL    HW114468   2.922   1.037   0.005
 4708SOL    HW214469   3.026   0.928   0.068
 4709SOL     OW14470   3.723   1.569   0.851
 4709SOL    HW114471   3.652   1.557   0.781
 4709SOL    HW214472   3.724   1.490   0.911
 4710SOL     OW14473   2.083   1.314   1.844
 4710SOL    HW114474   2.018   1.241   1.823
 4710SOL    HW214475   2.087   1.328   1.942
 4711SOL     OW14476   1.941   1.240   0.653
 4711SOL    HW114477   1.940   1.193   0.741
 4711SOL    HW214478   2.023   1.212   0.602
 4712SOL     OW14479   2.534   1.391   1.624
 4712SOL    HW114480   2.456   1.341   1.662
 4712SOL    HW214481   2.531   1.486   1.655
 4713SOL     OW14482   3.686   0.192   1.227
 4713SOL    HW114483   3.682   0.102   1.271
 4713SOL    HW214484   3.689   0.181   1.128
 4714SOL     OW14485   2.290   0.424   0.520
 4714SOL    HW114486   2.320   0.352   0.458
 4714SOL    HW214487   2.251   0.384   0.603
 4715SOL     OW14488   3.567   1.487   1.104
 4715SOL    HW114489   3.474   1.462   1.077
 4715SOL    HW214490   3.593   1.437   1.186
 4716SOL     OW14491   2.179   0.547   1.280
 4716SOL    HW114492   2.217   0.488   1.352
 4716SOL    HW214493   2.219   0.521   1.192
 4717SOL     OW14494   2.674   1.586   0.687
 4717SOL    HW114495   2.706   1.596   0.593
 4717SOL    HW214496   2.595   1.524   0.689
 4718SOL     OW14497   3.286   0.214   1.112
 4718SOL    HW114498   3.338   0.149   1.167
 4718SOL    HW214499   3.237   0.277   1.173
 4719SOL     OW14500   2.863   0.034   1.154
 4719SOL    HW114501   2.800  -0.038   1.123
 4719SOL    HW214502   2.956  -0.002   1.154
 4720SOL     OW14503   2.632   1.330   0.301
 4720SOL    HW114504   2.586   1.243   0.318
 4720SOL    HW214505   2.723   1.327   0.342
 4721SOL     OW14506   2.480   1.567   1.284
 4721SOL    HW114507   2.475   1.649   1.341
 4721SOL    HW214508   2.569   1.564   1.239
 4722SOL     OW14509   3.214   0.052   0.168
 4722SOL    HW114510   3.249   0.011   0.084
 4722SOL    HW214511   3.124   0.014   0.188
 4723SOL     OW14512   3.162   0.453   0.691
 4723SOL    HW114513   3.103   0.533   0.695
 4723SOL    HW214514   3.177   0.418   0.784
 4724SOL     OW14515   3.455   0.221   0.882
 4724SOL    HW114516   3.371   0.220   0.936
 4724SOL    HW214517   3.457   0.304   0.826
 4725SOL     OW14518   1.901   1.077   0.300
 4725SOL    HW114519   2.000   1.066   0.291
 4725SOL    HW214520   1.861   0.991   0.332
 4726SOL     OW14521   2.737   1.646   0.337
 4726SOL    HW114522   2.660   1.611   0.283
 4726SOL    HW214523   2.705   1.717   0.399
 4727SOL     OW14524   2.092   0.628   1.975
 4727SOL    HW114525   1.999   0.626   2.012
 4727SOL    HW214526   2.093   0.589   1.883
 4728SOL     OW14527   2.087   0.275   2.858
 4728SOL    HW114528   2.122   0.258   2.950
 4728SOL    HW214529   1.999   0.230   2.846
 4729SOL     OW14530   1.881   0.368   2.509
 4729SOL    HW114531   1.799   0.411   2.548
 4729SOL    HW214532   1.853   0.295   2.446
 4730SOL     OW14533   2.431   1.275   3.027
 4730SOL    HW114534   2.338   1.268   2.990
 4730SOL    HW214535   2.442   1.364   3.071
 4731SOL     OW14536   3.417   1.511   2.565
 4731SOL    HW114537   3.360   1.495   2.646
 4731SOL    HW214538   3.358   1.521   2.485
 4732SOL     OW14539   2.997   0.703   2.579
 4732SOL    HW114540   3.054   0.781   2.554
 4732SOL    HW214541   2.937   0.729   2.655
 4733SOL     OW14542   3.617   0.607   2.093
 4733SOL    HW114543   3.605   0.594   1.994
 4733SOL    HW214544   3.587   0.526   2.142
 4734SOL     OW14545   2.630   1.144   2.885
 4734SOL    HW114546   2.552   1.161   2.945
 4734SOL    HW214547   2.664   1.231   2.849
 4735SOL     OW14548   2.712   0.798   3.685
 4735SOL    HW114549   2.708   0.874   3.750
 4735SOL    HW214550   2.734   0.834   3.594
 4736SOL     OW14551   2.547   1.012   2.527
 4736SOL    HW114552   2.616   0.996   2.597
 4736SOL    HW214553   2.474   1.069   2.565
 4737SOL     OW14554   2.548   1.161   3.665
 4737SOL    HW114555   2.608   1.240   3.679
 4737SOL    HW214556   2.462   1.192   3.624
 4738SOL     OW14557   2.197   1.435   2.923
 4738SOL    HW114558   2.119   1.404   2.870
 4738SOL    HW214559   2.255   1.493   2.866
 4739SOL     OW14560   3.322   1.505   3.201
 4739SOL    HW114561   3.346   1.599   3.227
 4739SOL    HW214562   3.306   1.451   3.283
 4740SOL     OW14563   2.300   0.392   3.361
 4740SOL    HW114564   2.382   0.336   3.370
 4740SOL    HW214565   2.219   0.334   3.365
 4741SOL     OW14566   3.465   0.447   2.599
 4741SOL    HW114567   3.391   0.493   2.549
 4741SOL    HW214568   3.516   0.515   2.652
 4742SOL     OW14569   2.093   1.713   2.345
 4742SOL    HW114570   2.127   1.790   2.399
 4742SOL    HW214571   2.137   1.713   2.255
 4743SOL     OW14572   2.989   1.341   3.552
 4743SOL    HW114573   3.036   1.341   3.640
 4743SOL    HW214574   2.941   1.254   3.541
 4744SOL     OW14575   2.092   1.434   2.400
 4744SOL    HW114576   2.066   1.530   2.400
 4744SOL    HW214577   2.021   1.380   2.445
 4745SOL     OW14578   2.102   1.091   2.748
 4745SOL    HW114579   2.116   1.007   2.800
 4745SOL    HW214580   2.047   1.155   2.803
 4746SOL     OW14581   2.482   1.786   3.301
 4746SOL    HW114582   2.390   1.769   3.336
 4746SOL    HW214583   2.510   1.878   3.327
 4747SOL     OW14584   2.468   0.964   1.985
 4747SOL    HW114585   2.475   1.048   1.931
 4747SOL    HW214586   2.514   0.977   2.073
 4748SOL     OW14587   3.456   0.114   3.342
 4748SOL    HW114588   3.438   0.181   3.270
 4748SOL    HW214589   3.453   0.160   3.431
 4749SOL     OW14590   1.984   0.643   2.425
 4749SOL    HW114591   1.939   0.555   2.442
 4749SOL    HW214592   1.983   0.697   2.509
 4750SOL     OW14593   3.704   1.767   2.221
 4750SOL    HW114594   3.758   1.738   2.301
 4750SOL    HW214595   3.734   1.857   2.192
 4751SOL     OW14596   1.889   1.596   1.979
 4751SOL    HW114597   1.870   1.500   2.000
 4751SOL    HW214598   1.856   1.654   2.054
 4752SOL     OW14599   3.551   0.922   2.474
 4752SOL    HW114600   3.646   0.893   2.482
 4752SOL    HW214601   3.543   0.987   2.399
 4753SOL     OW14602   3.503   1.108   2.294
 4753SOL    HW114603   3.589   1.110   2.242
 4753SOL    HW214604   3.517   1.155   2.382
 4754SOL     OW14605   1.975   0.737   3.459
 4754SOL    HW114606   2.063   0.724   3.504
 4754SOL    HW214607   1.962   0.834   3.437
 4755SOL     OW14608   2.475   1.365   2.588
 4755SOL    HW114609   2.426   1.278   2.597
 4755SOL    HW214610   2.452   1.408   2.501
 4756SOL     OW14611   3.155   1.228   3.285
 4756SOL    HW114612   3.192   1.155   3.227
 4756SOL    HW214613   3.207   1.233   3.370
 4757SOL     OW14614   2.671   0.004   2.364
 4757SOL    HW114615   2.711   0.095   2.355
 4757SOL    HW214616   2.571   0.012   2.370
 4758SOL     OW14617   2.059   0.976   3.126
 4758SOL    HW114618   2.148   0.931   3.112
 4758SOL    HW214619   1.986   0.911   3.107
 4759SOL     OW14620   3.387   0.999   2.052
 4759SOL    HW114621   3.324   0.923   2.065
 4759SOL    HW214622   3.435   1.017   2.138
 4760SOL     OW14623   3.049   1.792   3.478
 4760SOL    HW114624   3.073   1.852   3.402
 4760SOL    HW214625   3.056   1.697   3.448
 4761SOL     OW14626   2.179   0.251   3.663
 4761SOL    HW114627   2.250   0.322   3.669
 4761SOL    HW214628   2.091   0.290   3.691
 4762SOL     OW14629   3.328   1.417   2.815
 4762SOL    HW114630   3.269   1.423   2.895
 4762SOL    HW214631   3.313   1.329   2.769
 4763SOL     OW14632   3.529   1.714   2.434
 4763SOL    HW114633   3.488   1.691   2.346
 4763SOL    HW214634   3.511   1.640   2.499
 4764SOL     OW14635   2.460   0.729   2.132
 4764SOL    HW114636   2.484   0.798   2.064
 4764SOL    HW214637   2.382   0.762   2.186
 4765SOL     OW14638   3.143   0.345   2.806
 4765SOL    HW114639   3.057   0.295   2.793
 4765SOL    HW214640   3.205   0.291   2.862
 4766SOL     OW14641   3.438   1.662   2.169
 4766SOL    HW114642   3.527   1.708   2.172
 4766SOL    HW214643   3.417   1.638   2.074
 4767SOL     OW14644   2.669   0.605   3.327
 4767SOL    HW114645   2.622   0.602   3.416
 4767SOL    HW214646   2.618   0.550   3.261
 4768SOL     OW14647   3.256   0.469   3.536
 4768SOL    HW114648   3.236   0.512   3.624
 4768SOL    HW214649   3.334   0.407   3.545
 4769SOL     OW14650   2.835   0.890   3.434
 4769SOL    HW114651   2.881   0.806   3.405
 4769SOL    HW214652   2.779   0.924   3.359
 4770SOL     OW14653   2.853   0.410   3.104
 4770SOL    HW114654   2.776   0.444   3.158
 4770SOL    HW214655   2.819   0.359   3.025
 4771SOL     OW14656   2.903   0.701   2.291
 4771SOL    HW114657   2.929   0.697   2.387
 4771SOL    HW214658   2.818   0.650   2.277
 4772SOL     OW14659   1.938   0.811   2.651
 4772SOL    HW114660   2.037   0.799   2.660
 4772SOL    HW214661   1.914   0.906   2.672
 4773SOL     OW14662   1.992   1.821   3.433
 4773SOL    HW114663   1.982   1.806   3.532
 4773SOL    HW214664   1.906   1.857   3.397
 4774SOL     OW14665   2.727   0.348   2.057
 4774SOL    HW114666   2.786   0.411   2.008
 4774SOL    HW214667   2.746   0.254   2.028
 4775SOL     OW14668   3.581   0.585   3.693
 4775SOL    HW114669   3.555   0.674   3.657
 4775SOL    HW214670   3.579   0.517   3.620
 4776SOL     OW14671   3.224   1.144   2.407
 4776SOL    HW114672   3.307   1.115   2.359
 4776SOL    HW214673   3.175   1.211   2.351
 4777SOL     OW14674   2.412   0.196   2.747
 4777SOL    HW114675   2.407   0.191   2.847
 4777SOL    HW214676   2.414   0.292   2.718
 4778SOL     OW14677   2.870   1.456   2.339
 4778SOL    HW114678   2.824   1.528   2.287
 4778SOL    HW214679   2.866   1.476   2.437
 4779SOL     OW14680   2.213   1.801   2.715
 4779SOL    HW114681   2.263   1.715   2.721
 4779SOL    HW214682   2.278   1.878   2.712
 4780SOL     OW14683   3.657   1.066   2.735
 4780SOL    HW114684   3.595   1.051   2.659
 4780SOL    HW214685   3.605   1.077   2.820
 4781SOL     OW14686   3.089   1.550   3.368
 4781SOL    HW114687   3.095   1.473   3.432
 4781SOL    HW214688   3.037   1.524   3.288
 4782SOL     OW14689   2.183   0.943   2.104
 4782SOL    HW114690   2.265   0.982   2.062
 4782SOL    HW214691   2.156   0.861   2.055
 4783SOL     OW14692   3.320   0.735   2.590
 4783SOL    HW114693   3.315   0.670   2.665
 4783SOL    HW214694   3.400   0.794   2.603
 4784SOL     OW14695   2.323   1.266   3.589
 4784SOL    HW114696   2.273   1.267   3.503
 4784SOL    HW214697   2.260   1.248   3.665
 4785SOL     OW14698   2.973   1.776   2.099
 4785SOL    HW114699   2.913   1.714   2.149
 4785SOL    HW214700   3.004   1.732   2.014
 4786SOL     OW14701   2.064   0.285   3.360
 4786SOL    HW114702   1.984   0.345   3.347
 4786SOL    HW214703   2.054   0.236   3.446
 4787SOL     OW14704   3.494   1.377   1.943
 4787SOL    HW114705   3.462   1.471   1.933
 4787SOL    HW214706   3.418   1.314   1.931
 4788SOL     OW14707   2.326   1.743   2.185
 4788SOL    HW114708   2.359   1.782   2.271
 4788SOL    HW214709   2.402   1.736   2.120
 4789SOL     OW14710   3.262   0.107   2.288
 4789SOL    HW114711   3.238   0.070   2.198
 4789SOL    HW214712   3.361   0.123   2.292
 4790SOL     OW14713   2.111   1.785   3.103
 4790SOL    HW114714   2.168   1.720   3.153
 4790SOL    HW214715   2.095   1.752   3.010
 4791SOL     OW14716   2.802   1.698   2.766
 4791SOL    HW114717   2.882   1.641   2.787
 4791SOL    HW214718   2.753   1.658   2.689
 4792SOL     OW14719   2.244   0.700   2.342
 4792SOL    HW114720   2.289   0.610   2.339
 4792SOL    HW214721   2.150   0.689   2.375
 4793SOL     OW14722   3.409   0.222   3.591
 4793SOL    HW114723   3.404   0.259   3.683
 4793SOL    HW214724   3.337   0.153   3.579
 4794SOL     OW14725   2.476   0.122   1.979
 4794SOL    HW114726   2.574   0.100   1.986
 4794SOL    HW214727   2.445   0.105   1.886
 4795SOL     OW14728   2.643   0.264   3.611
 4795SOL    HW114729   2.710   0.203   3.654
 4795SOL    HW214730   2.570   0.283   3.676
 4796SOL     OW14731   2.750   1.514   3.057
 4796SOL    HW114732   2.727   1.489   2.963
 4796SOL    HW214733   2.811   1.445   3.096
 4797SOL     OW14734   3.213   0.590   3.295
 4797SOL    HW114735   3.241   0.547   3.380
 4797SOL    HW214736   3.238   0.686   3.296
 4798SOL     OW14737   2.665   1.402   2.786
 4798SOL    HW114738   2.755   1.416   2.744
 4798SOL    HW214739   2.594   1.404   2.715
 4799SOL     OW14740   2.784   0.503   2.761
 4799SOL    HW114741   2.759   0.494   2.665
 4799SOL    HW214742   2.832   0.421   2.792
 4800SOL     OW14743   2.401   0.064   2.374
 4800SOL    HW114744   2.320   0.065   2.432
 4800SOL    HW214745   2.404   0.147   2.319
 4801SOL     OW14746   3.296   1.188   1.903
 4801SOL    HW114747   3.328   1.112   1.960
 4801SOL    HW214748   3.204   1.215   1.933
 4802SOL     OW14749   2.159   0.035   2.033
 4802SOL    HW114750   2.208   0.119   2.012
 4802SOL    HW214751   2.221  -0.030   2.078
 4803SOL     OW14752   2.797   0.236   2.342
 4803SOL    HW114753   2.749   0.277   2.264
 4803SOL    HW214754   2.896   0.234   2.323
 4804SOL     OW14755   2.938   0.683   3.326
 4804SOL    HW114756   2.858   0.622   3.329
 4804SOL    HW214757   3.019   0.630   3.302
 4805SOL     OW14758   3.089   1.570   2.655
 4805SOL    HW114759   3.110   1.644   2.590
 4805SOL    HW214760   3.157   1.570   2.728
 4806SOL     OW14761   2.321   1.152   2.603
 4806SOL    HW114762   2.250   1.125   2.668
 4806SOL    HW214763   2.295   1.124   2.510
 4807SOL     OW14764   3.133   1.797   2.453
 4807SOL    HW114765   3.177   1.861   2.389
 4807SOL    HW214766   3.083   1.849   2.523
 4808SOL     OW14767   2.894   0.549   1.878
 4808SOL    HW114768   2.853   0.631   1.839
 4808SOL    HW214769   2.958   0.575   1.951
 4809SOL     OW14770   1.940   0.556   3.248
 4809SOL    HW114771   2.032   0.555   3.207
 4809SOL    HW214772   1.934   0.630   3.315
 4810SOL     OW14773   2.423   0.222   3.009
 4810SOL    HW114774   2.461   0.138   3.046
 4810SOL    HW214775   2.335   0.241   3.053
 4811SOL     OW14776   2.728   0.454   2.504
 4811SOL    HW114777   2.696   0.526   2.442
 4811SOL    HW214778   2.752   0.373   2.451
 4812SOL     OW14779   2.879   0.039   2.615
 4812SOL    HW114780   2.807   0.044   2.546
 4812SOL    HW214781   2.855  -0.030   2.684
 4813SOL     OW14782   3.291   1.173   2.729
 4813SOL    HW114783   3.236   1.089   2.722
 4813SOL    HW214784   3.317   1.202   2.637
 4814SOL     OW14785   3.328   0.590   2.854
 4814SOL    HW114786   3.298   0.495   2.861
 4814SOL    HW214787   3.401   0.606   2.920
 4815SOL     OW14788   3.719   0.833   2.239
 4815SOL    HW114789   3.761   0.769   2.303
 4815SOL    HW214790   3.681   0.782   2.161
 4816SOL     OW14791   2.350   1.385   2.036
 4816SOL    HW114792   2.263   1.370   2.083
 4816SOL    HW214793   2.333   1.411   1.941
 4817SOL     OW14794   3.526   1.280   2.519
 4817SOL    HW114795   3.625   1.288   2.533
 4817SOL    HW214796   3.481   1.364   2.550
 4818SOL     OW14797   3.252   0.575   1.940
 4818SOL    HW114798   3.198   0.554   2.021
 4818SOL    HW214799   3.343   0.534   1.949
 4819SOL     OW14800   2.389   0.256   2.190
 4819SOL    HW114801   2.416   0.197   2.115
 4819SOL    HW214802   2.389   0.351   2.159
 4820SOL     OW14803   3.616   1.223   3.450
 4820SOL    HW114804   3.707   1.184   3.437
 4820SOL    HW214805   3.624   1.319   3.474
 4821SOL     OW14806   2.926   1.347   3.202
 4821SOL    HW114807   2.846   1.324   3.257
 4821SOL    HW214808   3.009   1.321   3.251
 4822SOL     OW14809   3.454   1.629   3.487
 4822SOL    HW114810   3.481   1.663   3.397
 4822SOL    HW214811   3.533   1.591   3.533
 4823SOL     OW14812   2.973   1.195   2.962
 4823SOL    HW114813   2.933   1.239   3.043
 4823SOL    HW214814   2.932   1.232   2.879
 4824SOL     OW14815   3.500   1.099   2.941
 4824SOL    HW114816   3.505   1.180   3.000
 4824SOL    HW214817   3.414   1.101   2.890
 4825SOL     OW14818   2.777   0.089   3.264
 4825SOL    HW114819   2.802   0.069   3.169
 4825SOL    HW214820   2.849   0.145   3.306
 4826SOL     OW14821   2.842   1.116   3.581
 4826SOL    HW114822   2.743   1.122   3.591
 4826SOL    HW214823   2.865   1.036   3.525
 4827SOL     OW14824   2.567   1.050   2.230
 4827SOL    HW114825   2.553   1.057   2.329
 4827SOL    HW214826   2.651   0.999   2.212
 4828SOL     OW14827   2.272   0.813   3.113
 4828SOL    HW114828   2.358   0.825   3.163
 4828SOL    HW214829   2.230   0.726   3.140
 4829SOL     OW14830   3.136   0.386   3.124
 4829SOL    HW114831   3.157   0.460   3.188
 4829SOL    HW214832   3.047   0.403   3.081
 4830SOL     OW14833   1.926   1.564   3.193
 4830SOL    HW114834   1.880   1.646   3.159
 4830SOL    HW214835   2.024   1.583   3.202
 4831SOL     OW14836   2.229   1.100   2.363
 4831SOL    HW114837   2.222   1.183   2.307
 4831SOL    HW214838   2.233   1.020   2.303
 4832SOL     OW14839   2.428   0.537   2.727
 4832SOL    HW114840   2.440   0.603   2.653
 4832SOL    HW214841   2.474   0.571   2.810
 4833SOL     OW14842   3.114   1.348   2.250
 4833SOL    HW114843   3.164   1.425   2.290
 4833SOL    HW214844   3.019   1.350   2.282
 4834SOL     OW14845   3.134   1.445   3.004
 4834SOL    HW114846   3.181   1.458   3.091
 4834SOL    HW214847   3.068   1.371   3.013
 4835SOL     OW14848   3.444   0.639   2.334
 4835SOL    HW114849   3.413   0.700   2.407
 4835SOL    HW214850   3.494   0.691   2.265
 4836SOL     OW14851   2.216   1.510   3.191
 4836SOL    HW114852   2.195   1.466   3.104
 4836SOL    HW214853   2.313   1.536   3.194
 4837SOL     OW14854   2.264   0.751   3.460
 4837SOL    HW114855   2.332   0.806   3.413
 4837SOL    HW214856   2.304   0.663   3.487
 4838SOL     OW14857   3.449   0.779   3.532
 4838SOL    HW114858   3.357   0.817   3.527
 4838SOL    HW214859   3.509   0.826   3.467
 4839SOL     OW14860   2.875   0.105   3.632
 4839SOL    HW114861   2.881   0.190   3.580
 4839SOL    HW214862   2.907   0.029   3.575
 4840SOL     OW14863   2.366   0.050   3.602
 4840SOL    HW114864   2.324  -0.007   3.532
 4840SOL    HW214865   2.300   0.119   3.634
 4841SOL     OW14866   2.435   0.870   2.891
 4841SOL    HW114867   2.479   0.959   2.882
 4841SOL    HW214868   2.372   0.870   2.968
 4842SOL     OW14869   3.222   0.862   2.907
 4842SOL    HW114870   3.147   0.862   2.841
 4842SOL    HW214871   3.259   0.770   2.916
 4843SOL     OW14872   3.071   0.525   2.137
 4843SOL    HW114873   3.084   0.441   2.191
 4843SOL    HW214874   3.042   0.599   2.197
 4844SOL     OW14875   2.169   0.213   3.093
 4844SOL    HW114876   2.146   0.250   3.183
 4844SOL    HW214877   2.139   0.118   3.087
 4845SOL     OW14878   1.899   1.310   3.144
 4845SOL    HW114879   1.952   1.261   3.212
 4845SOL    HW214880   1.921   1.408   3.149
 4846SOL     OW14881   2.594   0.634   2.926
 4846SOL    HW114882   2.653   0.608   2.850
 4846SOL    HW214883   2.566   0.730   2.915
 4847SOL     OW14884   3.590   0.935   3.716
 4847SOL    HW114885   3.544   0.928   3.627
 4847SOL    HW214886   3.528   0.979   3.782
 4848SOL     OW14887   2.169   0.063   2.480
 4848SOL    HW114888   2.158   0.157   2.513
 4848SOL    HW214889   2.164   0.000   2.557
 4849SOL     OW14890   3.484   0.367   2.236
 4849SOL    HW114891   3.486   0.291   2.300
 4849SOL    HW214892   3.436   0.444   2.276
 4850SOL     OW14893   2.885   0.766   2.828
 4850SOL    HW114894   2.900   0.787   2.924
 4850SOL    HW214895   2.855   0.671   2.819
 4851SOL     OW14896   2.842   1.573   3.562
 4851SOL    HW114897   2.822   1.617   3.474
 4851SOL    HW214898   2.881   1.482   3.546
 4852SOL     OW14899   3.721   1.518   3.467
 4852SOL    HW114900   3.735   1.545   3.372
 4852SOL    HW214901   3.804   1.540   3.520
 4853SOL     OW14902   2.212   0.898   3.666
 4853SOL    HW114903   2.288   0.942   3.714
 4853SOL    HW214904   2.247   0.851   3.584
 4854SOL     OW14905   3.402   0.274   1.987
 4854SOL    HW114906   3.341   0.199   2.010
 4854SOL    HW214907   3.424   0.326   2.070
 4855SOL     OW14908   3.165   0.838   1.904
 4855SOL    HW114909   3.199   0.745   1.919
 4855SOL    HW214910   3.183   0.865   1.809
 4856SOL     OW14911   2.930   1.333   2.711
 4856SOL    HW114912   2.937   1.249   2.656
 4856SOL    HW214913   2.992   1.402   2.675
 4857SOL     OW14914   2.181   0.810   2.811
 4857SOL    HW114915   2.274   0.846   2.816
 4857SOL    HW214916   2.175   0.725   2.863
 4858SOL     OW14917   2.201   0.509   2.868
 4858SOL    HW114918   2.149   0.426   2.851
 4858SOL    HW214919   2.278   0.514   2.804
 4859SOL     OW14920   3.000   0.380   3.540
 4859SOL    HW114921   2.955   0.443   3.604
 4859SOL    HW214922   3.093   0.411   3.523
 4860SOL     OW14923   3.022   0.207   3.339
 4860SOL    HW114924   3.022   0.271   3.416
 4860SOL    HW214925   3.050   0.255   3.256
 4861SOL     OW14926   1.870   1.326   2.062
 4861SOL    HW114927   1.777   1.347   2.031
 4861SOL    HW214928   1.880   1.227   2.075
 4862SOL     OW14929   1.950   1.801   2.789
 4862SOL    HW114930   1.908   1.715   2.762
 4862SOL    HW214931   2.044   1.804   2.755
 4863SOL     OW14932   2.366   1.568   2.772
 4863SOL    HW114933   2.432   1.642   2.781
 4863SOL    HW214934   2.410   1.489   2.730
 4864SOL     OW14935   2.864   0.796   3.100
 4864SOL    HW114936   2.905   0.764   3.186
 4864SOL    HW214937   2.768   0.769   3.097
 4865SOL     OW14938   1.902   0.544   2.976
 4865SOL    HW114939   1.987   0.511   2.935
 4865SOL    HW214940   1.915   0.559   3.074
 4866SOL     OW14941   2.051   0.520   3.584
 4866SOL    HW114942   2.110   0.480   3.514
 4866SOL    HW214943   1.993   0.591   3.543
 4867SOL     OW14944   3.231   0.950   3.522
 4867SOL    HW114945   3.270   1.039   3.542
 4867SOL    HW214946   3.241   0.930   3.425
 4868SOL     OW14947   2.677   0.572   2.187
 4868SOL    HW114948   2.684   0.483   2.141
 4868SOL    HW214949   2.583   0.606   2.179
 4869SOL     OW14950   3.519   0.604   3.068
 4869SOL    HW114951   3.481   0.535   3.130
 4869SOL    HW214952   3.601   0.568   3.024
 4870SOL     OW14953   2.114   1.564   3.606
 4870SOL    HW114954   2.084   1.621   3.682
 4870SOL    HW214955   2.107   1.467   3.632
 4871SOL     OW14956   2.533   0.464   3.131
 4871SOL    HW114957   2.499   0.375   3.101
 4871SOL    HW214958   2.559   0.518   3.051
 4872SOL     OW14959   2.792   1.678   3.327
 4872SOL    HW114960   2.768   1.660   3.232
 4872SOL    HW214961   2.822   1.772   3.337
 4873SOL     OW14962   2.335   0.500   2.053
 4873SOL    HW114963   2.396   0.580   2.057
 4873SOL    HW214964   2.240   0.531   2.060
 4874SOL     OW14965   2.021   1.137   3.328
 4874SOL    HW114966   2.043   1.076   3.404
 4874SOL    HW214967   2.031   1.088   3.242
 4875SOL     OW14968   3.209   1.059   3.096
 4875SOL    HW114969   3.233   0.996   3.022
 4875SOL    HW214970   3.119   1.099   3.078
 4876SOL     OW14971   3.164   0.855   2.171
 4876SOL    HW114972   3.078   0.824   2.213
 4876SOL    HW214973   3.160   0.841   2.072
 4877SOL     OW14974   3.621   1.747   3.016
 4877SOL    HW114975   3.682   1.777   2.943
 4877SOL    HW214976   3.583   1.658   2.994
 4878SOL     OW14977   3.114   1.731   2.990
 4878SOL    HW114978   3.198   1.736   2.936
 4878SOL    HW214979   3.091   1.635   3.008
 4879SOL     OW14980   1.945   1.258   2.884
 4879SOL    HW114981   1.940   1.257   2.984
 4879SOL    HW214982   1.862   1.217   2.846
 4880SOL     OW14983   2.550   1.662   3.578
 4880SOL    HW114984   2.494   1.743   3.587
 4880SOL    HW214985   2.602   1.666   3.492
 4881SOL     OW14986   3.588   0.135   2.385
 4881SOL    HW114987   3.661   0.118   2.318
 4881SOL    HW214988   3.557   0.048   2.423
 4882SOL     OW14989   3.250   1.573   2.339
 4882SOL    HW114990   3.317   1.585   2.265
 4882SOL    HW214991   3.210   1.662   2.362
 4883SOL     OW14992   1.992   1.794   3.713
 4883SOL    HW114993   1.951   1.720   3.766
 4883SOL    HW214994   2.056   1.845   3.771
 4884SOL     OW14995   3.142   0.927   2.534
 4884SOL    HW114996   3.202   0.846   2.536
 4884SOL    HW214997   3.182   0.996   2.474
 4885SOL     OW14998   2.692   1.273   3.284
 4885SOL    HW114999   2.687   1.306   3.379
 4885SOL    HW215000   2.606   1.292   3.238
 4886SOL     OW15001   2.534   1.616   2.016
 4886SOL    HW115002   2.543   1.626   1.917
 4886SOL    HW215003   2.494   1.527   2.037
 4887SOL     OW15004   3.512   1.720   3.256
 4887SOL    HW115005   3.565   1.730   3.172
 4887SOL    HW215006   3.485   1.810   3.290
 4888SOL     OW15007   3.703   0.175   2.825
 4888SOL    HW115008   3.742   0.090   2.789
 4888SOL    HW215009   3.605   0.177   2.806
 4889SOL     OW15010   2.125   0.326   2.582
 4889SOL    HW115011   2.046   0.377   2.548
 4889SOL    HW215012   2.116   0.311   2.680
 4890SOL     OW15013   3.056   1.612   1.893
 4890SOL    HW115014   3.062   1.519   1.930
 4890SOL    HW215015   2.997   1.612   1.813
 4891SOL     OW15016   2.684   1.002   3.234
 4891SOL    HW115017   2.724   1.001   3.142
 4891SOL    HW215018   2.694   1.094   3.274
 4892SOL     OW15019   2.778   0.910   2.153
 4892SOL    HW115020   2.841   0.948   2.085
 4892SOL    HW215021   2.818   0.827   2.192
 4893SOL     OW15022   3.366   1.607   1.906
 4893SOL    HW115023   3.274   1.644   1.913
 4893SOL    HW215024   3.404   1.627   1.816
 4894SOL     OW15025   2.234   1.288   3.352
 4894SOL    HW115026   2.221   1.381   3.318
 4894SOL    HW215027   2.150   1.236   3.339
 4895SOL     OW15028   3.476   1.292   3.151
 4895SOL    HW115029   3.536   1.295   3.231
 4895SOL    HW215030   3.401   1.356   3.164
 4896SOL     OW15031   2.901   1.098   2.558
 4896SOL    HW115032   2.831   1.051   2.612
 4896SOL    HW215033   2.960   1.030   2.515
 4897SOL     OW15034   2.876   0.236   2.833
 4897SOL    HW115035   2.868   0.200   2.740
 4897SOL    HW215036   2.874   0.160   2.898
 4898SOL     OW15037   2.452   1.487   2.353
 4898SOL    HW115038   2.494   1.429   2.283
 4898SOL    HW215039   2.408   1.566   2.309
 4899SOL     OW15040   3.571   0.385   3.243
 4899SOL    HW115041   3.644   0.454   3.247
 4899SOL    HW215042   3.599   0.310   3.184
 4900SOL     OW15043   2.117   1.348   2.152
 4900SOL    HW115044   2.021   1.349   2.125
 4900SOL    HW215045   2.129   1.401   2.236
 4901SOL     OW15046   1.967   1.013   3.588
 4901SOL    HW115047   1.890   0.980   3.642
 4901SOL    HW215048   2.052   0.983   3.630
 4902SOL     OW15049   2.534   0.203   3.351
 4902SOL    HW115050   2.624   0.187   3.311
 4902SOL    HW215051   2.542   0.208   3.450
 4903SOL     OW15052   1.937   0.345   1.895
 4903SOL    HW115053   1.845   0.317   1.866
 4903SOL    HW215054   1.968   0.422   1.839
 4904SOL     OW15055   3.302   0.856   3.260
 4904SOL    HW115056   3.245   0.908   3.197
 4904SOL    HW215057   3.398   0.868   3.236
 4905SOL     OW15058   1.934   0.166   2.180
 4905SOL    HW115059   1.917   0.249   2.126
 4905SOL    HW215060   2.024   0.129   2.158
 4906SOL     OW15061   3.045   1.335   1.981
 4906SOL    HW115062   2.946   1.324   1.983
 4906SOL    HW215063   3.079   1.350   2.074
 4907SOL     OW15064   2.475   0.842   3.293
 4907SOL    HW115065   2.531   0.923   3.276
 4907SOL    HW215066   2.534   0.762   3.296
 4908SOL     OW15067   3.355   1.767   2.821
 4908SOL    HW115068   3.388   1.831   2.752
 4908SOL    HW215069   3.421   1.761   2.896
 4909SOL     OW15070   2.578   0.565   3.570
 4909SOL    HW115071   2.597   0.630   3.644
 4909SOL    HW215072   2.638   0.485   3.579
 4910SOL     OW15073   3.312   1.220   3.495
 4910SOL    HW115074   3.303   1.210   3.594
 4910SOL    HW215075   3.408   1.213   3.469
 4911SOL     OW15076   2.252   1.741   3.422
 4911SOL    HW115077   2.161   1.782   3.420
 4911SOL    HW215078   2.245   1.647   3.454
 4912SOL     OW15079   3.536   0.883   3.116
 4912SOL    HW115080   3.509   0.794   3.079
 4912SOL    HW215081   3.537   0.951   3.043
 4913SOL     OW15082   3.087   0.325   2.311
 4913SOL    HW115083   3.152   0.251   2.300
 4913SOL    HW215084   3.107   0.375   2.395
 4914SOL     OW15085   2.456   0.745   2.514
 4914SOL    HW115086   2.506   0.830   2.495
 4914SOL    HW215087   2.368   0.747   2.466
 4915SOL     OW15088   3.639   0.342   3.504
 4915SOL    HW115089   3.622   0.373   3.410
 4915SOL    HW215090   3.555   0.305   3.542
 4916SOL     OW15091   3.592   0.934   3.379
 4916SOL    HW115092   3.630   1.025   3.394
 4916SOL    HW215093   3.584   0.917   3.280
 4917SOL     OW15094   2.721   1.374   1.878
 4917SOL    HW115095   2.675   1.389   1.966
 4917SOL    HW215096   2.765   1.459   1.848
 4918SOL     OW15097   2.523   1.790   2.815
 4918SOL    HW115098   2.477   1.878   2.802
 4918SOL    HW215099   2.622   1.802   2.808
 4919SOL     OW15100   2.721   0.956   2.723
 4919SOL    HW115101   2.775   0.887   2.771
 4919SOL    HW215102   2.689   1.025   2.789
 4920SOL     OW15103   2.945   0.984   1.949
 4920SOL    HW115104   2.922   1.037   1.867
 4920SOL    HW215105   3.026   0.928   1.930
 4921SOL     OW15106   3.723   1.569   2.713
 4921SOL    HW115107   3.652   1.557   2.643
 4921SOL    HW215108   3.724   1.490   2.773
 4922SOL     OW15109   2.083   1.314   3.706
 4922SOL    HW115110   2.018   1.241   3.685
 4922SOL    HW215111   2.087   1.328   3.804
 4923SOL     OW15112   1.941   1.240   2.515
 4923SOL    HW115113   1.940   1.193   2.603
 4923SOL    HW215114   2.023   1.212   2.464
 4924SOL     OW15115   2.534   1.391   3.486
 4924SOL    HW115116   2.456   1.341   3.524
 4924SOL    HW215117   2.531   1.486   3.517
 4925SOL     OW15118   3.686   0.192   3.089
 4925SOL    HW115119   3.682   0.102   3.133
 4925SOL    HW215120   3.689   0.181   2.990
 4926SOL     OW15121   2.290   0.424   2.382
 4926SOL    HW115122   2.320   0.352   2.320
 4926SOL    HW215123   2.251   0.384   2.465
 4927SOL     OW15124   3.567   1.487   2.966
 4927SOL    HW115125   3.474   1.462   2.939
 4927SOL    HW215126   3.593   1.437   3.048
 4928SOL     OW15127   2.179   0.547   3.142
 4928SOL    HW115128   2.217   0.488   3.214
 4928SOL    HW215129   2.219   0.521   3.054
 4929SOL     OW15130   2.674   1.586   2.549
 4929SOL    HW115131   2.706   1.596   2.455
 4929SOL    HW215132   2.595   1.524   2.551
 4930SOL     OW15133   3.286   0.214   2.974
 4930SOL    HW115134   3.338   0.149   3.029
 4930SOL    HW215135   3.237   0.277   3.035
 4931SOL     OW15136   2.863   0.034   3.016
 4931SOL    HW115137   2.800  -0.038   2.985
 4931SOL    HW215138   2.956  -0.002   3.016
 4932SOL     OW15139   2.632   1.330   2.163
 4932SOL    HW115140   2.586   1.243   2.180
 4932SOL    HW215141   2.723   1.327   2.204
 4933SOL     OW15142   2.480   1.567   3.146
 4933SOL    HW115143   2.475   1.649   3.203
 4933SOL    HW215144   2.569   1.564   3.101
 4934SOL     OW15145   3.214   0.052   2.030
 4934SOL    HW115146   3.249   0.011   1.946
 4934SOL    HW215147   3.124   0.014   2.050
 4935SOL     OW15148   3.162   0.453   2.553
 4935SOL    HW115149   3.103   0.533   2.557
 4935SOL    HW215150   3.177   0.418   2.646
 4936SOL     OW15151   3.455   0.221   2.744
 4936SOL    HW115152   3.371   0.220   2.798
 4936SOL    HW215153   3.457   0.304   2.688
 4937SOL     OW15154   1.901   1.077   2.162
 4937SOL    HW115155   2.000   1.066   2.153
 4937SOL    HW215156   1.861   0.991   2.194
 4938SOL     OW15157   2.737   1.646   2.199
 4938SOL    HW115158   2.660   1.611   2.145
 4938SOL    HW215159   2.705   1.717   2.261
 4939SOL     OW15160   2.092   0.628   3.837
 4939SOL    HW115161   1.999   0.626   3.874
 4939SOL    HW215162   2.093   0.589   3.745
 4940SOL     OW15163   2.087   0.275   4.720
 4940SOL    HW115164   2.122   0.258   4.812
 4940SOL    HW215165   1.999   0.230   4.708
 4941SOL     OW15166   1.881   0.368   4.371
 4941SOL    HW115167   1.799   0.411   4.410
 4941SOL    HW215168   1.853   0.295   4.308
 4942SOL     OW15169   2.431   1.275   4.889
 4942SOL    HW115170   2.338   1.268   4.852
 4942SOL    HW215171   2.442   1.364   4.933
 4943SOL     OW15172   3.417   1.511   4.427
 4943SOL    HW115173   3.360   1.495   4.508
 4943SOL    HW215174   3.358   1.521   4.347
 4944SOL     OW15175   2.997   0.703   4.441
 4944SOL    HW115176   3.054   0.781   4.416
 4944SOL    HW215177   2.937   0.729   4.517
 4945SOL     OW15178   3.617   0.607   3.955
 4945SOL    HW115179   3.605   0.594   3.856
 4945SOL    HW215180   3.587   0.526   4.004
 4946SOL     OW15181   2.630   1.144   4.747
 4946SOL    HW115182   2.552   1.161   4.807
 4946SOL    HW215183   2.664   1.231   4.711
 4947SOL     OW15184   2.712   0.798   5.547
 4947SOL    HW115185   2.708   0.874   5.612
 4947SOL    HW215186   2.734   0.834   5.456
 4948SOL     OW15187   2.547   1.012   4.389
 4948SOL    HW115188   2.616   0.996   4.459
 4948SOL    HW215189   2.474   1.069   4.427
 4949SOL     OW15190   2.548   1.161   5.527
 4949SOL    HW115191   2.608   1.240   5.541
 4949SOL    HW215192   2.462   1.192   5.486
 4950SOL     OW15193   2.197   1.435   4.785
 4950SOL    HW115194   2.119   1.404   4.732
 4950SOL    HW215195   2.255   1.493   4.728
 4951SOL     OW15196   3.322   1.505   5.063
 4951SOL    HW115197   3.346   1.599   5.089
 4951SOL    HW215198   3.306   1.451   5.145
 4952SOL     OW15199   2.300   0.392   5.223
 4952SOL    HW115200   2.382   0.336   5.232
 4952SOL    HW215201   2.219   0.334   5.227
 4953SOL     OW15202   3.465   0.447   4.461
 4953SOL    HW115203   3.391   0.493   4.411
 4953SOL    HW215204   3.516   0.515   4.514
 4954SOL     OW15205   2.093   1.713   4.207
 4954SOL    HW115206   2.127   1.790   4.261
 4954SOL    HW215207   2.137   1.713   4.117
 4955SOL     OW15208   2.989   1.341   5.414
 4955SOL    HW115209   3.036   1.341   5.502
 4955SOL    HW215210   2.941   1.254   5.403
 4956SOL     OW15211   2.092   1.434   4.262
 4956SOL    HW115212   2.066   1.530   4.262
 4956SOL    HW215213   2.021   1.380   4.307
 4957SOL     OW15214   2.102   1.091   4.610
 4957SOL    HW115215   2.116   1.007   4.662
 4957SOL    HW215216   2.047   1.155   4.665
 4958SOL     OW15217   2.482   1.786   5.163
 4958SOL    HW115218   2.390   1.769   5.198
 4958SOL    HW215219   2.510   1.878   5.189
 4959SOL     OW15220   2.468   0.964   3.847
 4959SOL    HW115221   2.475   1.048   3.793
 4959SOL    HW215222   2.514   0.977   3.935
 4960SOL     OW15223   3.456   0.114   5.204
 4960SOL    HW115224   3.438   0.181   5.132
 4960SOL    HW215225   3.453   0.160   5.293
 4961SOL     OW15226   1.984   0.643   4.287
 4961SOL    HW115227   1.939   0.555   4.304
 4961SOL    HW215228   1.983   0.697   4.371
 4962SOL     OW15229   3.704   1.767   4.083
 4962SOL    HW115230   3.758   1.738   4.163
 4962SOL    HW215231   3.734   1.857   4.054
 4963SOL     OW15232   1.889   1.596   3.841
 4963SOL    HW115233   1.870   1.500   3.862
 4963SOL    HW215234   1.856   1.654   3.916
 4964SOL     OW15235   3.551   0.922   4.336
 4964SOL    HW115236   3.646   0.893   4.344
 4964SOL    HW215237   3.543   0.987   4.261
 4965SOL     OW15238   3.503   1.108   4.156
 4965SOL    HW115239   3.589   1.110   4.104
 4965SOL    HW215240   3.517   1.155   4.244
 4966SOL     OW15241   1.975   0.737   5.321
 4966SOL    HW115242   2.063   0.724   5.366
 4966SOL    HW215243   1.962   0.834   5.299
 4967SOL     OW15244   2.475   1.365   4.450
 4967SOL    HW115245   2.426   1.278   4.459
 4967SOL    HW215246   2.452   1.408   4.363
 4968SOL     OW15247   3.155   1.228   5.147
 4968SOL    HW115248   3.192   1.155   5.089
 4968SOL    HW215249   3.207   1.233   5.232
 4969SOL     OW15250   2.671   0.004   4.226
 4969SOL    HW115251   2.711   0.095   4.217
 4969SOL    HW215252   2.571   0.012   4.232
 4970SOL     OW15253   2.059   0.976   4.988
 4970SOL    HW115254   2.148   0.931   4.974
 4970SOL    HW215255   1.986   0.911   4.969
 4971SOL     OW15256   3.387   0.999   3.914
 4971SOL    HW115257   3.324   0.923   3.927
 4971SOL    HW215258   3.435   1.017   4.000
 4972SOL     OW15259   3.049   1.792   5.340
 4972SOL    HW115260   3.073   1.852   5.264
 4972SOL    HW215261   3.056   1.697   5.310
 4973SOL     OW15262   2.179   0.251   5.525
 4973SOL    HW115263   2.250   0.322   5.531
 4973SOL    HW215264   2.091   0.290   5.553
 4974SOL     OW15265   3.328   1.417   4.677
 4974SOL    HW115266   3.269   1.423   4.757
 4974SOL    HW215267   3.313   1.329   4.631
 4975SOL     OW15268   3.529   1.714   4.296
 4975SOL    HW115269   3.488   1.691   4.208
 4975SOL    HW215270   3.511   1.640   4.361
 4976SOL     OW15271   2.460   0.729   3.994
 4976SOL    HW115272   2.484   0.798   3.926
 4976SOL    HW215273   2.382   0.762   4.048
 4977SOL     OW15274   3.143   0.345   4.668
 4977SOL    HW115275   3.057   0.295   4.655
 4977SOL    HW215276   3.205   0.291   4.724
 4978SOL     OW15277   3.438   1.662   4.031
 4978SOL    HW115278   3.527   1.708   4.034
 4978SOL    HW215279   3.417   1.638   3.936
 4979SOL     OW15280   2.669   0.605   5.189
 4979SOL    HW115281   2.622   0.602   5.278
 4979SOL    HW215282   2.618   0.550   5.123
 4980SOL     OW15283   3.256   0.469   5.398
 4980SOL    HW115284   3.236   0.512   5.486
 4980SOL    HW215285   3.334   0.407   5.407
 4981SOL     OW15286   2.835   0.890   5.296
 4981SOL    HW115287   2.881   0.806   5.267
 4981SOL    HW215288   2.779   0.924   5.221
 4982SOL     OW15289   2.853   0.410   4.966
 4982SOL    HW115290   2.776   0.444   5.020
 4982SOL    HW215291   2.819   0.359   4.887
 4983SOL     OW15292   2.903   0.701   4.153
 4983SOL    HW115293   2.929   0.697   4.249
 4983SOL    HW215294   2.818   0.650   4.139
 4984SOL     OW15295   1.938   0.811   4.513
 4984SOL    HW115296   2.037   0.799   4.522
 4984SOL    HW215297   1.914   0.906   4.534
 4985SOL     OW15298   1.992   1.821   5.295
 4985SOL    HW115299   1.982   1.806   5.394
 4985SOL    HW215300   1.906   1.857   5.259
 4986SOL     OW15301   2.727   0.348   3.919
 4986SOL    HW115302   2.786   0.411   3.870
 4986SOL    HW215303   2.746   0.254   3.890
 4987SOL     OW15304   3.581   0.585   5.555
 4987SOL    HW115305   3.555   0.674   5.519
 4987SOL    HW215306   3.579   0.517   5.482
 4988SOL     OW15307   3.224   1.144   4.269
 4988SOL    HW115308   3.307   1.115   4.221
 4988SOL    HW215309   3.175   1.211   4.213
 4989SOL     OW15310   2.412   0.196   4.609
 4989SOL    HW115311   2.407   0.191   4.709
 4989SOL    HW215312   2.414   0.292   4.580
 4990SOL     OW15313   2.870   1.456   4.201
 4990SOL    HW115314   2.824   1.528   4.149
 4990SOL    HW215315   2.866   1.476   4.299
 4991SOL     OW15316   2.213   1.801   4.577
 4991SOL    HW115317   2.263   1.715   4.583
 4991SOL    HW215318   2.278   1.878   4.574
 4992SOL     OW15319   3.657   1.066   4.597
 4992SOL    HW115320   3.595   1.051   4.521
 4992SOL    HW215321   3.605   1.077   4.682
 4993SOL     OW15322   3.089   1.550   5.230
 4993SOL    HW115323   3.095   1.473   5.294
 4993SOL    HW215324   3.037   1.524   5.150
 4994SOL     OW15325   2.183   0.943   3.966
 4994SOL    HW115326   2.265   0.982   3.924
 4994SOL    HW215327   2.156   0.861   3.917
 4995SOL     OW15328   3.320   0.735   4.452
 4995SOL    HW115329   3.315   0.670   4.527
 4995SOL    HW215330   3.400   0.794   4.465
 4996SOL     OW15331   2.323   1.266   5.451
 4996SOL    HW115332   2.273   1.267   5.365
 4996SOL    HW215333   2.260   1.248   5.527
 4997SOL     OW15334   2.973   1.776   3.961
 4997SOL    HW115335   2.913   1.714   4.011
 4997SOL    HW215336   3.004   1.732   3.876
 4998SOL     OW15337   2.064   0.285   5.222
 4998SOL    HW115338   1.984   0.345   5.209
 4998SOL    HW215339   2.054   0.236   5.308
 4999SOL     OW15340   3.494   1.377   3.805
 4999SOL    HW115341   3.462   1.471   3.795
 4999SOL    HW215342   3.418   1.314   3.793
 5000SOL     OW15343   2.326   1.743   4.047
 5000SOL    HW115344   2.359   1.782   4.133
 5000SOL    HW215345   2.402   1.736   3.982
 5001SOL     OW15346   3.262   0.107   4.150
 5001SOL    HW115347   3.238   0.070   4.060
 5001SOL    HW215348   3.361   0.123   4.154
 5002SOL     OW15349   2.111   1.785   4.965
 5002SOL    HW115350   2.168   1.720   5.015
 5002SOL    HW215351   2.095   1.752   4.872
 5003SOL     OW15352   2.802   1.698   4.628
 5003SOL    HW115353   2.882   1.641   4.649
 5003SOL    HW215354   2.753   1.658   4.551
 5004SOL     OW15355   2.244   0.700   4.204
 5004SOL    HW115356   2.289   0.610   4.201
 5004SOL    HW215357   2.150   0.689   4.237
 5005SOL     OW15358   3.409   0.222   5.453
 5005SOL    HW115359   3.404   0.259   5.545
 5005SOL    HW215360   3.337   0.153   5.441
 5006SOL     OW15361   2.476   0.122   3.841
 5006SOL    HW115362   2.574   0.100   3.848
 5006SOL    HW215363   2.445   0.105   3.748
 5007SOL     OW15364   2.643   0.264   5.473
 5007SOL    HW115365   2.710   0.203   5.516
 5007SOL    HW215366   2.570   0.283   5.538
 5008SOL     OW15367   2.750   1.514   4.919
 5008SOL    HW115368   2.727   1.489   4.825
 5008SOL    HW215369   2.811   1.445   4.958
 5009SOL     OW15370   3.213   0.590   5.157
 5009SOL    HW115371   3.241   0.547   5.242
 5009SOL    HW215372   3.238   0.686   5.158
 5010SOL     OW15373   2.665   1.402   4.648
 5010SOL    HW115374   2.755   1.416   4.606
 5010SOL    HW215375   2.594   1.404   4.577
 5011SOL     OW15376   2.784   0.503   4.623
 5011SOL    HW115377   2.759   0.494   4.527
 5011SOL    HW215378   2.832   0.421   4.654
 5012SOL     OW15379   2.401   0.064   4.236
 5012SOL    HW115380   2.320   0.065   4.294
 5012SOL    HW215381   2.404   0.147   4.181
 5013SOL     OW15382   3.296   1.188   3.765
 5013SOL    HW115383   3.328   1.112   3.822
 5013SOL    HW215384   3.204   1.215   3.795
 5014SOL     OW15385   2.159   0.035   3.895
 5014SOL    HW115386   2.208   0.119   3.874
 5014SOL    HW215387   2.221  -0.030   3.940
 5015SOL     OW15388   2.797   0.236   4.204
 5015SOL    HW115389   2.749   0.277   4.126
 5015SOL    HW215390   2.896   0.234   4.185
 5016SOL     OW15391   2.938   0.683   5.188
 5016SOL    HW115392   2.858   0.622   5.191
 5016SOL    HW215393   3.019   0.630   5.164
 5017SOL     OW15394   3.089   1.570   4.517
 5017SOL    HW115395   3.110   1.644   4.452
 5017SOL    HW215396   3.157   1.570   4.590
 5018SOL     OW15397   2.321   1.152   4.465
 5018SOL    HW115398   2.250   1.125   4.530
 5018SOL    HW215399   2.295   1.124   4.372
 5019SOL     OW15400   3.133   1.797   4.315
 5019SOL    HW115401   3.177   1.861   4.251
 5019SOL    HW215402   3.083   1.849   4.385
 5020SOL     OW15403   2.894   0.549   3.740
 5020SOL    HW115404   2.853   0.631   3.701
 5020SOL    HW215405   2.958   0.575   3.813
 5021SOL     OW15406   1.940   0.556   5.110
 5021SOL    HW115407   2.032   0.555   5.069
 5021SOL    HW215408   1.934   0.630   5.177
 5022SOL     OW15409   2.423   0.222   4.871
 5022SOL    HW115410   2.461   0.138   4.908
 5022SOL    HW215411   2.335   0.241   4.915
 5023SOL     OW15412   2.728   0.454   4.366
 5023SOL    HW115413   2.696   0.526   4.304
 5023SOL    HW215414   2.752   0.373   4.313
 5024SOL     OW15415   2.879   0.039   4.477
 5024SOL    HW115416   2.807   0.044   4.408
 5024SOL    HW215417   2.855  -0.030   4.546
 5025SOL     OW15418   3.291   1.173   4.591
 5025SOL    HW115419   3.236   1.089   4.584
 5025SOL    HW215420   3.317   1.202   4.499
 5026SOL     OW15421   3.328   0.590   4.716
 5026SOL    HW115422   3.298   0.495   4.723
 5026SOL    HW215423   3.401   0.606   4.782
 5027SOL     OW15424   3.719   0.833   4.101
 5027SOL    HW115425   3.761   0.769   4.165
 5027SOL    HW215426   3.681   0.782   4.023
 5028SOL     OW15427   2.350   1.385   3.898
 5028SOL    HW115428   2.263   1.370   3.945
 5028SOL    HW215429   2.333   1.411   3.803
 5029SOL     OW15430   3.526   1.280   4.381
 5029SOL    HW115431   3.625   1.288   4.395
 5029SOL    HW215432   3.481   1.364   4.412
 5030SOL     OW15433   3.252   0.575   3.802
 5030SOL    HW115434   3.198   0.554   3.883
 5030SOL    HW215435   3.343   0.534   3.811
 5031SOL     OW15436   2.389   0.256   4.052
 5031SOL    HW115437   2.416   0.197   3.977
 5031SOL    HW215438   2.389   0.351   4.021
 5032SOL     OW15439   3.616   1.223   5.312
 5032SOL    HW115440   3.707   1.184   5.299
 5032SOL    HW215441   3.624   1.319   5.336
 5033SOL     OW15442   2.926   1.347   5.064
 5033SOL    HW115443   2.846   1.324   5.119
 5033SOL    HW215444   3.009   1.321   5.113
 5034SOL     OW15445   3.454   1.629   5.349
 5034SOL    HW115446   3.481   1.663   5.259
 5034SOL    HW215447   3.533   1.591   5.395
 5035SOL     OW15448   2.973   1.195   4.824
 5035SOL    HW115449   2.933   1.239   4.905
 5035SOL    HW215450   2.932   1.232   4.741
 5036SOL     OW15451   3.500   1.099   4.803
 5036SOL    HW115452   3.505   1.180   4.862
 5036SOL    HW215453   3.414   1.101   4.752
 5037SOL     OW15454   2.777   0.089   5.126
 5037SOL    HW115455   2.802   0.069   5.031
 5037SOL    HW215456   2.849   0.145   5.168
 5038SOL     OW15457   2.842   1.116   5.443
 5038SOL    HW115458   2.743   1.122   5.453
 5038SOL    HW215459   2.865   1.036   5.387
 5039SOL     OW15460   2.567   1.050   4.092
 5039SOL    HW115461   2.553   1.057   4.191
 5039SOL    HW215462   2.651   0.999   4.074
 5040SOL     OW15463   2.272   0.813   4.975
 5040SOL    HW115464   2.358   0.825   5.025
 5040SOL    HW215465   2.230   0.726   5.002
 5041SOL     OW15466   3.136   0.386   4.986
 5041SOL    HW115467   3.157   0.460   5.050
 5041SOL    HW215468   3.047   0.403   4.943
 5042SOL     OW15469   1.926   1.564   5.055
 5042SOL    HW115470   1.880   1.646   5.021
 5042SOL    HW215471   2.024   1.583   5.064
 5043SOL     OW15472   2.229   1.100   4.225
 5043SOL    HW115473   2.222   1.183   4.169
 5043SOL    HW215474   2.233   1.020   4.165
 5044SOL     OW15475   2.428   0.537   4.589
 5044SOL    HW115476   2.440   0.603   4.515
 5044SOL    HW215477   2.474   0.571   4.672
 5045SOL     OW15478   3.114   1.348   4.112
 5045SOL    HW115479   3.164   1.425   4.152
 5045SOL    HW215480   3.019   1.350   4.144
 5046SOL     OW15481   3.134   1.445   4.866
 5046SOL    HW115482   3.181   1.458   4.953
 5046SOL    HW215483   3.068   1.371   4.875
 5047SOL     OW15484   3.444   0.639   4.196
 5047SOL    HW115485   3.413   0.700   4.269
 5047SOL    HW215486   3.494   0.691   4.127
 5048SOL     OW15487   2.216   1.510   5.053
 5048SOL    HW115488   2.195   1.466   4.966
 5048SOL    HW215489   2.313   1.536   5.056
 5049SOL     OW15490   2.264   0.751   5.322
 5049SOL    HW115491   2.332   0.806   5.275
 5049SOL    HW215492   2.304   0.663   5.349
 5050SOL     OW15493   3.449   0.779   5.394
 5050SOL    HW115494   3.357   0.817   5.389
 5050SOL    HW215495   3.509   0.826   5.329
 5051SOL     OW15496   2.875   0.105   5.494
 5051SOL    HW115497   2.881   0.190   5.442
 5051SOL    HW215498   2.907   0.029   5.437
 5052SOL     OW15499   2.366   0.050   5.464
 5052SOL    HW115500   2.324  -0.007   5.394
 5052SOL    HW215501   2.300   0.119   5.496
 5053SOL     OW15502   2.435   0.870   4.753
 5053SOL    HW115503   2.479   0.959   4.744
 5053SOL    HW215504   2.372   0.870   4.830
 5054SOL     OW15505   3.222   0.862   4.769
 5054SOL    HW115506   3.147   0.862   4.703
 5054SOL    HW215507   3.259   0.770   4.778
 5055SOL     OW15508   3.071   0.525   3.999
 5055SOL    HW115509   3.084   0.441   4.053
 5055SOL    HW215510   3.042   0.599   4.059
 5056SOL     OW15511   2.169   0.213   4.955
 5056SOL    HW115512   2.146   0.250   5.045
 5056SOL    HW215513   2.139   0.118   4.949
 5057SOL     OW15514   1.899   1.310   5.006
 5057SOL    HW115515   1.952   1.261   5.074
 5057SOL    HW215516   1.921   1.408   5.011
 5058SOL     OW15517   2.594   0.634   4.788
 5058SOL    HW115518   2.653   0.608   4.712
 5058SOL    HW215519   2.566   0.730   4.777
 5059SOL     OW15520   3.590   0.935   5.578
 5059SOL    HW115521   3.544   0.928   5.489
 5059SOL    HW215522   3.528   0.979   5.644
 5060SOL     OW15523   2.169   0.063   4.342
 5060SOL    HW115524   2.158   0.157   4.375
 5060SOL    HW215525   2.164   0.000   4.419
 5061SOL     OW15526   3.484   0.367   4.098
 5061SOL    HW115527   3.486   0.291   4.162
 5061SOL    HW215528   3.436   0.444   4.138
 5062SOL     OW15529   2.885   0.766   4.690
 5062SOL    HW115530   2.900   0.787   4.786
 5062SOL    HW215531   2.855   0.671   4.681
 5063SOL     OW15532   2.842   1.573   5.424
 5063SOL    HW115533   2.822   1.617   5.336
 5063SOL    HW215534   2.881   1.482   5.408
 5064SOL     OW15535   3.721   1.518   5.329
 5064SOL    HW115536   3.735   1.545   5.234
 5064SOL    HW215537   3.804   1.540   5.382
 5065SOL     OW15538   2.212   0.898   5.528
 5065SOL    HW115539   2.288   0.942   5.576
 5065SOL    HW215540   2.247   0.851   5.446
 5066SOL     OW15541   3.402   0.274   3.849
 5066SOL    HW115542   3.341   0.199   3.872
 5066SOL    HW215543   3.424   0.326   3.932
 5067SOL     OW15544   3.165   0.838   3.766
 5067SOL    HW115545   3.199   0.745   3.781
 5067SOL    HW215546   3.183   0.865   3.671
 5068SOL     OW15547   2.930   1.333   4.573
 5068SOL    HW115548   2.937   1.249   4.518
 5068SOL    HW215549   2.992   1.402   4.537
 5069SOL     OW15550   2.181   0.810   4.673
 5069SOL    HW115551   2.274   0.846   4.678
 5069SOL    HW215552   2.175   0.725   4.725
 5070SOL     OW15553   2.201   0.509   4.730
 5070SOL    HW115554   2.149   0.426   4.713
 5070SOL    HW215555   2.278   0.514   4.666
 5071SOL     OW15556   3.000   0.380   5.402
 5071SOL    HW115557   2.955   0.443   5.466
 5071SOL    HW215558   3.093   0.411   5.385
 5072SOL     OW15559   3.022   0.207   5.201
 5072SOL    HW115560   3.022   0.271   5.278
 5072SOL    HW215561   3.050   0.255   5.118
 5073SOL     OW15562   1.870   1.326   3.924
 5073SOL    HW115563   1.777   1.347   3.893
 5073SOL    HW215564   1.880   1.227   3.937
 5074SOL     OW15565   1.950   1.801   4.651
 5074SOL    HW115566   1.908   1.715   4.624
 5074SOL    HW215567   2.044   1.804   4.617
 5075SOL     OW15568   2.366   1.568   4.634
 5075SOL    HW115569   2.432   1.642   4.643
 5075SOL    HW215570   2.410   1.489   4.592
 5076SOL     OW15571   2.864   0.796   4.962
 5076SOL    HW115572   2.905   0.764   5.048
 5076SOL    HW215573   2.768   0.769   4.959
 5077SOL     OW15574   1.902   0.544   4.838
 5077SOL    HW115575   1.987   0.511   4.797
 5077SOL    HW215576   1.915   0.559   4.936
 5078SOL     OW15577   2.051   0.520   5.446
 5078SOL    HW115578   2.110   0.480   5.376
 5078SOL    HW215579   1.993   0.591   5.405
 5079SOL     OW15580   3.231   0.950   5.384
 5079SOL    HW115581   3.270   1.039   5.404
 5079SOL    HW215582   3.241   0.930   5.287
 5080SOL     OW15583   2.677   0.572   4.049
 5080SOL    HW115584   2.684   0.483   4.003
 5080SOL    HW215585   2.583   0.606   4.041
 5081SOL     OW15586   3.519   0.604   4.930
 5081SOL    HW115587   3.481   0.535   4.992
 5081SOL    HW215588   3.601   0.568   4.886
 5082SOL     OW15589   2.114   1.564   5.468
 5082SOL    HW115590   2.084   1.621   5.544
 5082SOL    HW215591   2.107   1.467   5.494
 5083SOL     OW15592   2.533   0.464   4.993
 5083SOL    HW115593   2.499   0.375   4.963
 5083SOL    HW215594   2.559   0.518   4.913
 5084SOL     OW15595   2.792   1.678   5.189
 5084SOL    HW115596   2.768   1.660   5.094
 5084SOL    HW215597   2.822   1.772   5.199
 5085SOL     OW15598   2.335   0.500   3.915
 5085SOL    HW115599   2.396   0.580   3.919
 5085SOL    HW215600   2.240   0.531   3.922
 5086SOL     OW15601   2.021   1.137   5.190
 5086SOL    HW115602   2.043   1.076   5.266
 5086SOL    HW215603   2.031   1.088   5.104
 5087SOL     OW15604   3.209   1.059   4.958
 5087SOL    HW115605   3.233   0.996   4.884
 5087SOL    HW215606   3.119   1.099   4.940
 5088SOL     OW15607   3.164   0.855   4.033
 5088SOL    HW115608   3.078   0.824   4.075
 5088SOL    HW215609   3.160   0.841   3.934
 5089SOL     OW15610   3.621   1.747   4.878
 5089SOL    HW115611   3.682   1.777   4.805
 5089SOL    HW215612   3.583   1.658   4.856
 5090SOL     OW15613   3.114   1.731   4.852
 5090SOL    HW115614   3.198   1.736   4.798
 5090SOL    HW215615   3.091   1.635   4.870
 5091SOL     OW15616   1.945   1.258   4.746
 5091SOL    HW115617   1.940   1.257   4.846
 5091SOL    HW215618   1.862   1.217   4.708
 5092SOL     OW15619   2.550   1.662   5.440
 5092SOL    HW115620   2.494   1.743   5.449
 5092SOL    HW215621   2.602   1.666   5.354
 5093SOL     OW15622   3.588   0.135   4.247
 5093SOL    HW115623   3.661   0.118   4.180
 5093SOL    HW215624   3.557   0.048   4.285
 5094SOL     OW15625   3.250   1.573   4.201
 5094SOL    HW115626   3.317   1.585   4.127
 5094SOL    HW215627   3.210   1.662   4.224
 5095SOL     OW15628   1.992   1.794   5.575
 5095SOL    HW115629   1.951   1.720   5.628
 5095SOL    HW215630   2.056   1.845   5.633
 5096SOL     OW15631   3.142   0.927   4.396
 5096SOL    HW115632   3.202   0.846   4.398
 5096SOL    HW215633   3.182   0.996   4.336
 5097SOL     OW15634   2.692   1.273   5.146
 5097SOL    HW115635   2.687   1.306   5.241
 5097SOL    HW215636   2.606   1.292   5.100
 5098SOL     OW15637   2.534   1.616   3.878
 5098SOL    HW115638   2.543   1.626   3.779
 5098SOL    HW215639   2.494   1.527   3.899
 5099SOL     OW15640   3.512   1.720   5.118
 5099SOL    HW115641   3.565   1.730   5.034
 5099SOL    HW215642   3.485   1.810   5.152
 5100SOL     OW15643   3.703   0.175   4.687
 5100SOL    HW115644   3.742   0.090   4.651
 5100SOL    HW215645   3.605   0.177   4.668
 5101SOL     OW15646   2.125   0.326   4.444
 5101SOL    HW115647   2.046   0.377   4.410
 5101SOL    HW215648   2.116   0.311   4.542
 5102SOL     OW15649   3.056   1.612   3.755
 5102SOL    HW115650   3.062   1.519   3.792
 5102SOL    HW215651   2.997   1.612   3.675
 5103SOL     OW15652   2.684   1.002   5.096
 5103SOL    HW115653   2.724   1.001   5.004
 5103SOL    HW215654   2.694   1.094   5.136
 5104SOL     OW15655   2.778   0.910   4.015
 5104SOL    HW115656   2.841   0.948   3.947
 5104SOL    HW215657   2.818   0.827   4.054
 5105SOL     OW15658   3.366   1.607   3.768
 5105SOL    HW115659   3.274   1.644   3.775
 5105SOL    HW215660   3.404   1.627   3.678
 5106SOL     OW15661   2.234   1.288   5.214
 5106SOL    HW115662   2.221   1.381   5.180
 5106SOL    HW215663   2.150   1.236   5.201
 5107SOL     OW15664   3.476   1.292   5.013
 5107SOL    HW115665   3.536   1.295   5.093
 5107SOL    HW215666   3.401   1.356   5.026
 5108SOL     OW15667   2.901   1.098   4.420
 5108SOL    HW115668   2.831   1.051   4.474
 5108SOL    HW215669   2.960   1.030   4.377
 5109SOL     OW15670   2.876   0.236   4.695
 5109SOL    HW115671   2.868   0.200   4.602
 5109SOL    HW215672   2.874   0.160   4.760
 5110SOL     OW15673   2.452   1.487   4.215
 5110SOL    HW115674   2.494   1.429   4.145
 5110SOL    HW215675   2.408   1.566   4.171
 5111SOL     OW15676   3.571   0.385   5.105
 5111SOL    HW115677   3.644   0.454   5.109
 5111SOL    HW215678   3.599   0.310   5.046
 5112SOL     OW15679   2.117   1.348   4.014
 5112SOL    HW115680   2.021   1.349   3.987
 5112SOL    HW215681   2.129   1.401   4.098
 5113SOL     OW15682   1.967   1.013   5.450
 5113SOL    HW115683   1.890   0.980   5.504
 5113SOL    HW215684   2.052   0.983   5.492
 5114SOL     OW15685   2.534   0.203   5.213
 5114SOL    HW115686   2.624   0.187   5.173
 5114SOL    HW215687   2.542   0.208   5.312
 5115SOL     OW15688   1.937   0.345   3.757
 5115SOL    HW115689   1.845   0.317   3.728
 5115SOL    HW215690   1.968   0.422   3.701
 5116SOL     OW15691   3.302   0.856   5.122
 5116SOL    HW115692   3.245   0.908   5.059
 5116SOL    HW215693   3.398   0.868   5.098
 5117SOL     OW15694   1.934   0.166   4.042
 5117SOL    HW115695   1.917   0.249   3.988
 5117SOL    HW215696   2.024   0.129   4.020
 5118SOL     OW15697   3.045   1.335   3.843
 5118SOL    HW115698   2.946   1.324   3.845
 5118SOL    HW215699   3.079   1.350   3.936
 5119SOL     OW15700   2.475   0.842   5.155
 5119SOL    HW115701   2.531   0.923   5.138
 5119SOL    HW215702   2.534   0.762   5.158
 5120SOL     OW15703   3.355   1.767   4.683
 5120SOL    HW115704   3.388   1.831   4.614
 5120SOL    HW215705   3.421   1.761   4.758
 5121SOL     OW15706   2.578   0.565   5.432
 5121SOL    HW115707   2.597   0.630   5.506
 5121SOL    HW215708   2.638   0.485   5.441
 5122SOL     OW15709   3.312   1.220   5.357
 5122SOL    HW115710   3.303   1.210   5.456
 5122SOL    HW215711   3.408   1.213   5.331
 5123SOL     OW15712   2.252   1.741   5.284
 5123SOL    HW115713   2.161   1.782   5.282
 5123SOL    HW215714   2.245   1.647   5.316
 5124SOL     OW15715   3.536   0.883   4.978
 5124SOL    HW115716   3.509   0.794   4.941
 5124SOL    HW215717   3.537   0.951   4.905
 5125SOL     OW15718   3.087   0.325   4.173
 5125SOL    HW115719   3.152   0.251   4.162
 5125SOL    HW215720   3.107   0.375   4.257
 5126SOL     OW15721   2.456   0.745   4.376
 5126SOL    HW115722   2.506   0.830   4.357
 5126SOL    HW215723   2.368   0.747   4.328
 5127SOL     OW15724   3.639   0.342   5.366
 5127SOL    HW115725   3.622   0.373   5.272
 5127SOL    HW215726   3.555   0.305   5.404
 5128SOL     OW15727   3.592   0.934   5.241
 5128SOL    HW115728   3.630   1.025   5.256
 5128SOL    HW215729   3.584   0.917   5.142
 5129SOL     OW15730   2.721   1.374   3.740
 5129SOL    HW115731   2.675   1.389   3.828
 5129SOL    HW215732   2.765   1.459   3.710
 5130SOL     OW15733   2.523   1.790   4.677
 5130SOL    HW115734   2.477   1.878   4.664
 5130SOL    HW215735   2.622   1.802   4.670
 5131SOL     OW15736   2.721   0.956   4.585
 5131SOL    HW115737   2.775   0.887   4.633
 5131SOL    HW215738   2.689   1.025   4.651
 5132SOL     OW15739   2.945   0.984   3.811
 5132SOL    HW115740   2.922   1.037   3.729
 5132SOL    HW215741   3.026   0.928   3.792
 5133SOL     OW15742   3.723   1.569   4.575
 5133SOL    HW115743   3.652   1.557   4.505
 5133SOL    HW215744   3.724   1.490   4.635
 5134SOL     OW15745   2.083   1.314   5.568
 5134SOL    HW115746   2.018   1.241   5.547
 5134SOL    HW215747   2.087   1.328   5.666
 5135SOL     OW15748   1.941   1.240   4.377
 5135SOL    HW115749   1.940   1.193   4.465
 5135SOL    HW215750   2.023   1.212   4.326
 5136SOL     OW15751   2.534   1.391   5.348
 5136SOL    HW115752   2.456   1.341   5.386
 5136SOL    HW215753   2.531   1.486   5.379
 5137SOL     OW15754   3.686   0.192   4.951
 5137SOL    HW115755   3.682   0.102   4.995
 5137SOL    HW215756   3.689   0.181   4.852
 5138SOL     OW15757   2.290   0.424   4.244
 5138SOL    HW115758   2.320   0.352   4.182
 5138SOL    HW215759   2.251   0.384   4.327
 5139SOL     OW15760   3.567   1.487   4.828
 5139SOL    HW115761   3.474   1.462   4.801
 5139SOL    HW215762   3.593   1.437   4.910
 5140SOL     OW15763   2.179   0.547   5.004
 5140SOL    HW115764   2.217   0.488   5.076
 5140SOL    HW215765   2.219   0.521   4.916
 5141SOL     OW15766   2.674   1.586   4.411
 5141SOL    HW115767   2.706   1.596   4.317
 5141SOL    HW215768   2.595   1.524   4.413
 5142SOL     OW15769   3.286   0.214   4.836
 5142SOL    HW115770   3.338   0.149   4.891
 5142SOL    HW215771   3.237   0.277   4.897
 5143SOL     OW15772   2.863   0.034   4.878
 5143SOL    HW115773   2.800  -0.038   4.847
 5143SOL    HW215774   2.956  -0.002   4.878
 5144SOL     OW15775   2.632   1.330   4.025
 5144SOL    HW115776   2.586   1.243   4.042
 5144SOL    HW215777   2.723   1.327   4.066
 5145SOL     OW15778   2.480   1.567   5.008
 5145SOL    HW115779   2.475   1.649   5.065
 5145SOL    HW215780   2.569   1.564   4.963
 5146SOL     OW15781   3.214   0.052   3.892
 5146SOL    HW115782   3.249   0.011   3.808
 5146SOL    HW215783   3.124   0.014   3.912
 5147SOL     OW15784   3.162   0.453   4.415
 5147SOL    HW115785   3.103   0.533   4.419
 5147SOL    HW215786   3.177   0.418   4.508
 5148SOL     OW15787   3.455   0.221   4.606
 5148SOL    HW115788   3.371   0.220   4.660
 5148SOL    HW215789   3.457   0.304   4.550
 5149SOL     OW15790   1.901   1.077   4.024
 5149SOL    HW115791   2.000   1.066   4.015
 5149SOL    HW215792   1.861   0.991   4.056
 5150SOL     OW15793   2.737   1.646   4.061
 5150SOL    HW115794   2.660   1.611   4.007
 5150SOL    HW215795   2.705   1.717   4.123
 5151SOL     OW15796   2.092   0.628   5.699
 5151SOL    HW115797   1.999   0.626   5.736
 5151SOL    HW215798   2.093   0.589   5.607
 5152SOL     OW15799   2.087   0.275   6.582
 5152SOL    HW115800   2.122   0.258   6.674
 5152SOL    HW215801   1.999   0.230   6.570
 5153SOL     OW15802   1.881   0.368   6.233
 5153SOL    HW115803   1.799   0.411   6.272
 5153SOL    HW215804   1.853   0.295   6.170
 5154SOL     OW15805   2.431   1.275   6.751
 5154SOL    HW115806   2.338   1.268   6.714
 5154SOL    HW215807   2.442   1.364   6.795
 5155SOL     OW15808   3.417   1.511   6.289
 5155SOL    HW115809   3.360   1.495   6.370
 5155SOL    HW215810   3.358   1.521   6.209
 5156SOL     OW15811   2.997   0.703   6.303
 5156SOL    HW115812   3.054   0.781   6.278
 5156SOL    HW215813   2.937   0.729   6.379
 5157SOL     OW15814   3.617   0.607   5.817
 5157SOL    HW115815   3.605   0.594   5.718
 5157SOL    HW215816   3.587   0.526   5.866
 5158SOL     OW15817   2.630   1.144   6.609
 5158SOL    HW115818   2.552   1.161   6.669
 5158SOL    HW215819   2.664   1.231   6.573
 5159SOL     OW15820   2.712   0.798   7.409
 5159SOL    HW115821   2.708   0.874   7.474
 5159SOL    HW215822   2.734   0.834   7.318
 5160SOL     OW15823   2.547   1.012   6.251
 5160SOL    HW115824   2.616   0.996   6.321
 5160SOL    HW215825   2.474   1.069   6.289
 5161SOL     OW15826   2.548   1.161   7.389
 5161SOL    HW115827   2.608   1.240   7.403
 5161SOL    HW215828   2.462   1.192   7.348
 5162SOL     OW15829   2.197   1.435   6.647
 5162SOL    HW115830   2.119   1.404   6.594
 5162SOL    HW215831   2.255   1.493   6.590
 5163SOL     OW15832   3.322   1.505   6.925
 5163SOL    HW115833   3.346   1.599   6.951
 5163SOL    HW215834   3.306   1.451   7.007
 5164SOL     OW15835   2.300   0.392   7.085
 5164SOL    HW115836   2.382   0.336   7.094
 5164SOL    HW215837   2.219   0.334   7.089
 5165SOL     OW15838   3.465   0.447   6.323
 5165SOL    HW115839   3.391   0.493   6.273
 5165SOL    HW215840   3.516   0.515   6.376
 5166SOL     OW15841   2.093   1.713   6.069
 5166SOL    HW115842   2.127   1.790   6.123
 5166SOL    HW215843   2.137   1.713   5.979
 5167SOL     OW15844   2.989   1.341   7.276
 5167SOL    HW115845   3.036   1.341   7.364
 5167SOL    HW215846   2.941   1.254   7.265
 5168SOL     OW15847   2.092   1.434   6.124
 5168SOL    HW115848   2.066   1.530   6.124
 5168SOL    HW215849   2.021   1.380   6.169
 5169SOL     OW15850   2.102   1.091   6.472
 5169SOL    HW115851   2.116   1.007   6.524
 5169SOL    HW215852   2.047   1.155   6.527
 5170SOL     OW15853   2.482   1.786   7.025
 5170SOL    HW115854   2.390   1.769   7.060
 5170SOL    HW215855   2.510   1.878   7.051
 5171SOL     OW15856   2.468   0.964   5.709
 5171SOL    HW115857   2.475   1.048   5.655
 5171SOL    HW215858   2.514   0.977   5.797
 5172SOL     OW15859   3.456   0.114   7.066
 5172SOL    HW115860   3.438   0.181   6.994
 5172SOL    HW215861   3.453   0.160   7.155
 5173SOL     OW15862   1.984   0.643   6.149
 5173SOL    HW115863   1.939   0.555   6.166
 5173SOL    HW215864   1.983   0.697   6.233
 5174SOL     OW15865   3.704   1.767   5.945
 5174SOL    HW115866   3.758   1.738   6.025
 5174SOL    HW215867   3.734   1.857   5.916
 5175SOL     OW15868   1.889   1.596   5.703
 5175SOL    HW115869   1.870   1.500   5.724
 5175SOL    HW215870   1.856   1.654   5.778
 5176SOL     OW15871   3.551   0.922   6.198
 5176SOL    HW115872   3.646   0.893   6.206
 5176SOL    HW215873   3.543   0.987   6.123
 5177SOL     OW15874   3.503   1.108   6.018
 5177SOL    HW115875   3.589   1.110   5.966
 5177SOL    HW215876   3.517   1.155   6.106
 5178SOL     OW15877   1.975   0.737   7.183
 5178SOL    HW115878   2.063   0.724   7.228
 5178SOL    HW215879   1.962   0.834   7.161
 5179SOL     OW15880   2.475   1.365   6.312
 5179SOL    HW115881   2.426   1.278   6.321
 5179SOL    HW215882   2.452   1.408   6.225
 5180SOL     OW15883   3.155   1.228   7.009
 5180SOL    HW115884   3.192   1.155   6.951
 5180SOL    HW215885   3.207   1.233   7.094
 5181SOL     OW15886   2.671   0.004   6.088
 5181SOL    HW115887   2.711   0.095   6.079
 5181SOL    HW215888   2.571   0.012   6.094
 5182SOL     OW15889   2.059   0.976   6.850
 5182SOL    HW115890   2.148   0.931   6.836
 5182SOL    HW215891   1.986   0.911   6.831
 5183SOL     OW15892   3.387   0.999   5.776
 5183SOL    HW115893   3.324   0.923   5.789
 5183SOL    HW215894   3.435   1.017   5.862
 5184SOL     OW15895   3.049   1.792   7.202
 5184SOL    HW115896   3.073   1.852   7.126
 5184SOL    HW215897   3.056   1.697   7.172
 5185SOL     OW15898   2.179   0.251   7.387
 5185SOL    HW115899   2.250   0.322   7.393
 5185SOL    HW215900   2.091   0.290   7.415
 5186SOL     OW15901   3.328   1.417   6.539
 5186SOL    HW115902   3.269   1.423   6.619
 5186SOL    HW215903   3.313   1.329   6.493
 5187SOL     OW15904   3.529   1.714   6.158
 5187SOL    HW115905   3.488   1.691   6.070
 5187SOL    HW215906   3.511   1.640   6.223
 5188SOL     OW15907   2.460   0.729   5.856
 5188SOL    HW115908   2.484   0.798   5.788
 5188SOL    HW215909   2.382   0.762   5.910
 5189SOL     OW15910   3.143   0.345   6.530
 5189SOL    HW115911   3.057   0.295   6.517
 5189SOL    HW215912   3.205   0.291   6.586
 5190SOL     OW15913   3.438   1.662   5.893
 5190SOL    HW115914   3.527   1.708   5.896
 5190SOL    HW215915   3.417   1.638   5.798
 5191SOL     OW15916   2.669   0.605   7.051
 5191SOL    HW115917   2.622   0.602   7.140
 5191SOL    HW215918   2.618   0.550   6.985
 5192SOL     OW15919   3.256   0.469   7.260
 5192SOL    HW115920   3.236   0.512   7.348
 5192SOL    HW215921   3.334   0.407   7.269
 5193SOL     OW15922   2.835   0.890   7.158
 5193SOL    HW115923   2.881   0.806   7.129
 5193SOL    HW215924   2.779   0.924   7.083
 5194SOL     OW15925   2.853   0.410   6.828
 5194SOL    HW115926   2.776   0.444   6.882
 5194SOL    HW215927   2.819   0.359   6.749
 5195SOL     OW15928   2.903   0.701   6.015
 5195SOL    HW115929   2.929   0.697   6.111
 5195SOL    HW215930   2.818   0.650   6.001
 5196SOL     OW15931   1.938   0.811   6.375
 5196SOL    HW115932   2.037   0.799   6.384
 5196SOL    HW215933   1.914   0.906   6.396
 5197SOL     OW15934   1.992   1.821   7.157
 5197SOL    HW115935   1.982   1.806   7.256
 5197SOL    HW215936   1.906   1.857   7.121
 5198SOL     OW15937   2.727   0.348   5.781
 5198SOL    HW115938   2.786   0.411   5.732
 5198SOL    HW215939   2.746   0.254   5.752
 5199SOL     OW15940   3.581   0.585   7.417
 5199SOL    HW115941   3.555   0.674   7.381
 5199SOL    HW215942   3.579   0.517   7.344
 5200SOL     OW15943   3.224   1.144   6.131
 5200SOL    HW115944   3.307   1.115   6.083
 5200SOL    HW215945   3.175   1.211   6.075
 5201SOL     OW15946   2.412   0.196   6.471
 5201SOL    HW115947   2.407   0.191   6.571
 5201SOL    HW215948   2.414   0.292   6.442
 5202SOL     OW15949   2.870   1.456   6.063
 5202SOL    HW115950   2.824   1.528   6.011
 5202SOL    HW215951   2.866   1.476   6.161
 5203SOL     OW15952   2.213   1.801   6.439
 5203SOL    HW115953   2.263   1.715   6.445
 5203SOL    HW215954   2.278   1.878   6.436
 5204SOL     OW15955   3.657   1.066   6.459
 5204SOL    HW115956   3.595   1.051   6.383
 5204SOL    HW215957   3.605   1.077   6.544
 5205SOL     OW15958   3.089   1.550   7.092
 5205SOL    HW115959   3.095   1.473   7.156
 5205SOL    HW215960   3.037   1.524   7.012
 5206SOL     OW15961   2.183   0.943   5.828
 5206SOL    HW115962   2.265   0.982   5.786
 5206SOL    HW215963   2.156   0.861   5.779
 5207SOL     OW15964   3.320   0.735   6.314
 5207SOL    HW115965   3.315   0.670   6.389
 5207SOL    HW215966   3.400   0.794   6.327
 5208SOL     OW15967   2.323   1.266   7.313
 5208SOL    HW115968   2.273   1.267   7.227
 5208SOL    HW215969   2.260   1.248   7.389
 5209SOL     OW15970   2.973   1.776   5.823
 5209SOL    HW115971   2.913   1.714   5.873
 5209SOL    HW215972   3.004   1.732   5.738
 5210SOL     OW15973   2.064   0.285   7.084
 5210SOL    HW115974   1.984   0.345   7.071
 5210SOL    HW215975   2.054   0.236   7.170
 5211SOL     OW15976   3.494   1.377   5.667
 5211SOL    HW115977   3.462   1.471   5.657
 5211SOL    HW215978   3.418   1.314   5.655
 5212SOL     OW15979   2.326   1.743   5.909
 5212SOL    HW115980   2.359   1.782   5.995
 5212SOL    HW215981   2.402   1.736   5.844
 5213SOL     OW15982   3.262   0.107   6.012
 5213SOL    HW115983   3.238   0.070   5.922
 5213SOL    HW215984   3.361   0.123   6.016
 5214SOL     OW15985   2.111   1.785   6.827
 5214SOL    HW115986   2.168   1.720   6.877
 5214SOL    HW215987   2.095   1.752   6.734
 5215SOL     OW15988   2.802   1.698   6.490
 5215SOL    HW115989   2.882   1.641   6.511
 5215SOL    HW215990   2.753   1.658   6.413
 5216SOL     OW15991   2.244   0.700   6.066
 5216SOL    HW115992   2.289   0.610   6.063
 5216SOL    HW215993   2.150   0.689   6.099
 5217SOL     OW15994   3.409   0.222   7.315
 5217SOL    HW115995   3.404   0.259   7.407
 5217SOL    HW215996   3.337   0.153   7.303
 5218SOL     OW15997   2.476   0.122   5.703
 5218SOL    HW115998   2.574   0.100   5.710
 5218SOL    HW215999   2.445   0.105   5.610
 5219SOL     OW16000   2.643   0.264   7.335
 5219SOL    HW116001   2.710   0.203   7.378
 5219SOL    HW216002   2.570   0.283   7.400
 5220SOL     OW16003   2.750   1.514   6.781
 5220SOL    HW116004   2.727   1.489   6.687
 5220SOL    HW216005   2.811   1.445   6.820
 5221SOL     OW16006   3.213   0.590   7.019
 5221SOL    HW116007   3.241   0.547   7.104
 5221SOL    HW216008   3.238   0.686   7.020
 5222SOL     OW16009   2.665   1.402   6.510
 5222SOL    HW116010   2.755   1.416   6.468
 5222SOL    HW216011   2.594   1.404   6.439
 5223SOL     OW16012   2.784   0.503   6.485
 5223SOL    HW116013   2.759   0.494   6.389
 5223SOL    HW216014   2.832   0.421   6.516
 5224SOL     OW16015   2.401   0.064   6.098
 5224SOL    HW116016   2.320   0.065   6.156
 5224SOL    HW216017   2.404   0.147   6.043
 5225SOL     OW16018   3.296   1.188   5.627
 5225SOL    HW116019   3.328   1.112   5.684
 5225SOL    HW216020   3.204   1.215   5.657
 5226SOL     OW16021   2.159   0.035   5.757
 5226SOL    HW116022   2.208   0.119   5.736
 5226SOL    HW216023   2.221  -0.030   5.802
 5227SOL     OW16024   2.797   0.236   6.066
 5227SOL    HW116025   2.749   0.277   5.988
 5227SOL    HW216026   2.896   0.234   6.047
 5228SOL     OW16027   2.938   0.683   7.050
 5228SOL    HW116028   2.858   0.622   7.053
 5228SOL    HW216029   3.019   0.630   7.026
 5229SOL     OW16030   3.089   1.570   6.379
 5229SOL    HW116031   3.110   1.644   6.314
 5229SOL    HW216032   3.157   1.570   6.452
 5230SOL     OW16033   2.321   1.152   6.327
 5230SOL    HW116034   2.250   1.125   6.392
 5230SOL    HW216035   2.295   1.124   6.234
 5231SOL     OW16036   3.133   1.797   6.177
 5231SOL    HW116037   3.177   1.861   6.113
 5231SOL    HW216038   3.083   1.849   6.247
 5232SOL     OW16039   2.894   0.549   5.602
 5232SOL    HW116040   2.853   0.631   5.563
 5232SOL    HW216041   2.958   0.575   5.675
 5233SOL     OW16042   1.940   0.556   6.972
 5233SOL    HW116043   2.032   0.555   6.931
 5233SOL    HW216044   1.934   0.630   7.039
 5234SOL     OW16045   2.423   0.222   6.733
 5234SOL    HW116046   2.461   0.138   6.770
 5234SOL    HW216047   2.335   0.241   6.777
 5235SOL     OW16048   2.728   0.454   6.228
 5235SOL    HW116049   2.696   0.526   6.166
 5235SOL    HW216050   2.752   0.373   6.175
 5236SOL     OW16051   2.879   0.039   6.339
 5236SOL    HW116052   2.807   0.044   6.270
 5236SOL    HW216053   2.855  -0.030   6.408
 5237SOL     OW16054   3.291   1.173   6.453
 5237SOL    HW116055   3.236   1.089   6.446
 5237SOL    HW216056   3.317   1.202   6.361
 5238SOL     OW16057   3.328   0.590   6.578
 5238SOL    HW116058   3.298   0.495   6.585
 5238SOL    HW216059   3.401   0.606   6.644
 5239SOL     OW16060   3.719   0.833   5.963
 5239SOL    HW116061   3.761   0.769   6.027
 5239SOL    HW216062   3.681   0.782   5.885
 5240SOL     OW16063   2.350   1.385   5.760
 5240SOL    HW116064   2.263   1.370   5.807
 5240SOL    HW216065   2.333   1.411   5.665
 5241SOL     OW16066   3.526   1.280   6.243
 5241SOL    HW116067   3.625   1.288   6.257
 5241SOL    HW216068   3.481   1.364   6.274
 5242SOL     OW16069   3.252   0.575   5.664
 5242SOL    HW116070   3.198   0.554   5.745
 5242SOL    HW216071   3.343   0.534   5.673
 5243SOL     OW16072   2.389   0.256   5.914
 5243SOL    HW116073   2.416   0.197   5.839
 5243SOL    HW216074   2.389   0.351   5.883
 5244SOL     OW16075   3.616   1.223   7.174
 5244SOL    HW116076   3.707   1.184   7.161
 5244SOL    HW216077   3.624   1.319   7.198
 5245SOL     OW16078   2.926   1.347   6.926
 5245SOL    HW116079   2.846   1.324   6.981
 5245SOL    HW216080   3.009   1.321   6.975
 5246SOL     OW16081   3.454   1.629   7.211
 5246SOL    HW116082   3.481   1.663   7.121
 5246SOL    HW216083   3.533   1.591   7.257
 5247SOL     OW16084   2.973   1.195   6.686
 5247SOL    HW116085   2.933   1.239   6.767
 5247SOL    HW216086   2.932   1.232   6.603
 5248SOL     OW16087   3.500   1.099   6.665
 5248SOL    HW116088   3.505   1.180   6.724
 5248SOL    HW216089   3.414   1.101   6.614
 5249SOL     OW16090   2.777   0.089   6.988
 5249SOL    HW116091   2.802   0.069   6.893
 5249SOL    HW216092   2.849   0.145   7.030
 5250SOL     OW16093   2.842   1.116   7.305
 5250SOL    HW116094   2.743   1.122   7.315
 5250SOL    HW216095   2.865   1.036   7.249
 5251SOL     OW16096   2.567   1.050   5.954
 5251SOL    HW116097   2.553   1.057   6.053
 5251SOL    HW216098   2.651   0.999   5.936
 5252SOL     OW16099   2.272   0.813   6.837
 5252SOL    HW116100   2.358   0.825   6.887
 5252SOL    HW216101   2.230   0.726   6.864
 5253SOL     OW16102   3.136   0.386   6.848
 5253SOL    HW116103   3.157   0.460   6.912
 5253SOL    HW216104   3.047   0.403   6.805
 5254SOL     OW16105   1.926   1.564   6.917
 5254SOL    HW116106   1.880   1.646   6.883
 5254SOL    HW216107   2.024   1.583   6.926
 5255SOL     OW16108   2.229   1.100   6.087
 5255SOL    HW116109   2.222   1.183   6.031
 5255SOL    HW216110   2.233   1.020   6.027
 5256SOL     OW16111   2.428   0.537   6.451
 5256SOL    HW116112   2.440   0.603   6.377
 5256SOL    HW216113   2.474   0.571   6.534
 5257SOL     OW16114   3.114   1.348   5.974
 5257SOL    HW116115   3.164   1.425   6.014
 5257SOL    HW216116   3.019   1.350   6.006
 5258SOL     OW16117   3.134   1.445   6.728
 5258SOL    HW116118   3.181   1.458   6.815
 5258SOL    HW216119   3.068   1.371   6.737
 5259SOL     OW16120   3.444   0.639   6.058
 5259SOL    HW116121   3.413   0.700   6.131
 5259SOL    HW216122   3.494   0.691   5.989
 5260SOL     OW16123   2.216   1.510   6.915
 5260SOL    HW116124   2.195   1.466   6.828
 5260SOL    HW216125   2.313   1.536   6.918
 5261SOL     OW16126   2.264   0.751   7.184
 5261SOL    HW116127   2.332   0.806   7.137
 5261SOL    HW216128   2.304   0.663   7.211
 5262SOL     OW16129   3.449   0.779   7.256
 5262SOL    HW116130   3.357   0.817   7.251
 5262SOL    HW216131   3.509   0.826   7.191
 5263SOL     OW16132   2.875   0.105   7.356
 5263SOL    HW116133   2.881   0.190   7.304
 5263SOL    HW216134   2.907   0.029   7.299
 5264SOL     OW16135   2.366   0.050   7.326
 5264SOL    HW116136   2.324  -0.007   7.256
 5264SOL    HW216137   2.300   0.119   7.358
 5265SOL     OW16138   2.435   0.870   6.615
 5265SOL    HW116139   2.479   0.959   6.606
 5265SOL    HW216140   2.372   0.870   6.692
 5266SOL     OW16141   3.222   0.862   6.631
 5266SOL    HW116142   3.147   0.862   6.565
 5266SOL    HW216143   3.259   0.770   6.640
 5267SOL     OW16144   3.071   0.525   5.861
 5267SOL    HW116145   3.084   0.441   5.915
 5267SOL    HW216146   3.042   0.599   5.921
 5268SOL     OW16147   2.169   0.213   6.817
 5268SOL    HW116148   2.146   0.250   6.907
 5268SOL    HW216149   2.139   0.118   6.811
 5269SOL     OW16150   1.899   1.310   6.868
 5269SOL    HW116151   1.952   1.261   6.936
 5269SOL    HW216152   1.921   1.408   6.873
 5270SOL     OW16153   2.594   0.634   6.650
 5270SOL    HW116154   2.653   0.608   6.574
 5270SOL    HW216155   2.566   0.730   6.639
 5271SOL     OW16156   3.590   0.935   7.440
 5271SOL    HW116157   3.544   0.928   7.351
 5271SOL    HW216158   3.528   0.979   7.506
 5272SOL     OW16159   2.169   0.063   6.204
 5272SOL    HW116160   2.158   0.157   6.237
 5272SOL    HW216161   2.164   0.000   6.281
 5273SOL     OW16162   3.484   0.367   5.960
 5273SOL    HW116163   3.486   0.291   6.024
 5273SOL    HW216164   3.436   0.444   6.000
 5274SOL     OW16165   2.885   0.766   6.552
 5274SOL    HW116166   2.900   0.787   6.648
 5274SOL    HW216167   2.855   0.671   6.543
 5275SOL     OW16168   2.842   1.573   7.286
 5275SOL    HW116169   2.822   1.617   7.198
 5275SOL    HW216170   2.881   1.482   7.270
 5276SOL     OW16171   3.721   1.518   7.191
 5276SOL    HW116172   3.735   1.545   7.096
 5276SOL    HW216173   3.804   1.540   7.244
 5277SOL     OW16174   2.212   0.898   7.390
 5277SOL    HW116175   2.288   0.942   7.438
 5277SOL    HW216176   2.247   0.851   7.308
 5278SOL     OW16177   3.402   0.274   5.711
 5278SOL    HW116178   3.341   0.199   5.734
 5278SOL    HW216179   3.424   0.326   5.794
 5279SOL     OW16180   3.165   0.838   5.628
 5279SOL    HW116181   3.199   0.745   5.643
 5279SOL    HW216182   3.183   0.865   5.533
 5280SOL     OW16183   2.930   1.333   6.435
 5280SOL    HW116184   2.937   1.249   6.380
 5280SOL    HW216185   2.992   1.402   6.399
 5281SOL     OW16186   2.181   0.810   6.535
 5281SOL    HW116187   2.274   0.846   6.540
 5281SOL    HW216188   2.175   0.725   6.587
 5282SOL     OW16189   2.201   0.509   6.592
 5282SOL    HW116190   2.149   0.426   6.575
 5282SOL    HW216191   2.278   0.514   6.528
 5283SOL     OW16192   3.000   0.380   7.264
 5283SOL    HW116193   2.955   0.443   7.328
 5283SOL    HW216194   3.093   0.411   7.247
 5284SOL     OW16195   3.022   0.207   7.063
 5284SOL    HW116196   3.022   0.271   7.140
 5284SOL    HW216197   3.050   0.255   6.980
 5285SOL     OW16198   1.870   1.326   5.786
 5285SOL    HW116199   1.777   1.347   5.755
 5285SOL    HW216200   1.880   1.227   5.799
 5286SOL     OW16201   1.950   1.801   6.513
 5286SOL    HW116202   1.908   1.715   6.486
 5286SOL    HW216203   2.044   1.804   6.479
 5287SOL     OW16204   2.366   1.568   6.496
 5287SOL    HW116205   2.432   1.642   6.505
 5287SOL    HW216206   2.410   1.489   6.454
 5288SOL     OW16207   2.864   0.796   6.824
 5288SOL    HW116208   2.905   0.764   6.910
 5288SOL    HW216209   2.768   0.769   6.821
 5289SOL     OW16210   1.902   0.544   6.700
 5289SOL    HW116211   1.987   0.511   6.659
 5289SOL    HW216212   1.915   0.559   6.798
 5290SOL     OW16213   2.051   0.520   7.308
 5290SOL    HW116214   2.110   0.480   7.238
 5290SOL    HW216215   1.993   0.591   7.267
 5291SOL     OW16216   3.231   0.950   7.246
 5291SOL    HW116217   3.270   1.039   7.266
 5291SOL    HW216218   3.241   0.930   7.149
 5292SOL     OW16219   2.677   0.572   5.911
 5292SOL    HW116220   2.684   0.483   5.865
 5292SOL    HW216221   2.583   0.606   5.903
 5293SOL     OW16222   3.519   0.604   6.792
 5293SOL    HW116223   3.481   0.535   6.854
 5293SOL    HW216224   3.601   0.568   6.748
 5294SOL     OW16225   2.114   1.564   7.330
 5294SOL    HW116226   2.084   1.621   7.406
 5294SOL    HW216227   2.107   1.467   7.356
 5295SOL     OW16228   2.533   0.464   6.855
 5295SOL    HW116229   2.499   0.375   6.825
 5295SOL    HW216230   2.559   0.518   6.775
 5296SOL     OW16231   2.792   1.678   7.051
 5296SOL    HW116232   2.768   1.660   6.956
 5296SOL    HW216233   2.822   1.772   7.061
 5297SOL     OW16234   2.335   0.500   5.777
 5297SOL    HW116235   2.396   0.580   5.781
 5297SOL    HW216236   2.240   0.531   5.784
 5298SOL     OW16237   2.021   1.137   7.052
 5298SOL    HW116238   2.043   1.076   7.128
 5298SOL    HW216239   2.031   1.088   6.966
 5299SOL     OW16240   3.209   1.059   6.820
 5299SOL    HW116241   3.233   0.996   6.746
 5299SOL    HW216242   3.119   1.099   6.802
 5300SOL     OW16243   3.164   0.855   5.895
 5300SOL    HW116244   3.078   0.824   5.937
 5300SOL    HW216245   3.160   0.841   5.796
 5301SOL     OW16246   3.621   1.747   6.740
 5301SOL    HW116247   3.682   1.777   6.667
 5301SOL    HW216248   3.583   1.658   6.718
 5302SOL     OW16249   3.114   1.731   6.714
 5302SOL    HW116250   3.198   1.736   6.660
 5302SOL    HW216251   3.091   1.635   6.732
 5303SOL     OW16252   1.945   1.258   6.608
 5303SOL    HW116253   1.940   1.257   6.708
 5303SOL    HW216254   1.862   1.217   6.570
 5304SOL     OW16255   2.550   1.662   7.302
 5304SOL    HW116256   2.494   1.743   7.311
 5304SOL    HW216257   2.602   1.666   7.216
 5305SOL     OW16258   3.588   0.135   6.109
 5305SOL    HW116259   3.661   0.118   6.042
 5305SOL    HW216260   3.557   0.048   6.147
 5306SOL     OW16261   3.250   1.573   6.063
 5306SOL    HW116262   3.317   1.585   5.989
 5306SOL    HW216263   3.210   1.662   6.086
 5307SOL     OW16264   1.992   1.794   7.437
 5307SOL    HW116265   1.951   1.720   7.490
 5307SOL    HW216266   2.056   1.845   7.495
 5308SOL     OW16267   3.142   0.927   6.258
 5308SOL    HW116268   3.202   0.846   6.260
 5308SOL    HW216269   3.182   0.996   6.198
 5309SOL     OW16270   2.692   1.273   7.008
 5309SOL    HW116271   2.687   1.306   7.103
 5309SOL    HW216272   2.606   1.292   6.962
 5310SOL     OW16273   2.534   1.616   5.740
 5310SOL    HW116274   2.543   1.626   5.641
 5310SOL    HW216275   2.494   1.527   5.761
 5311SOL     OW16276   3.512   1.720   6.980
 5311SOL    HW116277   3.565   1.730   6.896
 5311SOL    HW216278   3.485   1.810   7.014
 5312SOL     OW16279   3.703   0.175   6.549
 5312SOL    HW116280   3.742   0.090   6.513
 5312SOL    HW216281   3.605   0.177   6.530
 5313SOL     OW16282   2.125   0.326   6.306
 5313SOL    HW116283   2.046   0.377   6.272
 5313SOL    HW216284   2.116   0.311   6.404
 5314SOL     OW16285   3.056   1.612   5.617
 5314SOL    HW116286   3.062   1.519   5.654
 5314SOL    HW216287   2.997   1.612   5.537
 5315SOL     OW16288   2.684   1.002   6.958
 5315SOL    HW116289   2.724   1.001   6.866
 5315SOL    HW216290   2.694   1.094   6.998
 5316SOL     OW16291   2.778   0.910   5.877
 5316SOL    HW116292   2.841   0.948   5.809
 5316SOL    HW216293   2.818   0.827   5.916
 5317SOL     OW16294   3.366   1.607   5.630
 5317SOL    HW116295   3.274   1.644   5.637
 5317SOL    HW216296   3.404   1.627   5.540
 5318SOL     OW16297   2.234   1.288   7.076
 5318SOL    HW116298   2.221   1.381   7.042
 5318SOL    HW216299   2.150   1.236   7.063
 5319SOL     OW16300   3.476   1.292   6.875
 5319SOL    HW116301   3.536   1.295   6.955
 5319SOL    HW216302   3.401   1.356   6.888
 5320SOL     OW16303   2.901   1.098   6.282
 5320SOL    HW116304   2.831   1.051   6.336
 5320SOL    HW216305   2.960   1.030   6.239
 5321SOL     OW16306   2.876   0.236   6.557
 5321SOL    HW116307   2.868   0.200   6.464
 5321SOL    HW216308   2.874   0.160   6.622
 5322SOL     OW16309   2.452   1.487   6.077
 5322SOL    HW116310   2.494   1.429   6.007
 5322SOL    HW216311   2.408   1.566   6.033
 5323SOL     OW16312   3.571   0.385   6.967
 5323SOL    HW116313   3.644   0.454   6.971
 5323SOL    HW216314   3.599   0.310   6.908
 5324SOL     OW16315   2.117   1.348   5.876
 5324SOL    HW116316   2.021   1.349   5.849
 5324SOL    HW216317   2.129   1.401   5.960
 5325SOL     OW16318   1.967   1.013   7.312
 5325SOL    HW116319   1.890   0.980   7.366
 5325SOL    HW216320   2.052   0.983   7.354
 5326SOL     OW16321   2.534   0.203   7.075
 5326SOL    HW116322   2.624   0.187   7.035
 5326SOL    HW216323   2.542   0.208   7.174
 5327SOL     OW16324   1.937   0.345   5.619
 5327SOL    HW116325   1.845   0.317   5.590
 5327SOL    HW216326   1.968   0.422   5.563
 5328SOL     OW16327   3.302   0.856   6.984
 5328SOL    HW116328   3.245   0.908   6.921
 5328SOL    HW216329   3.398   0.868   6.960
 5329SOL     OW16330   1.934   0.166   5.904
 5329SOL    HW116331   1.917   0.249   5.850
 5329SOL    HW216332   2.024   0.129   5.882
 5330SOL     OW16333   3.045   1.335   5.705
 5330SOL    HW116334   2.946   1.324   5.707
 5330SOL    HW216335   3.079   1.350   5.798
 5331SOL     OW16336   2.475   0.842   7.017
 5331SOL    HW116337   2.531   0.923   7.000
 5331SOL    HW216338   2.534   0.762   7.020
 5332SOL     OW16339   3.355   1.767   6.545
 5332SOL    HW116340   3.388   1.831   6.476
 5332SOL    HW216341   3.421   1.761   6.620
 5333SOL     OW16342   2.578   0.565   7.294
 5333SOL    HW116343   2.597   0.630   7.368
 5333SOL    HW216344   2.638   0.485   7.303
 5334SOL     OW16345   3.312   1.220   7.219
 5334SOL    HW116346   3.303   1.210   7.318
 5334SOL    HW216347   3.408   1.213   7.193
 5335SOL     OW16348   2.252   1.741   7.146
 5335SOL    HW116349   2.161   1.782   7.144
 5335SOL    HW216350   2.245   1.647   7.178
 5336SOL     OW16351   3.536   0.883   6.840
 5336SOL    HW116352   3.509   0.794   6.803
 5336SOL    HW216353   3.537   0.951   6.767
 5337SOL     OW16354   3.087   0.325   6.035
 5337SOL    HW116355   3.152   0.251   6.024
 5337SOL    HW216356   3.107   0.375   6.119
 5338SOL     OW16357   2.456   0.745   6.238
 5338SOL    HW116358   2.506   0.830   6.219
 5338SOL    HW216359   2.368   0.747   6.190
 5339SOL     OW16360   3.639   0.342   7.228
 5339SOL    HW116361   3.622   0.373   7.134
 5339SOL    HW216362   3.555   0.305   7.266
 5340SOL     OW16363   3.592   0.934   7.103
 5340SOL    HW116364   3.630   1.025   7.118
 5340SOL    HW216365   3.584   0.917   7.004
 5341SOL     OW16366   2.721   1.374   5.602
 5341SOL    HW116367   2.675   1.389   5.690
 5341SOL    HW216368   2.765   1.459   5.572
 5342SOL     OW16369   2.523   1.790   6.539
 5342SOL    HW116370   2.477   1.878   6.526
 5342SOL    HW216371   2.622   1.802   6.532
 5343SOL     OW16372   2.721   0.956   6.447
 5343SOL    HW116373   2.775   0.887   6.495
 5343SOL    HW216374   2.689   1.025   6.513
 5344SOL     OW16375   2.945   0.984   5.673
 5344SOL    HW116376   2.922   1.037   5.591
 5344SOL    HW216377   3.026   0.928   5.654
 5345SOL     OW16378   3.723   1.569   6.437
 5345SOL    HW116379   3.652   1.557   6.367
 5345SOL    HW216380   3.724   1.490   6.497
 5346SOL     OW16381   2.083   1.314   7.430
 5346SOL    HW116382   2.018   1.241   7.409
 5346SOL    HW216383   2.087   1.328   7.528
 5347SOL     OW16384   1.941   1.240   6.239
 5347SOL    HW116385   1.940   1.193   6.327
 5347SOL    HW216386   2.023   1.212   6.188
 5348SOL     OW16387   2.534   1.391   7.210
 5348SOL    HW116388   2.456   1.341   7.248
 5348SOL    HW216389   2.531   1.486   7.241
 5349SOL     OW16390   3.686   0.192   6.813
 5349SOL    HW116391   3.682   0.102   6.857
 5349SOL    HW216392   3.689   0.181   6.714
 5350SOL     OW16393   2.290   0.424   6.106
 5350SOL    HW116394   2.320   0.352   6.044
 5350SOL    HW216395   2.251   0.384   6.189
 5351SOL     OW16396   3.567   1.487   6.690
 5351SOL    HW116397   3.474   1.462   6.663
 5351SOL    HW216398   3.593   1.437   6.772
 5352SOL     OW16399   2.179   0.547   6.866
 5352SOL    HW116400   2.217   0.488   6.938
 5352SOL    HW216401   2.219   0.521   6.778
 5353SOL     OW16402   2.674   1.586   6.273
 5353SOL    HW116403   2.706   1.596   6.179
 5353SOL    HW216404   2.595   1.524   6.275
 5354SOL     OW16405   3.286   0.214   6.698
 5354SOL    HW116406   3.338   0.149   6.753
 5354SOL    HW216407   3.237   0.277   6.759
 5355SOL     OW16408   2.863   0.034   6.740
 5355SOL    HW116409   2.800  -0.038   6.709
 5355SOL    HW216410   2.956  -0.002   6.740
 5356SOL     OW16411   2.632   1.330   5.887
 5356SOL    HW116412   2.586   1.243   5.904
 5356SOL    HW216413   2.723   1.327   5.928
 5357SOL     OW16414   2.480   1.567   6.870
 5357SOL    HW116415   2.475   1.649   6.927
 5357SOL    HW216416   2.569   1.564   6.825
 5358SOL     OW16417   3.214   0.052   5.754
 5358SOL    HW116418   3.249   0.011   5.670
 5358SOL    HW216419   3.124   0.014   5.774
 5359SOL     OW16420   3.162   0.453   6.277
 5359SOL    HW116421   3.103   0.533   6.281
 5359SOL    HW216422   3.177   0.418   6.370
 5360SOL     OW16423   3.455   0.221   6.468
 5360SOL    HW116424   3.371   0.220   6.522
 5360SOL    HW216425   3.457   0.304   6.412
 5361SOL     OW16426   1.901   1.077   5.886
 5361SOL    HW116427   2.000   1.066   5.877
 5361SOL    HW216428   1.861   0.991   5.918
 5362SOL     OW16429   2.737   1.646   5.923
 5362SOL    HW116430   2.660   1.611   5.869
 5362SOL    HW216431   2.705   1.717   5.985
 5363SOL     OW16432   2.092   0.628   7.561
 5363SOL    HW116433   1.999   0.626   7.598
 5363SOL    HW216434   2.093   0.589   7.469
 5364SOL     OW16435   2.093   1.713   7.931
 5364SOL    HW116436   2.127   1.790   7.985
 5364SOL    HW216437   2.137   1.713   7.841
 5365SOL     OW16438   2.468   0.964   7.571
 5365SOL    HW116439   2.475   1.048   7.517
 5365SOL    HW216440   2.514   0.977   7.659
 5366SOL     OW16441   1.889   1.596   7.565
 5366SOL    HW116442   1.870   1.500   7.586
 5366SOL    HW216443   1.856   1.654   7.640
 5367SOL     OW16444   2.671   0.004   7.950
 5367SOL    HW116445   2.711   0.095   7.941
 5367SOL    HW216446   2.571   0.012   7.956
 5368SOL     OW16447   3.387   0.999   7.638
 5368SOL    HW116448   3.324   0.923   7.651
 5368SOL    HW216449   3.435   1.017   7.724
 5369SOL     OW16450   2.460   0.729   7.718
 5369SOL    HW116451   2.484   0.798   7.650
 5369SOL    HW216452   2.382   0.762   7.772
 5370SOL     OW16453   2.903   0.701   7.877
 5370SOL    HW116454   2.929   0.697   7.973
 5370SOL    HW216455   2.818   0.650   7.863
 5371SOL     OW16456   2.727   0.348   7.643
 5371SOL    HW116457   2.786   0.411   7.594
 5371SOL    HW216458   2.746   0.254   7.614
 5372SOL     OW16459   2.870   1.456   7.925
 5372SOL    HW116460   2.824   1.528   7.873
 5372SOL    HW216461   2.866   1.476   8.023
 5373SOL     OW16462   2.183   0.943   7.690
 5373SOL    HW116463   2.265   0.982   7.648
 5373SOL    HW216464   2.156   0.861   7.641
 5374SOL     OW16465   2.973   1.776   7.685
 5374SOL    HW116466   2.913   1.714   7.735
 5374SOL    HW216467   3.004   1.732   7.600
 5375SOL     OW16468   3.494   1.377   7.529
 5375SOL    HW116469   3.462   1.471   7.519
 5375SOL    HW216470   3.418   1.314   7.517
 5376SOL     OW16471   2.326   1.743   7.771
 5376SOL    HW116472   2.359   1.782   7.857
 5376SOL    HW216473   2.402   1.736   7.706
 5377SOL     OW16474   2.244   0.700   7.928
 5377SOL    HW116475   2.289   0.610   7.925
 5377SOL    HW216476   2.150   0.689   7.961
 5378SOL     OW16477   2.476   0.122   7.565
 5378SOL    HW116478   2.574   0.100   7.572
 5378SOL    HW216479   2.445   0.105   7.472
 5379SOL     OW16480   2.401   0.064   7.960
 5379SOL    HW116481   2.320   0.065   8.018
 5379SOL    HW216482   2.404   0.147   7.905
 5380SOL     OW16483   3.296   1.188   7.489
 5380SOL    HW116484   3.328   1.112   7.546
 5380SOL    HW216485   3.204   1.215   7.519
 5381SOL     OW16486   2.159   0.035   7.619
 5381SOL    HW116487   2.208   0.119   7.598
 5381SOL    HW216488   2.221  -0.030   7.664
 5382SOL     OW16489   2.797   0.236   7.928
 5382SOL    HW116490   2.749   0.277   7.850
 5382SOL    HW216491   2.896   0.234   7.909
 5383SOL     OW16492   2.894   0.549   7.464
 5383SOL    HW116493   2.853   0.631   7.425
 5383SOL    HW216494   2.958   0.575   7.537
 5384SOL     OW16495   2.350   1.385   7.622
 5384SOL    HW116496   2.263   1.370   7.669
 5384SOL    HW216497   2.333   1.411   7.527
 5385SOL     OW16498   3.252   0.575   7.526
 5385SOL    HW116499   3.198   0.554   7.607
 5385SOL    HW216500   3.343   0.534   7.535
 5386SOL     OW16501   2.389   0.256   7.776
 5386SOL    HW116502   2.416   0.197   7.701
 5386SOL    HW216503   2.389   0.351   7.745
 5387SOL     OW16504   2.567   1.050   7.816
 5387SOL    HW116505   2.553   1.057   7.915
 5387SOL    HW216506   2.651   0.999   7.798
 5388SOL     OW16507   2.229   1.100   7.949
 5388SOL    HW116508   2.222   1.183   7.893
 5388SOL    HW216509   2.233   1.020   7.889
 5389SOL     OW16510   3.402   0.274   7.573
 5389SOL    HW116511   3.341   0.199   7.596
 5389SOL    HW216512   3.424   0.326   7.656
 5390SOL     OW16513   3.165   0.838   7.490
 5390SOL    HW116514   3.199   0.745   7.505
 5390SOL    HW216515   3.183   0.865   7.395
 5391SOL     OW16516   1.870   1.326   7.648
 5391SOL    HW116517   1.777   1.347   7.617
 5391SOL    HW216518   1.880   1.227   7.661
 5392SOL     OW16519   2.677   0.572   7.773
 5392SOL    HW116520   2.684   0.483   7.727
 5392SOL    HW216521   2.583   0.606   7.765
 5393SOL     OW16522   2.335   0.500   7.639
 5393SOL    HW116523   2.396   0.580   7.643
 5393SOL    HW216524   2.240   0.531   7.646
 5394SOL     OW16525   3.250   1.573   7.925
 5394SOL    HW116526   3.317   1.585   7.851
 5394SOL    HW216527   3.210   1.662   7.948
 5395SOL     OW16528   2.534   1.616   7.602
 5395SOL    HW116529   2.543   1.626   7.503
 5395SOL    HW216530   2.494   1.527   7.623
 5396SOL     OW16531   3.056   1.612   7.479
 5396SOL    HW116532   3.062   1.519   7.516
 5396SOL    HW216533   2.997   1.612   7.399
 5397SOL     OW16534   2.778   0.910   7.739
 5397SOL    HW116535   2.841   0.948   7.671
 5397SOL    HW216536   2.818   0.827   7.778
 5398SOL     OW16537   3.366   1.607   7.492
 5398SOL    HW116538   3.274   1.644   7.499
 5398SOL    HW216539   3.404   1.627   7.402
 5399SOL     OW16540   2.452   1.487   7.939
 5399SOL    HW116541   2.494   1.429   7.869
 5399SOL    HW216542   2.408   1.566   7.895
 5400SOL     OW16543   2.117   1.348   7.738
 5400SOL    HW116544   2.021   1.349   7.711
 5400SOL    HW216545   2.129   1.401   7.822
 5401SOL     OW16546   1.937   0.345   7.481
 5401SOL    HW116547   1.845   0.317   7.452
 5401SOL    HW216548   1.968   0.422   7.425
 5402SOL     OW16549   1.934   0.166   7.766
 5402SOL    HW116550   1.917   0.249   7.712
 5402SOL    HW216551   2.024   0.129   7.744
 5403SOL     OW16552   2.721   1.374   7.464
 5403SOL    HW116553   2.675   1.389   7.552
 5403SOL    HW216554   2.765   1.459   7.434
 5404SOL     OW16555   2.945   0.984   7.535
 5404SOL    HW116556   2.922   1.037   7.453
 5404SOL    HW216557   3.026   0.928   7.516
 5405SOL     OW16558   2.290   0.424   7.968
 5405SOL    HW116559   2.320   0.352   7.906
 5405SOL    HW216560   2.251   0.384   8.051
 5406SOL     OW16561   2.632   1.330   7.749
 5406SOL    HW116562   2.586   1.243   7.766
 5406SOL    HW216563   2.723   1.327   7.790
 5407SOL     OW16564   3.214   0.052   7.616
 5407SOL    HW116565   3.249   0.011   7.532
 5407SOL    HW216566   3.124   0.014   7.636
 5408SOL     OW16567   1.901   1.077   7.748
 5408SOL    HW116568   2.000   1.066   7.739
 5408SOL    HW216569   1.861   0.991   7.780
 5409SOL     OW16570   2.737   1.646   7.785
 5409SOL    HW116571   2.660   1.611   7.731
 5409SOL    HW216572   2.705   1.717   7.847
 5410SOL     OW16573   2.092   2.490   0.113
 5410SOL    HW116574   1.999   2.488   0.150
 5410SOL    HW216575   2.093   2.451   0.021
 5411SOL     OW16576   2.087   2.137   0.996
 5411SOL    HW116577   2.122   2.120   1.088
 5411SOL    HW216578   1.999   2.092   0.984
 5412SOL     OW16579   1.881   2.230   0.647
 5412SOL    HW116580   1.799   2.273   0.686
 5412SOL    HW216581   1.853   2.157   0.584
 5413SOL     OW16582   2.431   3.137   1.165
 5413SOL    HW116583   2.338   3.130   1.128
 5413SOL    HW216584   2.442   3.226   1.209
 5414SOL     OW16585   3.417   3.373   0.703
 5414SOL    HW116586   3.360   3.357   0.784
 5414SOL    HW216587   3.358   3.383   0.623
 5415SOL     OW16588   2.997   2.565   0.717
 5415SOL    HW116589   3.054   2.643   0.692
 5415SOL    HW216590   2.937   2.591   0.793
 5416SOL     OW16591   3.617   2.469   0.231
 5416SOL    HW116592   3.605   2.456   0.132
 5416SOL    HW216593   3.587   2.388   0.280
 5417SOL     OW16594   2.630   3.006   1.023
 5417SOL    HW116595   2.552   3.023   1.083
 5417SOL    HW216596   2.664   3.093   0.987
 5418SOL     OW16597   2.712   2.660   1.823
 5418SOL    HW116598   2.708   2.736   1.888
 5418SOL    HW216599   2.734   2.696   1.732
 5419SOL     OW16600   2.547   2.874   0.665
 5419SOL    HW116601   2.616   2.858   0.735
 5419SOL    HW216602   2.474   2.931   0.703
 5420SOL     OW16603   2.548   3.023   1.803
 5420SOL    HW116604   2.608   3.102   1.817
 5420SOL    HW216605   2.462   3.054   1.762
 5421SOL     OW16606   2.197   3.297   1.061
 5421SOL    HW116607   2.119   3.266   1.008
 5421SOL    HW216608   2.255   3.355   1.004
 5422SOL     OW16609   3.322   3.367   1.339
 5422SOL    HW116610   3.346   3.461   1.365
 5422SOL    HW216611   3.306   3.313   1.421
 5423SOL     OW16612   2.300   2.254   1.499
 5423SOL    HW116613   2.382   2.198   1.508
 5423SOL    HW216614   2.219   2.196   1.503
 5424SOL     OW16615   3.465   2.309   0.737
 5424SOL    HW116616   3.391   2.355   0.687
 5424SOL    HW216617   3.516   2.377   0.790
 5425SOL     OW16618   2.093   3.575   0.483
 5425SOL    HW116619   2.127   3.652   0.537
 5425SOL    HW216620   2.137   3.575   0.393
 5426SOL     OW16621   2.989   3.203   1.690
 5426SOL    HW116622   3.036   3.203   1.778
 5426SOL    HW216623   2.941   3.116   1.679
 5427SOL     OW16624   2.092   3.296   0.538
 5427SOL    HW116625   2.066   3.392   0.538
 5427SOL    HW216626   2.021   3.242   0.583
 5428SOL     OW16627   2.102   2.953   0.886
 5428SOL    HW116628   2.116   2.869   0.938
 5428SOL    HW216629   2.047   3.017   0.941
 5429SOL     OW16630   2.482   3.648   1.439
 5429SOL    HW116631   2.390   3.631   1.474
 5429SOL    HW216632   2.510   3.740   1.465
 5430SOL     OW16633   2.468   2.826   0.123
 5430SOL    HW116634   2.475   2.910   0.069
 5430SOL    HW216635   2.514   2.839   0.211
 5431SOL     OW16636   3.456   1.976   1.480
 5431SOL    HW116637   3.438   2.043   1.408
 5431SOL    HW216638   3.453   2.022   1.569
 5432SOL     OW16639   1.984   2.505   0.563
 5432SOL    HW116640   1.939   2.417   0.580
 5432SOL    HW216641   1.983   2.559   0.647
 5433SOL     OW16642   3.704   3.629   0.359
 5433SOL    HW116643   3.758   3.600   0.439
 5433SOL    HW216644   3.734   3.719   0.330
 5434SOL     OW16645   1.889   3.458   0.117
 5434SOL    HW116646   1.870   3.362   0.138
 5434SOL    HW216647   1.856   3.516   0.192
 5435SOL     OW16648   3.551   2.784   0.612
 5435SOL    HW116649   3.646   2.755   0.620
 5435SOL    HW216650   3.543   2.849   0.537
 5436SOL     OW16651   1.975   2.599   1.597
 5436SOL    HW116652   2.063   2.586   1.642
 5436SOL    HW216653   1.962   2.696   1.575
 5437SOL     OW16654   2.475   3.227   0.726
 5437SOL    HW116655   2.426   3.140   0.735
 5437SOL    HW216656   2.452   3.270   0.639
 5438SOL     OW16657   3.155   3.090   1.423
 5438SOL    HW116658   3.192   3.017   1.365
 5438SOL    HW216659   3.207   3.095   1.508
 5439SOL     OW16660   2.671   1.866   0.502
 5439SOL    HW116661   2.711   1.957   0.493
 5439SOL    HW216662   2.571   1.874   0.508
 5440SOL     OW16663   2.059   2.838   1.264
 5440SOL    HW116664   2.148   2.793   1.250
 5440SOL    HW216665   1.986   2.773   1.245
 5441SOL     OW16666   3.049   3.654   1.616
 5441SOL    HW116667   3.073   3.714   1.540
 5441SOL    HW216668   3.056   3.559   1.586
 5442SOL     OW16669   2.179   2.113   1.801
 5442SOL    HW116670   2.250   2.184   1.807
 5442SOL    HW216671   2.091   2.152   1.829
 5443SOL     OW16672   3.328   3.279   0.953
 5443SOL    HW116673   3.269   3.285   1.033
 5443SOL    HW216674   3.313   3.191   0.907
 5444SOL     OW16675   3.529   3.576   0.572
 5444SOL    HW116676   3.488   3.553   0.484
 5444SOL    HW216677   3.511   3.502   0.637
 5445SOL     OW16678   2.460   2.591   0.270
 5445SOL    HW116679   2.484   2.660   0.202
 5445SOL    HW216680   2.382   2.624   0.324
 5446SOL     OW16681   3.143   2.207   0.944
 5446SOL    HW116682   3.057   2.157   0.931
 5446SOL    HW216683   3.205   2.153   1.000
 5447SOL     OW16684   2.669   2.467   1.465
 5447SOL    HW116685   2.622   2.464   1.554
 5447SOL    HW216686   2.618   2.412   1.399
 5448SOL     OW16687   3.256   2.331   1.674
 5448SOL    HW116688   3.236   2.374   1.762
 5448SOL    HW216689   3.334   2.269   1.683
 5449SOL     OW16690   2.835   2.752   1.572
 5449SOL    HW116691   2.881   2.668   1.543
 5449SOL    HW216692   2.779   2.786   1.497
 5450SOL     OW16693   2.853   2.272   1.242
 5450SOL    HW116694   2.776   2.306   1.296
 5450SOL    HW216695   2.819   2.221   1.163
 5451SOL     OW16696   2.903   2.563   0.429
 5451SOL    HW116697   2.929   2.559   0.525
 5451SOL    HW216698   2.818   2.512   0.415
 5452SOL     OW16699   1.938   2.673   0.789
 5452SOL    HW116700   2.037   2.661   0.798
 5452SOL    HW216701   1.914   2.768   0.810
 5453SOL     OW16702   1.992   3.683   1.571
 5453SOL    HW116703   1.982   3.668   1.670
 5453SOL    HW216704   1.906   3.719   1.535
 5454SOL     OW16705   2.727   2.210   0.195
 5454SOL    HW116706   2.786   2.273   0.146
 5454SOL    HW216707   2.746   2.116   0.166
 5455SOL     OW16708   3.581   2.447   1.831
 5455SOL    HW116709   3.555   2.536   1.795
 5455SOL    HW216710   3.579   2.379   1.758
 5456SOL     OW16711   3.224   3.006   0.545
 5456SOL    HW116712   3.307   2.977   0.497
 5456SOL    HW216713   3.175   3.073   0.489
 5457SOL     OW16714   2.412   2.058   0.885
 5457SOL    HW116715   2.407   2.053   0.985
 5457SOL    HW216716   2.414   2.154   0.856
 5458SOL     OW16717   2.870   3.318   0.477
 5458SOL    HW116718   2.824   3.390   0.425
 5458SOL    HW216719   2.866   3.338   0.575
 5459SOL     OW16720   2.213   3.663   0.853
 5459SOL    HW116721   2.263   3.577   0.859
 5459SOL    HW216722   2.278   3.740   0.850
 5460SOL     OW16723   3.657   2.928   0.873
 5460SOL    HW116724   3.595   2.913   0.797
 5460SOL    HW216725   3.605   2.939   0.958
 5461SOL     OW16726   3.089   3.412   1.506
 5461SOL    HW116727   3.095   3.335   1.570
 5461SOL    HW216728   3.037   3.386   1.426
 5462SOL     OW16729   2.183   2.805   0.242
 5462SOL    HW116730   2.265   2.844   0.200
 5462SOL    HW216731   2.156   2.723   0.193
 5463SOL     OW16732   3.320   2.597   0.728
 5463SOL    HW116733   3.315   2.532   0.803
 5463SOL    HW216734   3.400   2.656   0.741
 5464SOL     OW16735   2.323   3.128   1.727
 5464SOL    HW116736   2.273   3.129   1.641
 5464SOL    HW216737   2.260   3.110   1.803
 5465SOL     OW16738   2.973   3.638   0.237
 5465SOL    HW116739   2.913   3.576   0.287
 5465SOL    HW216740   3.004   3.594   0.152
 5466SOL     OW16741   2.064   2.147   1.498
 5466SOL    HW116742   1.984   2.207   1.485
 5466SOL    HW216743   2.054   2.098   1.584
 5467SOL     OW16744   2.326   3.605   0.323
 5467SOL    HW116745   2.359   3.644   0.409
 5467SOL    HW216746   2.402   3.598   0.258
 5468SOL     OW16747   3.262   1.969   0.426
 5468SOL    HW116748   3.238   1.932   0.336
 5468SOL    HW216749   3.361   1.985   0.430
 5469SOL     OW16750   2.111   3.647   1.241
 5469SOL    HW116751   2.168   3.582   1.291
 5469SOL    HW216752   2.095   3.614   1.148
 5470SOL     OW16753   2.802   3.560   0.904
 5470SOL    HW116754   2.882   3.503   0.925
 5470SOL    HW216755   2.753   3.520   0.827
 5471SOL     OW16756   2.244   2.562   0.480
 5471SOL    HW116757   2.289   2.472   0.477
 5471SOL    HW216758   2.150   2.551   0.513
 5472SOL     OW16759   3.409   2.084   1.729
 5472SOL    HW116760   3.404   2.121   1.821
 5472SOL    HW216761   3.337   2.015   1.717
 5473SOL     OW16762   2.476   1.984   0.117
 5473SOL    HW116763   2.574   1.962   0.124
 5473SOL    HW216764   2.445   1.967   0.024
 5474SOL     OW16765   2.643   2.126   1.749
 5474SOL    HW116766   2.710   2.065   1.792
 5474SOL    HW216767   2.570   2.145   1.814
 5475SOL     OW16768   2.750   3.376   1.195
 5475SOL    HW116769   2.727   3.351   1.101
 5475SOL    HW216770   2.811   3.307   1.234
 5476SOL     OW16771   3.213   2.452   1.433
 5476SOL    HW116772   3.241   2.409   1.518
 5476SOL    HW216773   3.238   2.548   1.434
 5477SOL     OW16774   2.665   3.264   0.924
 5477SOL    HW116775   2.755   3.278   0.882
 5477SOL    HW216776   2.594   3.266   0.853
 5478SOL     OW16777   2.784   2.365   0.899
 5478SOL    HW116778   2.759   2.356   0.803
 5478SOL    HW216779   2.832   2.283   0.930
 5479SOL     OW16780   2.401   1.926   0.512
 5479SOL    HW116781   2.320   1.927   0.570
 5479SOL    HW216782   2.404   2.009   0.457
 5480SOL     OW16783   2.159   1.897   0.171
 5480SOL    HW116784   2.208   1.981   0.150
 5480SOL    HW216785   2.221   1.832   0.216
 5481SOL     OW16786   2.797   2.098   0.480
 5481SOL    HW116787   2.749   2.139   0.402
 5481SOL    HW216788   2.896   2.096   0.461
 5482SOL     OW16789   2.938   2.545   1.464
 5482SOL    HW116790   2.858   2.484   1.467
 5482SOL    HW216791   3.019   2.492   1.440
 5483SOL     OW16792   3.089   3.432   0.793
 5483SOL    HW116793   3.110   3.506   0.728
 5483SOL    HW216794   3.157   3.432   0.866
 5484SOL     OW16795   2.321   3.014   0.741
 5484SOL    HW116796   2.250   2.987   0.806
 5484SOL    HW216797   2.295   2.986   0.648
 5485SOL     OW16798   3.133   3.659   0.591
 5485SOL    HW116799   3.177   3.723   0.527
 5485SOL    HW216800   3.083   3.711   0.661
 5486SOL     OW16801   2.894   2.411   0.016
 5486SOL    HW116802   2.853   2.493  -0.023
 5486SOL    HW216803   2.958   2.437   0.089
 5487SOL     OW16804   1.940   2.418   1.386
 5487SOL    HW116805   2.032   2.417   1.345
 5487SOL    HW216806   1.934   2.492   1.453
 5488SOL     OW16807   2.423   2.084   1.147
 5488SOL    HW116808   2.461   2.000   1.184
 5488SOL    HW216809   2.335   2.103   1.191
 5489SOL     OW16810   2.728   2.316   0.642
 5489SOL    HW116811   2.696   2.388   0.580
 5489SOL    HW216812   2.752   2.235   0.589
 5490SOL     OW16813   2.879   1.901   0.753
 5490SOL    HW116814   2.807   1.906   0.684
 5490SOL    HW216815   2.855   1.832   0.822
 5491SOL     OW16816   3.291   3.035   0.867
 5491SOL    HW116817   3.236   2.951   0.860
 5491SOL    HW216818   3.317   3.064   0.775
 5492SOL     OW16819   3.328   2.452   0.992
 5492SOL    HW116820   3.298   2.357   0.999
 5492SOL    HW216821   3.401   2.468   1.058
 5493SOL     OW16822   2.350   3.247   0.174
 5493SOL    HW116823   2.263   3.232   0.221
 5493SOL    HW216824   2.333   3.273   0.079
 5494SOL     OW16825   3.526   3.142   0.657
 5494SOL    HW116826   3.625   3.150   0.671
 5494SOL    HW216827   3.481   3.226   0.688
 5495SOL     OW16828   2.389   2.118   0.328
 5495SOL    HW116829   2.416   2.059   0.253
 5495SOL    HW216830   2.389   2.213   0.297
 5496SOL     OW16831   3.616   3.085   1.588
 5496SOL    HW116832   3.707   3.046   1.575
 5496SOL    HW216833   3.624   3.181   1.612
 5497SOL     OW16834   2.926   3.209   1.340
 5497SOL    HW116835   2.846   3.186   1.395
 5497SOL    HW216836   3.009   3.183   1.389
 5498SOL     OW16837   3.454   3.491   1.625
 5498SOL    HW116838   3.481   3.525   1.535
 5498SOL    HW216839   3.533   3.453   1.671
 5499SOL     OW16840   2.973   3.057   1.100
 5499SOL    HW116841   2.933   3.101   1.181
 5499SOL    HW216842   2.932   3.094   1.017
 5500SOL     OW16843   3.500   2.961   1.079
 5500SOL    HW116844   3.505   3.042   1.138
 5500SOL    HW216845   3.414   2.963   1.028
 5501SOL     OW16846   2.777   1.951   1.402
 5501SOL    HW116847   2.802   1.931   1.307
 5501SOL    HW216848   2.849   2.007   1.444
 5502SOL     OW16849   2.842   2.978   1.719
 5502SOL    HW116850   2.743   2.984   1.729
 5502SOL    HW216851   2.865   2.898   1.663
 5503SOL     OW16852   2.567   2.912   0.368
 5503SOL    HW116853   2.553   2.919   0.467
 5503SOL    HW216854   2.651   2.861   0.350
 5504SOL     OW16855   2.272   2.675   1.251
 5504SOL    HW116856   2.358   2.687   1.301
 5504SOL    HW216857   2.230   2.588   1.278
 5505SOL     OW16858   3.136   2.248   1.262
 5505SOL    HW116859   3.157   2.322   1.326
 5505SOL    HW216860   3.047   2.265   1.219
 5506SOL     OW16861   1.926   3.426   1.331
 5506SOL    HW116862   1.880   3.508   1.297
 5506SOL    HW216863   2.024   3.445   1.340
 5507SOL     OW16864   2.229   2.962   0.501
 5507SOL    HW116865   2.222   3.045   0.445
 5507SOL    HW216866   2.233   2.882   0.441
 5508SOL     OW16867   2.428   2.399   0.865
 5508SOL    HW116868   2.440   2.465   0.791
 5508SOL    HW216869   2.474   2.433   0.948
 5509SOL     OW16870   3.114   3.210   0.388
 5509SOL    HW116871   3.164   3.287   0.428
 5509SOL    HW216872   3.019   3.212   0.420
 5510SOL     OW16873   3.134   3.307   1.142
 5510SOL    HW116874   3.181   3.320   1.229
 5510SOL    HW216875   3.068   3.233   1.151
 5511SOL     OW16876   3.444   2.501   0.472
 5511SOL    HW116877   3.413   2.562   0.545
 5511SOL    HW216878   3.494   2.553   0.403
 5512SOL     OW16879   2.216   3.372   1.329
 5512SOL    HW116880   2.195   3.328   1.242
 5512SOL    HW216881   2.313   3.398   1.332
 5513SOL     OW16882   2.264   2.613   1.598
 5513SOL    HW116883   2.332   2.668   1.551
 5513SOL    HW216884   2.304   2.525   1.625
 5514SOL     OW16885   3.449   2.641   1.670
 5514SOL    HW116886   3.357   2.679   1.665
 5514SOL    HW216887   3.509   2.688   1.605
 5515SOL     OW16888   2.875   1.967   1.770
 5515SOL    HW116889   2.881   2.052   1.718
 5515SOL    HW216890   2.907   1.891   1.713
 5516SOL     OW16891   2.366   1.912   1.740
 5516SOL    HW116892   2.324   1.855   1.670
 5516SOL    HW216893   2.300   1.981   1.772
 5517SOL     OW16894   2.435   2.732   1.029
 5517SOL    HW116895   2.479   2.821   1.020
 5517SOL    HW216896   2.372   2.732   1.106
 5518SOL     OW16897   3.222   2.724   1.045
 5518SOL    HW116898   3.147   2.724   0.979
 5518SOL    HW216899   3.259   2.632   1.054
 5519SOL     OW16900   3.071   2.387   0.275
 5519SOL    HW116901   3.084   2.303   0.329
 5519SOL    HW216902   3.042   2.461   0.335
 5520SOL     OW16903   2.169   2.075   1.231
 5520SOL    HW116904   2.146   2.112   1.321
 5520SOL    HW216905   2.139   1.980   1.225
 5521SOL     OW16906   1.899   3.172   1.282
 5521SOL    HW116907   1.952   3.123   1.350
 5521SOL    HW216908   1.921   3.270   1.287
 5522SOL     OW16909   2.594   2.496   1.064
 5522SOL    HW116910   2.653   2.470   0.988
 5522SOL    HW216911   2.566   2.592   1.053
 5523SOL     OW16912   3.590   2.797   1.854
 5523SOL    HW116913   3.544   2.790   1.765
 5523SOL    HW216914   3.528   2.841   1.920
 5524SOL     OW16915   2.169   1.925   0.618
 5524SOL    HW116916   2.158   2.019   0.651
 5524SOL    HW216917   2.164   1.862   0.695
 5525SOL     OW16918   2.885   2.628   0.966
 5525SOL    HW116919   2.900   2.649   1.062
 5525SOL    HW216920   2.855   2.533   0.957
 5526SOL     OW16921   2.842   3.435   1.700
 5526SOL    HW116922   2.822   3.479   1.612
 5526SOL    HW216923   2.881   3.344   1.684
 5527SOL     OW16924   3.721   3.380   1.605
 5527SOL    HW116925   3.735   3.407   1.510
 5527SOL    HW216926   3.804   3.402   1.658
 5528SOL     OW16927   2.212   2.760   1.804
 5528SOL    HW116928   2.288   2.804   1.852
 5528SOL    HW216929   2.247   2.713   1.722
 5529SOL     OW16930   2.930   3.195   0.849
 5529SOL    HW116931   2.937   3.111   0.794
 5529SOL    HW216932   2.992   3.264   0.813
 5530SOL     OW16933   2.181   2.672   0.949
 5530SOL    HW116934   2.274   2.708   0.954
 5530SOL    HW216935   2.175   2.587   1.001
 5531SOL     OW16936   2.201   2.371   1.006
 5531SOL    HW116937   2.149   2.288   0.989
 5531SOL    HW216938   2.278   2.376   0.942
 5532SOL     OW16939   3.000   2.242   1.678
 5532SOL    HW116940   2.955   2.305   1.742
 5532SOL    HW216941   3.093   2.273   1.661
 5533SOL     OW16942   3.022   2.069   1.477
 5533SOL    HW116943   3.022   2.133   1.554
 5533SOL    HW216944   3.050   2.117   1.394
 5534SOL     OW16945   1.870   3.188   0.200
 5534SOL    HW116946   1.777   3.209   0.169
 5534SOL    HW216947   1.880   3.089   0.213
 5535SOL     OW16948   1.950   3.663   0.927
 5535SOL    HW116949   1.908   3.577   0.900
 5535SOL    HW216950   2.044   3.666   0.893
 5536SOL     OW16951   2.366   3.430   0.910
 5536SOL    HW116952   2.432   3.504   0.919
 5536SOL    HW216953   2.410   3.351   0.868
 5537SOL     OW16954   2.864   2.658   1.238
 5537SOL    HW116955   2.905   2.626   1.324
 5537SOL    HW216956   2.768   2.631   1.235
 5538SOL     OW16957   1.902   2.406   1.114
 5538SOL    HW116958   1.987   2.373   1.073
 5538SOL    HW216959   1.915   2.421   1.212
 5539SOL     OW16960   2.051   2.382   1.722
 5539SOL    HW116961   2.110   2.342   1.652
 5539SOL    HW216962   1.993   2.453   1.681
 5540SOL     OW16963   3.231   2.812   1.660
 5540SOL    HW116964   3.270   2.901   1.680
 5540SOL    HW216965   3.241   2.792   1.563
 5541SOL     OW16966   2.677   2.434   0.325
 5541SOL    HW116967   2.684   2.345   0.279
 5541SOL    HW216968   2.583   2.468   0.317
 5542SOL     OW16969   3.519   2.466   1.206
 5542SOL    HW116970   3.481   2.397   1.268
 5542SOL    HW216971   3.601   2.430   1.162
 5543SOL     OW16972   2.114   3.426   1.744
 5543SOL    HW116973   2.084   3.483   1.820
 5543SOL    HW216974   2.107   3.329   1.770
 5544SOL     OW16975   2.533   2.326   1.269
 5544SOL    HW116976   2.499   2.237   1.239
 5544SOL    HW216977   2.559   2.380   1.189
 5545SOL     OW16978   2.792   3.540   1.465
 5545SOL    HW116979   2.768   3.522   1.370
 5545SOL    HW216980   2.822   3.634   1.475
 5546SOL     OW16981   2.335   2.362   0.191
 5546SOL    HW116982   2.396   2.442   0.195
 5546SOL    HW216983   2.240   2.393   0.198
 5547SOL     OW16984   2.021   2.999   1.466
 5547SOL    HW116985   2.043   2.938   1.542
 5547SOL    HW216986   2.031   2.950   1.380
 5548SOL     OW16987   3.209   2.921   1.234
 5548SOL    HW116988   3.233   2.858   1.160
 5548SOL    HW216989   3.119   2.961   1.216
 5549SOL     OW16990   3.164   2.717   0.309
 5549SOL    HW116991   3.078   2.686   0.351
 5549SOL    HW216992   3.160   2.703   0.210
 5550SOL     OW16993   3.621   3.609   1.154
 5550SOL    HW116994   3.682   3.639   1.081
 5550SOL    HW216995   3.583   3.520   1.132
 5551SOL     OW16996   3.114   3.593   1.128
 5551SOL    HW116997   3.198   3.598   1.074
 5551SOL    HW216998   3.091   3.497   1.146
 5552SOL     OW16999   1.945   3.120   1.022
 5552SOL    HW117000   1.940   3.119   1.122
 5552SOL    HW217001   1.862   3.079   0.984
 5553SOL     OW17002   2.550   3.524   1.716
 5553SOL    HW117003   2.494   3.605   1.725
 5553SOL    HW217004   2.602   3.528   1.630
 5554SOL     OW17005   2.765   1.948   0.133
 5554SOL    HW117006   2.816   1.949   0.047
 5554SOL    HW217007   2.821   1.906   0.204
 5555SOL     OW17008   3.588   1.997   0.523
 5555SOL    HW117009   3.661   1.980   0.456
 5555SOL    HW217010   3.557   1.910   0.561
 5556SOL     OW17011   3.250   3.435   0.477
 5556SOL    HW117012   3.317   3.447   0.403
 5556SOL    HW217013   3.210   3.524   0.500
 5557SOL     OW17014   1.992   3.656   1.851
 5557SOL    HW117015   1.951   3.582   1.904
 5557SOL    HW217016   2.056   3.707   1.909
 5558SOL     OW17017   3.142   2.789   0.672
 5558SOL    HW117018   3.202   2.708   0.674
 5558SOL    HW217019   3.182   2.858   0.612
 5559SOL     OW17020   2.692   3.135   1.422
 5559SOL    HW117021   2.687   3.168   1.517
 5559SOL    HW217022   2.606   3.154   1.376
 5560SOL     OW17023   2.534   3.478   0.154
 5560SOL    HW117024   2.543   3.488   0.055
 5560SOL    HW217025   2.494   3.389   0.175
 5561SOL     OW17026   3.512   3.582   1.394
 5561SOL    HW117027   3.565   3.592   1.310
 5561SOL    HW217028   3.485   3.672   1.428
 5562SOL     OW17029   3.703   2.037   0.963
 5562SOL    HW117030   3.742   1.952   0.927
 5562SOL    HW217031   3.605   2.039   0.944
 5563SOL     OW17032   2.125   2.188   0.720
 5563SOL    HW117033   2.046   2.239   0.686
 5563SOL    HW217034   2.116   2.173   0.818
 5564SOL     OW17035   3.056   3.474   0.031
 5564SOL    HW117036   3.062   3.381   0.068
 5564SOL    HW217037   2.997   3.474  -0.049
 5565SOL     OW17038   2.684   2.864   1.372
 5565SOL    HW117039   2.724   2.863   1.280
 5565SOL    HW217040   2.694   2.956   1.412
 5566SOL     OW17041   2.778   2.772   0.291
 5566SOL    HW117042   2.841   2.810   0.223
 5566SOL    HW217043   2.818   2.689   0.330
 5567SOL     OW17044   2.234   3.150   1.490
 5567SOL    HW117045   2.221   3.243   1.456
 5567SOL    HW217046   2.150   3.098   1.477
 5568SOL     OW17047   3.476   3.154   1.289
 5568SOL    HW117048   3.536   3.157   1.369
 5568SOL    HW217049   3.401   3.218   1.302
 5569SOL     OW17050   2.901   2.960   0.696
 5569SOL    HW117051   2.831   2.913   0.750
 5569SOL    HW217052   2.960   2.892   0.653
 5570SOL     OW17053   2.876   2.098   0.971
 5570SOL    HW117054   2.868   2.062   0.878
 5570SOL    HW217055   2.874   2.022   1.036
 5571SOL     OW17056   2.452   3.349   0.491
 5571SOL    HW117057   2.494   3.291   0.421
 5571SOL    HW217058   2.408   3.428   0.447
 5572SOL     OW17059   3.571   2.247   1.381
 5572SOL    HW117060   3.644   2.316   1.385
 5572SOL    HW217061   3.599   2.172   1.322
 5573SOL     OW17062   2.117   3.210   0.290
 5573SOL    HW117063   2.021   3.211   0.263
 5573SOL    HW217064   2.129   3.263   0.374
 5574SOL     OW17065   1.967   2.875   1.726
 5574SOL    HW117066   1.890   2.842   1.780
 5574SOL    HW217067   2.052   2.845   1.768
 5575SOL     OW17068   2.534   2.065   1.489
 5575SOL    HW117069   2.624   2.049   1.449
 5575SOL    HW217070   2.542   2.070   1.588
 5576SOL     OW17071   1.937   2.207   0.033
 5576SOL    HW117072   1.845   2.179   0.004
 5576SOL    HW217073   1.968   2.284  -0.023
 5577SOL     OW17074   3.302   2.718   1.398
 5577SOL    HW117075   3.245   2.770   1.335
 5577SOL    HW217076   3.398   2.730   1.374
 5578SOL     OW17077   1.934   2.028   0.318
 5578SOL    HW117078   1.917   2.111   0.264
 5578SOL    HW217079   2.024   1.991   0.296
 5579SOL     OW17080   3.045   3.197   0.119
 5579SOL    HW117081   2.946   3.186   0.121
 5579SOL    HW217082   3.079   3.212   0.212
 5580SOL     OW17083   2.475   2.704   1.431
 5580SOL    HW117084   2.531   2.785   1.414
 5580SOL    HW217085   2.534   2.624   1.434
 5581SOL     OW17086   3.355   3.629   0.959
 5581SOL    HW117087   3.388   3.693   0.890
 5581SOL    HW217088   3.421   3.623   1.034
 5582SOL     OW17089   2.578   2.427   1.708
 5582SOL    HW117090   2.597   2.492   1.782
 5582SOL    HW217091   2.638   2.347   1.717
 5583SOL     OW17092   3.312   3.082   1.633
 5583SOL    HW117093   3.303   3.072   1.732
 5583SOL    HW217094   3.408   3.075   1.607
 5584SOL     OW17095   2.252   3.603   1.560
 5584SOL    HW117096   2.161   3.644   1.558
 5584SOL    HW217097   2.245   3.509   1.592
 5585SOL     OW17098   3.536   2.745   1.254
 5585SOL    HW117099   3.509   2.656   1.217
 5585SOL    HW217100   3.537   2.813   1.181
 5586SOL     OW17101   3.087   2.187   0.449
 5586SOL    HW117102   3.152   2.113   0.438
 5586SOL    HW217103   3.107   2.237   0.533
 5587SOL     OW17104   2.456   2.607   0.652
 5587SOL    HW117105   2.506   2.692   0.633
 5587SOL    HW217106   2.368   2.609   0.604
 5588SOL     OW17107   3.639   2.204   1.642
 5588SOL    HW117108   3.622   2.235   1.548
 5588SOL    HW217109   3.555   2.167   1.680
 5589SOL     OW17110   3.592   2.796   1.517
 5589SOL    HW117111   3.630   2.887   1.532
 5589SOL    HW217112   3.584   2.779   1.418
 5590SOL     OW17113   2.721   3.236   0.016
 5590SOL    HW117114   2.675   3.251   0.104
 5590SOL    HW217115   2.765   3.321  -0.014
 5591SOL     OW17116   2.523   3.652   0.953
 5591SOL    HW117117   2.477   3.740   0.940
 5591SOL    HW217118   2.622   3.664   0.946
 5592SOL     OW17119   2.721   2.818   0.861
 5592SOL    HW117120   2.775   2.749   0.909
 5592SOL    HW217121   2.689   2.887   0.927
 5593SOL     OW17122   2.945   2.846   0.087
 5593SOL    HW117123   2.922   2.899   0.005
 5593SOL    HW217124   3.026   2.790   0.068
 5594SOL     OW17125   3.723   3.431   0.851
 5594SOL    HW117126   3.652   3.419   0.781
 5594SOL    HW217127   3.724   3.352   0.911
 5595SOL     OW17128   2.083   3.176   1.844
 5595SOL    HW117129   2.018   3.103   1.823
 5595SOL    HW217130   2.087   3.190   1.942
 5596SOL     OW17131   1.941   3.102   0.653
 5596SOL    HW117132   1.940   3.055   0.741
 5596SOL    HW217133   2.023   3.074   0.602
 5597SOL     OW17134   2.534   3.253   1.624
 5597SOL    HW117135   2.456   3.203   1.662
 5597SOL    HW217136   2.531   3.348   1.655
 5598SOL     OW17137   3.686   2.054   1.227
 5598SOL    HW117138   3.682   1.964   1.271
 5598SOL    HW217139   3.689   2.043   1.128
 5599SOL     OW17140   2.290   2.286   0.520
 5599SOL    HW117141   2.320   2.214   0.458
 5599SOL    HW217142   2.251   2.246   0.603
 5600SOL     OW17143   3.567   3.349   1.104
 5600SOL    HW117144   3.474   3.324   1.077
 5600SOL    HW217145   3.593   3.299   1.186
 5601SOL     OW17146   2.179   2.409   1.280
 5601SOL    HW117147   2.217   2.350   1.352
 5601SOL    HW217148   2.219   2.383   1.192
 5602SOL     OW17149   2.674   3.448   0.687
 5602SOL    HW117150   2.706   3.458   0.593
 5602SOL    HW217151   2.595   3.386   0.689
 5603SOL     OW17152   3.286   2.076   1.112
 5603SOL    HW117153   3.338   2.011   1.167
 5603SOL    HW217154   3.237   2.139   1.173
 5604SOL     OW17155   2.863   1.896   1.154
 5604SOL    HW117156   2.800   1.824   1.123
 5604SOL    HW217157   2.956   1.860   1.154
 5605SOL     OW17158   2.632   3.192   0.301
 5605SOL    HW117159   2.586   3.105   0.318
 5605SOL    HW217160   2.723   3.189   0.342
 5606SOL     OW17161   2.480   3.429   1.284
 5606SOL    HW117162   2.475   3.511   1.341
 5606SOL    HW217163   2.569   3.426   1.239
 5607SOL     OW17164   3.214   1.914   0.168
 5607SOL    HW117165   3.249   1.873   0.084
 5607SOL    HW217166   3.124   1.876   0.188
 5608SOL     OW17167   3.162   2.315   0.691
 5608SOL    HW117168   3.103   2.395   0.695
 5608SOL    HW217169   3.177   2.280   0.784
 5609SOL     OW17170   3.455   2.083   0.882
 5609SOL    HW117171   3.371   2.082   0.936
 5609SOL    HW217172   3.457   2.166   0.826
 5610SOL     OW17173   1.901   2.939   0.300
 5610SOL    HW117174   2.000   2.928   0.291
 5610SOL    HW217175   1.861   2.853   0.332
 5611SOL     OW17176   2.737   3.508   0.337
 5611SOL    HW117177   2.660   3.473   0.283
 5611SOL    HW217178   2.705   3.579   0.399
 5612SOL     OW17179   2.092   2.490   1.975
 5612SOL    HW117180   1.999   2.488   2.012
 5612SOL    HW217181   2.093   2.451   1.883
 5613SOL     OW17182   2.087   2.137   2.858
 5613SOL    HW117183   2.122   2.120   2.950
 5613SOL    HW217184   1.999   2.092   2.846
 5614SOL     OW17185   1.881   2.230   2.509
 5614SOL    HW117186   1.799   2.273   2.548
 5614SOL    HW217187   1.853   2.157   2.446
 5615SOL     OW17188   2.431   3.137   3.027
 5615SOL    HW117189   2.338   3.130   2.990
 5615SOL    HW217190   2.442   3.226   3.071
 5616SOL     OW17191   3.417   3.373   2.565
 5616SOL    HW117192   3.360   3.357   2.646
 5616SOL    HW217193   3.358   3.383   2.485
 5617SOL     OW17194   2.997   2.565   2.579
 5617SOL    HW117195   3.054   2.643   2.554
 5617SOL    HW217196   2.937   2.591   2.655
 5618SOL     OW17197   3.617   2.469   2.093
 5618SOL    HW117198   3.605   2.456   1.994
 5618SOL    HW217199   3.587   2.388   2.142
 5619SOL     OW17200   2.630   3.006   2.885
 5619SOL    HW117201   2.552   3.023   2.945
 5619SOL    HW217202   2.664   3.093   2.849
 5620SOL     OW17203   2.712   2.660   3.685
 5620SOL    HW117204   2.708   2.736   3.750
 5620SOL    HW217205   2.734   2.696   3.594
 5621SOL     OW17206   2.547   2.874   2.527
 5621SOL    HW117207   2.616   2.858   2.597
 5621SOL    HW217208   2.474   2.931   2.565
 5622SOL     OW17209   2.548   3.023   3.665
 5622SOL    HW117210   2.608   3.102   3.679
 5622SOL    HW217211   2.462   3.054   3.624
 5623SOL     OW17212   2.197   3.297   2.923
 5623SOL    HW117213   2.119   3.266   2.870
 5623SOL    HW217214   2.255   3.355   2.866
 5624SOL     OW17215   3.322   3.367   3.201
 5624SOL    HW117216   3.346   3.461   3.227
 5624SOL    HW217217   3.306   3.313   3.283
 5625SOL     OW17218   2.300   2.254   3.361
 5625SOL    HW117219   2.382   2.198   3.370
 5625SOL    HW217220   2.219   2.196   3.365
 5626SOL     OW17221   3.465   2.309   2.599
 5626SOL    HW117222   3.391   2.355   2.549
 5626SOL    HW217223   3.516   2.377   2.652
 5627SOL     OW17224   2.093   3.575   2.345
 5627SOL    HW117225   2.127   3.652   2.399
 5627SOL    HW217226   2.137   3.575   2.255
 5628SOL     OW17227   2.989   3.203   3.552
 5628SOL    HW117228   3.036   3.203   3.640
 5628SOL    HW217229   2.941   3.116   3.541
 5629SOL     OW17230   2.092   3.296   2.400
 5629SOL    HW117231   2.066   3.392   2.400
 5629SOL    HW217232   2.021   3.242   2.445
 5630SOL     OW17233   2.102   2.953   2.748
 5630SOL    HW117234   2.116   2.869   2.800
 5630SOL    HW217235   2.047   3.017   2.803
 5631SOL     OW17236   2.482   3.648   3.301
 5631SOL    HW117237   2.390   3.631   3.336
 5631SOL    HW217238   2.510   3.740   3.327
 5632SOL     OW17239   2.468   2.826   1.985
 5632SOL    HW117240   2.475   2.910   1.931
 5632SOL    HW217241   2.514   2.839   2.073
 5633SOL     OW17242   3.456   1.976   3.342
 5633SOL    HW117243   3.438   2.043   3.270
 5633SOL    HW217244   3.453   2.022   3.431
 5634SOL     OW17245   1.984   2.505   2.425
 5634SOL    HW117246   1.939   2.417   2.442
 5634SOL    HW217247   1.983   2.559   2.509
 5635SOL     OW17248   3.704   3.629   2.221
 5635SOL    HW117249   3.758   3.600   2.301
 5635SOL    HW217250   3.734   3.719   2.192
 5636SOL     OW17251   1.889   3.458   1.979
 5636SOL    HW117252   1.870   3.362   2.000
 5636SOL    HW217253   1.856   3.516   2.054
 5637SOL     OW17254   3.551   2.784   2.474
 5637SOL    HW117255   3.646   2.755   2.482
 5637SOL    HW217256   3.543   2.849   2.399
 5638SOL     OW17257   3.503   2.970   2.294
 5638SOL    HW117258   3.589   2.972   2.242
 5638SOL    HW217259   3.517   3.017   2.382
 5639SOL     OW17260   1.975   2.599   3.459
 5639SOL    HW117261   2.063   2.586   3.504
 5639SOL    HW217262   1.962   2.696   3.437
 5640SOL     OW17263   2.475   3.227   2.588
 5640SOL    HW117264   2.426   3.140   2.597
 5640SOL    HW217265   2.452   3.270   2.501
 5641SOL     OW17266   3.155   3.090   3.285
 5641SOL    HW117267   3.192   3.017   3.227
 5641SOL    HW217268   3.207   3.095   3.370
 5642SOL     OW17269   2.671   1.866   2.364
 5642SOL    HW117270   2.711   1.957   2.355
 5642SOL    HW217271   2.571   1.874   2.370
 5643SOL     OW17272   2.059   2.838   3.126
 5643SOL    HW117273   2.148   2.793   3.112
 5643SOL    HW217274   1.986   2.773   3.107
 5644SOL     OW17275   3.387   2.861   2.052
 5644SOL    HW117276   3.324   2.785   2.065
 5644SOL    HW217277   3.435   2.879   2.138
 5645SOL     OW17278   3.049   3.654   3.478
 5645SOL    HW117279   3.073   3.714   3.402
 5645SOL    HW217280   3.056   3.559   3.448
 5646SOL     OW17281   2.179   2.113   3.663
 5646SOL    HW117282   2.250   2.184   3.669
 5646SOL    HW217283   2.091   2.152   3.691
 5647SOL     OW17284   3.328   3.279   2.815
 5647SOL    HW117285   3.269   3.285   2.895
 5647SOL    HW217286   3.313   3.191   2.769
 5648SOL     OW17287   3.529   3.576   2.434
 5648SOL    HW117288   3.488   3.553   2.346
 5648SOL    HW217289   3.511   3.502   2.499
 5649SOL     OW17290   2.460   2.591   2.132
 5649SOL    HW117291   2.484   2.660   2.064
 5649SOL    HW217292   2.382   2.624   2.186
 5650SOL     OW17293   3.143   2.207   2.806
 5650SOL    HW117294   3.057   2.157   2.793
 5650SOL    HW217295   3.205   2.153   2.862
 5651SOL     OW17296   3.438   3.524   2.169
 5651SOL    HW117297   3.527   3.570   2.172
 5651SOL    HW217298   3.417   3.500   2.074
 5652SOL     OW17299   2.669   2.467   3.327
 5652SOL    HW117300   2.622   2.464   3.416
 5652SOL    HW217301   2.618   2.412   3.261
 5653SOL     OW17302   3.256   2.331   3.536
 5653SOL    HW117303   3.236   2.374   3.624
 5653SOL    HW217304   3.334   2.269   3.545
 5654SOL     OW17305   2.835   2.752   3.434
 5654SOL    HW117306   2.881   2.668   3.405
 5654SOL    HW217307   2.779   2.786   3.359
 5655SOL     OW17308   2.853   2.272   3.104
 5655SOL    HW117309   2.776   2.306   3.158
 5655SOL    HW217310   2.819   2.221   3.025
 5656SOL     OW17311   2.903   2.563   2.291
 5656SOL    HW117312   2.929   2.559   2.387
 5656SOL    HW217313   2.818   2.512   2.277
 5657SOL     OW17314   1.938   2.673   2.651
 5657SOL    HW117315   2.037   2.661   2.660
 5657SOL    HW217316   1.914   2.768   2.672
 5658SOL     OW17317   1.992   3.683   3.433
 5658SOL    HW117318   1.982   3.668   3.532
 5658SOL    HW217319   1.906   3.719   3.397
 5659SOL     OW17320   2.727   2.210   2.057
 5659SOL    HW117321   2.786   2.273   2.008
 5659SOL    HW217322   2.746   2.116   2.028
 5660SOL     OW17323   3.581   2.447   3.693
 5660SOL    HW117324   3.555   2.536   3.657
 5660SOL    HW217325   3.579   2.379   3.620
 5661SOL     OW17326   3.224   3.006   2.407
 5661SOL    HW117327   3.307   2.977   2.359
 5661SOL    HW217328   3.175   3.073   2.351
 5662SOL     OW17329   2.412   2.058   2.747
 5662SOL    HW117330   2.407   2.053   2.847
 5662SOL    HW217331   2.414   2.154   2.718
 5663SOL     OW17332   2.870   3.318   2.339
 5663SOL    HW117333   2.824   3.390   2.287
 5663SOL    HW217334   2.866   3.338   2.437
 5664SOL     OW17335   2.213   3.663   2.715
 5664SOL    HW117336   2.263   3.577   2.721
 5664SOL    HW217337   2.278   3.740   2.712
 5665SOL     OW17338   3.657   2.928   2.735
 5665SOL    HW117339   3.595   2.913   2.659
 5665SOL    HW217340   3.605   2.939   2.820
 5666SOL     OW17341   3.089   3.412   3.368
 5666SOL    HW117342   3.095   3.335   3.432
 5666SOL    HW217343   3.037   3.386   3.288
 5667SOL     OW17344   2.183   2.805   2.104
 5667SOL    HW117345   2.265   2.844   2.062
 5667SOL    HW217346   2.156   2.723   2.055
 5668SOL     OW17347   3.320   2.597   2.590
 5668SOL    HW117348   3.315   2.532   2.665
 5668SOL    HW217349   3.400   2.656   2.603
 5669SOL     OW17350   2.323   3.128   3.589
 5669SOL    HW117351   2.273   3.129   3.503
 5669SOL    HW217352   2.260   3.110   3.665
 5670SOL     OW17353   2.973   3.638   2.099
 5670SOL    HW117354   2.913   3.576   2.149
 5670SOL    HW217355   3.004   3.594   2.014
 5671SOL     OW17356   2.064   2.147   3.360
 5671SOL    HW117357   1.984   2.207   3.347
 5671SOL    HW217358   2.054   2.098   3.446
 5672SOL     OW17359   3.494   3.239   1.943
 5672SOL    HW117360   3.462   3.333   1.933
 5672SOL    HW217361   3.418   3.176   1.931
 5673SOL     OW17362   2.326   3.605   2.185
 5673SOL    HW117363   2.359   3.644   2.271
 5673SOL    HW217364   2.402   3.598   2.120
 5674SOL     OW17365   3.262   1.969   2.288
 5674SOL    HW117366   3.238   1.932   2.198
 5674SOL    HW217367   3.361   1.985   2.292
 5675SOL     OW17368   2.111   3.647   3.103
 5675SOL    HW117369   2.168   3.582   3.153
 5675SOL    HW217370   2.095   3.614   3.010
 5676SOL     OW17371   2.802   3.560   2.766
 5676SOL    HW117372   2.882   3.503   2.787
 5676SOL    HW217373   2.753   3.520   2.689
 5677SOL     OW17374   2.244   2.562   2.342
 5677SOL    HW117375   2.289   2.472   2.339
 5677SOL    HW217376   2.150   2.551   2.375
 5678SOL     OW17377   3.409   2.084   3.591
 5678SOL    HW117378   3.404   2.121   3.683
 5678SOL    HW217379   3.337   2.015   3.579
 5679SOL     OW17380   2.476   1.984   1.979
 5679SOL    HW117381   2.574   1.962   1.986
 5679SOL    HW217382   2.445   1.967   1.886
 5680SOL     OW17383   2.643   2.126   3.611
 5680SOL    HW117384   2.710   2.065   3.654
 5680SOL    HW217385   2.570   2.145   3.676
 5681SOL     OW17386   2.750   3.376   3.057
 5681SOL    HW117387   2.727   3.351   2.963
 5681SOL    HW217388   2.811   3.307   3.096
 5682SOL     OW17389   3.213   2.452   3.295
 5682SOL    HW117390   3.241   2.409   3.380
 5682SOL    HW217391   3.238   2.548   3.296
 5683SOL     OW17392   2.665   3.264   2.786
 5683SOL    HW117393   2.755   3.278   2.744
 5683SOL    HW217394   2.594   3.266   2.715
 5684SOL     OW17395   2.784   2.365   2.761
 5684SOL    HW117396   2.759   2.356   2.665
 5684SOL    HW217397   2.832   2.283   2.792
 5685SOL     OW17398   2.401   1.926   2.374
 5685SOL    HW117399   2.320   1.927   2.432
 5685SOL    HW217400   2.404   2.009   2.319
 5686SOL     OW17401   3.296   3.050   1.903
 5686SOL    HW117402   3.328   2.974   1.960
 5686SOL    HW217403   3.204   3.077   1.933
 5687SOL     OW17404   2.159   1.897   2.033
 5687SOL    HW117405   2.208   1.981   2.012
 5687SOL    HW217406   2.221   1.832   2.078
 5688SOL     OW17407   2.797   2.098   2.342
 5688SOL    HW117408   2.749   2.139   2.264
 5688SOL    HW217409   2.896   2.096   2.323
 5689SOL     OW17410   2.938   2.545   3.326
 5689SOL    HW117411   2.858   2.484   3.329
 5689SOL    HW217412   3.019   2.492   3.302
 5690SOL     OW17413   3.089   3.432   2.655
 5690SOL    HW117414   3.110   3.506   2.590
 5690SOL    HW217415   3.157   3.432   2.728
 5691SOL     OW17416   2.321   3.014   2.603
 5691SOL    HW117417   2.250   2.987   2.668
 5691SOL    HW217418   2.295   2.986   2.510
 5692SOL     OW17419   3.133   3.659   2.453
 5692SOL    HW117420   3.177   3.723   2.389
 5692SOL    HW217421   3.083   3.711   2.523
 5693SOL     OW17422   2.894   2.411   1.878
 5693SOL    HW117423   2.853   2.493   1.839
 5693SOL    HW217424   2.958   2.437   1.951
 5694SOL     OW17425   1.940   2.418   3.248
 5694SOL    HW117426   2.032   2.417   3.207
 5694SOL    HW217427   1.934   2.492   3.315
 5695SOL     OW17428   2.423   2.084   3.009
 5695SOL    HW117429   2.461   2.000   3.046
 5695SOL    HW217430   2.335   2.103   3.053
 5696SOL     OW17431   2.728   2.316   2.504
 5696SOL    HW117432   2.696   2.388   2.442
 5696SOL    HW217433   2.752   2.235   2.451
 5697SOL     OW17434   2.879   1.901   2.615
 5697SOL    HW117435   2.807   1.906   2.546
 5697SOL    HW217436   2.855   1.832   2.684
 5698SOL     OW17437   3.291   3.035   2.729
 5698SOL    HW117438   3.236   2.951   2.722
 5698SOL    HW217439   3.317   3.064   2.637
 5699SOL     OW17440   3.328   2.452   2.854
 5699SOL    HW117441   3.298   2.357   2.861
 5699SOL    HW217442   3.401   2.468   2.920
 5700SOL     OW17443   3.719   2.695   2.239
 5700SOL    HW117444   3.761   2.631   2.303
 5700SOL    HW217445   3.681   2.644   2.161
 5701SOL     OW17446   2.350   3.247   2.036
 5701SOL    HW117447   2.263   3.232   2.083
 5701SOL    HW217448   2.333   3.273   1.941
 5702SOL     OW17449   3.526   3.142   2.519
 5702SOL    HW117450   3.625   3.150   2.533
 5702SOL    HW217451   3.481   3.226   2.550
 5703SOL     OW17452   3.252   2.437   1.940
 5703SOL    HW117453   3.198   2.416   2.021
 5703SOL    HW217454   3.343   2.396   1.949
 5704SOL     OW17455   2.389   2.118   2.190
 5704SOL    HW117456   2.416   2.059   2.115
 5704SOL    HW217457   2.389   2.213   2.159
 5705SOL     OW17458   3.616   3.085   3.450
 5705SOL    HW117459   3.707   3.046   3.437
 5705SOL    HW217460   3.624   3.181   3.474
 5706SOL     OW17461   2.926   3.209   3.202
 5706SOL    HW117462   2.846   3.186   3.257
 5706SOL    HW217463   3.009   3.183   3.251
 5707SOL     OW17464   3.454   3.491   3.487
 5707SOL    HW117465   3.481   3.525   3.397
 5707SOL    HW217466   3.533   3.453   3.533
 5708SOL     OW17467   2.973   3.057   2.962
 5708SOL    HW117468   2.933   3.101   3.043
 5708SOL    HW217469   2.932   3.094   2.879
 5709SOL     OW17470   3.500   2.961   2.941
 5709SOL    HW117471   3.505   3.042   3.000
 5709SOL    HW217472   3.414   2.963   2.890
 5710SOL     OW17473   2.777   1.951   3.264
 5710SOL    HW117474   2.802   1.931   3.169
 5710SOL    HW217475   2.849   2.007   3.306
 5711SOL     OW17476   2.842   2.978   3.581
 5711SOL    HW117477   2.743   2.984   3.591
 5711SOL    HW217478   2.865   2.898   3.525
 5712SOL     OW17479   2.567   2.912   2.230
 5712SOL    HW117480   2.553   2.919   2.329
 5712SOL    HW217481   2.651   2.861   2.212
 5713SOL     OW17482   2.272   2.675   3.113
 5713SOL    HW117483   2.358   2.687   3.163
 5713SOL    HW217484   2.230   2.588   3.140
 5714SOL     OW17485   3.136   2.248   3.124
 5714SOL    HW117486   3.157   2.322   3.188
 5714SOL    HW217487   3.047   2.265   3.081
 5715SOL     OW17488   1.926   3.426   3.193
 5715SOL    HW117489   1.880   3.508   3.159
 5715SOL    HW217490   2.024   3.445   3.202
 5716SOL     OW17491   2.229   2.962   2.363
 5716SOL    HW117492   2.222   3.045   2.307
 5716SOL    HW217493   2.233   2.882   2.303
 5717SOL     OW17494   2.428   2.399   2.727
 5717SOL    HW117495   2.440   2.465   2.653
 5717SOL    HW217496   2.474   2.433   2.810
 5718SOL     OW17497   3.114   3.210   2.250
 5718SOL    HW117498   3.164   3.287   2.290
 5718SOL    HW217499   3.019   3.212   2.282
 5719SOL     OW17500   3.134   3.307   3.004
 5719SOL    HW117501   3.181   3.320   3.091
 5719SOL    HW217502   3.068   3.233   3.013
 5720SOL     OW17503   3.444   2.501   2.334
 5720SOL    HW117504   3.413   2.562   2.407
 5720SOL    HW217505   3.494   2.553   2.265
 5721SOL     OW17506   2.216   3.372   3.191
 5721SOL    HW117507   2.195   3.328   3.104
 5721SOL    HW217508   2.313   3.398   3.194
 5722SOL     OW17509   2.264   2.613   3.460
 5722SOL    HW117510   2.332   2.668   3.413
 5722SOL    HW217511   2.304   2.525   3.487
 5723SOL     OW17512   3.449   2.641   3.532
 5723SOL    HW117513   3.357   2.679   3.527
 5723SOL    HW217514   3.509   2.688   3.467
 5724SOL     OW17515   2.875   1.967   3.632
 5724SOL    HW117516   2.881   2.052   3.580
 5724SOL    HW217517   2.907   1.891   3.575
 5725SOL     OW17518   2.366   1.912   3.602
 5725SOL    HW117519   2.324   1.855   3.532
 5725SOL    HW217520   2.300   1.981   3.634
 5726SOL     OW17521   2.435   2.732   2.891
 5726SOL    HW117522   2.479   2.821   2.882
 5726SOL    HW217523   2.372   2.732   2.968
 5727SOL     OW17524   3.222   2.724   2.907
 5727SOL    HW117525   3.147   2.724   2.841
 5727SOL    HW217526   3.259   2.632   2.916
 5728SOL     OW17527   3.071   2.387   2.137
 5728SOL    HW117528   3.084   2.303   2.191
 5728SOL    HW217529   3.042   2.461   2.197
 5729SOL     OW17530   2.169   2.075   3.093
 5729SOL    HW117531   2.146   2.112   3.183
 5729SOL    HW217532   2.139   1.980   3.087
 5730SOL     OW17533   1.899   3.172   3.144
 5730SOL    HW117534   1.952   3.123   3.212
 5730SOL    HW217535   1.921   3.270   3.149
 5731SOL     OW17536   2.594   2.496   2.926
 5731SOL    HW117537   2.653   2.470   2.850
 5731SOL    HW217538   2.566   2.592   2.915
 5732SOL     OW17539   3.590   2.797   3.716
 5732SOL    HW117540   3.544   2.790   3.627
 5732SOL    HW217541   3.528   2.841   3.782
 5733SOL     OW17542   2.169   1.925   2.480
 5733SOL    HW117543   2.158   2.019   2.513
 5733SOL    HW217544   2.164   1.862   2.557
 5734SOL     OW17545   3.484   2.229   2.236
 5734SOL    HW117546   3.486   2.153   2.300
 5734SOL    HW217547   3.436   2.306   2.276
 5735SOL     OW17548   2.885   2.628   2.828
 5735SOL    HW117549   2.900   2.649   2.924
 5735SOL    HW217550   2.855   2.533   2.819
 5736SOL     OW17551   2.842   3.435   3.562
 5736SOL    HW117552   2.822   3.479   3.474
 5736SOL    HW217553   2.881   3.344   3.546
 5737SOL     OW17554   3.721   3.380   3.467
 5737SOL    HW117555   3.735   3.407   3.372
 5737SOL    HW217556   3.804   3.402   3.520
 5738SOL     OW17557   2.212   2.760   3.666
 5738SOL    HW117558   2.288   2.804   3.714
 5738SOL    HW217559   2.247   2.713   3.584
 5739SOL     OW17560   3.402   2.136   1.987
 5739SOL    HW117561   3.341   2.061   2.010
 5739SOL    HW217562   3.424   2.188   2.070
 5740SOL     OW17563   3.165   2.700   1.904
 5740SOL    HW117564   3.199   2.607   1.919
 5740SOL    HW217565   3.183   2.727   1.809
 5741SOL     OW17566   2.930   3.195   2.711
 5741SOL    HW117567   2.937   3.111   2.656
 5741SOL    HW217568   2.992   3.264   2.675
 5742SOL     OW17569   2.181   2.672   2.811
 5742SOL    HW117570   2.274   2.708   2.816
 5742SOL    HW217571   2.175   2.587   2.863
 5743SOL     OW17572   2.201   2.371   2.868
 5743SOL    HW117573   2.149   2.288   2.851
 5743SOL    HW217574   2.278   2.376   2.804
 5744SOL     OW17575   3.000   2.242   3.540
 5744SOL    HW117576   2.955   2.305   3.604
 5744SOL    HW217577   3.093   2.273   3.523
 5745SOL     OW17578   3.022   2.069   3.339
 5745SOL    HW117579   3.022   2.133   3.416
 5745SOL    HW217580   3.050   2.117   3.256
 5746SOL     OW17581   1.870   3.188   2.062
 5746SOL    HW117582   1.777   3.209   2.031
 5746SOL    HW217583   1.880   3.089   2.075
 5747SOL     OW17584   1.950   3.663   2.789
 5747SOL    HW117585   1.908   3.577   2.762
 5747SOL    HW217586   2.044   3.666   2.755
 5748SOL     OW17587   2.366   3.430   2.772
 5748SOL    HW117588   2.432   3.504   2.781
 5748SOL    HW217589   2.410   3.351   2.730
 5749SOL     OW17590   2.864   2.658   3.100
 5749SOL    HW117591   2.905   2.626   3.186
 5749SOL    HW217592   2.768   2.631   3.097
 5750SOL     OW17593   1.902   2.406   2.976
 5750SOL    HW117594   1.987   2.373   2.935
 5750SOL    HW217595   1.915   2.421   3.074
 5751SOL     OW17596   2.051   2.382   3.584
 5751SOL    HW117597   2.110   2.342   3.514
 5751SOL    HW217598   1.993   2.453   3.543
 5752SOL     OW17599   3.231   2.812   3.522
 5752SOL    HW117600   3.270   2.901   3.542
 5752SOL    HW217601   3.241   2.792   3.425
 5753SOL     OW17602   2.677   2.434   2.187
 5753SOL    HW117603   2.684   2.345   2.141
 5753SOL    HW217604   2.583   2.468   2.179
 5754SOL     OW17605   3.519   2.466   3.068
 5754SOL    HW117606   3.481   2.397   3.130
 5754SOL    HW217607   3.601   2.430   3.024
 5755SOL     OW17608   2.114   3.426   3.606
 5755SOL    HW117609   2.084   3.483   3.682
 5755SOL    HW217610   2.107   3.329   3.632
 5756SOL     OW17611   2.533   2.326   3.131
 5756SOL    HW117612   2.499   2.237   3.101
 5756SOL    HW217613   2.559   2.380   3.051
 5757SOL     OW17614   2.792   3.540   3.327
 5757SOL    HW117615   2.768   3.522   3.232
 5757SOL    HW217616   2.822   3.634   3.337
 5758SOL     OW17617   2.335   2.362   2.053
 5758SOL    HW117618   2.396   2.442   2.057
 5758SOL    HW217619   2.240   2.393   2.060
 5759SOL     OW17620   2.021   2.999   3.328
 5759SOL    HW117621   2.043   2.938   3.404
 5759SOL    HW217622   2.031   2.950   3.242
 5760SOL     OW17623   3.209   2.921   3.096
 5760SOL    HW117624   3.233   2.858   3.022
 5760SOL    HW217625   3.119   2.961   3.078
 5761SOL     OW17626   3.164   2.717   2.171
 5761SOL    HW117627   3.078   2.686   2.213
 5761SOL    HW217628   3.160   2.703   2.072
 5762SOL     OW17629   3.621   3.609   3.016
 5762SOL    HW117630   3.682   3.639   2.943
 5762SOL    HW217631   3.583   3.520   2.994
 5763SOL     OW17632   3.114   3.593   2.990
 5763SOL    HW117633   3.198   3.598   2.936
 5763SOL    HW217634   3.091   3.497   3.008
 5764SOL     OW17635   1.945   3.120   2.884
 5764SOL    HW117636   1.940   3.119   2.984
 5764SOL    HW217637   1.862   3.079   2.846
 5765SOL     OW17638   2.550   3.524   3.578
 5765SOL    HW117639   2.494   3.605   3.587
 5765SOL    HW217640   2.602   3.528   3.492
 5766SOL     OW17641   3.588   1.997   2.385
 5766SOL    HW117642   3.661   1.980   2.318
 5766SOL    HW217643   3.557   1.910   2.423
 5767SOL     OW17644   3.250   3.435   2.339
 5767SOL    HW117645   3.317   3.447   2.265
 5767SOL    HW217646   3.210   3.524   2.362
 5768SOL     OW17647   1.992   3.656   3.713
 5768SOL    HW117648   1.951   3.582   3.766
 5768SOL    HW217649   2.056   3.707   3.771
 5769SOL     OW17650   3.142   2.789   2.534
 5769SOL    HW117651   3.202   2.708   2.536
 5769SOL    HW217652   3.182   2.858   2.474
 5770SOL     OW17653   2.692   3.135   3.284
 5770SOL    HW117654   2.687   3.168   3.379
 5770SOL    HW217655   2.606   3.154   3.238
 5771SOL     OW17656   2.534   3.478   2.016
 5771SOL    HW117657   2.543   3.488   1.917
 5771SOL    HW217658   2.494   3.389   2.037
 5772SOL     OW17659   3.512   3.582   3.256
 5772SOL    HW117660   3.565   3.592   3.172
 5772SOL    HW217661   3.485   3.672   3.290
 5773SOL     OW17662   3.703   2.037   2.825
 5773SOL    HW117663   3.742   1.952   2.789
 5773SOL    HW217664   3.605   2.039   2.806
 5774SOL     OW17665   2.125   2.188   2.582
 5774SOL    HW117666   2.046   2.239   2.548
 5774SOL    HW217667   2.116   2.173   2.680
 5775SOL     OW17668   3.056   3.474   1.893
 5775SOL    HW117669   3.062   3.381   1.930
 5775SOL    HW217670   2.997   3.474   1.813
 5776SOL     OW17671   2.684   2.864   3.234
 5776SOL    HW117672   2.724   2.863   3.142
 5776SOL    HW217673   2.694   2.956   3.274
 5777SOL     OW17674   2.778   2.772   2.153
 5777SOL    HW117675   2.841   2.810   2.085
 5777SOL    HW217676   2.818   2.689   2.192
 5778SOL     OW17677   3.366   3.469   1.906
 5778SOL    HW117678   3.274   3.506   1.913
 5778SOL    HW217679   3.404   3.489   1.816
 5779SOL     OW17680   2.234   3.150   3.352
 5779SOL    HW117681   2.221   3.243   3.318
 5779SOL    HW217682   2.150   3.098   3.339
 5780SOL     OW17683   3.476   3.154   3.151
 5780SOL    HW117684   3.536   3.157   3.231
 5780SOL    HW217685   3.401   3.218   3.164
 5781SOL     OW17686   2.901   2.960   2.558
 5781SOL    HW117687   2.831   2.913   2.612
 5781SOL    HW217688   2.960   2.892   2.515
 5782SOL     OW17689   2.876   2.098   2.833
 5782SOL    HW117690   2.868   2.062   2.740
 5782SOL    HW217691   2.874   2.022   2.898
 5783SOL     OW17692   2.452   3.349   2.353
 5783SOL    HW117693   2.494   3.291   2.283
 5783SOL    HW217694   2.408   3.428   2.309
 5784SOL     OW17695   3.571   2.247   3.243
 5784SOL    HW117696   3.644   2.316   3.247
 5784SOL    HW217697   3.599   2.172   3.184
 5785SOL     OW17698   2.117   3.210   2.152
 5785SOL    HW117699   2.021   3.211   2.125
 5785SOL    HW217700   2.129   3.263   2.236
 5786SOL     OW17701   1.967   2.875   3.588
 5786SOL    HW117702   1.890   2.842   3.642
 5786SOL    HW217703   2.052   2.845   3.630
 5787SOL     OW17704   2.534   2.065   3.351
 5787SOL    HW117705   2.624   2.049   3.311
 5787SOL    HW217706   2.542   2.070   3.450
 5788SOL     OW17707   1.937   2.207   1.895
 5788SOL    HW117708   1.845   2.179   1.866
 5788SOL    HW217709   1.968   2.284   1.839
 5789SOL     OW17710   3.302   2.718   3.260
 5789SOL    HW117711   3.245   2.770   3.197
 5789SOL    HW217712   3.398   2.730   3.236
 5790SOL     OW17713   1.934   2.028   2.180
 5790SOL    HW117714   1.917   2.111   2.126
 5790SOL    HW217715   2.024   1.991   2.158
 5791SOL     OW17716   3.045   3.197   1.981
 5791SOL    HW117717   2.946   3.186   1.983
 5791SOL    HW217718   3.079   3.212   2.074
 5792SOL     OW17719   2.475   2.704   3.293
 5792SOL    HW117720   2.531   2.785   3.276
 5792SOL    HW217721   2.534   2.624   3.296
 5793SOL     OW17722   3.355   3.629   2.821
 5793SOL    HW117723   3.388   3.693   2.752
 5793SOL    HW217724   3.421   3.623   2.896
 5794SOL     OW17725   2.578   2.427   3.570
 5794SOL    HW117726   2.597   2.492   3.644
 5794SOL    HW217727   2.638   2.347   3.579
 5795SOL     OW17728   3.312   3.082   3.495
 5795SOL    HW117729   3.303   3.072   3.594
 5795SOL    HW217730   3.408   3.075   3.469
 5796SOL     OW17731   2.252   3.603   3.422
 5796SOL    HW117732   2.161   3.644   3.420
 5796SOL    HW217733   2.245   3.509   3.454
 5797SOL     OW17734   3.536   2.745   3.116
 5797SOL    HW117735   3.509   2.656   3.079
 5797SOL    HW217736   3.537   2.813   3.043
 5798SOL     OW17737   3.087   2.187   2.311
 5798SOL    HW117738   3.152   2.113   2.300
 5798SOL    HW217739   3.107   2.237   2.395
 5799SOL     OW17740   2.456   2.607   2.514
 5799SOL    HW117741   2.506   2.692   2.495
 5799SOL    HW217742   2.368   2.609   2.466
 5800SOL     OW17743   3.639   2.204   3.504
 5800SOL    HW117744   3.622   2.235   3.410
 5800SOL    HW217745   3.555   2.167   3.542
 5801SOL     OW17746   3.592   2.796   3.379
 5801SOL    HW117747   3.630   2.887   3.394
 5801SOL    HW217748   3.584   2.779   3.280
 5802SOL     OW17749   2.721   3.236   1.878
 5802SOL    HW117750   2.675   3.251   1.966
 5802SOL    HW217751   2.765   3.321   1.848
 5803SOL     OW17752   2.523   3.652   2.815
 5803SOL    HW117753   2.477   3.740   2.802
 5803SOL    HW217754   2.622   3.664   2.808
 5804SOL     OW17755   2.721   2.818   2.723
 5804SOL    HW117756   2.775   2.749   2.771
 5804SOL    HW217757   2.689   2.887   2.789
 5805SOL     OW17758   2.945   2.846   1.949
 5805SOL    HW117759   2.922   2.899   1.867
 5805SOL    HW217760   3.026   2.790   1.930
 5806SOL     OW17761   3.723   3.431   2.713
 5806SOL    HW117762   3.652   3.419   2.643
 5806SOL    HW217763   3.724   3.352   2.773
 5807SOL     OW17764   2.083   3.176   3.706
 5807SOL    HW117765   2.018   3.103   3.685
 5807SOL    HW217766   2.087   3.190   3.804
 5808SOL     OW17767   1.941   3.102   2.515
 5808SOL    HW117768   1.940   3.055   2.603
 5808SOL    HW217769   2.023   3.074   2.464
 5809SOL     OW17770   2.534   3.253   3.486
 5809SOL    HW117771   2.456   3.203   3.524
 5809SOL    HW217772   2.531   3.348   3.517
 5810SOL     OW17773   3.686   2.054   3.089
 5810SOL    HW117774   3.682   1.964   3.133
 5810SOL    HW217775   3.689   2.043   2.990
 5811SOL     OW17776   2.290   2.286   2.382
 5811SOL    HW117777   2.320   2.214   2.320
 5811SOL    HW217778   2.251   2.246   2.465
 5812SOL     OW17779   3.567   3.349   2.966
 5812SOL    HW117780   3.474   3.324   2.939
 5812SOL    HW217781   3.593   3.299   3.048
 5813SOL     OW17782   2.179   2.409   3.142
 5813SOL    HW117783   2.217   2.350   3.214
 5813SOL    HW217784   2.219   2.383   3.054
 5814SOL     OW17785   2.674   3.448   2.549
 5814SOL    HW117786   2.706   3.458   2.455
 5814SOL    HW217787   2.595   3.386   2.551
 5815SOL     OW17788   3.286   2.076   2.974
 5815SOL    HW117789   3.338   2.011   3.029
 5815SOL    HW217790   3.237   2.139   3.035
 5816SOL     OW17791   2.863   1.896   3.016
 5816SOL    HW117792   2.800   1.824   2.985
 5816SOL    HW217793   2.956   1.860   3.016
 5817SOL     OW17794   2.632   3.192   2.163
 5817SOL    HW117795   2.586   3.105   2.180
 5817SOL    HW217796   2.723   3.189   2.204
 5818SOL     OW17797   2.480   3.429   3.146
 5818SOL    HW117798   2.475   3.511   3.203
 5818SOL    HW217799   2.569   3.426   3.101
 5819SOL     OW17800   3.214   1.914   2.030
 5819SOL    HW117801   3.249   1.873   1.946
 5819SOL    HW217802   3.124   1.876   2.050
 5820SOL     OW17803   3.162   2.315   2.553
 5820SOL    HW117804   3.103   2.395   2.557
 5820SOL    HW217805   3.177   2.280   2.646
 5821SOL     OW17806   3.455   2.083   2.744
 5821SOL    HW117807   3.371   2.082   2.798
 5821SOL    HW217808   3.457   2.166   2.688
 5822SOL     OW17809   1.901   2.939   2.162
 5822SOL    HW117810   2.000   2.928   2.153
 5822SOL    HW217811   1.861   2.853   2.194
 5823SOL     OW17812   2.737   3.508   2.199
 5823SOL    HW117813   2.660   3.473   2.145
 5823SOL    HW217814   2.705   3.579   2.261
 5824SOL     OW17815   2.092   2.490   3.837
 5824SOL    HW117816   1.999   2.488   3.874
 5824SOL    HW217817   2.093   2.451   3.745
 5825SOL     OW17818   2.087   2.137   4.720
 5825SOL    HW117819   2.122   2.120   4.812
 5825SOL    HW217820   1.999   2.092   4.708
 5826SOL     OW17821   1.881   2.230   4.371
 5826SOL    HW117822   1.799   2.273   4.410
 5826SOL    HW217823   1.853   2.157   4.308
 5827SOL     OW17824   2.431   3.137   4.889
 5827SOL    HW117825   2.338   3.130   4.852
 5827SOL    HW217826   2.442   3.226   4.933
 5828SOL     OW17827   3.417   3.373   4.427
 5828SOL    HW117828   3.360   3.357   4.508
 5828SOL    HW217829   3.358   3.383   4.347
 5829SOL     OW17830   2.997   2.565   4.441
 5829SOL    HW117831   3.054   2.643   4.416
 5829SOL    HW217832   2.937   2.591   4.517
 5830SOL     OW17833   3.617   2.469   3.955
 5830SOL    HW117834   3.605   2.456   3.856
 5830SOL    HW217835   3.587   2.388   4.004
 5831SOL     OW17836   2.630   3.006   4.747
 5831SOL    HW117837   2.552   3.023   4.807
 5831SOL    HW217838   2.664   3.093   4.711
 5832SOL     OW17839   2.712   2.660   5.547
 5832SOL    HW117840   2.708   2.736   5.612
 5832SOL    HW217841   2.734   2.696   5.456
 5833SOL     OW17842   2.547   2.874   4.389
 5833SOL    HW117843   2.616   2.858   4.459
 5833SOL    HW217844   2.474   2.931   4.427
 5834SOL     OW17845   2.548   3.023   5.527
 5834SOL    HW117846   2.608   3.102   5.541
 5834SOL    HW217847   2.462   3.054   5.486
 5835SOL     OW17848   2.197   3.297   4.785
 5835SOL    HW117849   2.119   3.266   4.732
 5835SOL    HW217850   2.255   3.355   4.728
 5836SOL     OW17851   3.322   3.367   5.063
 5836SOL    HW117852   3.346   3.461   5.089
 5836SOL    HW217853   3.306   3.313   5.145
 5837SOL     OW17854   2.300   2.254   5.223
 5837SOL    HW117855   2.382   2.198   5.232
 5837SOL    HW217856   2.219   2.196   5.227
 5838SOL     OW17857   3.465   2.309   4.461
 5838SOL    HW117858   3.391   2.355   4.411
 5838SOL    HW217859   3.516   2.377   4.514
 5839SOL     OW17860   2.093   3.575   4.207
 5839SOL    HW117861   2.127   3.652   4.261
 5839SOL    HW217862   2.137   3.575   4.117
 5840SOL     OW17863   2.989   3.203   5.414
 5840SOL    HW117864   3.036   3.203   5.502
 5840SOL    HW217865   2.941   3.116   5.403
 5841SOL     OW17866   2.092   3.296   4.262
 5841SOL    HW117867   2.066   3.392   4.262
 5841SOL    HW217868   2.021   3.242   4.307
 5842SOL     OW17869   2.102   2.953   4.610
 5842SOL    HW117870   2.116   2.869   4.662
 5842SOL    HW217871   2.047   3.017   4.665
 5843SOL     OW17872   2.482   3.648   5.163
 5843SOL    HW117873   2.390   3.631   5.198
 5843SOL    HW217874   2.510   3.740   5.189
 5844SOL     OW17875   2.468   2.826   3.847
 5844SOL    HW117876   2.475   2.910   3.793
 5844SOL    HW217877   2.514   2.839   3.935
 5845SOL     OW17878   3.456   1.976   5.204
 5845SOL    HW117879   3.438   2.043   5.132
 5845SOL    HW217880   3.453   2.022   5.293
 5846SOL     OW17881   1.984   2.505   4.287
 5846SOL    HW117882   1.939   2.417   4.304
 5846SOL    HW217883   1.983   2.559   4.371
 5847SOL     OW17884   3.704   3.629   4.083
 5847SOL    HW117885   3.758   3.600   4.163
 5847SOL    HW217886   3.734   3.719   4.054
 5848SOL     OW17887   1.889   3.458   3.841
 5848SOL    HW117888   1.870   3.362   3.862
 5848SOL    HW217889   1.856   3.516   3.916
 5849SOL     OW17890   3.551   2.784   4.336
 5849SOL    HW117891   3.646   2.755   4.344
 5849SOL    HW217892   3.543   2.849   4.261
 5850SOL     OW17893   3.503   2.970   4.156
 5850SOL    HW117894   3.589   2.972   4.104
 5850SOL    HW217895   3.517   3.017   4.244
 5851SOL     OW17896   1.975   2.599   5.321
 5851SOL    HW117897   2.063   2.586   5.366
 5851SOL    HW217898   1.962   2.696   5.299
 5852SOL     OW17899   2.475   3.227   4.450
 5852SOL    HW117900   2.426   3.140   4.459
 5852SOL    HW217901   2.452   3.270   4.363
 5853SOL     OW17902   3.155   3.090   5.147
 5853SOL    HW117903   3.192   3.017   5.089
 5853SOL    HW217904   3.207   3.095   5.232
 5854SOL     OW17905   2.671   1.866   4.226
 5854SOL    HW117906   2.711   1.957   4.217
 5854SOL    HW217907   2.571   1.874   4.232
 5855SOL     OW17908   2.059   2.838   4.988
 5855SOL    HW117909   2.148   2.793   4.974
 5855SOL    HW217910   1.986   2.773   4.969
 5856SOL     OW17911   3.387   2.861   3.914
 5856SOL    HW117912   3.324   2.785   3.927
 5856SOL    HW217913   3.435   2.879   4.000
 5857SOL     OW17914   3.049   3.654   5.340
 5857SOL    HW117915   3.073   3.714   5.264
 5857SOL    HW217916   3.056   3.559   5.310
 5858SOL     OW17917   2.179   2.113   5.525
 5858SOL    HW117918   2.250   2.184   5.531
 5858SOL    HW217919   2.091   2.152   5.553
 5859SOL     OW17920   3.328   3.279   4.677
 5859SOL    HW117921   3.269   3.285   4.757
 5859SOL    HW217922   3.313   3.191   4.631
 5860SOL     OW17923   3.529   3.576   4.296
 5860SOL    HW117924   3.488   3.553   4.208
 5860SOL    HW217925   3.511   3.502   4.361
 5861SOL     OW17926   2.460   2.591   3.994
 5861SOL    HW117927   2.484   2.660   3.926
 5861SOL    HW217928   2.382   2.624   4.048
 5862SOL     OW17929   3.143   2.207   4.668
 5862SOL    HW117930   3.057   2.157   4.655
 5862SOL    HW217931   3.205   2.153   4.724
 5863SOL     OW17932   3.438   3.524   4.031
 5863SOL    HW117933   3.527   3.570   4.034
 5863SOL    HW217934   3.417   3.500   3.936
 5864SOL     OW17935   2.669   2.467   5.189
 5864SOL    HW117936   2.622   2.464   5.278
 5864SOL    HW217937   2.618   2.412   5.123
 5865SOL     OW17938   3.256   2.331   5.398
 5865SOL    HW117939   3.236   2.374   5.486
 5865SOL    HW217940   3.334   2.269   5.407
 5866SOL     OW17941   2.835   2.752   5.296
 5866SOL    HW117942   2.881   2.668   5.267
 5866SOL    HW217943   2.779   2.786   5.221
 5867SOL     OW17944   2.853   2.272   4.966
 5867SOL    HW117945   2.776   2.306   5.020
 5867SOL    HW217946   2.819   2.221   4.887
 5868SOL     OW17947   2.903   2.563   4.153
 5868SOL    HW117948   2.929   2.559   4.249
 5868SOL    HW217949   2.818   2.512   4.139
 5869SOL     OW17950   1.938   2.673   4.513
 5869SOL    HW117951   2.037   2.661   4.522
 5869SOL    HW217952   1.914   2.768   4.534
 5870SOL     OW17953   1.992   3.683   5.295
 5870SOL    HW117954   1.982   3.668   5.394
 5870SOL    HW217955   1.906   3.719   5.259
 5871SOL     OW17956   2.727   2.210   3.919
 5871SOL    HW117957   2.786   2.273   3.870
 5871SOL    HW217958   2.746   2.116   3.890
 5872SOL     OW17959   3.581   2.447   5.555
 5872SOL    HW117960   3.555   2.536   5.519
 5872SOL    HW217961   3.579   2.379   5.482
 5873SOL     OW17962   3.224   3.006   4.269
 5873SOL    HW117963   3.307   2.977   4.221
 5873SOL    HW217964   3.175   3.073   4.213
 5874SOL     OW17965   2.412   2.058   4.609
 5874SOL    HW117966   2.407   2.053   4.709
 5874SOL    HW217967   2.414   2.154   4.580
 5875SOL     OW17968   2.870   3.318   4.201
 5875SOL    HW117969   2.824   3.390   4.149
 5875SOL    HW217970   2.866   3.338   4.299
 5876SOL     OW17971   2.213   3.663   4.577
 5876SOL    HW117972   2.263   3.577   4.583
 5876SOL    HW217973   2.278   3.740   4.574
 5877SOL     OW17974   3.657   2.928   4.597
 5877SOL    HW117975   3.595   2.913   4.521
 5877SOL    HW217976   3.605   2.939   4.682
 5878SOL     OW17977   3.089   3.412   5.230
 5878SOL    HW117978   3.095   3.335   5.294
 5878SOL    HW217979   3.037   3.386   5.150
 5879SOL     OW17980   2.183   2.805   3.966
 5879SOL    HW117981   2.265   2.844   3.924
 5879SOL    HW217982   2.156   2.723   3.917
 5880SOL     OW17983   3.320   2.597   4.452
 5880SOL    HW117984   3.315   2.532   4.527
 5880SOL    HW217985   3.400   2.656   4.465
 5881SOL     OW17986   2.323   3.128   5.451
 5881SOL    HW117987   2.273   3.129   5.365
 5881SOL    HW217988   2.260   3.110   5.527
 5882SOL     OW17989   2.973   3.638   3.961
 5882SOL    HW117990   2.913   3.576   4.011
 5882SOL    HW217991   3.004   3.594   3.876
 5883SOL     OW17992   2.064   2.147   5.222
 5883SOL    HW117993   1.984   2.207   5.209
 5883SOL    HW217994   2.054   2.098   5.308
 5884SOL     OW17995   3.494   3.239   3.805
 5884SOL    HW117996   3.462   3.333   3.795
 5884SOL    HW217997   3.418   3.176   3.793
 5885SOL     OW17998   2.326   3.605   4.047
 5885SOL    HW117999   2.359   3.644   4.133
 5885SOL    HW218000   2.402   3.598   3.982
 5886SOL     OW18001   3.262   1.969   4.150
 5886SOL    HW118002   3.238   1.932   4.060
 5886SOL    HW218003   3.361   1.985   4.154
 5887SOL     OW18004   2.111   3.647   4.965
 5887SOL    HW118005   2.168   3.582   5.015
 5887SOL    HW218006   2.095   3.614   4.872
 5888SOL     OW18007   2.802   3.560   4.628
 5888SOL    HW118008   2.882   3.503   4.649
 5888SOL    HW218009   2.753   3.520   4.551
 5889SOL     OW18010   2.244   2.562   4.204
 5889SOL    HW118011   2.289   2.472   4.201
 5889SOL    HW218012   2.150   2.551   4.237
 5890SOL     OW18013   3.409   2.084   5.453
 5890SOL    HW118014   3.404   2.121   5.545
 5890SOL    HW218015   3.337   2.015   5.441
 5891SOL     OW18016   2.476   1.984   3.841
 5891SOL    HW118017   2.574   1.962   3.848
 5891SOL    HW218018   2.445   1.967   3.748
 5892SOL     OW18019   2.643   2.126   5.473
 5892SOL    HW118020   2.710   2.065   5.516
 5892SOL    HW218021   2.570   2.145   5.538
 5893SOL     OW18022   2.750   3.376   4.919
 5893SOL    HW118023   2.727   3.351   4.825
 5893SOL    HW218024   2.811   3.307   4.958
 5894SOL     OW18025   3.213   2.452   5.157
 5894SOL    HW118026   3.241   2.409   5.242
 5894SOL    HW218027   3.238   2.548   5.158
 5895SOL     OW18028   2.665   3.264   4.648
 5895SOL    HW118029   2.755   3.278   4.606
 5895SOL    HW218030   2.594   3.266   4.577
 5896SOL     OW18031   2.784   2.365   4.623
 5896SOL    HW118032   2.759   2.356   4.527
 5896SOL    HW218033   2.832   2.283   4.654
 5897SOL     OW18034   2.401   1.926   4.236
 5897SOL    HW118035   2.320   1.927   4.294
 5897SOL    HW218036   2.404   2.009   4.181
 5898SOL     OW18037   3.296   3.050   3.765
 5898SOL    HW118038   3.328   2.974   3.822
 5898SOL    HW218039   3.204   3.077   3.795
 5899SOL     OW18040   2.159   1.897   3.895
 5899SOL    HW118041   2.208   1.981   3.874
 5899SOL    HW218042   2.221   1.832   3.940
 5900SOL     OW18043   2.797   2.098   4.204
 5900SOL    HW118044   2.749   2.139   4.126
 5900SOL    HW218045   2.896   2.096   4.185
 5901SOL     OW18046   2.938   2.545   5.188
 5901SOL    HW118047   2.858   2.484   5.191
 5901SOL    HW218048   3.019   2.492   5.164
 5902SOL     OW18049   3.089   3.432   4.517
 5902SOL    HW118050   3.110   3.506   4.452
 5902SOL    HW218051   3.157   3.432   4.590
 5903SOL     OW18052   2.321   3.014   4.465
 5903SOL    HW118053   2.250   2.987   4.530
 5903SOL    HW218054   2.295   2.986   4.372
 5904SOL     OW18055   3.133   3.659   4.315
 5904SOL    HW118056   3.177   3.723   4.251
 5904SOL    HW218057   3.083   3.711   4.385
 5905SOL     OW18058   2.894   2.411   3.740
 5905SOL    HW118059   2.853   2.493   3.701
 5905SOL    HW218060   2.958   2.437   3.813
 5906SOL     OW18061   1.940   2.418   5.110
 5906SOL    HW118062   2.032   2.417   5.069
 5906SOL    HW218063   1.934   2.492   5.177
 5907SOL     OW18064   2.423   2.084   4.871
 5907SOL    HW118065   2.461   2.000   4.908
 5907SOL    HW218066   2.335   2.103   4.915
 5908SOL     OW18067   2.728   2.316   4.366
 5908SOL    HW118068   2.696   2.388   4.304
 5908SOL    HW218069   2.752   2.235   4.313
 5909SOL     OW18070   2.879   1.901   4.477
 5909SOL    HW118071   2.807   1.906   4.408
 5909SOL    HW218072   2.855   1.832   4.546
 5910SOL     OW18073   3.291   3.035   4.591
 5910SOL    HW118074   3.236   2.951   4.584
 5910SOL    HW218075   3.317   3.064   4.499
 5911SOL     OW18076   3.328   2.452   4.716
 5911SOL    HW118077   3.298   2.357   4.723
 5911SOL    HW218078   3.401   2.468   4.782
 5912SOL     OW18079   3.719   2.695   4.101
 5912SOL    HW118080   3.761   2.631   4.165
 5912SOL    HW218081   3.681   2.644   4.023
 5913SOL     OW18082   2.350   3.247   3.898
 5913SOL    HW118083   2.263   3.232   3.945
 5913SOL    HW218084   2.333   3.273   3.803
 5914SOL     OW18085   3.526   3.142   4.381
 5914SOL    HW118086   3.625   3.150   4.395
 5914SOL    HW218087   3.481   3.226   4.412
 5915SOL     OW18088   3.252   2.437   3.802
 5915SOL    HW118089   3.198   2.416   3.883
 5915SOL    HW218090   3.343   2.396   3.811
 5916SOL     OW18091   2.389   2.118   4.052
 5916SOL    HW118092   2.416   2.059   3.977
 5916SOL    HW218093   2.389   2.213   4.021
 5917SOL     OW18094   3.616   3.085   5.312
 5917SOL    HW118095   3.707   3.046   5.299
 5917SOL    HW218096   3.624   3.181   5.336
 5918SOL     OW18097   2.926   3.209   5.064
 5918SOL    HW118098   2.846   3.186   5.119
 5918SOL    HW218099   3.009   3.183   5.113
 5919SOL     OW18100   3.454   3.491   5.349
 5919SOL    HW118101   3.481   3.525   5.259
 5919SOL    HW218102   3.533   3.453   5.395
 5920SOL     OW18103   2.973   3.057   4.824
 5920SOL    HW118104   2.933   3.101   4.905
 5920SOL    HW218105   2.932   3.094   4.741
 5921SOL     OW18106   3.500   2.961   4.803
 5921SOL    HW118107   3.505   3.042   4.862
 5921SOL    HW218108   3.414   2.963   4.752
 5922SOL     OW18109   2.777   1.951   5.126
 5922SOL    HW118110   2.802   1.931   5.031
 5922SOL    HW218111   2.849   2.007   5.168
 5923SOL     OW18112   2.842   2.978   5.443
 5923SOL    HW118113   2.743   2.984   5.453
 5923SOL    HW218114   2.865   2.898   5.387
 5924SOL     OW18115   2.567   2.912   4.092
 5924SOL    HW118116   2.553   2.919   4.191
 5924SOL    HW218117   2.651   2.861   4.074
 5925SOL     OW18118   2.272   2.675   4.975
 5925SOL    HW118119   2.358   2.687   5.025
 5925SOL    HW218120   2.230   2.588   5.002
 5926SOL     OW18121   3.136   2.248   4.986
 5926SOL    HW118122   3.157   2.322   5.050
 5926SOL    HW218123   3.047   2.265   4.943
 5927SOL     OW18124   1.926   3.426   5.055
 5927SOL    HW118125   1.880   3.508   5.021
 5927SOL    HW218126   2.024   3.445   5.064
 5928SOL     OW18127   2.229   2.962   4.225
 5928SOL    HW118128   2.222   3.045   4.169
 5928SOL    HW218129   2.233   2.882   4.165
 5929SOL     OW18130   2.428   2.399   4.589
 5929SOL    HW118131   2.440   2.465   4.515
 5929SOL    HW218132   2.474   2.433   4.672
 5930SOL     OW18133   3.114   3.210   4.112
 5930SOL    HW118134   3.164   3.287   4.152
 5930SOL    HW218135   3.019   3.212   4.144
 5931SOL     OW18136   3.134   3.307   4.866
 5931SOL    HW118137   3.181   3.320   4.953
 5931SOL    HW218138   3.068   3.233   4.875
 5932SOL     OW18139   3.444   2.501   4.196
 5932SOL    HW118140   3.413   2.562   4.269
 5932SOL    HW218141   3.494   2.553   4.127
 5933SOL     OW18142   2.216   3.372   5.053
 5933SOL    HW118143   2.195   3.328   4.966
 5933SOL    HW218144   2.313   3.398   5.056
 5934SOL     OW18145   2.264   2.613   5.322
 5934SOL    HW118146   2.332   2.668   5.275
 5934SOL    HW218147   2.304   2.525   5.349
 5935SOL     OW18148   3.449   2.641   5.394
 5935SOL    HW118149   3.357   2.679   5.389
 5935SOL    HW218150   3.509   2.688   5.329
 5936SOL     OW18151   2.875   1.967   5.494
 5936SOL    HW118152   2.881   2.052   5.442
 5936SOL    HW218153   2.907   1.891   5.437
 5937SOL     OW18154   2.366   1.912   5.464
 5937SOL    HW118155   2.324   1.855   5.394
 5937SOL    HW218156   2.300   1.981   5.496
 5938SOL     OW18157   2.435   2.732   4.753
 5938SOL    HW118158   2.479   2.821   4.744
 5938SOL    HW218159   2.372   2.732   4.830
 5939SOL     OW18160   3.222   2.724   4.769
 5939SOL    HW118161   3.147   2.724   4.703
 5939SOL    HW218162   3.259   2.632   4.778
 5940SOL     OW18163   3.071   2.387   3.999
 5940SOL    HW118164   3.084   2.303   4.053
 5940SOL    HW218165   3.042   2.461   4.059
 5941SOL     OW18166   2.169   2.075   4.955
 5941SOL    HW118167   2.146   2.112   5.045
 5941SOL    HW218168   2.139   1.980   4.949
 5942SOL     OW18169   1.899   3.172   5.006
 5942SOL    HW118170   1.952   3.123   5.074
 5942SOL    HW218171   1.921   3.270   5.011
 5943SOL     OW18172   2.594   2.496   4.788
 5943SOL    HW118173   2.653   2.470   4.712
 5943SOL    HW218174   2.566   2.592   4.777
 5944SOL     OW18175   3.590   2.797   5.578
 5944SOL    HW118176   3.544   2.790   5.489
 5944SOL    HW218177   3.528   2.841   5.644
 5945SOL     OW18178   2.169   1.925   4.342
 5945SOL    HW118179   2.158   2.019   4.375
 5945SOL    HW218180   2.164   1.862   4.419
 5946SOL     OW18181   3.484   2.229   4.098
 5946SOL    HW118182   3.486   2.153   4.162
 5946SOL    HW218183   3.436   2.306   4.138
 5947SOL     OW18184   2.885   2.628   4.690
 5947SOL    HW118185   2.900   2.649   4.786
 5947SOL    HW218186   2.855   2.533   4.681
 5948SOL     OW18187   2.842   3.435   5.424
 5948SOL    HW118188   2.822   3.479   5.336
 5948SOL    HW218189   2.881   3.344   5.408
 5949SOL     OW18190   3.721   3.380   5.329
 5949SOL    HW118191   3.735   3.407   5.234
 5949SOL    HW218192   3.804   3.402   5.382
 5950SOL     OW18193   2.212   2.760   5.528
 5950SOL    HW118194   2.288   2.804   5.576
 5950SOL    HW218195   2.247   2.713   5.446
 5951SOL     OW18196   3.402   2.136   3.849
 5951SOL    HW118197   3.341   2.061   3.872
 5951SOL    HW218198   3.424   2.188   3.932
 5952SOL     OW18199   3.165   2.700   3.766
 5952SOL    HW118200   3.199   2.607   3.781
 5952SOL    HW218201   3.183   2.727   3.671
 5953SOL     OW18202   2.930   3.195   4.573
 5953SOL    HW118203   2.937   3.111   4.518
 5953SOL    HW218204   2.992   3.264   4.537
 5954SOL     OW18205   2.181   2.672   4.673
 5954SOL    HW118206   2.274   2.708   4.678
 5954SOL    HW218207   2.175   2.587   4.725
 5955SOL     OW18208   2.201   2.371   4.730
 5955SOL    HW118209   2.149   2.288   4.713
 5955SOL    HW218210   2.278   2.376   4.666
 5956SOL     OW18211   3.000   2.242   5.402
 5956SOL    HW118212   2.955   2.305   5.466
 5956SOL    HW218213   3.093   2.273   5.385
 5957SOL     OW18214   3.022   2.069   5.201
 5957SOL    HW118215   3.022   2.133   5.278
 5957SOL    HW218216   3.050   2.117   5.118
 5958SOL     OW18217   1.870   3.188   3.924
 5958SOL    HW118218   1.777   3.209   3.893
 5958SOL    HW218219   1.880   3.089   3.937
 5959SOL     OW18220   1.950   3.663   4.651
 5959SOL    HW118221   1.908   3.577   4.624
 5959SOL    HW218222   2.044   3.666   4.617
 5960SOL     OW18223   2.366   3.430   4.634
 5960SOL    HW118224   2.432   3.504   4.643
 5960SOL    HW218225   2.410   3.351   4.592
 5961SOL     OW18226   2.864   2.658   4.962
 5961SOL    HW118227   2.905   2.626   5.048
 5961SOL    HW218228   2.768   2.631   4.959
 5962SOL     OW18229   1.902   2.406   4.838
 5962SOL    HW118230   1.987   2.373   4.797
 5962SOL    HW218231   1.915   2.421   4.936
 5963SOL     OW18232   2.051   2.382   5.446
 5963SOL    HW118233   2.110   2.342   5.376
 5963SOL    HW218234   1.993   2.453   5.405
 5964SOL     OW18235   3.231   2.812   5.384
 5964SOL    HW118236   3.270   2.901   5.404
 5964SOL    HW218237   3.241   2.792   5.287
 5965SOL     OW18238   2.677   2.434   4.049
 5965SOL    HW118239   2.684   2.345   4.003
 5965SOL    HW218240   2.583   2.468   4.041
 5966SOL     OW18241   3.519   2.466   4.930
 5966SOL    HW118242   3.481   2.397   4.992
 5966SOL    HW218243   3.601   2.430   4.886
 5967SOL     OW18244   2.114   3.426   5.468
 5967SOL    HW118245   2.084   3.483   5.544
 5967SOL    HW218246   2.107   3.329   5.494
 5968SOL     OW18247   2.533   2.326   4.993
 5968SOL    HW118248   2.499   2.237   4.963
 5968SOL    HW218249   2.559   2.380   4.913
 5969SOL     OW18250   2.792   3.540   5.189
 5969SOL    HW118251   2.768   3.522   5.094
 5969SOL    HW218252   2.822   3.634   5.199
 5970SOL     OW18253   2.335   2.362   3.915
 5970SOL    HW118254   2.396   2.442   3.919
 5970SOL    HW218255   2.240   2.393   3.922
 5971SOL     OW18256   2.021   2.999   5.190
 5971SOL    HW118257   2.043   2.938   5.266
 5971SOL    HW218258   2.031   2.950   5.104
 5972SOL     OW18259   3.209   2.921   4.958
 5972SOL    HW118260   3.233   2.858   4.884
 5972SOL    HW218261   3.119   2.961   4.940
 5973SOL     OW18262   3.164   2.717   4.033
 5973SOL    HW118263   3.078   2.686   4.075
 5973SOL    HW218264   3.160   2.703   3.934
 5974SOL     OW18265   3.621   3.609   4.878
 5974SOL    HW118266   3.682   3.639   4.805
 5974SOL    HW218267   3.583   3.520   4.856
 5975SOL     OW18268   3.114   3.593   4.852
 5975SOL    HW118269   3.198   3.598   4.798
 5975SOL    HW218270   3.091   3.497   4.870
 5976SOL     OW18271   1.945   3.120   4.746
 5976SOL    HW118272   1.940   3.119   4.846
 5976SOL    HW218273   1.862   3.079   4.708
 5977SOL     OW18274   2.550   3.524   5.440
 5977SOL    HW118275   2.494   3.605   5.449
 5977SOL    HW218276   2.602   3.528   5.354
 5978SOL     OW18277   3.588   1.997   4.247
 5978SOL    HW118278   3.661   1.980   4.180
 5978SOL    HW218279   3.557   1.910   4.285
 5979SOL     OW18280   3.250   3.435   4.201
 5979SOL    HW118281   3.317   3.447   4.127
 5979SOL    HW218282   3.210   3.524   4.224
 5980SOL     OW18283   1.992   3.656   5.575
 5980SOL    HW118284   1.951   3.582   5.628
 5980SOL    HW218285   2.056   3.707   5.633
 5981SOL     OW18286   3.142   2.789   4.396
 5981SOL    HW118287   3.202   2.708   4.398
 5981SOL    HW218288   3.182   2.858   4.336
 5982SOL     OW18289   2.692   3.135   5.146
 5982SOL    HW118290   2.687   3.168   5.241
 5982SOL    HW218291   2.606   3.154   5.100
 5983SOL     OW18292   2.534   3.478   3.878
 5983SOL    HW118293   2.543   3.488   3.779
 5983SOL    HW218294   2.494   3.389   3.899
 5984SOL     OW18295   3.512   3.582   5.118
 5984SOL    HW118296   3.565   3.592   5.034
 5984SOL    HW218297   3.485   3.672   5.152
 5985SOL     OW18298   3.703   2.037   4.687
 5985SOL    HW118299   3.742   1.952   4.651
 5985SOL    HW218300   3.605   2.039   4.668
 5986SOL     OW18301   2.125   2.188   4.444
 5986SOL    HW118302   2.046   2.239   4.410
 5986SOL    HW218303   2.116   2.173   4.542
 5987SOL     OW18304   3.056   3.474   3.755
 5987SOL    HW118305   3.062   3.381   3.792
 5987SOL    HW218306   2.997   3.474   3.675
 5988SOL     OW18307   2.684   2.864   5.096
 5988SOL    HW118308   2.724   2.863   5.004
 5988SOL    HW218309   2.694   2.956   5.136
 5989SOL     OW18310   2.778   2.772   4.015
 5989SOL    HW118311   2.841   2.810   3.947
 5989SOL    HW218312   2.818   2.689   4.054
 5990SOL     OW18313   3.366   3.469   3.768
 5990SOL    HW118314   3.274   3.506   3.775
 5990SOL    HW218315   3.404   3.489   3.678
 5991SOL     OW18316   2.234   3.150   5.214
 5991SOL    HW118317   2.221   3.243   5.180
 5991SOL    HW218318   2.150   3.098   5.201
 5992SOL     OW18319   3.476   3.154   5.013
 5992SOL    HW118320   3.536   3.157   5.093
 5992SOL    HW218321   3.401   3.218   5.026
 5993SOL     OW18322   2.901   2.960   4.420
 5993SOL    HW118323   2.831   2.913   4.474
 5993SOL    HW218324   2.960   2.892   4.377
 5994SOL     OW18325   2.876   2.098   4.695
 5994SOL    HW118326   2.868   2.062   4.602
 5994SOL    HW218327   2.874   2.022   4.760
 5995SOL     OW18328   2.452   3.349   4.215
 5995SOL    HW118329   2.494   3.291   4.145
 5995SOL    HW218330   2.408   3.428   4.171
 5996SOL     OW18331   3.571   2.247   5.105
 5996SOL    HW118332   3.644   2.316   5.109
 5996SOL    HW218333   3.599   2.172   5.046
 5997SOL     OW18334   2.117   3.210   4.014
 5997SOL    HW118335   2.021   3.211   3.987
 5997SOL    HW218336   2.129   3.263   4.098
 5998SOL     OW18337   1.967   2.875   5.450
 5998SOL    HW118338   1.890   2.842   5.504
 5998SOL    HW218339   2.052   2.845   5.492
 5999SOL     OW18340   2.534   2.065   5.213
 5999SOL    HW118341   2.624   2.049   5.173
 5999SOL    HW218342   2.542   2.070   5.312
 6000SOL     OW18343   1.937   2.207   3.757
 6000SOL    HW118344   1.845   2.179   3.728
 6000SOL    HW218345   1.968   2.284   3.701
 6001SOL     OW18346   3.302   2.718   5.122
 6001SOL    HW118347   3.245   2.770   5.059
 6001SOL    HW218348   3.398   2.730   5.098
 6002SOL     OW18349   1.934   2.028   4.042
 6002SOL    HW118350   1.917   2.111   3.988
 6002SOL    HW218351   2.024   1.991   4.020
 6003SOL     OW18352   3.045   3.197   3.843
 6003SOL    HW118353   2.946   3.186   3.845
 6003SOL    HW218354   3.079   3.212   3.936
 6004SOL     OW18355   2.475   2.704   5.155
 6004SOL    HW118356   2.531   2.785   5.138
 6004SOL    HW218357   2.534   2.624   5.158
 6005SOL     OW18358   3.355   3.629   4.683
 6005SOL    HW118359   3.388   3.693   4.614
 6005SOL    HW218360   3.421   3.623   4.758
 6006SOL     OW18361   2.578   2.427   5.432
 6006SOL    HW118362   2.597   2.492   5.506
 6006SOL    HW218363   2.638   2.347   5.441
 6007SOL     OW18364   3.312   3.082   5.357
 6007SOL    HW118365   3.303   3.072   5.456
 6007SOL    HW218366   3.408   3.075   5.331
 6008SOL     OW18367   2.252   3.603   5.284
 6008SOL    HW118368   2.161   3.644   5.282
 6008SOL    HW218369   2.245   3.509   5.316
 6009SOL     OW18370   3.536   2.745   4.978
 6009SOL    HW118371   3.509   2.656   4.941
 6009SOL    HW218372   3.537   2.813   4.905
 6010SOL     OW18373   3.087   2.187   4.173
 6010SOL    HW118374   3.152   2.113   4.162
 6010SOL    HW218375   3.107   2.237   4.257
 6011SOL     OW18376   2.456   2.607   4.376
 6011SOL    HW118377   2.506   2.692   4.357
 6011SOL    HW218378   2.368   2.609   4.328
 6012SOL     OW18379   3.639   2.204   5.366
 6012SOL    HW118380   3.622   2.235   5.272
 6012SOL    HW218381   3.555   2.167   5.404
 6013SOL     OW18382   3.592   2.796   5.241
 6013SOL    HW118383   3.630   2.887   5.256
 6013SOL    HW218384   3.584   2.779   5.142
 6014SOL     OW18385   2.721   3.236   3.740
 6014SOL    HW118386   2.675   3.251   3.828
 6014SOL    HW218387   2.765   3.321   3.710
 6015SOL     OW18388   2.523   3.652   4.677
 6015SOL    HW118389   2.477   3.740   4.664
 6015SOL    HW218390   2.622   3.664   4.670
 6016SOL     OW18391   2.721   2.818   4.585
 6016SOL    HW118392   2.775   2.749   4.633
 6016SOL    HW218393   2.689   2.887   4.651
 6017SOL     OW18394   2.945   2.846   3.811
 6017SOL    HW118395   2.922   2.899   3.729
 6017SOL    HW218396   3.026   2.790   3.792
 6018SOL     OW18397   3.723   3.431   4.575
 6018SOL    HW118398   3.652   3.419   4.505
 6018SOL    HW218399   3.724   3.352   4.635
 6019SOL     OW18400   2.083   3.176   5.568
 6019SOL    HW118401   2.018   3.103   5.547
 6019SOL    HW218402   2.087   3.190   5.666
 6020SOL     OW18403   1.941   3.102   4.377
 6020SOL    HW118404   1.940   3.055   4.465
 6020SOL    HW218405   2.023   3.074   4.326
 6021SOL     OW18406   2.534   3.253   5.348
 6021SOL    HW118407   2.456   3.203   5.386
 6021SOL    HW218408   2.531   3.348   5.379
 6022SOL     OW18409   3.686   2.054   4.951
 6022SOL    HW118410   3.682   1.964   4.995
 6022SOL    HW218411   3.689   2.043   4.852
 6023SOL     OW18412   2.290   2.286   4.244
 6023SOL    HW118413   2.320   2.214   4.182
 6023SOL    HW218414   2.251   2.246   4.327
 6024SOL     OW18415   3.567   3.349   4.828
 6024SOL    HW118416   3.474   3.324   4.801
 6024SOL    HW218417   3.593   3.299   4.910
 6025SOL     OW18418   2.179   2.409   5.004
 6025SOL    HW118419   2.217   2.350   5.076
 6025SOL    HW218420   2.219   2.383   4.916
 6026SOL     OW18421   2.674   3.448   4.411
 6026SOL    HW118422   2.706   3.458   4.317
 6026SOL    HW218423   2.595   3.386   4.413
 6027SOL     OW18424   3.286   2.076   4.836
 6027SOL    HW118425   3.338   2.011   4.891
 6027SOL    HW218426   3.237   2.139   4.897
 6028SOL     OW18427   2.863   1.896   4.878
 6028SOL    HW118428   2.800   1.824   4.847
 6028SOL    HW218429   2.956   1.860   4.878
 6029SOL     OW18430   2.632   3.192   4.025
 6029SOL    HW118431   2.586   3.105   4.042
 6029SOL    HW218432   2.723   3.189   4.066
 6030SOL     OW18433   2.480   3.429   5.008
 6030SOL    HW118434   2.475   3.511   5.065
 6030SOL    HW218435   2.569   3.426   4.963
 6031SOL     OW18436   3.214   1.914   3.892
 6031SOL    HW118437   3.249   1.873   3.808
 6031SOL    HW218438   3.124   1.876   3.912
 6032SOL     OW18439   3.162   2.315   4.415
 6032SOL    HW118440   3.103   2.395   4.419
 6032SOL    HW218441   3.177   2.280   4.508
 6033SOL     OW18442   3.455   2.083   4.606
 6033SOL    HW118443   3.371   2.082   4.660
 6033SOL    HW218444   3.457   2.166   4.550
 6034SOL     OW18445   1.901   2.939   4.024
 6034SOL    HW118446   2.000   2.928   4.015
 6034SOL    HW218447   1.861   2.853   4.056
 6035SOL     OW18448   2.737   3.508   4.061
 6035SOL    HW118449   2.660   3.473   4.007
 6035SOL    HW218450   2.705   3.579   4.123
 6036SOL     OW18451   2.092   2.490   5.699
 6036SOL    HW118452   1.999   2.488   5.736
 6036SOL    HW218453   2.093   2.451   5.607
 6037SOL     OW18454   2.087   2.137   6.582
 6037SOL    HW118455   2.122   2.120   6.674
 6037SOL    HW218456   1.999   2.092   6.570
 6038SOL     OW18457   1.881   2.230   6.233
 6038SOL    HW118458   1.799   2.273   6.272
 6038SOL    HW218459   1.853   2.157   6.170
 6039SOL     OW18460   2.431   3.137   6.751
 6039SOL    HW118461   2.338   3.130   6.714
 6039SOL    HW218462   2.442   3.226   6.795
 6040SOL     OW18463   3.417   3.373   6.289
 6040SOL    HW118464   3.360   3.357   6.370
 6040SOL    HW218465   3.358   3.383   6.209
 6041SOL     OW18466   2.997   2.565   6.303
 6041SOL    HW118467   3.054   2.643   6.278
 6041SOL    HW218468   2.937   2.591   6.379
 6042SOL     OW18469   3.617   2.469   5.817
 6042SOL    HW118470   3.605   2.456   5.718
 6042SOL    HW218471   3.587   2.388   5.866
 6043SOL     OW18472   2.630   3.006   6.609
 6043SOL    HW118473   2.552   3.023   6.669
 6043SOL    HW218474   2.664   3.093   6.573
 6044SOL     OW18475   2.712   2.660   7.409
 6044SOL    HW118476   2.708   2.736   7.474
 6044SOL    HW218477   2.734   2.696   7.318
 6045SOL     OW18478   2.547   2.874   6.251
 6045SOL    HW118479   2.616   2.858   6.321
 6045SOL    HW218480   2.474   2.931   6.289
 6046SOL     OW18481   2.548   3.023   7.389
 6046SOL    HW118482   2.608   3.102   7.403
 6046SOL    HW218483   2.462   3.054   7.348
 6047SOL     OW18484   2.197   3.297   6.647
 6047SOL    HW118485   2.119   3.266   6.594
 6047SOL    HW218486   2.255   3.355   6.590
 6048SOL     OW18487   3.322   3.367   6.925
 6048SOL    HW118488   3.346   3.461   6.951
 6048SOL    HW218489   3.306   3.313   7.007
 6049SOL     OW18490   2.300   2.254   7.085
 6049SOL    HW118491   2.382   2.198   7.094
 6049SOL    HW218492   2.219   2.196   7.089
 6050SOL     OW18493   3.465   2.309   6.323
 6050SOL    HW118494   3.391   2.355   6.273
 6050SOL    HW218495   3.516   2.377   6.376
 6051SOL     OW18496   2.093   3.575   6.069
 6051SOL    HW118497   2.127   3.652   6.123
 6051SOL    HW218498   2.137   3.575   5.979
 6052SOL     OW18499   2.989   3.203   7.276
 6052SOL    HW118500   3.036   3.203   7.364
 6052SOL    HW218501   2.941   3.116   7.265
 6053SOL     OW18502   2.092   3.296   6.124
 6053SOL    HW118503   2.066   3.392   6.124
 6053SOL    HW218504   2.021   3.242   6.169
 6054SOL     OW18505   2.102   2.953   6.472
 6054SOL    HW118506   2.116   2.869   6.524
 6054SOL    HW218507   2.047   3.017   6.527
 6055SOL     OW18508   2.482   3.648   7.025
 6055SOL    HW118509   2.390   3.631   7.060
 6055SOL    HW218510   2.510   3.740   7.051
 6056SOL     OW18511   2.468   2.826   5.709
 6056SOL    HW118512   2.475   2.910   5.655
 6056SOL    HW218513   2.514   2.839   5.797
 6057SOL     OW18514   3.456   1.976   7.066
 6057SOL    HW118515   3.438   2.043   6.994
 6057SOL    HW218516   3.453   2.022   7.155
 6058SOL     OW18517   1.984   2.505   6.149
 6058SOL    HW118518   1.939   2.417   6.166
 6058SOL    HW218519   1.983   2.559   6.233
 6059SOL     OW18520   3.704   3.629   5.945
 6059SOL    HW118521   3.758   3.600   6.025
 6059SOL    HW218522   3.734   3.719   5.916
 6060SOL     OW18523   1.889   3.458   5.703
 6060SOL    HW118524   1.870   3.362   5.724
 6060SOL    HW218525   1.856   3.516   5.778
 6061SOL     OW18526   3.551   2.784   6.198
 6061SOL    HW118527   3.646   2.755   6.206
 6061SOL    HW218528   3.543   2.849   6.123
 6062SOL     OW18529   3.503   2.970   6.018
 6062SOL    HW118530   3.589   2.972   5.966
 6062SOL    HW218531   3.517   3.017   6.106
 6063SOL     OW18532   1.975   2.599   7.183
 6063SOL    HW118533   2.063   2.586   7.228
 6063SOL    HW218534   1.962   2.696   7.161
 6064SOL     OW18535   2.475   3.227   6.312
 6064SOL    HW118536   2.426   3.140   6.321
 6064SOL    HW218537   2.452   3.270   6.225
 6065SOL     OW18538   3.155   3.090   7.009
 6065SOL    HW118539   3.192   3.017   6.951
 6065SOL    HW218540   3.207   3.095   7.094
 6066SOL     OW18541   2.671   1.866   6.088
 6066SOL    HW118542   2.711   1.957   6.079
 6066SOL    HW218543   2.571   1.874   6.094
 6067SOL     OW18544   2.059   2.838   6.850
 6067SOL    HW118545   2.148   2.793   6.836
 6067SOL    HW218546   1.986   2.773   6.831
 6068SOL     OW18547   3.387   2.861   5.776
 6068SOL    HW118548   3.324   2.785   5.789
 6068SOL    HW218549   3.435   2.879   5.862
 6069SOL     OW18550   3.049   3.654   7.202
 6069SOL    HW118551   3.073   3.714   7.126
 6069SOL    HW218552   3.056   3.559   7.172
 6070SOL     OW18553   2.179   2.113   7.387
 6070SOL    HW118554   2.250   2.184   7.393
 6070SOL    HW218555   2.091   2.152   7.415
 6071SOL     OW18556   3.328   3.279   6.539
 6071SOL    HW118557   3.269   3.285   6.619
 6071SOL    HW218558   3.313   3.191   6.493
 6072SOL     OW18559   3.529   3.576   6.158
 6072SOL    HW118560   3.488   3.553   6.070
 6072SOL    HW218561   3.511   3.502   6.223
 6073SOL     OW18562   2.460   2.591   5.856
 6073SOL    HW118563   2.484   2.660   5.788
 6073SOL    HW218564   2.382   2.624   5.910
 6074SOL     OW18565   3.143   2.207   6.530
 6074SOL    HW118566   3.057   2.157   6.517
 6074SOL    HW218567   3.205   2.153   6.586
 6075SOL     OW18568   3.438   3.524   5.893
 6075SOL    HW118569   3.527   3.570   5.896
 6075SOL    HW218570   3.417   3.500   5.798
 6076SOL     OW18571   2.669   2.467   7.051
 6076SOL    HW118572   2.622   2.464   7.140
 6076SOL    HW218573   2.618   2.412   6.985
 6077SOL     OW18574   3.256   2.331   7.260
 6077SOL    HW118575   3.236   2.374   7.348
 6077SOL    HW218576   3.334   2.269   7.269
 6078SOL     OW18577   2.835   2.752   7.158
 6078SOL    HW118578   2.881   2.668   7.129
 6078SOL    HW218579   2.779   2.786   7.083
 6079SOL     OW18580   2.853   2.272   6.828
 6079SOL    HW118581   2.776   2.306   6.882
 6079SOL    HW218582   2.819   2.221   6.749
 6080SOL     OW18583   2.903   2.563   6.015
 6080SOL    HW118584   2.929   2.559   6.111
 6080SOL    HW218585   2.818   2.512   6.001
 6081SOL     OW18586   1.938   2.673   6.375
 6081SOL    HW118587   2.037   2.661   6.384
 6081SOL    HW218588   1.914   2.768   6.396
 6082SOL     OW18589   1.992   3.683   7.157
 6082SOL    HW118590   1.982   3.668   7.256
 6082SOL    HW218591   1.906   3.719   7.121
 6083SOL     OW18592   2.727   2.210   5.781
 6083SOL    HW118593   2.786   2.273   5.732
 6083SOL    HW218594   2.746   2.116   5.752
 6084SOL     OW18595   3.581   2.447   7.417
 6084SOL    HW118596   3.555   2.536   7.381
 6084SOL    HW218597   3.579   2.379   7.344
 6085SOL     OW18598   3.224   3.006   6.131
 6085SOL    HW118599   3.307   2.977   6.083
 6085SOL    HW218600   3.175   3.073   6.075
 6086SOL     OW18601   2.412   2.058   6.471
 6086SOL    HW118602   2.407   2.053   6.571
 6086SOL    HW218603   2.414   2.154   6.442
 6087SOL     OW18604   2.870   3.318   6.063
 6087SOL    HW118605   2.824   3.390   6.011
 6087SOL    HW218606   2.866   3.338   6.161
 6088SOL     OW18607   2.213   3.663   6.439
 6088SOL    HW118608   2.263   3.577   6.445
 6088SOL    HW218609   2.278   3.740   6.436
 6089SOL     OW18610   3.657   2.928   6.459
 6089SOL    HW118611   3.595   2.913   6.383
 6089SOL    HW218612   3.605   2.939   6.544
 6090SOL     OW18613   3.089   3.412   7.092
 6090SOL    HW118614   3.095   3.335   7.156
 6090SOL    HW218615   3.037   3.386   7.012
 6091SOL     OW18616   2.183   2.805   5.828
 6091SOL    HW118617   2.265   2.844   5.786
 6091SOL    HW218618   2.156   2.723   5.779
 6092SOL     OW18619   3.320   2.597   6.314
 6092SOL    HW118620   3.315   2.532   6.389
 6092SOL    HW218621   3.400   2.656   6.327
 6093SOL     OW18622   2.323   3.128   7.313
 6093SOL    HW118623   2.273   3.129   7.227
 6093SOL    HW218624   2.260   3.110   7.389
 6094SOL     OW18625   2.973   3.638   5.823
 6094SOL    HW118626   2.913   3.576   5.873
 6094SOL    HW218627   3.004   3.594   5.738
 6095SOL     OW18628   2.064   2.147   7.084
 6095SOL    HW118629   1.984   2.207   7.071
 6095SOL    HW218630   2.054   2.098   7.170
 6096SOL     OW18631   3.494   3.239   5.667
 6096SOL    HW118632   3.462   3.333   5.657
 6096SOL    HW218633   3.418   3.176   5.655
 6097SOL     OW18634   2.326   3.605   5.909
 6097SOL    HW118635   2.359   3.644   5.995
 6097SOL    HW218636   2.402   3.598   5.844
 6098SOL     OW18637   3.262   1.969   6.012
 6098SOL    HW118638   3.238   1.932   5.922
 6098SOL    HW218639   3.361   1.985   6.016
 6099SOL     OW18640   2.111   3.647   6.827
 6099SOL    HW118641   2.168   3.582   6.877
 6099SOL    HW218642   2.095   3.614   6.734
 6100SOL     OW18643   2.802   3.560   6.490
 6100SOL    HW118644   2.882   3.503   6.511
 6100SOL    HW218645   2.753   3.520   6.413
 6101SOL     OW18646   2.244   2.562   6.066
 6101SOL    HW118647   2.289   2.472   6.063
 6101SOL    HW218648   2.150   2.551   6.099
 6102SOL     OW18649   3.409   2.084   7.315
 6102SOL    HW118650   3.404   2.121   7.407
 6102SOL    HW218651   3.337   2.015   7.303
 6103SOL     OW18652   2.476   1.984   5.703
 6103SOL    HW118653   2.574   1.962   5.710
 6103SOL    HW218654   2.445   1.967   5.610
 6104SOL     OW18655   2.643   2.126   7.335
 6104SOL    HW118656   2.710   2.065   7.378
 6104SOL    HW218657   2.570   2.145   7.400
 6105SOL     OW18658   2.750   3.376   6.781
 6105SOL    HW118659   2.727   3.351   6.687
 6105SOL    HW218660   2.811   3.307   6.820
 6106SOL     OW18661   3.213   2.452   7.019
 6106SOL    HW118662   3.241   2.409   7.104
 6106SOL    HW218663   3.238   2.548   7.020
 6107SOL     OW18664   2.665   3.264   6.510
 6107SOL    HW118665   2.755   3.278   6.468
 6107SOL    HW218666   2.594   3.266   6.439
 6108SOL     OW18667   2.784   2.365   6.485
 6108SOL    HW118668   2.759   2.356   6.389
 6108SOL    HW218669   2.832   2.283   6.516
 6109SOL     OW18670   2.401   1.926   6.098
 6109SOL    HW118671   2.320   1.927   6.156
 6109SOL    HW218672   2.404   2.009   6.043
 6110SOL     OW18673   3.296   3.050   5.627
 6110SOL    HW118674   3.328   2.974   5.684
 6110SOL    HW218675   3.204   3.077   5.657
 6111SOL     OW18676   2.159   1.897   5.757
 6111SOL    HW118677   2.208   1.981   5.736
 6111SOL    HW218678   2.221   1.832   5.802
 6112SOL     OW18679   2.797   2.098   6.066
 6112SOL    HW118680   2.749   2.139   5.988
 6112SOL    HW218681   2.896   2.096   6.047
 6113SOL     OW18682   2.938   2.545   7.050
 6113SOL    HW118683   2.858   2.484   7.053
 6113SOL    HW218684   3.019   2.492   7.026
 6114SOL     OW18685   3.089   3.432   6.379
 6114SOL    HW118686   3.110   3.506   6.314
 6114SOL    HW218687   3.157   3.432   6.452
 6115SOL     OW18688   2.321   3.014   6.327
 6115SOL    HW118689   2.250   2.987   6.392
 6115SOL    HW218690   2.295   2.986   6.234
 6116SOL     OW18691   3.133   3.659   6.177
 6116SOL    HW118692   3.177   3.723   6.113
 6116SOL    HW218693   3.083   3.711   6.247
 6117SOL     OW18694   2.894   2.411   5.602
 6117SOL    HW118695   2.853   2.493   5.563
 6117SOL    HW218696   2.958   2.437   5.675
 6118SOL     OW18697   1.940   2.418   6.972
 6118SOL    HW118698   2.032   2.417   6.931
 6118SOL    HW218699   1.934   2.492   7.039
 6119SOL     OW18700   2.423   2.084   6.733
 6119SOL    HW118701   2.461   2.000   6.770
 6119SOL    HW218702   2.335   2.103   6.777
 6120SOL     OW18703   2.728   2.316   6.228
 6120SOL    HW118704   2.696   2.388   6.166
 6120SOL    HW218705   2.752   2.235   6.175
 6121SOL     OW18706   2.879   1.901   6.339
 6121SOL    HW118707   2.807   1.906   6.270
 6121SOL    HW218708   2.855   1.832   6.408
 6122SOL     OW18709   3.291   3.035   6.453
 6122SOL    HW118710   3.236   2.951   6.446
 6122SOL    HW218711   3.317   3.064   6.361
 6123SOL     OW18712   3.328   2.452   6.578
 6123SOL    HW118713   3.298   2.357   6.585
 6123SOL    HW218714   3.401   2.468   6.644
 6124SOL     OW18715   3.719   2.695   5.963
 6124SOL    HW118716   3.761   2.631   6.027
 6124SOL    HW218717   3.681   2.644   5.885
 6125SOL     OW18718   2.350   3.247   5.760
 6125SOL    HW118719   2.263   3.232   5.807
 6125SOL    HW218720   2.333   3.273   5.665
 6126SOL     OW18721   3.526   3.142   6.243
 6126SOL    HW118722   3.625   3.150   6.257
 6126SOL    HW218723   3.481   3.226   6.274
 6127SOL     OW18724   3.252   2.437   5.664
 6127SOL    HW118725   3.198   2.416   5.745
 6127SOL    HW218726   3.343   2.396   5.673
 6128SOL     OW18727   2.389   2.118   5.914
 6128SOL    HW118728   2.416   2.059   5.839
 6128SOL    HW218729   2.389   2.213   5.883
 6129SOL     OW18730   3.616   3.085   7.174
 6129SOL    HW118731   3.707   3.046   7.161
 6129SOL    HW218732   3.624   3.181   7.198
 6130SOL     OW18733   2.926   3.209   6.926
 6130SOL    HW118734   2.846   3.186   6.981
 6130SOL    HW218735   3.009   3.183   6.975
 6131SOL     OW18736   3.454   3.491   7.211
 6131SOL    HW118737   3.481   3.525   7.121
 6131SOL    HW218738   3.533   3.453   7.257
 6132SOL     OW18739   2.973   3.057   6.686
 6132SOL    HW118740   2.933   3.101   6.767
 6132SOL    HW218741   2.932   3.094   6.603
 6133SOL     OW18742   3.500   2.961   6.665
 6133SOL    HW118743   3.505   3.042   6.724
 6133SOL    HW218744   3.414   2.963   6.614
 6134SOL     OW18745   2.777   1.951   6.988
 6134SOL    HW118746   2.802   1.931   6.893
 6134SOL    HW218747   2.849   2.007   7.030
 6135SOL     OW18748   2.842   2.978   7.305
 6135SOL    HW118749   2.743   2.984   7.315
 6135SOL    HW218750   2.865   2.898   7.249
 6136SOL     OW18751   2.567   2.912   5.954
 6136SOL    HW118752   2.553   2.919   6.053
 6136SOL    HW218753   2.651   2.861   5.936
 6137SOL     OW18754   2.272   2.675   6.837
 6137SOL    HW118755   2.358   2.687   6.887
 6137SOL    HW218756   2.230   2.588   6.864
 6138SOL     OW18757   3.136   2.248   6.848
 6138SOL    HW118758   3.157   2.322   6.912
 6138SOL    HW218759   3.047   2.265   6.805
 6139SOL     OW18760   1.926   3.426   6.917
 6139SOL    HW118761   1.880   3.508   6.883
 6139SOL    HW218762   2.024   3.445   6.926
 6140SOL     OW18763   2.229   2.962   6.087
 6140SOL    HW118764   2.222   3.045   6.031
 6140SOL    HW218765   2.233   2.882   6.027
 6141SOL     OW18766   2.428   2.399   6.451
 6141SOL    HW118767   2.440   2.465   6.377
 6141SOL    HW218768   2.474   2.433   6.534
 6142SOL     OW18769   3.114   3.210   5.974
 6142SOL    HW118770   3.164   3.287   6.014
 6142SOL    HW218771   3.019   3.212   6.006
 6143SOL     OW18772   3.134   3.307   6.728
 6143SOL    HW118773   3.181   3.320   6.815
 6143SOL    HW218774   3.068   3.233   6.737
 6144SOL     OW18775   3.444   2.501   6.058
 6144SOL    HW118776   3.413   2.562   6.131
 6144SOL    HW218777   3.494   2.553   5.989
 6145SOL     OW18778   2.216   3.372   6.915
 6145SOL    HW118779   2.195   3.328   6.828
 6145SOL    HW218780   2.313   3.398   6.918
 6146SOL     OW18781   2.264   2.613   7.184
 6146SOL    HW118782   2.332   2.668   7.137
 6146SOL    HW218783   2.304   2.525   7.211
 6147SOL     OW18784   3.449   2.641   7.256
 6147SOL    HW118785   3.357   2.679   7.251
 6147SOL    HW218786   3.509   2.688   7.191
 6148SOL     OW18787   2.875   1.967   7.356
 6148SOL    HW118788   2.881   2.052   7.304
 6148SOL    HW218789   2.907   1.891   7.299
 6149SOL     OW18790   2.366   1.912   7.326
 6149SOL    HW118791   2.324   1.855   7.256
 6149SOL    HW218792   2.300   1.981   7.358
 6150SOL     OW18793   2.435   2.732   6.615
 6150SOL    HW118794   2.479   2.821   6.606
 6150SOL    HW218795   2.372   2.732   6.692
 6151SOL     OW18796   3.222   2.724   6.631
 6151SOL    HW118797   3.147   2.724   6.565
 6151SOL    HW218798   3.259   2.632   6.640
 6152SOL     OW18799   3.071   2.387   5.861
 6152SOL    HW118800   3.084   2.303   5.915
 6152SOL    HW218801   3.042   2.461   5.921
 6153SOL     OW18802   2.169   2.075   6.817
 6153SOL    HW118803   2.146   2.112   6.907
 6153SOL    HW218804   2.139   1.980   6.811
 6154SOL     OW18805   1.899   3.172   6.868
 6154SOL    HW118806   1.952   3.123   6.936
 6154SOL    HW218807   1.921   3.270   6.873
 6155SOL     OW18808   2.594   2.496   6.650
 6155SOL    HW118809   2.653   2.470   6.574
 6155SOL    HW218810   2.566   2.592   6.639
 6156SOL     OW18811   3.590   2.797   7.440
 6156SOL    HW118812   3.544   2.790   7.351
 6156SOL    HW218813   3.528   2.841   7.506
 6157SOL     OW18814   2.169   1.925   6.204
 6157SOL    HW118815   2.158   2.019   6.237
 6157SOL    HW218816   2.164   1.862   6.281
 6158SOL     OW18817   3.484   2.229   5.960
 6158SOL    HW118818   3.486   2.153   6.024
 6158SOL    HW218819   3.436   2.306   6.000
 6159SOL     OW18820   2.885   2.628   6.552
 6159SOL    HW118821   2.900   2.649   6.648
 6159SOL    HW218822   2.855   2.533   6.543
 6160SOL     OW18823   2.842   3.435   7.286
 6160SOL    HW118824   2.822   3.479   7.198
 6160SOL    HW218825   2.881   3.344   7.270
 6161SOL     OW18826   3.721   3.380   7.191
 6161SOL    HW118827   3.735   3.407   7.096
 6161SOL    HW218828   3.804   3.402   7.244
 6162SOL     OW18829   2.212   2.760   7.390
 6162SOL    HW118830   2.288   2.804   7.438
 6162SOL    HW218831   2.247   2.713   7.308
 6163SOL     OW18832   3.402   2.136   5.711
 6163SOL    HW118833   3.341   2.061   5.734
 6163SOL    HW218834   3.424   2.188   5.794
 6164SOL     OW18835   3.165   2.700   5.628
 6164SOL    HW118836   3.199   2.607   5.643
 6164SOL    HW218837   3.183   2.727   5.533
 6165SOL     OW18838   2.930   3.195   6.435
 6165SOL    HW118839   2.937   3.111   6.380
 6165SOL    HW218840   2.992   3.264   6.399
 6166SOL     OW18841   2.181   2.672   6.535
 6166SOL    HW118842   2.274   2.708   6.540
 6166SOL    HW218843   2.175   2.587   6.587
 6167SOL     OW18844   2.201   2.371   6.592
 6167SOL    HW118845   2.149   2.288   6.575
 6167SOL    HW218846   2.278   2.376   6.528
 6168SOL     OW18847   3.000   2.242   7.264
 6168SOL    HW118848   2.955   2.305   7.328
 6168SOL    HW218849   3.093   2.273   7.247
 6169SOL     OW18850   3.022   2.069   7.063
 6169SOL    HW118851   3.022   2.133   7.140
 6169SOL    HW218852   3.050   2.117   6.980
 6170SOL     OW18853   1.870   3.188   5.786
 6170SOL    HW118854   1.777   3.209   5.755
 6170SOL    HW218855   1.880   3.089   5.799
 6171SOL     OW18856   1.950   3.663   6.513
 6171SOL    HW118857   1.908   3.577   6.486
 6171SOL    HW218858   2.044   3.666   6.479
 6172SOL     OW18859   2.366   3.430   6.496
 6172SOL    HW118860   2.432   3.504   6.505
 6172SOL    HW218861   2.410   3.351   6.454
 6173SOL     OW18862   2.864   2.658   6.824
 6173SOL    HW118863   2.905   2.626   6.910
 6173SOL    HW218864   2.768   2.631   6.821
 6174SOL     OW18865   1.902   2.406   6.700
 6174SOL    HW118866   1.987   2.373   6.659
 6174SOL    HW218867   1.915   2.421   6.798
 6175SOL     OW18868   2.051   2.382   7.308
 6175SOL    HW118869   2.110   2.342   7.238
 6175SOL    HW218870   1.993   2.453   7.267
 6176SOL     OW18871   3.231   2.812   7.246
 6176SOL    HW118872   3.270   2.901   7.266
 6176SOL    HW218873   3.241   2.792   7.149
 6177SOL     OW18874   2.677   2.434   5.911
 6177SOL    HW118875   2.684   2.345   5.865
 6177SOL    HW218876   2.583   2.468   5.903
 6178SOL     OW18877   3.519   2.466   6.792
 6178SOL    HW118878   3.481   2.397   6.854
 6178SOL    HW218879   3.601   2.430   6.748
 6179SOL     OW18880   2.114   3.426   7.330
 6179SOL    HW118881   2.084   3.483   7.406
 6179SOL    HW218882   2.107   3.329   7.356
 6180SOL     OW18883   2.533   2.326   6.855
 6180SOL    HW118884   2.499   2.237   6.825
 6180SOL    HW218885   2.559   2.380   6.775
 6181SOL     OW18886   2.792   3.540   7.051
 6181SOL    HW118887   2.768   3.522   6.956
 6181SOL    HW218888   2.822   3.634   7.061
 6182SOL     OW18889   2.335   2.362   5.777
 6182SOL    HW118890   2.396   2.442   5.781
 6182SOL    HW218891   2.240   2.393   5.784
 6183SOL     OW18892   2.021   2.999   7.052
 6183SOL    HW118893   2.043   2.938   7.128
 6183SOL    HW218894   2.031   2.950   6.966
 6184SOL     OW18895   3.209   2.921   6.820
 6184SOL    HW118896   3.233   2.858   6.746
 6184SOL    HW218897   3.119   2.961   6.802
 6185SOL     OW18898   3.164   2.717   5.895
 6185SOL    HW118899   3.078   2.686   5.937
 6185SOL    HW218900   3.160   2.703   5.796
 6186SOL     OW18901   3.621   3.609   6.740
 6186SOL    HW118902   3.682   3.639   6.667
 6186SOL    HW218903   3.583   3.520   6.718
 6187SOL     OW18904   3.114   3.593   6.714
 6187SOL    HW118905   3.198   3.598   6.660
 6187SOL    HW218906   3.091   3.497   6.732
 6188SOL     OW18907   1.945   3.120   6.608
 6188SOL    HW118908   1.940   3.119   6.708
 6188SOL    HW218909   1.862   3.079   6.570
 6189SOL     OW18910   2.550   3.524   7.302
 6189SOL    HW118911   2.494   3.605   7.311
 6189SOL    HW218912   2.602   3.528   7.216
 6190SOL     OW18913   3.588   1.997   6.109
 6190SOL    HW118914   3.661   1.980   6.042
 6190SOL    HW218915   3.557   1.910   6.147
 6191SOL     OW18916   3.250   3.435   6.063
 6191SOL    HW118917   3.317   3.447   5.989
 6191SOL    HW218918   3.210   3.524   6.086
 6192SOL     OW18919   1.992   3.656   7.437
 6192SOL    HW118920   1.951   3.582   7.490
 6192SOL    HW218921   2.056   3.707   7.495
 6193SOL     OW18922   3.142   2.789   6.258
 6193SOL    HW118923   3.202   2.708   6.260
 6193SOL    HW218924   3.182   2.858   6.198
 6194SOL     OW18925   2.692   3.135   7.008
 6194SOL    HW118926   2.687   3.168   7.103
 6194SOL    HW218927   2.606   3.154   6.962
 6195SOL     OW18928   2.534   3.478   5.740
 6195SOL    HW118929   2.543   3.488   5.641
 6195SOL    HW218930   2.494   3.389   5.761
 6196SOL     OW18931   3.512   3.582   6.980
 6196SOL    HW118932   3.565   3.592   6.896
 6196SOL    HW218933   3.485   3.672   7.014
 6197SOL     OW18934   3.703   2.037   6.549
 6197SOL    HW118935   3.742   1.952   6.513
 6197SOL    HW218936   3.605   2.039   6.530
 6198SOL     OW18937   2.125   2.188   6.306
 6198SOL    HW118938   2.046   2.239   6.272
 6198SOL    HW218939   2.116   2.173   6.404
 6199SOL     OW18940   3.056   3.474   5.617
 6199SOL    HW118941   3.062   3.381   5.654
 6199SOL    HW218942   2.997   3.474   5.537
 6200SOL     OW18943   2.684   2.864   6.958
 6200SOL    HW118944   2.724   2.863   6.866
 6200SOL    HW218945   2.694   2.956   6.998
 6201SOL     OW18946   2.778   2.772   5.877
 6201SOL    HW118947   2.841   2.810   5.809
 6201SOL    HW218948   2.818   2.689   5.916
 6202SOL     OW18949   3.366   3.469   5.630
 6202SOL    HW118950   3.274   3.506   5.637
 6202SOL    HW218951   3.404   3.489   5.540
 6203SOL     OW18952   2.234   3.150   7.076
 6203SOL    HW118953   2.221   3.243   7.042
 6203SOL    HW218954   2.150   3.098   7.063
 6204SOL     OW18955   3.476   3.154   6.875
 6204SOL    HW118956   3.536   3.157   6.955
 6204SOL    HW218957   3.401   3.218   6.888
 6205SOL     OW18958   2.901   2.960   6.282
 6205SOL    HW118959   2.831   2.913   6.336
 6205SOL    HW218960   2.960   2.892   6.239
 6206SOL     OW18961   2.876   2.098   6.557
 6206SOL    HW118962   2.868   2.062   6.464
 6206SOL    HW218963   2.874   2.022   6.622
 6207SOL     OW18964   2.452   3.349   6.077
 6207SOL    HW118965   2.494   3.291   6.007
 6207SOL    HW218966   2.408   3.428   6.033
 6208SOL     OW18967   3.571   2.247   6.967
 6208SOL    HW118968   3.644   2.316   6.971
 6208SOL    HW218969   3.599   2.172   6.908
 6209SOL     OW18970   2.117   3.210   5.876
 6209SOL    HW118971   2.021   3.211   5.849
 6209SOL    HW218972   2.129   3.263   5.960
 6210SOL     OW18973   1.967   2.875   7.312
 6210SOL    HW118974   1.890   2.842   7.366
 6210SOL    HW218975   2.052   2.845   7.354
 6211SOL     OW18976   2.534   2.065   7.075
 6211SOL    HW118977   2.624   2.049   7.035
 6211SOL    HW218978   2.542   2.070   7.174
 6212SOL     OW18979   1.937   2.207   5.619
 6212SOL    HW118980   1.845   2.179   5.590
 6212SOL    HW218981   1.968   2.284   5.563
 6213SOL     OW18982   3.302   2.718   6.984
 6213SOL    HW118983   3.245   2.770   6.921
 6213SOL    HW218984   3.398   2.730   6.960
 6214SOL     OW18985   1.934   2.028   5.904
 6214SOL    HW118986   1.917   2.111   5.850
 6214SOL    HW218987   2.024   1.991   5.882
 6215SOL     OW18988   3.045   3.197   5.705
 6215SOL    HW118989   2.946   3.186   5.707
 6215SOL    HW218990   3.079   3.212   5.798
 6216SOL     OW18991   2.475   2.704   7.017
 6216SOL    HW118992   2.531   2.785   7.000
 6216SOL    HW218993   2.534   2.624   7.020
 6217SOL     OW18994   3.355   3.629   6.545
 6217SOL    HW118995   3.388   3.693   6.476
 6217SOL    HW218996   3.421   3.623   6.620
 6218SOL     OW18997   2.578   2.427   7.294
 6218SOL    HW118998   2.597   2.492   7.368
 6218SOL    HW218999   2.638   2.347   7.303
 6219SOL     OW19000   3.312   3.082   7.219
 6219SOL    HW119001   3.303   3.072   7.318
 6219SOL    HW219002   3.408   3.075   7.193
 6220SOL     OW19003   2.252   3.603   7.146
 6220SOL    HW119004   2.161   3.644   7.144
 6220SOL    HW219005   2.245   3.509   7.178
 6221SOL     OW19006   3.536   2.745   6.840
 6221SOL    HW119007   3.509   2.656   6.803
 6221SOL    HW219008   3.537   2.813   6.767
 6222SOL     OW19009   3.087   2.187   6.035
 6222SOL    HW119010   3.152   2.113   6.024
 6222SOL    HW219011   3.107   2.237   6.119
 6223SOL     OW19012   2.456   2.607   6.238
 6223SOL    HW119013   2.506   2.692   6.219
 6223SOL    HW219014   2.368   2.609   6.190
 6224SOL     OW19015   3.639   2.204   7.228
 6224SOL    HW119016   3.622   2.235   7.134
 6224SOL    HW219017   3.555   2.167   7.266
 6225SOL     OW19018   3.592   2.796   7.103
 6225SOL    HW119019   3.630   2.887   7.118
 6225SOL    HW219020   3.584   2.779   7.004
 6226SOL     OW19021   2.721   3.236   5.602
 6226SOL    HW119022   2.675   3.251   5.690
 6226SOL    HW219023   2.765   3.321   5.572
 6227SOL     OW19024   2.523   3.652   6.539
 6227SOL    HW119025   2.477   3.740   6.526
 6227SOL    HW219026   2.622   3.664   6.532
 6228SOL     OW19027   2.721   2.818   6.447
 6228SOL    HW119028   2.775   2.749   6.495
 6228SOL    HW219029   2.689   2.887   6.513
 6229SOL     OW19030   2.945   2.846   5.673
 6229SOL    HW119031   2.922   2.899   5.591
 6229SOL    HW219032   3.026   2.790   5.654
 6230SOL     OW19033   3.723   3.431   6.437
 6230SOL    HW119034   3.652   3.419   6.367
 6230SOL    HW219035   3.724   3.352   6.497
 6231SOL     OW19036   2.083   3.176   7.430
 6231SOL    HW119037   2.018   3.103   7.409
 6231SOL    HW219038   2.087   3.190   7.528
 6232SOL     OW19039   1.941   3.102   6.239
 6232SOL    HW119040   1.940   3.055   6.327
 6232SOL    HW219041   2.023   3.074   6.188
 6233SOL     OW19042   2.534   3.253   7.210
 6233SOL    HW119043   2.456   3.203   7.248
 6233SOL    HW219044   2.531   3.348   7.241
 6234SOL     OW19045   3.686   2.054   6.813
 6234SOL    HW119046   3.682   1.964   6.857
 6234SOL    HW219047   3.689   2.043   6.714
 6235SOL     OW19048   2.290   2.286   6.106
 6235SOL    HW119049   2.320   2.214   6.044
 6235SOL    HW219050   2.251   2.246   6.189
 6236SOL     OW19051   3.567   3.349   6.690
 6236SOL    HW119052   3.474   3.324   6.663
 6236SOL    HW219053   3.593   3.299   6.772
 6237SOL     OW19054   2.179   2.409   6.866
 6237SOL    HW119055   2.217   2.350   6.938
 6237SOL    HW219056   2.219   2.383   6.778
 6238SOL     OW19057   2.674   3.448   6.273
 6238SOL    HW119058   2.706   3.458   6.179
 6238SOL    HW219059   2.595   3.386   6.275
 6239SOL     OW19060   3.286   2.076   6.698
 6239SOL    HW119061   3.338   2.011   6.753
 6239SOL    HW219062   3.237   2.139   6.759
 6240SOL     OW19063   2.863   1.896   6.740
 6240SOL    HW119064   2.800   1.824   6.709
 6240SOL    HW219065   2.956   1.860   6.740
 6241SOL     OW19066   2.632   3.192   5.887
 6241SOL    HW119067   2.586   3.105   5.904
 6241SOL    HW219068   2.723   3.189   5.928
 6242SOL     OW19069   2.480   3.429   6.870
 6242SOL    HW119070   2.475   3.511   6.927
 6242SOL    HW219071   2.569   3.426   6.825
 6243SOL     OW19072   3.214   1.914   5.754
 6243SOL    HW119073   3.249   1.873   5.670
 6243SOL    HW219074   3.124   1.876   5.774
 6244SOL     OW19075   3.162   2.315   6.277
 6244SOL    HW119076   3.103   2.395   6.281
 6244SOL    HW219077   3.177   2.280   6.370
 6245SOL     OW19078   3.455   2.083   6.468
 6245SOL    HW119079   3.371   2.082   6.522
 6245SOL    HW219080   3.457   2.166   6.412
 6246SOL     OW19081   1.901   2.939   5.886
 6246SOL    HW119082   2.000   2.928   5.877
 6246SOL    HW219083   1.861   2.853   5.918
 6247SOL     OW19084   2.737   3.508   5.923
 6247SOL    HW119085   2.660   3.473   5.869
 6247SOL    HW219086   2.705   3.579   5.985
 6248SOL     OW19087   2.092   2.490   7.561
 6248SOL    HW119088   1.999   2.488   7.598
 6248SOL    HW219089   2.093   2.451   7.469
 6249SOL     OW19090   2.093   3.575   7.931
 6249SOL    HW119091   2.127   3.652   7.985
 6249SOL    HW219092   2.137   3.575   7.841
 6250SOL     OW19093   2.468   2.826   7.571
 6250SOL    HW119094   2.475   2.910   7.517
 6250SOL    HW219095   2.514   2.839   7.659
 6251SOL     OW19096   1.889   3.458   7.565
 6251SOL    HW119097   1.870   3.362   7.586
 6251SOL    HW219098   1.856   3.516   7.640
 6252SOL     OW19099   2.671   1.866   7.950
 6252SOL    HW119100   2.711   1.957   7.941
 6252SOL    HW219101   2.571   1.874   7.956
 6253SOL     OW19102   3.387   2.861   7.638
 6253SOL    HW119103   3.324   2.785   7.651
 6253SOL    HW219104   3.435   2.879   7.724
 6254SOL     OW19105   2.460   2.591   7.718
 6254SOL    HW119106   2.484   2.660   7.650
 6254SOL    HW219107   2.382   2.624   7.772
 6255SOL     OW19108   2.903   2.563   7.877
 6255SOL    HW119109   2.929   2.559   7.973
 6255SOL    HW219110   2.818   2.512   7.863
 6256SOL     OW19111   2.727   2.210   7.643
 6256SOL    HW119112   2.786   2.273   7.594
 6256SOL    HW219113   2.746   2.116   7.614
 6257SOL     OW19114   2.870   3.318   7.925
 6257SOL    HW119115   2.824   3.390   7.873
 6257SOL    HW219116   2.866   3.338   8.023
 6258SOL     OW19117   2.183   2.805   7.690
 6258SOL    HW119118   2.265   2.844   7.648
 6258SOL    HW219119   2.156   2.723   7.641
 6259SOL     OW19120   2.973   3.638   7.685
 6259SOL    HW119121   2.913   3.576   7.735
 6259SOL    HW219122   3.004   3.594   7.600
 6260SOL     OW19123   3.494   3.239   7.529
 6260SOL    HW119124   3.462   3.333   7.519
 6260SOL    HW219125   3.418   3.176   7.517
 6261SOL     OW19126   2.326   3.605   7.771
 6261SOL    HW119127   2.359   3.644   7.857
 6261SOL    HW219128   2.402   3.598   7.706
 6262SOL     OW19129   2.244   2.562   7.928
 6262SOL    HW119130   2.289   2.472   7.925
 6262SOL    HW219131   2.150   2.551   7.961
 6263SOL     OW19132   2.476   1.984   7.565
 6263SOL    HW119133   2.574   1.962   7.572
 6263SOL    HW219134   2.445   1.967   7.472
 6264SOL     OW19135   2.401   1.926   7.960
 6264SOL    HW119136   2.320   1.927   8.018
 6264SOL    HW219137   2.404   2.009   7.905
 6265SOL     OW19138   3.296   3.050   7.489
 6265SOL    HW119139   3.328   2.974   7.546
 6265SOL    HW219140   3.204   3.077   7.519
 6266SOL     OW19141   2.159   1.897   7.619
 6266SOL    HW119142   2.208   1.981   7.598
 6266SOL    HW219143   2.221   1.832   7.664
 6267SOL     OW19144   2.797   2.098   7.928
 6267SOL    HW119145   2.749   2.139   7.850
 6267SOL    HW219146   2.896   2.096   7.909
 6268SOL     OW19147   2.894   2.411   7.464
 6268SOL    HW119148   2.853   2.493   7.425
 6268SOL    HW219149   2.958   2.437   7.537
 6269SOL     OW19150   2.350   3.247   7.622
 6269SOL    HW119151   2.263   3.232   7.669
 6269SOL    HW219152   2.333   3.273   7.527
 6270SOL     OW19153   3.252   2.437   7.526
 6270SOL    HW119154   3.198   2.416   7.607
 6270SOL    HW219155   3.343   2.396   7.535
 6271SOL     OW19156   2.389   2.118   7.776
 6271SOL    HW119157   2.416   2.059   7.701
 6271SOL    HW219158   2.389   2.213   7.745
 6272SOL     OW19159   2.567   2.912   7.816
 6272SOL    HW119160   2.553   2.919   7.915
 6272SOL    HW219161   2.651   2.861   7.798
 6273SOL     OW19162   2.229   2.962   7.949
 6273SOL    HW119163   2.222   3.045   7.893
 6273SOL    HW219164   2.233   2.882   7.889
 6274SOL     OW19165   3.402   2.136   7.573
 6274SOL    HW119166   3.341   2.061   7.596
 6274SOL    HW219167   3.424   2.188   7.656
 6275SOL     OW19168   3.165   2.700   7.490
 6275SOL    HW119169   3.199   2.607   7.505
 6275SOL    HW219170   3.183   2.727   7.395
 6276SOL     OW19171   1.870   3.188   7.648
 6276SOL    HW119172   1.777   3.209   7.617
 6276SOL    HW219173   1.880   3.089   7.661
 6277SOL     OW19174   2.677   2.434   7.773
 6277SOL    HW119175   2.684   2.345   7.727
 6277SOL    HW219176   2.583   2.468   7.765
 6278SOL     OW19177   2.335   2.362   7.639
 6278SOL    HW119178   2.396   2.442   7.643
 6278SOL    HW219179   2.240   2.393   7.646
 6279SOL     OW19180   3.250   3.435   7.925
 6279SOL    HW119181   3.317   3.447   7.851
 6279SOL    HW219182   3.210   3.524   7.948
 6280SOL     OW19183   2.534   3.478   7.602
 6280SOL    HW119184   2.543   3.488   7.503
 6280SOL    HW219185   2.494   3.389   7.623
 6281SOL     OW19186   3.056   3.474   7.479
 6281SOL    HW119187   3.062   3.381   7.516
 6281SOL    HW219188   2.997   3.474   7.399
 6282SOL     OW19189   2.778   2.772   7.739
 6282SOL    HW119190   2.841   2.810   7.671
 6282SOL    HW219191   2.818   2.689   7.778
 6283SOL     OW19192   3.366   3.469   7.492
 6283SOL    HW119193   3.274   3.506   7.499
 6283SOL    HW219194   3.404   3.489   7.402
 6284SOL     OW19195   2.452   3.349   7.939
 6284SOL    HW119196   2.494   3.291   7.869
 6284SOL    HW219197   2.408   3.428   7.895
 6285SOL     OW19198   2.117   3.210   7.738
 6285SOL    HW119199   2.021   3.211   7.711
 6285SOL    HW219200   2.129   3.263   7.822
 6286SOL     OW19201   1.937   2.207   7.481
 6286SOL    HW119202   1.845   2.179   7.452
 6286SOL    HW219203   1.968   2.284   7.425
 6287SOL     OW19204   1.934   2.028   7.766
 6287SOL    HW119205   1.917   2.111   7.712
 6287SOL    HW219206   2.024   1.991   7.744
 6288SOL     OW19207   2.721   3.236   7.464
 6288SOL    HW119208   2.675   3.251   7.552
 6288SOL    HW219209   2.765   3.321   7.434
 6289SOL     OW19210   2.945   2.846   7.535
 6289SOL    HW119211   2.922   2.899   7.453
 6289SOL    HW219212   3.026   2.790   7.516
 6290SOL     OW19213   2.290   2.286   7.968
 6290SOL    HW119214   2.320   2.214   7.906
 6290SOL    HW219215   2.251   2.246   8.051
 6291SOL     OW19216   2.632   3.192   7.749
 6291SOL    HW119217   2.586   3.105   7.766
 6291SOL    HW219218   2.723   3.189   7.790
 6292SOL     OW19219   3.214   1.914   7.616
 6292SOL    HW119220   3.249   1.873   7.532
 6292SOL    HW219221   3.124   1.876   7.636
 6293SOL     OW19222   1.901   2.939   7.748
 6293SOL    HW119223   2.000   2.928   7.739
 6293SOL    HW219224   1.861   2.853   7.780
 6294SOL     OW19225   2.737   3.508   7.785
 6294SOL    HW119226   2.660   3.473   7.731
 6294SOL    HW219227   2.705   3.579   7.847
 6295SOL     OW19228   2.092   4.352   0.113
 6295SOL    HW119229   1.999   4.350   0.150
 6295SOL    HW219230   2.093   4.313   0.021
 6296SOL     OW19231   2.087   3.999   0.996
 6296SOL    HW119232   2.122   3.982   1.088
 6296SOL    HW219233   1.999   3.954   0.984
 6297SOL     OW19234   1.881   4.092   0.647
 6297SOL    HW119235   1.799   4.135   0.686
 6297SOL    HW219236   1.853   4.019   0.584
 6298SOL     OW19237   2.431   4.999   1.165
 6298SOL    HW119238   2.338   4.992   1.128
 6298SOL    HW219239   2.442   5.088   1.209
 6299SOL     OW19240   3.417   5.235   0.703
 6299SOL    HW119241   3.360   5.219   0.784
 6299SOL    HW219242   3.358   5.245   0.623
 6300SOL     OW19243   2.997   4.427   0.717
 6300SOL    HW119244   3.054   4.505   0.692
 6300SOL    HW219245   2.937   4.453   0.793
 6301SOL     OW19246   3.617   4.331   0.231
 6301SOL    HW119247   3.605   4.318   0.132
 6301SOL    HW219248   3.587   4.250   0.280
 6302SOL     OW19249   2.630   4.868   1.023
 6302SOL    HW119250   2.552   4.885   1.083
 6302SOL    HW219251   2.664   4.955   0.987
 6303SOL     OW19252   2.712   4.522   1.823
 6303SOL    HW119253   2.708   4.598   1.888
 6303SOL    HW219254   2.734   4.558   1.732
 6304SOL     OW19255   2.547   4.736   0.665
 6304SOL    HW119256   2.616   4.720   0.735
 6304SOL    HW219257   2.474   4.793   0.703
 6305SOL     OW19258   2.548   4.885   1.803
 6305SOL    HW119259   2.608   4.964   1.817
 6305SOL    HW219260   2.462   4.916   1.762
 6306SOL     OW19261   2.197   5.159   1.061
 6306SOL    HW119262   2.119   5.128   1.008
 6306SOL    HW219263   2.255   5.217   1.004
 6307SOL     OW19264   3.322   5.229   1.339
 6307SOL    HW119265   3.346   5.323   1.365
 6307SOL    HW219266   3.306   5.175   1.421
 6308SOL     OW19267   2.300   4.116   1.499
 6308SOL    HW119268   2.382   4.060   1.508
 6308SOL    HW219269   2.219   4.058   1.503
 6309SOL     OW19270   3.465   4.171   0.737
 6309SOL    HW119271   3.391   4.217   0.687
 6309SOL    HW219272   3.516   4.239   0.790
 6310SOL     OW19273   2.093   5.437   0.483
 6310SOL    HW119274   2.127   5.514   0.537
 6310SOL    HW219275   2.137   5.437   0.393
 6311SOL     OW19276   2.989   5.065   1.690
 6311SOL    HW119277   3.036   5.065   1.778
 6311SOL    HW219278   2.941   4.978   1.679
 6312SOL     OW19279   2.092   5.158   0.538
 6312SOL    HW119280   2.066   5.254   0.538
 6312SOL    HW219281   2.021   5.104   0.583
 6313SOL     OW19282   2.102   4.815   0.886
 6313SOL    HW119283   2.116   4.731   0.938
 6313SOL    HW219284   2.047   4.879   0.941
 6314SOL     OW19285   2.482   5.510   1.439
 6314SOL    HW119286   2.390   5.493   1.474
 6314SOL    HW219287   2.510   5.602   1.465
 6315SOL     OW19288   2.468   4.688   0.123
 6315SOL    HW119289   2.475   4.772   0.069
 6315SOL    HW219290   2.514   4.701   0.211
 6316SOL     OW19291   3.456   3.838   1.480
 6316SOL    HW119292   3.438   3.905   1.408
 6316SOL    HW219293   3.453   3.884   1.569
 6317SOL     OW19294   1.984   4.367   0.563
 6317SOL    HW119295   1.939   4.279   0.580
 6317SOL    HW219296   1.983   4.421   0.647
 6318SOL     OW19297   3.704   5.491   0.359
 6318SOL    HW119298   3.758   5.462   0.439
 6318SOL    HW219299   3.734   5.581   0.330
 6319SOL     OW19300   1.889   5.320   0.117
 6319SOL    HW119301   1.870   5.224   0.138
 6319SOL    HW219302   1.856   5.378   0.192
 6320SOL     OW19303   3.551   4.646   0.612
 6320SOL    HW119304   3.646   4.617   0.620
 6320SOL    HW219305   3.543   4.711   0.537
 6321SOL     OW19306   3.503   4.832   0.432
 6321SOL    HW119307   3.589   4.834   0.380
 6321SOL    HW219308   3.517   4.879   0.520
 6322SOL     OW19309   1.975   4.461   1.597
 6322SOL    HW119310   2.063   4.448   1.642
 6322SOL    HW219311   1.962   4.558   1.575
 6323SOL     OW19312   2.475   5.089   0.726
 6323SOL    HW119313   2.426   5.002   0.735
 6323SOL    HW219314   2.452   5.132   0.639
 6324SOL     OW19315   3.155   4.952   1.423
 6324SOL    HW119316   3.192   4.879   1.365
 6324SOL    HW219317   3.207   4.957   1.508
 6325SOL     OW19318   2.671   3.728   0.502
 6325SOL    HW119319   2.711   3.819   0.493
 6325SOL    HW219320   2.571   3.736   0.508
 6326SOL     OW19321   2.059   4.700   1.264
 6326SOL    HW119322   2.148   4.655   1.250
 6326SOL    HW219323   1.986   4.635   1.245
 6327SOL     OW19324   3.387   4.723   0.190
 6327SOL    HW119325   3.324   4.647   0.203
 6327SOL    HW219326   3.435   4.741   0.276
 6328SOL     OW19327   3.049   5.516   1.616
 6328SOL    HW119328   3.073   5.576   1.540
 6328SOL    HW219329   3.056   5.421   1.586
 6329SOL     OW19330   2.179   3.975   1.801
 6329SOL    HW119331   2.250   4.046   1.807
 6329SOL    HW219332   2.091   4.014   1.829
 6330SOL     OW19333   3.328   5.141   0.953
 6330SOL    HW119334   3.269   5.147   1.033
 6330SOL    HW219335   3.313   5.053   0.907
 6331SOL     OW19336   3.529   5.438   0.572
 6331SOL    HW119337   3.488   5.415   0.484
 6331SOL    HW219338   3.511   5.364   0.637
 6332SOL     OW19339   2.460   4.453   0.270
 6332SOL    HW119340   2.484   4.522   0.202
 6332SOL    HW219341   2.382   4.486   0.324
 6333SOL     OW19342   3.143   4.069   0.944
 6333SOL    HW119343   3.057   4.019   0.931
 6333SOL    HW219344   3.205   4.015   1.000
 6334SOL     OW19345   3.438   5.386   0.307
 6334SOL    HW119346   3.527   5.432   0.310
 6334SOL    HW219347   3.417   5.362   0.212
 6335SOL     OW19348   2.669   4.329   1.465
 6335SOL    HW119349   2.622   4.326   1.554
 6335SOL    HW219350   2.618   4.274   1.399
 6336SOL     OW19351   3.256   4.193   1.674
 6336SOL    HW119352   3.236   4.236   1.762
 6336SOL    HW219353   3.334   4.131   1.683
 6337SOL     OW19354   2.835   4.614   1.572
 6337SOL    HW119355   2.881   4.530   1.543
 6337SOL    HW219356   2.779   4.648   1.497
 6338SOL     OW19357   2.853   4.134   1.242
 6338SOL    HW119358   2.776   4.168   1.296
 6338SOL    HW219359   2.819   4.083   1.163
 6339SOL     OW19360   2.903   4.425   0.429
 6339SOL    HW119361   2.929   4.421   0.525
 6339SOL    HW219362   2.818   4.374   0.415
 6340SOL     OW19363   1.938   4.535   0.789
 6340SOL    HW119364   2.037   4.523   0.798
 6340SOL    HW219365   1.914   4.630   0.810
 6341SOL     OW19366   1.992   5.545   1.571
 6341SOL    HW119367   1.982   5.530   1.670
 6341SOL    HW219368   1.906   5.581   1.535
 6342SOL     OW19369   2.727   4.072   0.195
 6342SOL    HW119370   2.786   4.135   0.146
 6342SOL    HW219371   2.746   3.978   0.166
 6343SOL     OW19372   3.581   4.309   1.831
 6343SOL    HW119373   3.555   4.398   1.795
 6343SOL    HW219374   3.579   4.241   1.758
 6344SOL     OW19375   3.224   4.868   0.545
 6344SOL    HW119376   3.307   4.839   0.497
 6344SOL    HW219377   3.175   4.935   0.489
 6345SOL     OW19378   2.412   3.920   0.885
 6345SOL    HW119379   2.407   3.915   0.985
 6345SOL    HW219380   2.414   4.016   0.856
 6346SOL     OW19381   2.870   5.180   0.477
 6346SOL    HW119382   2.824   5.252   0.425
 6346SOL    HW219383   2.866   5.200   0.575
 6347SOL     OW19384   2.213   5.525   0.853
 6347SOL    HW119385   2.263   5.439   0.859
 6347SOL    HW219386   2.278   5.602   0.850
 6348SOL     OW19387   3.657   4.790   0.873
 6348SOL    HW119388   3.595   4.775   0.797
 6348SOL    HW219389   3.605   4.801   0.958
 6349SOL     OW19390   3.089   5.274   1.506
 6349SOL    HW119391   3.095   5.197   1.570
 6349SOL    HW219392   3.037   5.248   1.426
 6350SOL     OW19393   2.183   4.667   0.242
 6350SOL    HW119394   2.265   4.706   0.200
 6350SOL    HW219395   2.156   4.585   0.193
 6351SOL     OW19396   3.320   4.459   0.728
 6351SOL    HW119397   3.315   4.394   0.803
 6351SOL    HW219398   3.400   4.518   0.741
 6352SOL     OW19399   2.323   4.990   1.727
 6352SOL    HW119400   2.273   4.991   1.641
 6352SOL    HW219401   2.260   4.972   1.803
 6353SOL     OW19402   2.973   5.500   0.237
 6353SOL    HW119403   2.913   5.438   0.287
 6353SOL    HW219404   3.004   5.456   0.152
 6354SOL     OW19405   2.064   4.009   1.498
 6354SOL    HW119406   1.984   4.069   1.485
 6354SOL    HW219407   2.054   3.960   1.584
 6355SOL     OW19408   3.494   5.101   0.081
 6355SOL    HW119409   3.462   5.195   0.071
 6355SOL    HW219410   3.418   5.038   0.069
 6356SOL     OW19411   2.326   5.467   0.323
 6356SOL    HW119412   2.359   5.506   0.409
 6356SOL    HW219413   2.402   5.460   0.258
 6357SOL     OW19414   3.262   3.831   0.426
 6357SOL    HW119415   3.238   3.794   0.336
 6357SOL    HW219416   3.361   3.847   0.430
 6358SOL     OW19417   2.111   5.509   1.241
 6358SOL    HW119418   2.168   5.444   1.291
 6358SOL    HW219419   2.095   5.476   1.148
 6359SOL     OW19420   2.802   5.422   0.904
 6359SOL    HW119421   2.882   5.365   0.925
 6359SOL    HW219422   2.753   5.382   0.827
 6360SOL     OW19423   2.244   4.424   0.480
 6360SOL    HW119424   2.289   4.334   0.477
 6360SOL    HW219425   2.150   4.413   0.513
 6361SOL     OW19426   3.409   3.946   1.729
 6361SOL    HW119427   3.404   3.983   1.821
 6361SOL    HW219428   3.337   3.877   1.717
 6362SOL     OW19429   2.476   3.846   0.117
 6362SOL    HW119430   2.574   3.824   0.124
 6362SOL    HW219431   2.445   3.829   0.024
 6363SOL     OW19432   2.643   3.988   1.749
 6363SOL    HW119433   2.710   3.927   1.792
 6363SOL    HW219434   2.570   4.007   1.814
 6364SOL     OW19435   2.750   5.238   1.195
 6364SOL    HW119436   2.727   5.213   1.101
 6364SOL    HW219437   2.811   5.169   1.234
 6365SOL     OW19438   3.213   4.314   1.433
 6365SOL    HW119439   3.241   4.271   1.518
 6365SOL    HW219440   3.238   4.410   1.434
 6366SOL     OW19441   2.665   5.126   0.924
 6366SOL    HW119442   2.755   5.140   0.882
 6366SOL    HW219443   2.594   5.128   0.853
 6367SOL     OW19444   2.784   4.227   0.899
 6367SOL    HW119445   2.759   4.218   0.803
 6367SOL    HW219446   2.832   4.145   0.930
 6368SOL     OW19447   2.401   3.788   0.512
 6368SOL    HW119448   2.320   3.789   0.570
 6368SOL    HW219449   2.404   3.871   0.457
 6369SOL     OW19450   3.296   4.912   0.041
 6369SOL    HW119451   3.328   4.836   0.098
 6369SOL    HW219452   3.204   4.939   0.071
 6370SOL     OW19453   2.159   3.759   0.171
 6370SOL    HW119454   2.208   3.843   0.150
 6370SOL    HW219455   2.221   3.694   0.216
 6371SOL     OW19456   2.797   3.960   0.480
 6371SOL    HW119457   2.749   4.001   0.402
 6371SOL    HW219458   2.896   3.958   0.461
 6372SOL     OW19459   2.938   4.407   1.464
 6372SOL    HW119460   2.858   4.346   1.467
 6372SOL    HW219461   3.019   4.354   1.440
 6373SOL     OW19462   3.089   5.294   0.793
 6373SOL    HW119463   3.110   5.368   0.728
 6373SOL    HW219464   3.157   5.294   0.866
 6374SOL     OW19465   2.321   4.876   0.741
 6374SOL    HW119466   2.250   4.849   0.806
 6374SOL    HW219467   2.295   4.848   0.648
 6375SOL     OW19468   3.133   5.521   0.591
 6375SOL    HW119469   3.177   5.585   0.527
 6375SOL    HW219470   3.083   5.573   0.661
 6376SOL     OW19471   2.894   4.273   0.016
 6376SOL    HW119472   2.853   4.355  -0.023
 6376SOL    HW219473   2.958   4.299   0.089
 6377SOL     OW19474   1.940   4.280   1.386
 6377SOL    HW119475   2.032   4.279   1.345
 6377SOL    HW219476   1.934   4.354   1.453
 6378SOL     OW19477   2.423   3.946   1.147
 6378SOL    HW119478   2.461   3.862   1.184
 6378SOL    HW219479   2.335   3.965   1.191
 6379SOL     OW19480   2.728   4.178   0.642
 6379SOL    HW119481   2.696   4.250   0.580
 6379SOL    HW219482   2.752   4.097   0.589
 6380SOL     OW19483   2.879   3.763   0.753
 6380SOL    HW119484   2.807   3.768   0.684
 6380SOL    HW219485   2.855   3.694   0.822
 6381SOL     OW19486   3.291   4.897   0.867
 6381SOL    HW119487   3.236   4.813   0.860
 6381SOL    HW219488   3.317   4.926   0.775
 6382SOL     OW19489   3.328   4.314   0.992
 6382SOL    HW119490   3.298   4.219   0.999
 6382SOL    HW219491   3.401   4.330   1.058
 6383SOL     OW19492   2.350   5.109   0.174
 6383SOL    HW119493   2.263   5.094   0.221
 6383SOL    HW219494   2.333   5.135   0.079
 6384SOL     OW19495   3.526   5.004   0.657
 6384SOL    HW119496   3.625   5.012   0.671
 6384SOL    HW219497   3.481   5.088   0.688
 6385SOL     OW19498   2.389   3.980   0.328
 6385SOL    HW119499   2.416   3.921   0.253
 6385SOL    HW219500   2.389   4.075   0.297
 6386SOL     OW19501   3.616   4.947   1.588
 6386SOL    HW119502   3.707   4.908   1.575
 6386SOL    HW219503   3.624   5.043   1.612
 6387SOL     OW19504   2.926   5.071   1.340
 6387SOL    HW119505   2.846   5.048   1.395
 6387SOL    HW219506   3.009   5.045   1.389
 6388SOL     OW19507   3.454   5.353   1.625
 6388SOL    HW119508   3.481   5.387   1.535
 6388SOL    HW219509   3.533   5.315   1.671
 6389SOL     OW19510   2.973   4.919   1.100
 6389SOL    HW119511   2.933   4.963   1.181
 6389SOL    HW219512   2.932   4.956   1.017
 6390SOL     OW19513   3.500   4.823   1.079
 6390SOL    HW119514   3.505   4.904   1.138
 6390SOL    HW219515   3.414   4.825   1.028
 6391SOL     OW19516   2.777   3.813   1.402
 6391SOL    HW119517   2.802   3.793   1.307
 6391SOL    HW219518   2.849   3.869   1.444
 6392SOL     OW19519   2.842   4.840   1.719
 6392SOL    HW119520   2.743   4.846   1.729
 6392SOL    HW219521   2.865   4.760   1.663
 6393SOL     OW19522   2.567   4.774   0.368
 6393SOL    HW119523   2.553   4.781   0.467
 6393SOL    HW219524   2.651   4.723   0.350
 6394SOL     OW19525   2.272   4.537   1.251
 6394SOL    HW119526   2.358   4.549   1.301
 6394SOL    HW219527   2.230   4.450   1.278
 6395SOL     OW19528   3.136   4.110   1.262
 6395SOL    HW119529   3.157   4.184   1.326
 6395SOL    HW219530   3.047   4.127   1.219
 6396SOL     OW19531   1.926   5.288   1.331
 6396SOL    HW119532   1.880   5.370   1.297
 6396SOL    HW219533   2.024   5.307   1.340
 6397SOL     OW19534   2.229   4.824   0.501
 6397SOL    HW119535   2.222   4.907   0.445
 6397SOL    HW219536   2.233   4.744   0.441
 6398SOL     OW19537   2.428   4.261   0.865
 6398SOL    HW119538   2.440   4.327   0.791
 6398SOL    HW219539   2.474   4.295   0.948
 6399SOL     OW19540   3.114   5.072   0.388
 6399SOL    HW119541   3.164   5.149   0.428
 6399SOL    HW219542   3.019   5.074   0.420
 6400SOL     OW19543   3.134   5.169   1.142
 6400SOL    HW119544   3.181   5.182   1.229
 6400SOL    HW219545   3.068   5.095   1.151
 6401SOL     OW19546   3.444   4.363   0.472
 6401SOL    HW119547   3.413   4.424   0.545
 6401SOL    HW219548   3.494   4.415   0.403
 6402SOL     OW19549   2.216   5.234   1.329
 6402SOL    HW119550   2.195   5.190   1.242
 6402SOL    HW219551   2.313   5.260   1.332
 6403SOL     OW19552   2.264   4.475   1.598
 6403SOL    HW119553   2.332   4.530   1.551
 6403SOL    HW219554   2.304   4.387   1.625
 6404SOL     OW19555   3.449   4.503   1.670
 6404SOL    HW119556   3.357   4.541   1.665
 6404SOL    HW219557   3.509   4.550   1.605
 6405SOL     OW19558   2.875   3.829   1.770
 6405SOL    HW119559   2.881   3.914   1.718
 6405SOL    HW219560   2.907   3.753   1.713
 6406SOL     OW19561   2.366   3.774   1.740
 6406SOL    HW119562   2.324   3.717   1.670
 6406SOL    HW219563   2.300   3.843   1.772
 6407SOL     OW19564   2.435   4.594   1.029
 6407SOL    HW119565   2.479   4.683   1.020
 6407SOL    HW219566   2.372   4.594   1.106
 6408SOL     OW19567   3.222   4.586   1.045
 6408SOL    HW119568   3.147   4.586   0.979
 6408SOL    HW219569   3.259   4.494   1.054
 6409SOL     OW19570   3.071   4.249   0.275
 6409SOL    HW119571   3.084   4.165   0.329
 6409SOL    HW219572   3.042   4.323   0.335
 6410SOL     OW19573   2.169   3.937   1.231
 6410SOL    HW119574   2.146   3.974   1.321
 6410SOL    HW219575   2.139   3.842   1.225
 6411SOL     OW19576   1.899   5.034   1.282
 6411SOL    HW119577   1.952   4.985   1.350
 6411SOL    HW219578   1.921   5.132   1.287
 6412SOL     OW19579   2.594   4.358   1.064
 6412SOL    HW119580   2.653   4.332   0.988
 6412SOL    HW219581   2.566   4.454   1.053
 6413SOL     OW19582   3.590   4.659   1.854
 6413SOL    HW119583   3.544   4.652   1.765
 6413SOL    HW219584   3.528   4.703   1.920
 6414SOL     OW19585   2.169   3.787   0.618
 6414SOL    HW119586   2.158   3.881   0.651
 6414SOL    HW219587   2.164   3.724   0.695
 6415SOL     OW19588   2.885   4.490   0.966
 6415SOL    HW119589   2.900   4.511   1.062
 6415SOL    HW219590   2.855   4.395   0.957
 6416SOL     OW19591   2.842   5.297   1.700
 6416SOL    HW119592   2.822   5.341   1.612
 6416SOL    HW219593   2.881   5.206   1.684
 6417SOL     OW19594   3.721   5.242   1.605
 6417SOL    HW119595   3.735   5.269   1.510
 6417SOL    HW219596   3.804   5.264   1.658
 6418SOL     OW19597   2.212   4.622   1.804
 6418SOL    HW119598   2.288   4.666   1.852
 6418SOL    HW219599   2.247   4.575   1.722
 6419SOL     OW19600   2.930   5.057   0.849
 6419SOL    HW119601   2.937   4.973   0.794
 6419SOL    HW219602   2.992   5.126   0.813
 6420SOL     OW19603   2.181   4.534   0.949
 6420SOL    HW119604   2.274   4.570   0.954
 6420SOL    HW219605   2.175   4.449   1.001
 6421SOL     OW19606   2.201   4.233   1.006
 6421SOL    HW119607   2.149   4.150   0.989
 6421SOL    HW219608   2.278   4.238   0.942
 6422SOL     OW19609   3.000   4.104   1.678
 6422SOL    HW119610   2.955   4.167   1.742
 6422SOL    HW219611   3.093   4.135   1.661
 6423SOL     OW19612   3.022   3.931   1.477
 6423SOL    HW119613   3.022   3.995   1.554
 6423SOL    HW219614   3.050   3.979   1.394
 6424SOL     OW19615   1.870   5.050   0.200
 6424SOL    HW119616   1.777   5.071   0.169
 6424SOL    HW219617   1.880   4.951   0.213
 6425SOL     OW19618   1.950   5.525   0.927
 6425SOL    HW119619   1.908   5.439   0.900
 6425SOL    HW219620   2.044   5.528   0.893
 6426SOL     OW19621   2.366   5.292   0.910
 6426SOL    HW119622   2.432   5.366   0.919
 6426SOL    HW219623   2.410   5.213   0.868
 6427SOL     OW19624   2.864   4.520   1.238
 6427SOL    HW119625   2.905   4.488   1.324
 6427SOL    HW219626   2.768   4.493   1.235
 6428SOL     OW19627   1.902   4.268   1.114
 6428SOL    HW119628   1.987   4.235   1.073
 6428SOL    HW219629   1.915   4.283   1.212
 6429SOL     OW19630   2.051   4.244   1.722
 6429SOL    HW119631   2.110   4.204   1.652
 6429SOL    HW219632   1.993   4.315   1.681
 6430SOL     OW19633   3.231   4.674   1.660
 6430SOL    HW119634   3.270   4.763   1.680
 6430SOL    HW219635   3.241   4.654   1.563
 6431SOL     OW19636   2.677   4.296   0.325
 6431SOL    HW119637   2.684   4.207   0.279
 6431SOL    HW219638   2.583   4.330   0.317
 6432SOL     OW19639   3.519   4.328   1.206
 6432SOL    HW119640   3.481   4.259   1.268
 6432SOL    HW219641   3.601   4.292   1.162
 6433SOL     OW19642   2.114   5.288   1.744
 6433SOL    HW119643   2.084   5.345   1.820
 6433SOL    HW219644   2.107   5.191   1.770
 6434SOL     OW19645   2.533   4.188   1.269
 6434SOL    HW119646   2.499   4.099   1.239
 6434SOL    HW219647   2.559   4.242   1.189
 6435SOL     OW19648   2.792   5.402   1.465
 6435SOL    HW119649   2.768   5.384   1.370
 6435SOL    HW219650   2.822   5.496   1.475
 6436SOL     OW19651   2.335   4.224   0.191
 6436SOL    HW119652   2.396   4.304   0.195
 6436SOL    HW219653   2.240   4.255   0.198
 6437SOL     OW19654   2.021   4.861   1.466
 6437SOL    HW119655   2.043   4.800   1.542
 6437SOL    HW219656   2.031   4.812   1.380
 6438SOL     OW19657   3.209   4.783   1.234
 6438SOL    HW119658   3.233   4.720   1.160
 6438SOL    HW219659   3.119   4.823   1.216
 6439SOL     OW19660   3.164   4.579   0.309
 6439SOL    HW119661   3.078   4.548   0.351
 6439SOL    HW219662   3.160   4.565   0.210
 6440SOL     OW19663   3.621   5.471   1.154
 6440SOL    HW119664   3.682   5.501   1.081
 6440SOL    HW219665   3.583   5.382   1.132
 6441SOL     OW19666   3.114   5.455   1.128
 6441SOL    HW119667   3.198   5.460   1.074
 6441SOL    HW219668   3.091   5.359   1.146
 6442SOL     OW19669   1.945   4.982   1.022
 6442SOL    HW119670   1.940   4.981   1.122
 6442SOL    HW219671   1.862   4.941   0.984
 6443SOL     OW19672   2.550   5.386   1.716
 6443SOL    HW119673   2.494   5.467   1.725
 6443SOL    HW219674   2.602   5.390   1.630
 6444SOL     OW19675   2.765   3.810   0.133
 6444SOL    HW119676   2.816   3.811   0.047
 6444SOL    HW219677   2.821   3.768   0.204
 6445SOL     OW19678   3.588   3.859   0.523
 6445SOL    HW119679   3.661   3.842   0.456
 6445SOL    HW219680   3.557   3.772   0.561
 6446SOL     OW19681   3.250   5.297   0.477
 6446SOL    HW119682   3.317   5.309   0.403
 6446SOL    HW219683   3.210   5.386   0.500
 6447SOL     OW19684   1.992   5.518   1.851
 6447SOL    HW119685   1.951   5.444   1.904
 6447SOL    HW219686   2.056   5.569   1.909
 6448SOL     OW19687   3.142   4.651   0.672
 6448SOL    HW119688   3.202   4.570   0.674
 6448SOL    HW219689   3.182   4.720   0.612
 6449SOL     OW19690   2.692   4.997   1.422
 6449SOL    HW119691   2.687   5.030   1.517
 6449SOL    HW219692   2.606   5.016   1.376
 6450SOL     OW19693   2.534   5.340   0.154
 6450SOL    HW119694   2.543   5.350   0.055
 6450SOL    HW219695   2.494   5.251   0.175
 6451SOL     OW19696   3.512   5.444   1.394
 6451SOL    HW119697   3.565   5.454   1.310
 6451SOL    HW219698   3.485   5.534   1.428
 6452SOL     OW19699   3.703   3.899   0.963
 6452SOL    HW119700   3.742   3.814   0.927
 6452SOL    HW219701   3.605   3.901   0.944
 6453SOL     OW19702   2.125   4.050   0.720
 6453SOL    HW119703   2.046   4.101   0.686
 6453SOL    HW219704   2.116   4.035   0.818
 6454SOL     OW19705   3.056   5.336   0.031
 6454SOL    HW119706   3.062   5.243   0.068
 6454SOL    HW219707   2.997   5.336  -0.049
 6455SOL     OW19708   2.684   4.726   1.372
 6455SOL    HW119709   2.724   4.725   1.280
 6455SOL    HW219710   2.694   4.818   1.412
 6456SOL     OW19711   2.778   4.634   0.291
 6456SOL    HW119712   2.841   4.672   0.223
 6456SOL    HW219713   2.818   4.551   0.330
 6457SOL     OW19714   3.366   5.331   0.044
 6457SOL    HW119715   3.274   5.368   0.051
 6457SOL    HW219716   3.404   5.351  -0.046
 6458SOL     OW19717   2.234   5.012   1.490
 6458SOL    HW119718   2.221   5.105   1.456
 6458SOL    HW219719   2.150   4.960   1.477
 6459SOL     OW19720   3.476   5.016   1.289
 6459SOL    HW119721   3.536   5.019   1.369
 6459SOL    HW219722   3.401   5.080   1.302
 6460SOL     OW19723   2.901   4.822   0.696
 6460SOL    HW119724   2.831   4.775   0.750
 6460SOL    HW219725   2.960   4.754   0.653
 6461SOL     OW19726   2.876   3.960   0.971
 6461SOL    HW119727   2.868   3.924   0.878
 6461SOL    HW219728   2.874   3.884   1.036
 6462SOL     OW19729   2.452   5.211   0.491
 6462SOL    HW119730   2.494   5.153   0.421
 6462SOL    HW219731   2.408   5.290   0.447
 6463SOL     OW19732   3.571   4.109   1.381
 6463SOL    HW119733   3.644   4.178   1.385
 6463SOL    HW219734   3.599   4.034   1.322
 6464SOL     OW19735   2.117   5.072   0.290
 6464SOL    HW119736   2.021   5.073   0.263
 6464SOL    HW219737   2.129   5.125   0.374
 6465SOL     OW19738   1.967   4.737   1.726
 6465SOL    HW119739   1.890   4.704   1.780
 6465SOL    HW219740   2.052   4.707   1.768
 6466SOL     OW19741   2.534   3.927   1.489
 6466SOL    HW119742   2.624   3.911   1.449
 6466SOL    HW219743   2.542   3.932   1.588
 6467SOL     OW19744   1.937   4.069   0.033
 6467SOL    HW119745   1.845   4.041   0.004
 6467SOL    HW219746   1.968   4.146  -0.023
 6468SOL     OW19747   3.302   4.580   1.398
 6468SOL    HW119748   3.245   4.632   1.335
 6468SOL    HW219749   3.398   4.592   1.374
 6469SOL     OW19750   1.934   3.890   0.318
 6469SOL    HW119751   1.917   3.973   0.264
 6469SOL    HW219752   2.024   3.853   0.296
 6470SOL     OW19753   3.045   5.059   0.119
 6470SOL    HW119754   2.946   5.048   0.121
 6470SOL    HW219755   3.079   5.074   0.212
 6471SOL     OW19756   2.475   4.566   1.431
 6471SOL    HW119757   2.531   4.647   1.414
 6471SOL    HW219758   2.534   4.486   1.434
 6472SOL     OW19759   3.355   5.491   0.959
 6472SOL    HW119760   3.388   5.555   0.890
 6472SOL    HW219761   3.421   5.485   1.034
 6473SOL     OW19762   2.578   4.289   1.708
 6473SOL    HW119763   2.597   4.354   1.782
 6473SOL    HW219764   2.638   4.209   1.717
 6474SOL     OW19765   3.312   4.944   1.633
 6474SOL    HW119766   3.303   4.934   1.732
 6474SOL    HW219767   3.408   4.937   1.607
 6475SOL     OW19768   2.252   5.465   1.560
 6475SOL    HW119769   2.161   5.506   1.558
 6475SOL    HW219770   2.245   5.371   1.592
 6476SOL     OW19771   3.536   4.607   1.254
 6476SOL    HW119772   3.509   4.518   1.217
 6476SOL    HW219773   3.537   4.675   1.181
 6477SOL     OW19774   3.087   4.049   0.449
 6477SOL    HW119775   3.152   3.975   0.438
 6477SOL    HW219776   3.107   4.099   0.533
 6478SOL     OW19777   2.456   4.469   0.652
 6478SOL    HW119778   2.506   4.554   0.633
 6478SOL    HW219779   2.368   4.471   0.604
 6479SOL     OW19780   3.639   4.066   1.642
 6479SOL    HW119781   3.622   4.097   1.548
 6479SOL    HW219782   3.555   4.029   1.680
 6480SOL     OW19783   3.592   4.658   1.517
 6480SOL    HW119784   3.630   4.749   1.532
 6480SOL    HW219785   3.584   4.641   1.418
 6481SOL     OW19786   2.721   5.098   0.016
 6481SOL    HW119787   2.675   5.113   0.104
 6481SOL    HW219788   2.765   5.183  -0.014
 6482SOL     OW19789   2.523   5.514   0.953
 6482SOL    HW119790   2.477   5.602   0.940
 6482SOL    HW219791   2.622   5.526   0.946
 6483SOL     OW19792   2.721   4.680   0.861
 6483SOL    HW119793   2.775   4.611   0.909
 6483SOL    HW219794   2.689   4.749   0.927
 6484SOL     OW19795   2.945   4.708   0.087
 6484SOL    HW119796   2.922   4.761   0.005
 6484SOL    HW219797   3.026   4.652   0.068
 6485SOL     OW19798   3.723   5.293   0.851
 6485SOL    HW119799   3.652   5.281   0.781
 6485SOL    HW219800   3.724   5.214   0.911
 6486SOL     OW19801   2.083   5.038   1.844
 6486SOL    HW119802   2.018   4.965   1.823
 6486SOL    HW219803   2.087   5.052   1.942
 6487SOL     OW19804   1.941   4.964   0.653
 6487SOL    HW119805   1.940   4.917   0.741
 6487SOL    HW219806   2.023   4.936   0.602
 6488SOL     OW19807   2.534   5.115   1.624
 6488SOL    HW119808   2.456   5.065   1.662
 6488SOL    HW219809   2.531   5.210   1.655
 6489SOL     OW19810   3.686   3.916   1.227
 6489SOL    HW119811   3.682   3.826   1.271
 6489SOL    HW219812   3.689   3.905   1.128
 6490SOL     OW19813   2.290   4.148   0.520
 6490SOL    HW119814   2.320   4.076   0.458
 6490SOL    HW219815   2.251   4.108   0.603
 6491SOL     OW19816   3.567   5.211   1.104
 6491SOL    HW119817   3.474   5.186   1.077
 6491SOL    HW219818   3.593   5.161   1.186
 6492SOL     OW19819   2.179   4.271   1.280
 6492SOL    HW119820   2.217   4.212   1.352
 6492SOL    HW219821   2.219   4.245   1.192
 6493SOL     OW19822   2.674   5.310   0.687
 6493SOL    HW119823   2.706   5.320   0.593
 6493SOL    HW219824   2.595   5.248   0.689
 6494SOL     OW19825   3.286   3.938   1.112
 6494SOL    HW119826   3.338   3.873   1.167
 6494SOL    HW219827   3.237   4.001   1.173
 6495SOL     OW19828   2.863   3.758   1.154
 6495SOL    HW119829   2.800   3.686   1.123
 6495SOL    HW219830   2.956   3.722   1.154
 6496SOL     OW19831   2.632   5.054   0.301
 6496SOL    HW119832   2.586   4.967   0.318
 6496SOL    HW219833   2.723   5.051   0.342
 6497SOL     OW19834   2.480   5.291   1.284
 6497SOL    HW119835   2.475   5.373   1.341
 6497SOL    HW219836   2.569   5.288   1.239
 6498SOL     OW19837   3.214   3.776   0.168
 6498SOL    HW119838   3.249   3.735   0.084
 6498SOL    HW219839   3.124   3.738   0.188
 6499SOL     OW19840   3.162   4.177   0.691
 6499SOL    HW119841   3.103   4.257   0.695
 6499SOL    HW219842   3.177   4.142   0.784
 6500SOL     OW19843   3.455   3.945   0.882
 6500SOL    HW119844   3.371   3.944   0.936
 6500SOL    HW219845   3.457   4.028   0.826
 6501SOL     OW19846   1.901   4.801   0.300
 6501SOL    HW119847   2.000   4.790   0.291
 6501SOL    HW219848   1.861   4.715   0.332
 6502SOL     OW19849   2.737   5.370   0.337
 6502SOL    HW119850   2.660   5.335   0.283
 6502SOL    HW219851   2.705   5.441   0.399
 6503SOL     OW19852   2.092   4.352   1.975
 6503SOL    HW119853   1.999   4.350   2.012
 6503SOL    HW219854   2.093   4.313   1.883
 6504SOL     OW19855   2.087   3.999   2.858
 6504SOL    HW119856   2.122   3.982   2.950
 6504SOL    HW219857   1.999   3.954   2.846
 6505SOL     OW19858   1.881   4.092   2.509
 6505SOL    HW119859   1.799   4.135   2.548
 6505SOL    HW219860   1.853   4.019   2.446
 6506SOL     OW19861   2.431   4.999   3.027
 6506SOL    HW119862   2.338   4.992   2.990
 6506SOL    HW219863   2.442   5.088   3.071
 6507SOL     OW19864   3.417   5.235   2.565
 6507SOL    HW119865   3.360   5.219   2.646
 6507SOL    HW219866   3.358   5.245   2.485
 6508SOL     OW19867   2.997   4.427   2.579
 6508SOL    HW119868   3.054   4.505   2.554
 6508SOL    HW219869   2.937   4.453   2.655
 6509SOL     OW19870   3.617   4.331   2.093
 6509SOL    HW119871   3.605   4.318   1.994
 6509SOL    HW219872   3.587   4.250   2.142
 6510SOL     OW19873   2.630   4.868   2.885
 6510SOL    HW119874   2.552   4.885   2.945
 6510SOL    HW219875   2.664   4.955   2.849
 6511SOL     OW19876   2.712   4.522   3.685
 6511SOL    HW119877   2.708   4.598   3.750
 6511SOL    HW219878   2.734   4.558   3.594
 6512SOL     OW19879   2.547   4.736   2.527
 6512SOL    HW119880   2.616   4.720   2.597
 6512SOL    HW219881   2.474   4.793   2.565
 6513SOL     OW19882   2.548   4.885   3.665
 6513SOL    HW119883   2.608   4.964   3.679
 6513SOL    HW219884   2.462   4.916   3.624
 6514SOL     OW19885   2.197   5.159   2.923
 6514SOL    HW119886   2.119   5.128   2.870
 6514SOL    HW219887   2.255   5.217   2.866
 6515SOL     OW19888   3.322   5.229   3.201
 6515SOL    HW119889   3.346   5.323   3.227
 6515SOL    HW219890   3.306   5.175   3.283
 6516SOL     OW19891   2.300   4.116   3.361
 6516SOL    HW119892   2.382   4.060   3.370
 6516SOL    HW219893   2.219   4.058   3.365
 6517SOL     OW19894   3.465   4.171   2.599
 6517SOL    HW119895   3.391   4.217   2.549
 6517SOL    HW219896   3.516   4.239   2.652
 6518SOL     OW19897   2.093   5.437   2.345
 6518SOL    HW119898   2.127   5.514   2.399
 6518SOL    HW219899   2.137   5.437   2.255
 6519SOL     OW19900   2.989   5.065   3.552
 6519SOL    HW119901   3.036   5.065   3.640
 6519SOL    HW219902   2.941   4.978   3.541
 6520SOL     OW19903   2.092   5.158   2.400
 6520SOL    HW119904   2.066   5.254   2.400
 6520SOL    HW219905   2.021   5.104   2.445
 6521SOL     OW19906   2.102   4.815   2.748
 6521SOL    HW119907   2.116   4.731   2.800
 6521SOL    HW219908   2.047   4.879   2.803
 6522SOL     OW19909   2.482   5.510   3.301
 6522SOL    HW119910   2.390   5.493   3.336
 6522SOL    HW219911   2.510   5.602   3.327
 6523SOL     OW19912   2.468   4.688   1.985
 6523SOL    HW119913   2.475   4.772   1.931
 6523SOL    HW219914   2.514   4.701   2.073
 6524SOL     OW19915   3.456   3.838   3.342
 6524SOL    HW119916   3.438   3.905   3.270
 6524SOL    HW219917   3.453   3.884   3.431
 6525SOL     OW19918   1.984   4.367   2.425
 6525SOL    HW119919   1.939   4.279   2.442
 6525SOL    HW219920   1.983   4.421   2.509
 6526SOL     OW19921   3.704   5.491   2.221
 6526SOL    HW119922   3.758   5.462   2.301
 6526SOL    HW219923   3.734   5.581   2.192
 6527SOL     OW19924   1.889   5.320   1.979
 6527SOL    HW119925   1.870   5.224   2.000
 6527SOL    HW219926   1.856   5.378   2.054
 6528SOL     OW19927   3.551   4.646   2.474
 6528SOL    HW119928   3.646   4.617   2.482
 6528SOL    HW219929   3.543   4.711   2.399
 6529SOL     OW19930   3.503   4.832   2.294
 6529SOL    HW119931   3.589   4.834   2.242
 6529SOL    HW219932   3.517   4.879   2.382
 6530SOL     OW19933   1.975   4.461   3.459
 6530SOL    HW119934   2.063   4.448   3.504
 6530SOL    HW219935   1.962   4.558   3.437
 6531SOL     OW19936   2.475   5.089   2.588
 6531SOL    HW119937   2.426   5.002   2.597
 6531SOL    HW219938   2.452   5.132   2.501
 6532SOL     OW19939   3.155   4.952   3.285
 6532SOL    HW119940   3.192   4.879   3.227
 6532SOL    HW219941   3.207   4.957   3.370
 6533SOL     OW19942   2.671   3.728   2.364
 6533SOL    HW119943   2.711   3.819   2.355
 6533SOL    HW219944   2.571   3.736   2.370
 6534SOL     OW19945   2.059   4.700   3.126
 6534SOL    HW119946   2.148   4.655   3.112
 6534SOL    HW219947   1.986   4.635   3.107
 6535SOL     OW19948   3.387   4.723   2.052
 6535SOL    HW119949   3.324   4.647   2.065
 6535SOL    HW219950   3.435   4.741   2.138
 6536SOL     OW19951   3.049   5.516   3.478
 6536SOL    HW119952   3.073   5.576   3.402
 6536SOL    HW219953   3.056   5.421   3.448
 6537SOL     OW19954   2.179   3.975   3.663
 6537SOL    HW119955   2.250   4.046   3.669
 6537SOL    HW219956   2.091   4.014   3.691
 6538SOL     OW19957   3.328   5.141   2.815
 6538SOL    HW119958   3.269   5.147   2.895
 6538SOL    HW219959   3.313   5.053   2.769
 6539SOL     OW19960   3.529   5.438   2.434
 6539SOL    HW119961   3.488   5.415   2.346
 6539SOL    HW219962   3.511   5.364   2.499
 6540SOL     OW19963   2.460   4.453   2.132
 6540SOL    HW119964   2.484   4.522   2.064
 6540SOL    HW219965   2.382   4.486   2.186
 6541SOL     OW19966   3.143   4.069   2.806
 6541SOL    HW119967   3.057   4.019   2.793
 6541SOL    HW219968   3.205   4.015   2.862
 6542SOL     OW19969   3.438   5.386   2.169
 6542SOL    HW119970   3.527   5.432   2.172
 6542SOL    HW219971   3.417   5.362   2.074
 6543SOL     OW19972   2.669   4.329   3.327
 6543SOL    HW119973   2.622   4.326   3.416
 6543SOL    HW219974   2.618   4.274   3.261
 6544SOL     OW19975   3.256   4.193   3.536
 6544SOL    HW119976   3.236   4.236   3.624
 6544SOL    HW219977   3.334   4.131   3.545
 6545SOL     OW19978   2.835   4.614   3.434
 6545SOL    HW119979   2.881   4.530   3.405
 6545SOL    HW219980   2.779   4.648   3.359
 6546SOL     OW19981   2.853   4.134   3.104
 6546SOL    HW119982   2.776   4.168   3.158
 6546SOL    HW219983   2.819   4.083   3.025
 6547SOL     OW19984   2.903   4.425   2.291
 6547SOL    HW119985   2.929   4.421   2.387
 6547SOL    HW219986   2.818   4.374   2.277
 6548SOL     OW19987   1.938   4.535   2.651
 6548SOL    HW119988   2.037   4.523   2.660
 6548SOL    HW219989   1.914   4.630   2.672
 6549SOL     OW19990   1.992   5.545   3.433
 6549SOL    HW119991   1.982   5.530   3.532
 6549SOL    HW219992   1.906   5.581   3.397
 6550SOL     OW19993   2.727   4.072   2.057
 6550SOL    HW119994   2.786   4.135   2.008
 6550SOL    HW219995   2.746   3.978   2.028
 6551SOL     OW19996   3.581   4.309   3.693
 6551SOL    HW119997   3.555   4.398   3.657
 6551SOL    HW219998   3.579   4.241   3.620
 6552SOL     OW19999   3.224   4.868   2.407
 6552SOL    HW120000   3.307   4.839   2.359
 6552SOL    HW220001   3.175   4.935   2.351
 6553SOL     OW20002   2.412   3.920   2.747
 6553SOL    HW120003   2.407   3.915   2.847
 6553SOL    HW220004   2.414   4.016   2.718
 6554SOL     OW20005   2.870   5.180   2.339
 6554SOL    HW120006   2.824   5.252   2.287
 6554SOL    HW220007   2.866   5.200   2.437
 6555SOL     OW20008   2.213   5.525   2.715
 6555SOL    HW120009   2.263   5.439   2.721
 6555SOL    HW220010   2.278   5.602   2.712
 6556SOL     OW20011   3.657   4.790   2.735
 6556SOL    HW120012   3.595   4.775   2.659
 6556SOL    HW220013   3.605   4.801   2.820
 6557SOL     OW20014   3.089   5.274   3.368
 6557SOL    HW120015   3.095   5.197   3.432
 6557SOL    HW220016   3.037   5.248   3.288
 6558SOL     OW20017   2.183   4.667   2.104
 6558SOL    HW120018   2.265   4.706   2.062
 6558SOL    HW220019   2.156   4.585   2.055
 6559SOL     OW20020   3.320   4.459   2.590
 6559SOL    HW120021   3.315   4.394   2.665
 6559SOL    HW220022   3.400   4.518   2.603
 6560SOL     OW20023   2.323   4.990   3.589
 6560SOL    HW120024   2.273   4.991   3.503
 6560SOL    HW220025   2.260   4.972   3.665
 6561SOL     OW20026   2.973   5.500   2.099
 6561SOL    HW120027   2.913   5.438   2.149
 6561SOL    HW220028   3.004   5.456   2.014
 6562SOL     OW20029   2.064   4.009   3.360
 6562SOL    HW120030   1.984   4.069   3.347
 6562SOL    HW220031   2.054   3.960   3.446
 6563SOL     OW20032   3.494   5.101   1.943
 6563SOL    HW120033   3.462   5.195   1.933
 6563SOL    HW220034   3.418   5.038   1.931
 6564SOL     OW20035   2.326   5.467   2.185
 6564SOL    HW120036   2.359   5.506   2.271
 6564SOL    HW220037   2.402   5.460   2.120
 6565SOL     OW20038   3.262   3.831   2.288
 6565SOL    HW120039   3.238   3.794   2.198
 6565SOL    HW220040   3.361   3.847   2.292
 6566SOL     OW20041   2.111   5.509   3.103
 6566SOL    HW120042   2.168   5.444   3.153
 6566SOL    HW220043   2.095   5.476   3.010
 6567SOL     OW20044   2.802   5.422   2.766
 6567SOL    HW120045   2.882   5.365   2.787
 6567SOL    HW220046   2.753   5.382   2.689
 6568SOL     OW20047   2.244   4.424   2.342
 6568SOL    HW120048   2.289   4.334   2.339
 6568SOL    HW220049   2.150   4.413   2.375
 6569SOL     OW20050   3.409   3.946   3.591
 6569SOL    HW120051   3.404   3.983   3.683
 6569SOL    HW220052   3.337   3.877   3.579
 6570SOL     OW20053   2.476   3.846   1.979
 6570SOL    HW120054   2.574   3.824   1.986
 6570SOL    HW220055   2.445   3.829   1.886
 6571SOL     OW20056   2.643   3.988   3.611
 6571SOL    HW120057   2.710   3.927   3.654
 6571SOL    HW220058   2.570   4.007   3.676
 6572SOL     OW20059   2.750   5.238   3.057
 6572SOL    HW120060   2.727   5.213   2.963
 6572SOL    HW220061   2.811   5.169   3.096
 6573SOL     OW20062   3.213   4.314   3.295
 6573SOL    HW120063   3.241   4.271   3.380
 6573SOL    HW220064   3.238   4.410   3.296
 6574SOL     OW20065   2.665   5.126   2.786
 6574SOL    HW120066   2.755   5.140   2.744
 6574SOL    HW220067   2.594   5.128   2.715
 6575SOL     OW20068   2.784   4.227   2.761
 6575SOL    HW120069   2.759   4.218   2.665
 6575SOL    HW220070   2.832   4.145   2.792
 6576SOL     OW20071   2.401   3.788   2.374
 6576SOL    HW120072   2.320   3.789   2.432
 6576SOL    HW220073   2.404   3.871   2.319
 6577SOL     OW20074   3.296   4.912   1.903
 6577SOL    HW120075   3.328   4.836   1.960
 6577SOL    HW220076   3.204   4.939   1.933
 6578SOL     OW20077   2.159   3.759   2.033
 6578SOL    HW120078   2.208   3.843   2.012
 6578SOL    HW220079   2.221   3.694   2.078
 6579SOL     OW20080   2.797   3.960   2.342
 6579SOL    HW120081   2.749   4.001   2.264
 6579SOL    HW220082   2.896   3.958   2.323
 6580SOL     OW20083   2.938   4.407   3.326
 6580SOL    HW120084   2.858   4.346   3.329
 6580SOL    HW220085   3.019   4.354   3.302
 6581SOL     OW20086   3.089   5.294   2.655
 6581SOL    HW120087   3.110   5.368   2.590
 6581SOL    HW220088   3.157   5.294   2.728
 6582SOL     OW20089   2.321   4.876   2.603
 6582SOL    HW120090   2.250   4.849   2.668
 6582SOL    HW220091   2.295   4.848   2.510
 6583SOL     OW20092   3.133   5.521   2.453
 6583SOL    HW120093   3.177   5.585   2.389
 6583SOL    HW220094   3.083   5.573   2.523
 6584SOL     OW20095   2.894   4.273   1.878
 6584SOL    HW120096   2.853   4.355   1.839
 6584SOL    HW220097   2.958   4.299   1.951
 6585SOL     OW20098   1.940   4.280   3.248
 6585SOL    HW120099   2.032   4.279   3.207
 6585SOL    HW220100   1.934   4.354   3.315
 6586SOL     OW20101   2.423   3.946   3.009
 6586SOL    HW120102   2.461   3.862   3.046
 6586SOL    HW220103   2.335   3.965   3.053
 6587SOL     OW20104   2.728   4.178   2.504
 6587SOL    HW120105   2.696   4.250   2.442
 6587SOL    HW220106   2.752   4.097   2.451
 6588SOL     OW20107   2.879   3.763   2.615
 6588SOL    HW120108   2.807   3.768   2.546
 6588SOL    HW220109   2.855   3.694   2.684
 6589SOL     OW20110   3.291   4.897   2.729
 6589SOL    HW120111   3.236   4.813   2.722
 6589SOL    HW220112   3.317   4.926   2.637
 6590SOL     OW20113   3.328   4.314   2.854
 6590SOL    HW120114   3.298   4.219   2.861
 6590SOL    HW220115   3.401   4.330   2.920
 6591SOL     OW20116   3.719   4.557   2.239
 6591SOL    HW120117   3.761   4.493   2.303
 6591SOL    HW220118   3.681   4.506   2.161
 6592SOL     OW20119   2.350   5.109   2.036
 6592SOL    HW120120   2.263   5.094   2.083
 6592SOL    HW220121   2.333   5.135   1.941
 6593SOL     OW20122   3.526   5.004   2.519
 6593SOL    HW120123   3.625   5.012   2.533
 6593SOL    HW220124   3.481   5.088   2.550
 6594SOL     OW20125   3.252   4.299   1.940
 6594SOL    HW120126   3.198   4.278   2.021
 6594SOL    HW220127   3.343   4.258   1.949
 6595SOL     OW20128   2.389   3.980   2.190
 6595SOL    HW120129   2.416   3.921   2.115
 6595SOL    HW220130   2.389   4.075   2.159
 6596SOL     OW20131   3.616   4.947   3.450
 6596SOL    HW120132   3.707   4.908   3.437
 6596SOL    HW220133   3.624   5.043   3.474
 6597SOL     OW20134   2.926   5.071   3.202
 6597SOL    HW120135   2.846   5.048   3.257
 6597SOL    HW220136   3.009   5.045   3.251
 6598SOL     OW20137   3.454   5.353   3.487
 6598SOL    HW120138   3.481   5.387   3.397
 6598SOL    HW220139   3.533   5.315   3.533
 6599SOL     OW20140   2.973   4.919   2.962
 6599SOL    HW120141   2.933   4.963   3.043
 6599SOL    HW220142   2.932   4.956   2.879
 6600SOL     OW20143   3.500   4.823   2.941
 6600SOL    HW120144   3.505   4.904   3.000
 6600SOL    HW220145   3.414   4.825   2.890
 6601SOL     OW20146   2.777   3.813   3.264
 6601SOL    HW120147   2.802   3.793   3.169
 6601SOL    HW220148   2.849   3.869   3.306
 6602SOL     OW20149   2.842   4.840   3.581
 6602SOL    HW120150   2.743   4.846   3.591
 6602SOL    HW220151   2.865   4.760   3.525
 6603SOL     OW20152   2.567   4.774   2.230
 6603SOL    HW120153   2.553   4.781   2.329
 6603SOL    HW220154   2.651   4.723   2.212
 6604SOL     OW20155   2.272   4.537   3.113
 6604SOL    HW120156   2.358   4.549   3.163
 6604SOL    HW220157   2.230   4.450   3.140
 6605SOL     OW20158   3.136   4.110   3.124
 6605SOL    HW120159   3.157   4.184   3.188
 6605SOL    HW220160   3.047   4.127   3.081
 6606SOL     OW20161   1.926   5.288   3.193
 6606SOL    HW120162   1.880   5.370   3.159
 6606SOL    HW220163   2.024   5.307   3.202
 6607SOL     OW20164   2.229   4.824   2.363
 6607SOL    HW120165   2.222   4.907   2.307
 6607SOL    HW220166   2.233   4.744   2.303
 6608SOL     OW20167   2.428   4.261   2.727
 6608SOL    HW120168   2.440   4.327   2.653
 6608SOL    HW220169   2.474   4.295   2.810
 6609SOL     OW20170   3.114   5.072   2.250
 6609SOL    HW120171   3.164   5.149   2.290
 6609SOL    HW220172   3.019   5.074   2.282
 6610SOL     OW20173   3.134   5.169   3.004
 6610SOL    HW120174   3.181   5.182   3.091
 6610SOL    HW220175   3.068   5.095   3.013
 6611SOL     OW20176   3.444   4.363   2.334
 6611SOL    HW120177   3.413   4.424   2.407
 6611SOL    HW220178   3.494   4.415   2.265
 6612SOL     OW20179   2.216   5.234   3.191
 6612SOL    HW120180   2.195   5.190   3.104
 6612SOL    HW220181   2.313   5.260   3.194
 6613SOL     OW20182   2.264   4.475   3.460
 6613SOL    HW120183   2.332   4.530   3.413
 6613SOL    HW220184   2.304   4.387   3.487
 6614SOL     OW20185   3.449   4.503   3.532
 6614SOL    HW120186   3.357   4.541   3.527
 6614SOL    HW220187   3.509   4.550   3.467
 6615SOL     OW20188   2.875   3.829   3.632
 6615SOL    HW120189   2.881   3.914   3.580
 6615SOL    HW220190   2.907   3.753   3.575
 6616SOL     OW20191   2.366   3.774   3.602
 6616SOL    HW120192   2.324   3.717   3.532
 6616SOL    HW220193   2.300   3.843   3.634
 6617SOL     OW20194   2.435   4.594   2.891
 6617SOL    HW120195   2.479   4.683   2.882
 6617SOL    HW220196   2.372   4.594   2.968
 6618SOL     OW20197   3.222   4.586   2.907
 6618SOL    HW120198   3.147   4.586   2.841
 6618SOL    HW220199   3.259   4.494   2.916
 6619SOL     OW20200   3.071   4.249   2.137
 6619SOL    HW120201   3.084   4.165   2.191
 6619SOL    HW220202   3.042   4.323   2.197
 6620SOL     OW20203   2.169   3.937   3.093
 6620SOL    HW120204   2.146   3.974   3.183
 6620SOL    HW220205   2.139   3.842   3.087
 6621SOL     OW20206   1.899   5.034   3.144
 6621SOL    HW120207   1.952   4.985   3.212
 6621SOL    HW220208   1.921   5.132   3.149
 6622SOL     OW20209   2.594   4.358   2.926
 6622SOL    HW120210   2.653   4.332   2.850
 6622SOL    HW220211   2.566   4.454   2.915
 6623SOL     OW20212   3.590   4.659   3.716
 6623SOL    HW120213   3.544   4.652   3.627
 6623SOL    HW220214   3.528   4.703   3.782
 6624SOL     OW20215   2.169   3.787   2.480
 6624SOL    HW120216   2.158   3.881   2.513
 6624SOL    HW220217   2.164   3.724   2.557
 6625SOL     OW20218   3.484   4.091   2.236
 6625SOL    HW120219   3.486   4.015   2.300
 6625SOL    HW220220   3.436   4.168   2.276
 6626SOL     OW20221   2.885   4.490   2.828
 6626SOL    HW120222   2.900   4.511   2.924
 6626SOL    HW220223   2.855   4.395   2.819
 6627SOL     OW20224   2.842   5.297   3.562
 6627SOL    HW120225   2.822   5.341   3.474
 6627SOL    HW220226   2.881   5.206   3.546
 6628SOL     OW20227   3.721   5.242   3.467
 6628SOL    HW120228   3.735   5.269   3.372
 6628SOL    HW220229   3.804   5.264   3.520
 6629SOL     OW20230   2.212   4.622   3.666
 6629SOL    HW120231   2.288   4.666   3.714
 6629SOL    HW220232   2.247   4.575   3.584
 6630SOL     OW20233   3.402   3.998   1.987
 6630SOL    HW120234   3.341   3.923   2.010
 6630SOL    HW220235   3.424   4.050   2.070
 6631SOL     OW20236   3.165   4.562   1.904
 6631SOL    HW120237   3.199   4.469   1.919
 6631SOL    HW220238   3.183   4.589   1.809
 6632SOL     OW20239   2.930   5.057   2.711
 6632SOL    HW120240   2.937   4.973   2.656
 6632SOL    HW220241   2.992   5.126   2.675
 6633SOL     OW20242   2.181   4.534   2.811
 6633SOL    HW120243   2.274   4.570   2.816
 6633SOL    HW220244   2.175   4.449   2.863
 6634SOL     OW20245   2.201   4.233   2.868
 6634SOL    HW120246   2.149   4.150   2.851
 6634SOL    HW220247   2.278   4.238   2.804
 6635SOL     OW20248   3.000   4.104   3.540
 6635SOL    HW120249   2.955   4.167   3.604
 6635SOL    HW220250   3.093   4.135   3.523
 6636SOL     OW20251   3.022   3.931   3.339
 6636SOL    HW120252   3.022   3.995   3.416
 6636SOL    HW220253   3.050   3.979   3.256
 6637SOL     OW20254   1.870   5.050   2.062
 6637SOL    HW120255   1.777   5.071   2.031
 6637SOL    HW220256   1.880   4.951   2.075
 6638SOL     OW20257   1.950   5.525   2.789
 6638SOL    HW120258   1.908   5.439   2.762
 6638SOL    HW220259   2.044   5.528   2.755
 6639SOL     OW20260   2.366   5.292   2.772
 6639SOL    HW120261   2.432   5.366   2.781
 6639SOL    HW220262   2.410   5.213   2.730
 6640SOL     OW20263   2.864   4.520   3.100
 6640SOL    HW120264   2.905   4.488   3.186
 6640SOL    HW220265   2.768   4.493   3.097
 6641SOL     OW20266   1.902   4.268   2.976
 6641SOL    HW120267   1.987   4.235   2.935
 6641SOL    HW220268   1.915   4.283   3.074
 6642SOL     OW20269   2.051   4.244   3.584
 6642SOL    HW120270   2.110   4.204   3.514
 6642SOL    HW220271   1.993   4.315   3.543
 6643SOL     OW20272   3.231   4.674   3.522
 6643SOL    HW120273   3.270   4.763   3.542
 6643SOL    HW220274   3.241   4.654   3.425
 6644SOL     OW20275   2.677   4.296   2.187
 6644SOL    HW120276   2.684   4.207   2.141
 6644SOL    HW220277   2.583   4.330   2.179
 6645SOL     OW20278   3.519   4.328   3.068
 6645SOL    HW120279   3.481   4.259   3.130
 6645SOL    HW220280   3.601   4.292   3.024
 6646SOL     OW20281   2.114   5.288   3.606
 6646SOL    HW120282   2.084   5.345   3.682
 6646SOL    HW220283   2.107   5.191   3.632
 6647SOL     OW20284   2.533   4.188   3.131
 6647SOL    HW120285   2.499   4.099   3.101
 6647SOL    HW220286   2.559   4.242   3.051
 6648SOL     OW20287   2.792   5.402   3.327
 6648SOL    HW120288   2.768   5.384   3.232
 6648SOL    HW220289   2.822   5.496   3.337
 6649SOL     OW20290   2.335   4.224   2.053
 6649SOL    HW120291   2.396   4.304   2.057
 6649SOL    HW220292   2.240   4.255   2.060
 6650SOL     OW20293   2.021   4.861   3.328
 6650SOL    HW120294   2.043   4.800   3.404
 6650SOL    HW220295   2.031   4.812   3.242
 6651SOL     OW20296   3.209   4.783   3.096
 6651SOL    HW120297   3.233   4.720   3.022
 6651SOL    HW220298   3.119   4.823   3.078
 6652SOL     OW20299   3.164   4.579   2.171
 6652SOL    HW120300   3.078   4.548   2.213
 6652SOL    HW220301   3.160   4.565   2.072
 6653SOL     OW20302   3.621   5.471   3.016
 6653SOL    HW120303   3.682   5.501   2.943
 6653SOL    HW220304   3.583   5.382   2.994
 6654SOL     OW20305   3.114   5.455   2.990
 6654SOL    HW120306   3.198   5.460   2.936
 6654SOL    HW220307   3.091   5.359   3.008
 6655SOL     OW20308   1.945   4.982   2.884
 6655SOL    HW120309   1.940   4.981   2.984
 6655SOL    HW220310   1.862   4.941   2.846
 6656SOL     OW20311   2.550   5.386   3.578
 6656SOL    HW120312   2.494   5.467   3.587
 6656SOL    HW220313   2.602   5.390   3.492
 6657SOL     OW20314   3.588   3.859   2.385
 6657SOL    HW120315   3.661   3.842   2.318
 6657SOL    HW220316   3.557   3.772   2.423
 6658SOL     OW20317   3.250   5.297   2.339
 6658SOL    HW120318   3.317   5.309   2.265
 6658SOL    HW220319   3.210   5.386   2.362
 6659SOL     OW20320   1.992   5.518   3.713
 6659SOL    HW120321   1.951   5.444   3.766
 6659SOL    HW220322   2.056   5.569   3.771
 6660SOL     OW20323   3.142   4.651   2.534
 6660SOL    HW120324   3.202   4.570   2.536
 6660SOL    HW220325   3.182   4.720   2.474
 6661SOL     OW20326   2.692   4.997   3.284
 6661SOL    HW120327   2.687   5.030   3.379
 6661SOL    HW220328   2.606   5.016   3.238
 6662SOL     OW20329   2.534   5.340   2.016
 6662SOL    HW120330   2.543   5.350   1.917
 6662SOL    HW220331   2.494   5.251   2.037
 6663SOL     OW20332   3.512   5.444   3.256
 6663SOL    HW120333   3.565   5.454   3.172
 6663SOL    HW220334   3.485   5.534   3.290
 6664SOL     OW20335   3.703   3.899   2.825
 6664SOL    HW120336   3.742   3.814   2.789
 6664SOL    HW220337   3.605   3.901   2.806
 6665SOL     OW20338   2.125   4.050   2.582
 6665SOL    HW120339   2.046   4.101   2.548
 6665SOL    HW220340   2.116   4.035   2.680
 6666SOL     OW20341   3.056   5.336   1.893
 6666SOL    HW120342   3.062   5.243   1.930
 6666SOL    HW220343   2.997   5.336   1.813
 6667SOL     OW20344   2.684   4.726   3.234
 6667SOL    HW120345   2.724   4.725   3.142
 6667SOL    HW220346   2.694   4.818   3.274
 6668SOL     OW20347   2.778   4.634   2.153
 6668SOL    HW120348   2.841   4.672   2.085
 6668SOL    HW220349   2.818   4.551   2.192
 6669SOL     OW20350   3.366   5.331   1.906
 6669SOL    HW120351   3.274   5.368   1.913
 6669SOL    HW220352   3.404   5.351   1.816
 6670SOL     OW20353   2.234   5.012   3.352
 6670SOL    HW120354   2.221   5.105   3.318
 6670SOL    HW220355   2.150   4.960   3.339
 6671SOL     OW20356   3.476   5.016   3.151
 6671SOL    HW120357   3.536   5.019   3.231
 6671SOL    HW220358   3.401   5.080   3.164
 6672SOL     OW20359   2.901   4.822   2.558
 6672SOL    HW120360   2.831   4.775   2.612
 6672SOL    HW220361   2.960   4.754   2.515
 6673SOL     OW20362   2.876   3.960   2.833
 6673SOL    HW120363   2.868   3.924   2.740
 6673SOL    HW220364   2.874   3.884   2.898
 6674SOL     OW20365   2.452   5.211   2.353
 6674SOL    HW120366   2.494   5.153   2.283
 6674SOL    HW220367   2.408   5.290   2.309
 6675SOL     OW20368   3.571   4.109   3.243
 6675SOL    HW120369   3.644   4.178   3.247
 6675SOL    HW220370   3.599   4.034   3.184
 6676SOL     OW20371   2.117   5.072   2.152
 6676SOL    HW120372   2.021   5.073   2.125
 6676SOL    HW220373   2.129   5.125   2.236
 6677SOL     OW20374   1.967   4.737   3.588
 6677SOL    HW120375   1.890   4.704   3.642
 6677SOL    HW220376   2.052   4.707   3.630
 6678SOL     OW20377   2.534   3.927   3.351
 6678SOL    HW120378   2.624   3.911   3.311
 6678SOL    HW220379   2.542   3.932   3.450
 6679SOL     OW20380   1.937   4.069   1.895
 6679SOL    HW120381   1.845   4.041   1.866
 6679SOL    HW220382   1.968   4.146   1.839
 6680SOL     OW20383   3.302   4.580   3.260
 6680SOL    HW120384   3.245   4.632   3.197
 6680SOL    HW220385   3.398   4.592   3.236
 6681SOL     OW20386   1.934   3.890   2.180
 6681SOL    HW120387   1.917   3.973   2.126
 6681SOL    HW220388   2.024   3.853   2.158
 6682SOL     OW20389   3.045   5.059   1.981
 6682SOL    HW120390   2.946   5.048   1.983
 6682SOL    HW220391   3.079   5.074   2.074
 6683SOL     OW20392   2.475   4.566   3.293
 6683SOL    HW120393   2.531   4.647   3.276
 6683SOL    HW220394   2.534   4.486   3.296
 6684SOL     OW20395   3.355   5.491   2.821
 6684SOL    HW120396   3.388   5.555   2.752
 6684SOL    HW220397   3.421   5.485   2.896
 6685SOL     OW20398   2.578   4.289   3.570
 6685SOL    HW120399   2.597   4.354   3.644
 6685SOL    HW220400   2.638   4.209   3.579
 6686SOL     OW20401   3.312   4.944   3.495
 6686SOL    HW120402   3.303   4.934   3.594
 6686SOL    HW220403   3.408   4.937   3.469
 6687SOL     OW20404   2.252   5.465   3.422
 6687SOL    HW120405   2.161   5.506   3.420
 6687SOL    HW220406   2.245   5.371   3.454
 6688SOL     OW20407   3.536   4.607   3.116
 6688SOL    HW120408   3.509   4.518   3.079
 6688SOL    HW220409   3.537   4.675   3.043
 6689SOL     OW20410   3.087   4.049   2.311
 6689SOL    HW120411   3.152   3.975   2.300
 6689SOL    HW220412   3.107   4.099   2.395
 6690SOL     OW20413   2.456   4.469   2.514
 6690SOL    HW120414   2.506   4.554   2.495
 6690SOL    HW220415   2.368   4.471   2.466
 6691SOL     OW20416   3.639   4.066   3.504
 6691SOL    HW120417   3.622   4.097   3.410
 6691SOL    HW220418   3.555   4.029   3.542
 6692SOL     OW20419   3.592   4.658   3.379
 6692SOL    HW120420   3.630   4.749   3.394
 6692SOL    HW220421   3.584   4.641   3.280
 6693SOL     OW20422   2.721   5.098   1.878
 6693SOL    HW120423   2.675   5.113   1.966
 6693SOL    HW220424   2.765   5.183   1.848
 6694SOL     OW20425   2.523   5.514   2.815
 6694SOL    HW120426   2.477   5.602   2.802
 6694SOL    HW220427   2.622   5.526   2.808
 6695SOL     OW20428   2.721   4.680   2.723
 6695SOL    HW120429   2.775   4.611   2.771
 6695SOL    HW220430   2.689   4.749   2.789
 6696SOL     OW20431   2.945   4.708   1.949
 6696SOL    HW120432   2.922   4.761   1.867
 6696SOL    HW220433   3.026   4.652   1.930
 6697SOL     OW20434   3.723   5.293   2.713
 6697SOL    HW120435   3.652   5.281   2.643
 6697SOL    HW220436   3.724   5.214   2.773
 6698SOL     OW20437   2.083   5.038   3.706
 6698SOL    HW120438   2.018   4.965   3.685
 6698SOL    HW220439   2.087   5.052   3.804
 6699SOL     OW20440   1.941   4.964   2.515
 6699SOL    HW120441   1.940   4.917   2.603
 6699SOL    HW220442   2.023   4.936   2.464
 6700SOL     OW20443   2.534   5.115   3.486
 6700SOL    HW120444   2.456   5.065   3.524
 6700SOL    HW220445   2.531   5.210   3.517
 6701SOL     OW20446   3.686   3.916   3.089
 6701SOL    HW120447   3.682   3.826   3.133
 6701SOL    HW220448   3.689   3.905   2.990
 6702SOL     OW20449   2.290   4.148   2.382
 6702SOL    HW120450   2.320   4.076   2.320
 6702SOL    HW220451   2.251   4.108   2.465
 6703SOL     OW20452   3.567   5.211   2.966
 6703SOL    HW120453   3.474   5.186   2.939
 6703SOL    HW220454   3.593   5.161   3.048
 6704SOL     OW20455   2.179   4.271   3.142
 6704SOL    HW120456   2.217   4.212   3.214
 6704SOL    HW220457   2.219   4.245   3.054
 6705SOL     OW20458   2.674   5.310   2.549
 6705SOL    HW120459   2.706   5.320   2.455
 6705SOL    HW220460   2.595   5.248   2.551
 6706SOL     OW20461   3.286   3.938   2.974
 6706SOL    HW120462   3.338   3.873   3.029
 6706SOL    HW220463   3.237   4.001   3.035
 6707SOL     OW20464   2.863   3.758   3.016
 6707SOL    HW120465   2.800   3.686   2.985
 6707SOL    HW220466   2.956   3.722   3.016
 6708SOL     OW20467   2.632   5.054   2.163
 6708SOL    HW120468   2.586   4.967   2.180
 6708SOL    HW220469   2.723   5.051   2.204
 6709SOL     OW20470   2.480   5.291   3.146
 6709SOL    HW120471   2.475   5.373   3.203
 6709SOL    HW220472   2.569   5.288   3.101
 6710SOL     OW20473   3.214   3.776   2.030
 6710SOL    HW120474   3.249   3.735   1.946
 6710SOL    HW220475   3.124   3.738   2.050
 6711SOL     OW20476   3.162   4.177   2.553
 6711SOL    HW120477   3.103   4.257   2.557
 6711SOL    HW220478   3.177   4.142   2.646
 6712SOL     OW20479   3.455   3.945   2.744
 6712SOL    HW120480   3.371   3.944   2.798
 6712SOL    HW220481   3.457   4.028   2.688
 6713SOL     OW20482   1.901   4.801   2.162
 6713SOL    HW120483   2.000   4.790   2.153
 6713SOL    HW220484   1.861   4.715   2.194
 6714SOL     OW20485   2.737   5.370   2.199
 6714SOL    HW120486   2.660   5.335   2.145
 6714SOL    HW220487   2.705   5.441   2.261
 6715SOL     OW20488   2.092   4.352   3.837
 6715SOL    HW120489   1.999   4.350   3.874
 6715SOL    HW220490   2.093   4.313   3.745
 6716SOL     OW20491   2.087   3.999   4.720
 6716SOL    HW120492   2.122   3.982   4.812
 6716SOL    HW220493   1.999   3.954   4.708
 6717SOL     OW20494   1.881   4.092   4.371
 6717SOL    HW120495   1.799   4.135   4.410
 6717SOL    HW220496   1.853   4.019   4.308
 6718SOL     OW20497   2.431   4.999   4.889
 6718SOL    HW120498   2.338   4.992   4.852
 6718SOL    HW220499   2.442   5.088   4.933
 6719SOL     OW20500   3.417   5.235   4.427
 6719SOL    HW120501   3.360   5.219   4.508
 6719SOL    HW220502   3.358   5.245   4.347
 6720SOL     OW20503   2.997   4.427   4.441
 6720SOL    HW120504   3.054   4.505   4.416
 6720SOL    HW220505   2.937   4.453   4.517
 6721SOL     OW20506   3.617   4.331   3.955
 6721SOL    HW120507   3.605   4.318   3.856
 6721SOL    HW220508   3.587   4.250   4.004
 6722SOL     OW20509   2.630   4.868   4.747
 6722SOL    HW120510   2.552   4.885   4.807
 6722SOL    HW220511   2.664   4.955   4.711
 6723SOL     OW20512   2.712   4.522   5.547
 6723SOL    HW120513   2.708   4.598   5.612
 6723SOL    HW220514   2.734   4.558   5.456
 6724SOL     OW20515   2.547   4.736   4.389
 6724SOL    HW120516   2.616   4.720   4.459
 6724SOL    HW220517   2.474   4.793   4.427
 6725SOL     OW20518   2.548   4.885   5.527
 6725SOL    HW120519   2.608   4.964   5.541
 6725SOL    HW220520   2.462   4.916   5.486
 6726SOL     OW20521   2.197   5.159   4.785
 6726SOL    HW120522   2.119   5.128   4.732
 6726SOL    HW220523   2.255   5.217   4.728
 6727SOL     OW20524   3.322   5.229   5.063
 6727SOL    HW120525   3.346   5.323   5.089
 6727SOL    HW220526   3.306   5.175   5.145
 6728SOL     OW20527   2.300   4.116   5.223
 6728SOL    HW120528   2.382   4.060   5.232
 6728SOL    HW220529   2.219   4.058   5.227
 6729SOL     OW20530   3.465   4.171   4.461
 6729SOL    HW120531   3.391   4.217   4.411
 6729SOL    HW220532   3.516   4.239   4.514
 6730SOL     OW20533   2.093   5.437   4.207
 6730SOL    HW120534   2.127   5.514   4.261
 6730SOL    HW220535   2.137   5.437   4.117
 6731SOL     OW20536   2.989   5.065   5.414
 6731SOL    HW120537   3.036   5.065   5.502
 6731SOL    HW220538   2.941   4.978   5.403
 6732SOL     OW20539   2.092   5.158   4.262
 6732SOL    HW120540   2.066   5.254   4.262
 6732SOL    HW220541   2.021   5.104   4.307
 6733SOL     OW20542   2.102   4.815   4.610
 6733SOL    HW120543   2.116   4.731   4.662
 6733SOL    HW220544   2.047   4.879   4.665
 6734SOL     OW20545   2.482   5.510   5.163
 6734SOL    HW120546   2.390   5.493   5.198
 6734SOL    HW220547   2.510   5.602   5.189
 6735SOL     OW20548   2.468   4.688   3.847
 6735SOL    HW120549   2.475   4.772   3.793
 6735SOL    HW220550   2.514   4.701   3.935
 6736SOL     OW20551   3.456   3.838   5.204
 6736SOL    HW120552   3.438   3.905   5.132
 6736SOL    HW220553   3.453   3.884   5.293
 6737SOL     OW20554   1.984   4.367   4.287
 6737SOL    HW120555   1.939   4.279   4.304
 6737SOL    HW220556   1.983   4.421   4.371
 6738SOL     OW20557   3.704   5.491   4.083
 6738SOL    HW120558   3.758   5.462   4.163
 6738SOL    HW220559   3.734   5.581   4.054
 6739SOL     OW20560   1.889   5.320   3.841
 6739SOL    HW120561   1.870   5.224   3.862
 6739SOL    HW220562   1.856   5.378   3.916
 6740SOL     OW20563   3.551   4.646   4.336
 6740SOL    HW120564   3.646   4.617   4.344
 6740SOL    HW220565   3.543   4.711   4.261
 6741SOL     OW20566   3.503   4.832   4.156
 6741SOL    HW120567   3.589   4.834   4.104
 6741SOL    HW220568   3.517   4.879   4.244
 6742SOL     OW20569   1.975   4.461   5.321
 6742SOL    HW120570   2.063   4.448   5.366
 6742SOL    HW220571   1.962   4.558   5.299
 6743SOL     OW20572   2.475   5.089   4.450
 6743SOL    HW120573   2.426   5.002   4.459
 6743SOL    HW220574   2.452   5.132   4.363
 6744SOL     OW20575   3.155   4.952   5.147
 6744SOL    HW120576   3.192   4.879   5.089
 6744SOL    HW220577   3.207   4.957   5.232
 6745SOL     OW20578   2.671   3.728   4.226
 6745SOL    HW120579   2.711   3.819   4.217
 6745SOL    HW220580   2.571   3.736   4.232
 6746SOL     OW20581   2.059   4.700   4.988
 6746SOL    HW120582   2.148   4.655   4.974
 6746SOL    HW220583   1.986   4.635   4.969
 6747SOL     OW20584   3.387   4.723   3.914
 6747SOL    HW120585   3.324   4.647   3.927
 6747SOL    HW220586   3.435   4.741   4.000
 6748SOL     OW20587   3.049   5.516   5.340
 6748SOL    HW120588   3.073   5.576   5.264
 6748SOL    HW220589   3.056   5.421   5.310
 6749SOL     OW20590   2.179   3.975   5.525
 6749SOL    HW120591   2.250   4.046   5.531
 6749SOL    HW220592   2.091   4.014   5.553
 6750SOL     OW20593   3.328   5.141   4.677
 6750SOL    HW120594   3.269   5.147   4.757
 6750SOL    HW220595   3.313   5.053   4.631
 6751SOL     OW20596   3.529   5.438   4.296
 6751SOL    HW120597   3.488   5.415   4.208
 6751SOL    HW220598   3.511   5.364   4.361
 6752SOL     OW20599   2.460   4.453   3.994
 6752SOL    HW120600   2.484   4.522   3.926
 6752SOL    HW220601   2.382   4.486   4.048
 6753SOL     OW20602   3.143   4.069   4.668
 6753SOL    HW120603   3.057   4.019   4.655
 6753SOL    HW220604   3.205   4.015   4.724
 6754SOL     OW20605   3.438   5.386   4.031
 6754SOL    HW120606   3.527   5.432   4.034
 6754SOL    HW220607   3.417   5.362   3.936
 6755SOL     OW20608   2.669   4.329   5.189
 6755SOL    HW120609   2.622   4.326   5.278
 6755SOL    HW220610   2.618   4.274   5.123
 6756SOL     OW20611   3.256   4.193   5.398
 6756SOL    HW120612   3.236   4.236   5.486
 6756SOL    HW220613   3.334   4.131   5.407
 6757SOL     OW20614   2.835   4.614   5.296
 6757SOL    HW120615   2.881   4.530   5.267
 6757SOL    HW220616   2.779   4.648   5.221
 6758SOL     OW20617   2.853   4.134   4.966
 6758SOL    HW120618   2.776   4.168   5.020
 6758SOL    HW220619   2.819   4.083   4.887
 6759SOL     OW20620   2.903   4.425   4.153
 6759SOL    HW120621   2.929   4.421   4.249
 6759SOL    HW220622   2.818   4.374   4.139
 6760SOL     OW20623   1.938   4.535   4.513
 6760SOL    HW120624   2.037   4.523   4.522
 6760SOL    HW220625   1.914   4.630   4.534
 6761SOL     OW20626   1.992   5.545   5.295
 6761SOL    HW120627   1.982   5.530   5.394
 6761SOL    HW220628   1.906   5.581   5.259
 6762SOL     OW20629   2.727   4.072   3.919
 6762SOL    HW120630   2.786   4.135   3.870
 6762SOL    HW220631   2.746   3.978   3.890
 6763SOL     OW20632   3.581   4.309   5.555
 6763SOL    HW120633   3.555   4.398   5.519
 6763SOL    HW220634   3.579   4.241   5.482
 6764SOL     OW20635   3.224   4.868   4.269
 6764SOL    HW120636   3.307   4.839   4.221
 6764SOL    HW220637   3.175   4.935   4.213
 6765SOL     OW20638   2.412   3.920   4.609
 6765SOL    HW120639   2.407   3.915   4.709
 6765SOL    HW220640   2.414   4.016   4.580
 6766SOL     OW20641   2.870   5.180   4.201
 6766SOL    HW120642   2.824   5.252   4.149
 6766SOL    HW220643   2.866   5.200   4.299
 6767SOL     OW20644   2.213   5.525   4.577
 6767SOL    HW120645   2.263   5.439   4.583
 6767SOL    HW220646   2.278   5.602   4.574
 6768SOL     OW20647   3.657   4.790   4.597
 6768SOL    HW120648   3.595   4.775   4.521
 6768SOL    HW220649   3.605   4.801   4.682
 6769SOL     OW20650   3.089   5.274   5.230
 6769SOL    HW120651   3.095   5.197   5.294
 6769SOL    HW220652   3.037   5.248   5.150
 6770SOL     OW20653   2.183   4.667   3.966
 6770SOL    HW120654   2.265   4.706   3.924
 6770SOL    HW220655   2.156   4.585   3.917
 6771SOL     OW20656   3.320   4.459   4.452
 6771SOL    HW120657   3.315   4.394   4.527
 6771SOL    HW220658   3.400   4.518   4.465
 6772SOL     OW20659   2.323   4.990   5.451
 6772SOL    HW120660   2.273   4.991   5.365
 6772SOL    HW220661   2.260   4.972   5.527
 6773SOL     OW20662   2.973   5.500   3.961
 6773SOL    HW120663   2.913   5.438   4.011
 6773SOL    HW220664   3.004   5.456   3.876
 6774SOL     OW20665   2.064   4.009   5.222
 6774SOL    HW120666   1.984   4.069   5.209
 6774SOL    HW220667   2.054   3.960   5.308
 6775SOL     OW20668   3.494   5.101   3.805
 6775SOL    HW120669   3.462   5.195   3.795
 6775SOL    HW220670   3.418   5.038   3.793
 6776SOL     OW20671   2.326   5.467   4.047
 6776SOL    HW120672   2.359   5.506   4.133
 6776SOL    HW220673   2.402   5.460   3.982
 6777SOL     OW20674   3.262   3.831   4.150
 6777SOL    HW120675   3.238   3.794   4.060
 6777SOL    HW220676   3.361   3.847   4.154
 6778SOL     OW20677   2.111   5.509   4.965
 6778SOL    HW120678   2.168   5.444   5.015
 6778SOL    HW220679   2.095   5.476   4.872
 6779SOL     OW20680   2.802   5.422   4.628
 6779SOL    HW120681   2.882   5.365   4.649
 6779SOL    HW220682   2.753   5.382   4.551
 6780SOL     OW20683   2.244   4.424   4.204
 6780SOL    HW120684   2.289   4.334   4.201
 6780SOL    HW220685   2.150   4.413   4.237
 6781SOL     OW20686   3.409   3.946   5.453
 6781SOL    HW120687   3.404   3.983   5.545
 6781SOL    HW220688   3.337   3.877   5.441
 6782SOL     OW20689   2.476   3.846   3.841
 6782SOL    HW120690   2.574   3.824   3.848
 6782SOL    HW220691   2.445   3.829   3.748
 6783SOL     OW20692   2.643   3.988   5.473
 6783SOL    HW120693   2.710   3.927   5.516
 6783SOL    HW220694   2.570   4.007   5.538
 6784SOL     OW20695   2.750   5.238   4.919
 6784SOL    HW120696   2.727   5.213   4.825
 6784SOL    HW220697   2.811   5.169   4.958
 6785SOL     OW20698   3.213   4.314   5.157
 6785SOL    HW120699   3.241   4.271   5.242
 6785SOL    HW220700   3.238   4.410   5.158
 6786SOL     OW20701   2.665   5.126   4.648
 6786SOL    HW120702   2.755   5.140   4.606
 6786SOL    HW220703   2.594   5.128   4.577
 6787SOL     OW20704   2.784   4.227   4.623
 6787SOL    HW120705   2.759   4.218   4.527
 6787SOL    HW220706   2.832   4.145   4.654
 6788SOL     OW20707   2.401   3.788   4.236
 6788SOL    HW120708   2.320   3.789   4.294
 6788SOL    HW220709   2.404   3.871   4.181
 6789SOL     OW20710   3.296   4.912   3.765
 6789SOL    HW120711   3.328   4.836   3.822
 6789SOL    HW220712   3.204   4.939   3.795
 6790SOL     OW20713   2.159   3.759   3.895
 6790SOL    HW120714   2.208   3.843   3.874
 6790SOL    HW220715   2.221   3.694   3.940
 6791SOL     OW20716   2.797   3.960   4.204
 6791SOL    HW120717   2.749   4.001   4.126
 6791SOL    HW220718   2.896   3.958   4.185
 6792SOL     OW20719   2.938   4.407   5.188
 6792SOL    HW120720   2.858   4.346   5.191
 6792SOL    HW220721   3.019   4.354   5.164
 6793SOL     OW20722   3.089   5.294   4.517
 6793SOL    HW120723   3.110   5.368   4.452
 6793SOL    HW220724   3.157   5.294   4.590
 6794SOL     OW20725   2.321   4.876   4.465
 6794SOL    HW120726   2.250   4.849   4.530
 6794SOL    HW220727   2.295   4.848   4.372
 6795SOL     OW20728   3.133   5.521   4.315
 6795SOL    HW120729   3.177   5.585   4.251
 6795SOL    HW220730   3.083   5.573   4.385
 6796SOL     OW20731   2.894   4.273   3.740
 6796SOL    HW120732   2.853   4.355   3.701
 6796SOL    HW220733   2.958   4.299   3.813
 6797SOL     OW20734   1.940   4.280   5.110
 6797SOL    HW120735   2.032   4.279   5.069
 6797SOL    HW220736   1.934   4.354   5.177
 6798SOL     OW20737   2.423   3.946   4.871
 6798SOL    HW120738   2.461   3.862   4.908
 6798SOL    HW220739   2.335   3.965   4.915
 6799SOL     OW20740   2.728   4.178   4.366
 6799SOL    HW120741   2.696   4.250   4.304
 6799SOL    HW220742   2.752   4.097   4.313
 6800SOL     OW20743   2.879   3.763   4.477
 6800SOL    HW120744   2.807   3.768   4.408
 6800SOL    HW220745   2.855   3.694   4.546
 6801SOL     OW20746   3.291   4.897   4.591
 6801SOL    HW120747   3.236   4.813   4.584
 6801SOL    HW220748   3.317   4.926   4.499
 6802SOL     OW20749   3.328   4.314   4.716
 6802SOL    HW120750   3.298   4.219   4.723
 6802SOL    HW220751   3.401   4.330   4.782
 6803SOL     OW20752   3.719   4.557   4.101
 6803SOL    HW120753   3.761   4.493   4.165
 6803SOL    HW220754   3.681   4.506   4.023
 6804SOL     OW20755   2.350   5.109   3.898
 6804SOL    HW120756   2.263   5.094   3.945
 6804SOL    HW220757   2.333   5.135   3.803
 6805SOL     OW20758   3.526   5.004   4.381
 6805SOL    HW120759   3.625   5.012   4.395
 6805SOL    HW220760   3.481   5.088   4.412
 6806SOL     OW20761   3.252   4.299   3.802
 6806SOL    HW120762   3.198   4.278   3.883
 6806SOL    HW220763   3.343   4.258   3.811
 6807SOL     OW20764   2.389   3.980   4.052
 6807SOL    HW120765   2.416   3.921   3.977
 6807SOL    HW220766   2.389   4.075   4.021
 6808SOL     OW20767   3.616   4.947   5.312
 6808SOL    HW120768   3.707   4.908   5.299
 6808SOL    HW220769   3.624   5.043   5.336
 6809SOL     OW20770   2.926   5.071   5.064
 6809SOL    HW120771   2.846   5.048   5.119
 6809SOL    HW220772   3.009   5.045   5.113
 6810SOL     OW20773   3.454   5.353   5.349
 6810SOL    HW120774   3.481   5.387   5.259
 6810SOL    HW220775   3.533   5.315   5.395
 6811SOL     OW20776   2.973   4.919   4.824
 6811SOL    HW120777   2.933   4.963   4.905
 6811SOL    HW220778   2.932   4.956   4.741
 6812SOL     OW20779   3.500   4.823   4.803
 6812SOL    HW120780   3.505   4.904   4.862
 6812SOL    HW220781   3.414   4.825   4.752
 6813SOL     OW20782   2.777   3.813   5.126
 6813SOL    HW120783   2.802   3.793   5.031
 6813SOL    HW220784   2.849   3.869   5.168
 6814SOL     OW20785   2.842   4.840   5.443
 6814SOL    HW120786   2.743   4.846   5.453
 6814SOL    HW220787   2.865   4.760   5.387
 6815SOL     OW20788   2.567   4.774   4.092
 6815SOL    HW120789   2.553   4.781   4.191
 6815SOL    HW220790   2.651   4.723   4.074
 6816SOL     OW20791   2.272   4.537   4.975
 6816SOL    HW120792   2.358   4.549   5.025
 6816SOL    HW220793   2.230   4.450   5.002
 6817SOL     OW20794   3.136   4.110   4.986
 6817SOL    HW120795   3.157   4.184   5.050
 6817SOL    HW220796   3.047   4.127   4.943
 6818SOL     OW20797   1.926   5.288   5.055
 6818SOL    HW120798   1.880   5.370   5.021
 6818SOL    HW220799   2.024   5.307   5.064
 6819SOL     OW20800   2.229   4.824   4.225
 6819SOL    HW120801   2.222   4.907   4.169
 6819SOL    HW220802   2.233   4.744   4.165
 6820SOL     OW20803   2.428   4.261   4.589
 6820SOL    HW120804   2.440   4.327   4.515
 6820SOL    HW220805   2.474   4.295   4.672
 6821SOL     OW20806   3.114   5.072   4.112
 6821SOL    HW120807   3.164   5.149   4.152
 6821SOL    HW220808   3.019   5.074   4.144
 6822SOL     OW20809   3.134   5.169   4.866
 6822SOL    HW120810   3.181   5.182   4.953
 6822SOL    HW220811   3.068   5.095   4.875
 6823SOL     OW20812   3.444   4.363   4.196
 6823SOL    HW120813   3.413   4.424   4.269
 6823SOL    HW220814   3.494   4.415   4.127
 6824SOL     OW20815   2.216   5.234   5.053
 6824SOL    HW120816   2.195   5.190   4.966
 6824SOL    HW220817   2.313   5.260   5.056
 6825SOL     OW20818   2.264   4.475   5.322
 6825SOL    HW120819   2.332   4.530   5.275
 6825SOL    HW220820   2.304   4.387   5.349
 6826SOL     OW20821   3.449   4.503   5.394
 6826SOL    HW120822   3.357   4.541   5.389
 6826SOL    HW220823   3.509   4.550   5.329
 6827SOL     OW20824   2.875   3.829   5.494
 6827SOL    HW120825   2.881   3.914   5.442
 6827SOL    HW220826   2.907   3.753   5.437
 6828SOL     OW20827   2.366   3.774   5.464
 6828SOL    HW120828   2.324   3.717   5.394
 6828SOL    HW220829   2.300   3.843   5.496
 6829SOL     OW20830   2.435   4.594   4.753
 6829SOL    HW120831   2.479   4.683   4.744
 6829SOL    HW220832   2.372   4.594   4.830
 6830SOL     OW20833   3.222   4.586   4.769
 6830SOL    HW120834   3.147   4.586   4.703
 6830SOL    HW220835   3.259   4.494   4.778
 6831SOL     OW20836   3.071   4.249   3.999
 6831SOL    HW120837   3.084   4.165   4.053
 6831SOL    HW220838   3.042   4.323   4.059
 6832SOL     OW20839   2.169   3.937   4.955
 6832SOL    HW120840   2.146   3.974   5.045
 6832SOL    HW220841   2.139   3.842   4.949
 6833SOL     OW20842   1.899   5.034   5.006
 6833SOL    HW120843   1.952   4.985   5.074
 6833SOL    HW220844   1.921   5.132   5.011
 6834SOL     OW20845   2.594   4.358   4.788
 6834SOL    HW120846   2.653   4.332   4.712
 6834SOL    HW220847   2.566   4.454   4.777
 6835SOL     OW20848   3.590   4.659   5.578
 6835SOL    HW120849   3.544   4.652   5.489
 6835SOL    HW220850   3.528   4.703   5.644
 6836SOL     OW20851   2.169   3.787   4.342
 6836SOL    HW120852   2.158   3.881   4.375
 6836SOL    HW220853   2.164   3.724   4.419
 6837SOL     OW20854   3.484   4.091   4.098
 6837SOL    HW120855   3.486   4.015   4.162
 6837SOL    HW220856   3.436   4.168   4.138
 6838SOL     OW20857   2.885   4.490   4.690
 6838SOL    HW120858   2.900   4.511   4.786
 6838SOL    HW220859   2.855   4.395   4.681
 6839SOL     OW20860   2.842   5.297   5.424
 6839SOL    HW120861   2.822   5.341   5.336
 6839SOL    HW220862   2.881   5.206   5.408
 6840SOL     OW20863   3.721   5.242   5.329
 6840SOL    HW120864   3.735   5.269   5.234
 6840SOL    HW220865   3.804   5.264   5.382
 6841SOL     OW20866   2.212   4.622   5.528
 6841SOL    HW120867   2.288   4.666   5.576
 6841SOL    HW220868   2.247   4.575   5.446
 6842SOL     OW20869   3.402   3.998   3.849
 6842SOL    HW120870   3.341   3.923   3.872
 6842SOL    HW220871   3.424   4.050   3.932
 6843SOL     OW20872   3.165   4.562   3.766
 6843SOL    HW120873   3.199   4.469   3.781
 6843SOL    HW220874   3.183   4.589   3.671
 6844SOL     OW20875   2.930   5.057   4.573
 6844SOL    HW120876   2.937   4.973   4.518
 6844SOL    HW220877   2.992   5.126   4.537
 6845SOL     OW20878   2.181   4.534   4.673
 6845SOL    HW120879   2.274   4.570   4.678
 6845SOL    HW220880   2.175   4.449   4.725
 6846SOL     OW20881   2.201   4.233   4.730
 6846SOL    HW120882   2.149   4.150   4.713
 6846SOL    HW220883   2.278   4.238   4.666
 6847SOL     OW20884   3.000   4.104   5.402
 6847SOL    HW120885   2.955   4.167   5.466
 6847SOL    HW220886   3.093   4.135   5.385
 6848SOL     OW20887   3.022   3.931   5.201
 6848SOL    HW120888   3.022   3.995   5.278
 6848SOL    HW220889   3.050   3.979   5.118
 6849SOL     OW20890   1.870   5.050   3.924
 6849SOL    HW120891   1.777   5.071   3.893
 6849SOL    HW220892   1.880   4.951   3.937
 6850SOL     OW20893   1.950   5.525   4.651
 6850SOL    HW120894   1.908   5.439   4.624
 6850SOL    HW220895   2.044   5.528   4.617
 6851SOL     OW20896   2.366   5.292   4.634
 6851SOL    HW120897   2.432   5.366   4.643
 6851SOL    HW220898   2.410   5.213   4.592
 6852SOL     OW20899   2.864   4.520   4.962
 6852SOL    HW120900   2.905   4.488   5.048
 6852SOL    HW220901   2.768   4.493   4.959
 6853SOL     OW20902   1.902   4.268   4.838
 6853SOL    HW120903   1.987   4.235   4.797
 6853SOL    HW220904   1.915   4.283   4.936
 6854SOL     OW20905   2.051   4.244   5.446
 6854SOL    HW120906   2.110   4.204   5.376
 6854SOL    HW220907   1.993   4.315   5.405
 6855SOL     OW20908   3.231   4.674   5.384
 6855SOL    HW120909   3.270   4.763   5.404
 6855SOL    HW220910   3.241   4.654   5.287
 6856SOL     OW20911   2.677   4.296   4.049
 6856SOL    HW120912   2.684   4.207   4.003
 6856SOL    HW220913   2.583   4.330   4.041
 6857SOL     OW20914   3.519   4.328   4.930
 6857SOL    HW120915   3.481   4.259   4.992
 6857SOL    HW220916   3.601   4.292   4.886
 6858SOL     OW20917   2.114   5.288   5.468
 6858SOL    HW120918   2.084   5.345   5.544
 6858SOL    HW220919   2.107   5.191   5.494
 6859SOL     OW20920   2.533   4.188   4.993
 6859SOL    HW120921   2.499   4.099   4.963
 6859SOL    HW220922   2.559   4.242   4.913
 6860SOL     OW20923   2.792   5.402   5.189
 6860SOL    HW120924   2.768   5.384   5.094
 6860SOL    HW220925   2.822   5.496   5.199
 6861SOL     OW20926   2.335   4.224   3.915
 6861SOL    HW120927   2.396   4.304   3.919
 6861SOL    HW220928   2.240   4.255   3.922
 6862SOL     OW20929   2.021   4.861   5.190
 6862SOL    HW120930   2.043   4.800   5.266
 6862SOL    HW220931   2.031   4.812   5.104
 6863SOL     OW20932   3.209   4.783   4.958
 6863SOL    HW120933   3.233   4.720   4.884
 6863SOL    HW220934   3.119   4.823   4.940
 6864SOL     OW20935   3.164   4.579   4.033
 6864SOL    HW120936   3.078   4.548   4.075
 6864SOL    HW220937   3.160   4.565   3.934
 6865SOL     OW20938   3.621   5.471   4.878
 6865SOL    HW120939   3.682   5.501   4.805
 6865SOL    HW220940   3.583   5.382   4.856
 6866SOL     OW20941   3.114   5.455   4.852
 6866SOL    HW120942   3.198   5.460   4.798
 6866SOL    HW220943   3.091   5.359   4.870
 6867SOL     OW20944   1.945   4.982   4.746
 6867SOL    HW120945   1.940   4.981   4.846
 6867SOL    HW220946   1.862   4.941   4.708
 6868SOL     OW20947   2.550   5.386   5.440
 6868SOL    HW120948   2.494   5.467   5.449
 6868SOL    HW220949   2.602   5.390   5.354
 6869SOL     OW20950   3.588   3.859   4.247
 6869SOL    HW120951   3.661   3.842   4.180
 6869SOL    HW220952   3.557   3.772   4.285
 6870SOL     OW20953   3.250   5.297   4.201
 6870SOL    HW120954   3.317   5.309   4.127
 6870SOL    HW220955   3.210   5.386   4.224
 6871SOL     OW20956   1.992   5.518   5.575
 6871SOL    HW120957   1.951   5.444   5.628
 6871SOL    HW220958   2.056   5.569   5.633
 6872SOL     OW20959   3.142   4.651   4.396
 6872SOL    HW120960   3.202   4.570   4.398
 6872SOL    HW220961   3.182   4.720   4.336
 6873SOL     OW20962   2.692   4.997   5.146
 6873SOL    HW120963   2.687   5.030   5.241
 6873SOL    HW220964   2.606   5.016   5.100
 6874SOL     OW20965   2.534   5.340   3.878
 6874SOL    HW120966   2.543   5.350   3.779
 6874SOL    HW220967   2.494   5.251   3.899
 6875SOL     OW20968   3.512   5.444   5.118
 6875SOL    HW120969   3.565   5.454   5.034
 6875SOL    HW220970   3.485   5.534   5.152
 6876SOL     OW20971   3.703   3.899   4.687
 6876SOL    HW120972   3.742   3.814   4.651
 6876SOL    HW220973   3.605   3.901   4.668
 6877SOL     OW20974   2.125   4.050   4.444
 6877SOL    HW120975   2.046   4.101   4.410
 6877SOL    HW220976   2.116   4.035   4.542
 6878SOL     OW20977   3.056   5.336   3.755
 6878SOL    HW120978   3.062   5.243   3.792
 6878SOL    HW220979   2.997   5.336   3.675
 6879SOL     OW20980   2.684   4.726   5.096
 6879SOL    HW120981   2.724   4.725   5.004
 6879SOL    HW220982   2.694   4.818   5.136
 6880SOL     OW20983   2.778   4.634   4.015
 6880SOL    HW120984   2.841   4.672   3.947
 6880SOL    HW220985   2.818   4.551   4.054
 6881SOL     OW20986   3.366   5.331   3.768
 6881SOL    HW120987   3.274   5.368   3.775
 6881SOL    HW220988   3.404   5.351   3.678
 6882SOL     OW20989   2.234   5.012   5.214
 6882SOL    HW120990   2.221   5.105   5.180
 6882SOL    HW220991   2.150   4.960   5.201
 6883SOL     OW20992   3.476   5.016   5.013
 6883SOL    HW120993   3.536   5.019   5.093
 6883SOL    HW220994   3.401   5.080   5.026
 6884SOL     OW20995   2.901   4.822   4.420
 6884SOL    HW120996   2.831   4.775   4.474
 6884SOL    HW220997   2.960   4.754   4.377
 6885SOL     OW20998   2.876   3.960   4.695
 6885SOL    HW120999   2.868   3.924   4.602
 6885SOL    HW221000   2.874   3.884   4.760
 6886SOL     OW21001   2.452   5.211   4.215
 6886SOL    HW121002   2.494   5.153   4.145
 6886SOL    HW221003   2.408   5.290   4.171
 6887SOL     OW21004   3.571   4.109   5.105
 6887SOL    HW121005   3.644   4.178   5.109
 6887SOL    HW221006   3.599   4.034   5.046
 6888SOL     OW21007   2.117   5.072   4.014
 6888SOL    HW121008   2.021   5.073   3.987
 6888SOL    HW221009   2.129   5.125   4.098
 6889SOL     OW21010   1.967   4.737   5.450
 6889SOL    HW121011   1.890   4.704   5.504
 6889SOL    HW221012   2.052   4.707   5.492
 6890SOL     OW21013   2.534   3.927   5.213
 6890SOL    HW121014   2.624   3.911   5.173
 6890SOL    HW221015   2.542   3.932   5.312
 6891SOL     OW21016   1.937   4.069   3.757
 6891SOL    HW121017   1.845   4.041   3.728
 6891SOL    HW221018   1.968   4.146   3.701
 6892SOL     OW21019   3.302   4.580   5.122
 6892SOL    HW121020   3.245   4.632   5.059
 6892SOL    HW221021   3.398   4.592   5.098
 6893SOL     OW21022   1.934   3.890   4.042
 6893SOL    HW121023   1.917   3.973   3.988
 6893SOL    HW221024   2.024   3.853   4.020
 6894SOL     OW21025   3.045   5.059   3.843
 6894SOL    HW121026   2.946   5.048   3.845
 6894SOL    HW221027   3.079   5.074   3.936
 6895SOL     OW21028   2.475   4.566   5.155
 6895SOL    HW121029   2.531   4.647   5.138
 6895SOL    HW221030   2.534   4.486   5.158
 6896SOL     OW21031   3.355   5.491   4.683
 6896SOL    HW121032   3.388   5.555   4.614
 6896SOL    HW221033   3.421   5.485   4.758
 6897SOL     OW21034   2.578   4.289   5.432
 6897SOL    HW121035   2.597   4.354   5.506
 6897SOL    HW221036   2.638   4.209   5.441
 6898SOL     OW21037   3.312   4.944   5.357
 6898SOL    HW121038   3.303   4.934   5.456
 6898SOL    HW221039   3.408   4.937   5.331
 6899SOL     OW21040   2.252   5.465   5.284
 6899SOL    HW121041   2.161   5.506   5.282
 6899SOL    HW221042   2.245   5.371   5.316
 6900SOL     OW21043   3.536   4.607   4.978
 6900SOL    HW121044   3.509   4.518   4.941
 6900SOL    HW221045   3.537   4.675   4.905
 6901SOL     OW21046   3.087   4.049   4.173
 6901SOL    HW121047   3.152   3.975   4.162
 6901SOL    HW221048   3.107   4.099   4.257
 6902SOL     OW21049   2.456   4.469   4.376
 6902SOL    HW121050   2.506   4.554   4.357
 6902SOL    HW221051   2.368   4.471   4.328
 6903SOL     OW21052   3.639   4.066   5.366
 6903SOL    HW121053   3.622   4.097   5.272
 6903SOL    HW221054   3.555   4.029   5.404
 6904SOL     OW21055   3.592   4.658   5.241
 6904SOL    HW121056   3.630   4.749   5.256
 6904SOL    HW221057   3.584   4.641   5.142
 6905SOL     OW21058   2.721   5.098   3.740
 6905SOL    HW121059   2.675   5.113   3.828
 6905SOL    HW221060   2.765   5.183   3.710
 6906SOL     OW21061   2.523   5.514   4.677
 6906SOL    HW121062   2.477   5.602   4.664
 6906SOL    HW221063   2.622   5.526   4.670
 6907SOL     OW21064   2.721   4.680   4.585
 6907SOL    HW121065   2.775   4.611   4.633
 6907SOL    HW221066   2.689   4.749   4.651
 6908SOL     OW21067   2.945   4.708   3.811
 6908SOL    HW121068   2.922   4.761   3.729
 6908SOL    HW221069   3.026   4.652   3.792
 6909SOL     OW21070   3.723   5.293   4.575
 6909SOL    HW121071   3.652   5.281   4.505
 6909SOL    HW221072   3.724   5.214   4.635
 6910SOL     OW21073   2.083   5.038   5.568
 6910SOL    HW121074   2.018   4.965   5.547
 6910SOL    HW221075   2.087   5.052   5.666
 6911SOL     OW21076   1.941   4.964   4.377
 6911SOL    HW121077   1.940   4.917   4.465
 6911SOL    HW221078   2.023   4.936   4.326
 6912SOL     OW21079   2.534   5.115   5.348
 6912SOL    HW121080   2.456   5.065   5.386
 6912SOL    HW221081   2.531   5.210   5.379
 6913SOL     OW21082   3.686   3.916   4.951
 6913SOL    HW121083   3.682   3.826   4.995
 6913SOL    HW221084   3.689   3.905   4.852
 6914SOL     OW21085   2.290   4.148   4.244
 6914SOL    HW121086   2.320   4.076   4.182
 6914SOL    HW221087   2.251   4.108   4.327
 6915SOL     OW21088   3.567   5.211   4.828
 6915SOL    HW121089   3.474   5.186   4.801
 6915SOL    HW221090   3.593   5.161   4.910
 6916SOL     OW21091   2.179   4.271   5.004
 6916SOL    HW121092   2.217   4.212   5.076
 6916SOL    HW221093   2.219   4.245   4.916
 6917SOL     OW21094   2.674   5.310   4.411
 6917SOL    HW121095   2.706   5.320   4.317
 6917SOL    HW221096   2.595   5.248   4.413
 6918SOL     OW21097   3.286   3.938   4.836
 6918SOL    HW121098   3.338   3.873   4.891
 6918SOL    HW221099   3.237   4.001   4.897
 6919SOL     OW21100   2.863   3.758   4.878
 6919SOL    HW121101   2.800   3.686   4.847
 6919SOL    HW221102   2.956   3.722   4.878
 6920SOL     OW21103   2.632   5.054   4.025
 6920SOL    HW121104   2.586   4.967   4.042
 6920SOL    HW221105   2.723   5.051   4.066
 6921SOL     OW21106   2.480   5.291   5.008
 6921SOL    HW121107   2.475   5.373   5.065
 6921SOL    HW221108   2.569   5.288   4.963
 6922SOL     OW21109   3.214   3.776   3.892
 6922SOL    HW121110   3.249   3.735   3.808
 6922SOL    HW221111   3.124   3.738   3.912
 6923SOL     OW21112   3.162   4.177   4.415
 6923SOL    HW121113   3.103   4.257   4.419
 6923SOL    HW221114   3.177   4.142   4.508
 6924SOL     OW21115   3.455   3.945   4.606
 6924SOL    HW121116   3.371   3.944   4.660
 6924SOL    HW221117   3.457   4.028   4.550
 6925SOL     OW21118   1.901   4.801   4.024
 6925SOL    HW121119   2.000   4.790   4.015
 6925SOL    HW221120   1.861   4.715   4.056
 6926SOL     OW21121   2.737   5.370   4.061
 6926SOL    HW121122   2.660   5.335   4.007
 6926SOL    HW221123   2.705   5.441   4.123
 6927SOL     OW21124   2.092   4.352   5.699
 6927SOL    HW121125   1.999   4.350   5.736
 6927SOL    HW221126   2.093   4.313   5.607
 6928SOL     OW21127   2.087   3.999   6.582
 6928SOL    HW121128   2.122   3.982   6.674
 6928SOL    HW221129   1.999   3.954   6.570
 6929SOL     OW21130   1.881   4.092   6.233
 6929SOL    HW121131   1.799   4.135   6.272
 6929SOL    HW221132   1.853   4.019   6.170
 6930SOL     OW21133   2.431   4.999   6.751
 6930SOL    HW121134   2.338   4.992   6.714
 6930SOL    HW221135   2.442   5.088   6.795
 6931SOL     OW21136   3.417   5.235   6.289
 6931SOL    HW121137   3.360   5.219   6.370
 6931SOL    HW221138   3.358   5.245   6.209
 6932SOL     OW21139   2.997   4.427   6.303
 6932SOL    HW121140   3.054   4.505   6.278
 6932SOL    HW221141   2.937   4.453   6.379
 6933SOL     OW21142   3.617   4.331   5.817
 6933SOL    HW121143   3.605   4.318   5.718
 6933SOL    HW221144   3.587   4.250   5.866
 6934SOL     OW21145   2.630   4.868   6.609
 6934SOL    HW121146   2.552   4.885   6.669
 6934SOL    HW221147   2.664   4.955   6.573
 6935SOL     OW21148   2.712   4.522   7.409
 6935SOL    HW121149   2.708   4.598   7.474
 6935SOL    HW221150   2.734   4.558   7.318
 6936SOL     OW21151   2.547   4.736   6.251
 6936SOL    HW121152   2.616   4.720   6.321
 6936SOL    HW221153   2.474   4.793   6.289
 6937SOL     OW21154   2.548   4.885   7.389
 6937SOL    HW121155   2.608   4.964   7.403
 6937SOL    HW221156   2.462   4.916   7.348
 6938SOL     OW21157   2.197   5.159   6.647
 6938SOL    HW121158   2.119   5.128   6.594
 6938SOL    HW221159   2.255   5.217   6.590
 6939SOL     OW21160   3.322   5.229   6.925
 6939SOL    HW121161   3.346   5.323   6.951
 6939SOL    HW221162   3.306   5.175   7.007
 6940SOL     OW21163   2.300   4.116   7.085
 6940SOL    HW121164   2.382   4.060   7.094
 6940SOL    HW221165   2.219   4.058   7.089
 6941SOL     OW21166   3.465   4.171   6.323
 6941SOL    HW121167   3.391   4.217   6.273
 6941SOL    HW221168   3.516   4.239   6.376
 6942SOL     OW21169   2.093   5.437   6.069
 6942SOL    HW121170   2.127   5.514   6.123
 6942SOL    HW221171   2.137   5.437   5.979
 6943SOL     OW21172   2.989   5.065   7.276
 6943SOL    HW121173   3.036   5.065   7.364
 6943SOL    HW221174   2.941   4.978   7.265
 6944SOL     OW21175   2.092   5.158   6.124
 6944SOL    HW121176   2.066   5.254   6.124
 6944SOL    HW221177   2.021   5.104   6.169
 6945SOL     OW21178   2.102   4.815   6.472
 6945SOL    HW121179   2.116   4.731   6.524
 6945SOL    HW221180   2.047   4.879   6.527
 6946SOL     OW21181   2.482   5.510   7.025
 6946SOL    HW121182   2.390   5.493   7.060
 6946SOL    HW221183   2.510   5.602   7.051
 6947SOL     OW21184   2.468   4.688   5.709
 6947SOL    HW121185   2.475   4.772   5.655
 6947SOL    HW221186   2.514   4.701   5.797
 6948SOL     OW21187   3.456   3.838   7.066
 6948SOL    HW121188   3.438   3.905   6.994
 6948SOL    HW221189   3.453   3.884   7.155
 6949SOL     OW21190   1.984   4.367   6.149
 6949SOL    HW121191   1.939   4.279   6.166
 6949SOL    HW221192   1.983   4.421   6.233
 6950SOL     OW21193   3.704   5.491   5.945
 6950SOL    HW121194   3.758   5.462   6.025
 6950SOL    HW221195   3.734   5.581   5.916
 6951SOL     OW21196   1.889   5.320   5.703
 6951SOL    HW121197   1.870   5.224   5.724
 6951SOL    HW221198   1.856   5.378   5.778
 6952SOL     OW21199   3.551   4.646   6.198
 6952SOL    HW121200   3.646   4.617   6.206
 6952SOL    HW221201   3.543   4.711   6.123
 6953SOL     OW21202   3.503   4.832   6.018
 6953SOL    HW121203   3.589   4.834   5.966
 6953SOL    HW221204   3.517   4.879   6.106
 6954SOL     OW21205   1.975   4.461   7.183
 6954SOL    HW121206   2.063   4.448   7.228
 6954SOL    HW221207   1.962   4.558   7.161
 6955SOL     OW21208   2.475   5.089   6.312
 6955SOL    HW121209   2.426   5.002   6.321
 6955SOL    HW221210   2.452   5.132   6.225
 6956SOL     OW21211   3.155   4.952   7.009
 6956SOL    HW121212   3.192   4.879   6.951
 6956SOL    HW221213   3.207   4.957   7.094
 6957SOL     OW21214   2.671   3.728   6.088
 6957SOL    HW121215   2.711   3.819   6.079
 6957SOL    HW221216   2.571   3.736   6.094
 6958SOL     OW21217   2.059   4.700   6.850
 6958SOL    HW121218   2.148   4.655   6.836
 6958SOL    HW221219   1.986   4.635   6.831
 6959SOL     OW21220   3.387   4.723   5.776
 6959SOL    HW121221   3.324   4.647   5.789
 6959SOL    HW221222   3.435   4.741   5.862
 6960SOL     OW21223   3.049   5.516   7.202
 6960SOL    HW121224   3.073   5.576   7.126
 6960SOL    HW221225   3.056   5.421   7.172
 6961SOL     OW21226   2.179   3.975   7.387
 6961SOL    HW121227   2.250   4.046   7.393
 6961SOL    HW221228   2.091   4.014   7.415
 6962SOL     OW21229   3.328   5.141   6.539
 6962SOL    HW121230   3.269   5.147   6.619
 6962SOL    HW221231   3.313   5.053   6.493
 6963SOL     OW21232   3.529   5.438   6.158
 6963SOL    HW121233   3.488   5.415   6.070
 6963SOL    HW221234   3.511   5.364   6.223
 6964SOL     OW21235   2.460   4.453   5.856
 6964SOL    HW121236   2.484   4.522   5.788
 6964SOL    HW221237   2.382   4.486   5.910
 6965SOL     OW21238   3.143   4.069   6.530
 6965SOL    HW121239   3.057   4.019   6.517
 6965SOL    HW221240   3.205   4.015   6.586
 6966SOL     OW21241   3.438   5.386   5.893
 6966SOL    HW121242   3.527   5.432   5.896
 6966SOL    HW221243   3.417   5.362   5.798
 6967SOL     OW21244   2.669   4.329   7.051
 6967SOL    HW121245   2.622   4.326   7.140
 6967SOL    HW221246   2.618   4.274   6.985
 6968SOL     OW21247   3.256   4.193   7.260
 6968SOL    HW121248   3.236   4.236   7.348
 6968SOL    HW221249   3.334   4.131   7.269
 6969SOL     OW21250   2.835   4.614   7.158
 6969SOL    HW121251   2.881   4.530   7.129
 6969SOL    HW221252   2.779   4.648   7.083
 6970SOL     OW21253   2.853   4.134   6.828
 6970SOL    HW121254   2.776   4.168   6.882
 6970SOL    HW221255   2.819   4.083   6.749
 6971SOL     OW21256   2.903   4.425   6.015
 6971SOL    HW121257   2.929   4.421   6.111
 6971SOL    HW221258   2.818   4.374   6.001
 6972SOL     OW21259   1.938   4.535   6.375
 6972SOL    HW121260   2.037   4.523   6.384
 6972SOL    HW221261   1.914   4.630   6.396
 6973SOL     OW21262   1.992   5.545   7.157
 6973SOL    HW121263   1.982   5.530   7.256
 6973SOL    HW221264   1.906   5.581   7.121
 6974SOL     OW21265   2.727   4.072   5.781
 6974SOL    HW121266   2.786   4.135   5.732
 6974SOL    HW221267   2.746   3.978   5.752
 6975SOL     OW21268   3.581   4.309   7.417
 6975SOL    HW121269   3.555   4.398   7.381
 6975SOL    HW221270   3.579   4.241   7.344
 6976SOL     OW21271   3.224   4.868   6.131
 6976SOL    HW121272   3.307   4.839   6.083
 6976SOL    HW221273   3.175   4.935   6.075
 6977SOL     OW21274   2.412   3.920   6.471
 6977SOL    HW121275   2.407   3.915   6.571
 6977SOL    HW221276   2.414   4.016   6.442
 6978SOL     OW21277   2.870   5.180   6.063
 6978SOL    HW121278   2.824   5.252   6.011
 6978SOL    HW221279   2.866   5.200   6.161
 6979SOL     OW21280   2.213   5.525   6.439
 6979SOL    HW121281   2.263   5.439   6.445
 6979SOL    HW221282   2.278   5.602   6.436
 6980SOL     OW21283   3.657   4.790   6.459
 6980SOL    HW121284   3.595   4.775   6.383
 6980SOL    HW221285   3.605   4.801   6.544
 6981SOL     OW21286   3.089   5.274   7.092
 6981SOL    HW121287   3.095   5.197   7.156
 6981SOL    HW221288   3.037   5.248   7.012
 6982SOL     OW21289   2.183   4.667   5.828
 6982SOL    HW121290   2.265   4.706   5.786
 6982SOL    HW221291   2.156   4.585   5.779
 6983SOL     OW21292   3.320   4.459   6.314
 6983SOL    HW121293   3.315   4.394   6.389
 6983SOL    HW221294   3.400   4.518   6.327
 6984SOL     OW21295   2.323   4.990   7.313
 6984SOL    HW121296   2.273   4.991   7.227
 6984SOL    HW221297   2.260   4.972   7.389
 6985SOL     OW21298   2.973   5.500   5.823
 6985SOL    HW121299   2.913   5.438   5.873
 6985SOL    HW221300   3.004   5.456   5.738
 6986SOL     OW21301   2.064   4.009   7.084
 6986SOL    HW121302   1.984   4.069   7.071
 6986SOL    HW221303   2.054   3.960   7.170
 6987SOL     OW21304   3.494   5.101   5.667
 6987SOL    HW121305   3.462   5.195   5.657
 6987SOL    HW221306   3.418   5.038   5.655
 6988SOL     OW21307   2.326   5.467   5.909
 6988SOL    HW121308   2.359   5.506   5.995
 6988SOL    HW221309   2.402   5.460   5.844
 6989SOL     OW21310   3.262   3.831   6.012
 6989SOL    HW121311   3.238   3.794   5.922
 6989SOL    HW221312   3.361   3.847   6.016
 6990SOL     OW21313   2.111   5.509   6.827
 6990SOL    HW121314   2.168   5.444   6.877
 6990SOL    HW221315   2.095   5.476   6.734
 6991SOL     OW21316   2.802   5.422   6.490
 6991SOL    HW121317   2.882   5.365   6.511
 6991SOL    HW221318   2.753   5.382   6.413
 6992SOL     OW21319   2.244   4.424   6.066
 6992SOL    HW121320   2.289   4.334   6.063
 6992SOL    HW221321   2.150   4.413   6.099
 6993SOL     OW21322   3.409   3.946   7.315
 6993SOL    HW121323   3.404   3.983   7.407
 6993SOL    HW221324   3.337   3.877   7.303
 6994SOL     OW21325   2.476   3.846   5.703
 6994SOL    HW121326   2.574   3.824   5.710
 6994SOL    HW221327   2.445   3.829   5.610
 6995SOL     OW21328   2.643   3.988   7.335
 6995SOL    HW121329   2.710   3.927   7.378
 6995SOL    HW221330   2.570   4.007   7.400
 6996SOL     OW21331   2.750   5.238   6.781
 6996SOL    HW121332   2.727   5.213   6.687
 6996SOL    HW221333   2.811   5.169   6.820
 6997SOL     OW21334   3.213   4.314   7.019
 6997SOL    HW121335   3.241   4.271   7.104
 6997SOL    HW221336   3.238   4.410   7.020
 6998SOL     OW21337   2.665   5.126   6.510
 6998SOL    HW121338   2.755   5.140   6.468
 6998SOL    HW221339   2.594   5.128   6.439
 6999SOL     OW21340   2.784   4.227   6.485
 6999SOL    HW121341   2.759   4.218   6.389
 6999SOL    HW221342   2.832   4.145   6.516
 7000SOL     OW21343   2.401   3.788   6.098
 7000SOL    HW121344   2.320   3.789   6.156
 7000SOL    HW221345   2.404   3.871   6.043
 7001SOL     OW21346   3.296   4.912   5.627
 7001SOL    HW121347   3.328   4.836   5.684
 7001SOL    HW221348   3.204   4.939   5.657
 7002SOL     OW21349   2.159   3.759   5.757
 7002SOL    HW121350   2.208   3.843   5.736
 7002SOL    HW221351   2.221   3.694   5.802
 7003SOL     OW21352   2.797   3.960   6.066
 7003SOL    HW121353   2.749   4.001   5.988
 7003SOL    HW221354   2.896   3.958   6.047
 7004SOL     OW21355   2.938   4.407   7.050
 7004SOL    HW121356   2.858   4.346   7.053
 7004SOL    HW221357   3.019   4.354   7.026
 7005SOL     OW21358   3.089   5.294   6.379
 7005SOL    HW121359   3.110   5.368   6.314
 7005SOL    HW221360   3.157   5.294   6.452
 7006SOL     OW21361   2.321   4.876   6.327
 7006SOL    HW121362   2.250   4.849   6.392
 7006SOL    HW221363   2.295   4.848   6.234
 7007SOL     OW21364   3.133   5.521   6.177
 7007SOL    HW121365   3.177   5.585   6.113
 7007SOL    HW221366   3.083   5.573   6.247
 7008SOL     OW21367   2.894   4.273   5.602
 7008SOL    HW121368   2.853   4.355   5.563
 7008SOL    HW221369   2.958   4.299   5.675
 7009SOL     OW21370   1.940   4.280   6.972
 7009SOL    HW121371   2.032   4.279   6.931
 7009SOL    HW221372   1.934   4.354   7.039
 7010SOL     OW21373   2.423   3.946   6.733
 7010SOL    HW121374   2.461   3.862   6.770
 7010SOL    HW221375   2.335   3.965   6.777
 7011SOL     OW21376   2.728   4.178   6.228
 7011SOL    HW121377   2.696   4.250   6.166
 7011SOL    HW221378   2.752   4.097   6.175
 7012SOL     OW21379   2.879   3.763   6.339
 7012SOL    HW121380   2.807   3.768   6.270
 7012SOL    HW221381   2.855   3.694   6.408
 7013SOL     OW21382   3.291   4.897   6.453
 7013SOL    HW121383   3.236   4.813   6.446
 7013SOL    HW221384   3.317   4.926   6.361
 7014SOL     OW21385   3.328   4.314   6.578
 7014SOL    HW121386   3.298   4.219   6.585
 7014SOL    HW221387   3.401   4.330   6.644
 7015SOL     OW21388   3.719   4.557   5.963
 7015SOL    HW121389   3.761   4.493   6.027
 7015SOL    HW221390   3.681   4.506   5.885
 7016SOL     OW21391   2.350   5.109   5.760
 7016SOL    HW121392   2.263   5.094   5.807
 7016SOL    HW221393   2.333   5.135   5.665
 7017SOL     OW21394   3.526   5.004   6.243
 7017SOL    HW121395   3.625   5.012   6.257
 7017SOL    HW221396   3.481   5.088   6.274
 7018SOL     OW21397   3.252   4.299   5.664
 7018SOL    HW121398   3.198   4.278   5.745
 7018SOL    HW221399   3.343   4.258   5.673
 7019SOL     OW21400   2.389   3.980   5.914
 7019SOL    HW121401   2.416   3.921   5.839
 7019SOL    HW221402   2.389   4.075   5.883
 7020SOL     OW21403   3.616   4.947   7.174
 7020SOL    HW121404   3.707   4.908   7.161
 7020SOL    HW221405   3.624   5.043   7.198
 7021SOL     OW21406   2.926   5.071   6.926
 7021SOL    HW121407   2.846   5.048   6.981
 7021SOL    HW221408   3.009   5.045   6.975
 7022SOL     OW21409   3.454   5.353   7.211
 7022SOL    HW121410   3.481   5.387   7.121
 7022SOL    HW221411   3.533   5.315   7.257
 7023SOL     OW21412   2.973   4.919   6.686
 7023SOL    HW121413   2.933   4.963   6.767
 7023SOL    HW221414   2.932   4.956   6.603
 7024SOL     OW21415   3.500   4.823   6.665
 7024SOL    HW121416   3.505   4.904   6.724
 7024SOL    HW221417   3.414   4.825   6.614
 7025SOL     OW21418   2.777   3.813   6.988
 7025SOL    HW121419   2.802   3.793   6.893
 7025SOL    HW221420   2.849   3.869   7.030
 7026SOL     OW21421   2.842   4.840   7.305
 7026SOL    HW121422   2.743   4.846   7.315
 7026SOL    HW221423   2.865   4.760   7.249
 7027SOL     OW21424   2.567   4.774   5.954
 7027SOL    HW121425   2.553   4.781   6.053
 7027SOL    HW221426   2.651   4.723   5.936
 7028SOL     OW21427   2.272   4.537   6.837
 7028SOL    HW121428   2.358   4.549   6.887
 7028SOL    HW221429   2.230   4.450   6.864
 7029SOL     OW21430   3.136   4.110   6.848
 7029SOL    HW121431   3.157   4.184   6.912
 7029SOL    HW221432   3.047   4.127   6.805
 7030SOL     OW21433   1.926   5.288   6.917
 7030SOL    HW121434   1.880   5.370   6.883
 7030SOL    HW221435   2.024   5.307   6.926
 7031SOL     OW21436   2.229   4.824   6.087
 7031SOL    HW121437   2.222   4.907   6.031
 7031SOL    HW221438   2.233   4.744   6.027
 7032SOL     OW21439   2.428   4.261   6.451
 7032SOL    HW121440   2.440   4.327   6.377
 7032SOL    HW221441   2.474   4.295   6.534
 7033SOL     OW21442   3.114   5.072   5.974
 7033SOL    HW121443   3.164   5.149   6.014
 7033SOL    HW221444   3.019   5.074   6.006
 7034SOL     OW21445   3.134   5.169   6.728
 7034SOL    HW121446   3.181   5.182   6.815
 7034SOL    HW221447   3.068   5.095   6.737
 7035SOL     OW21448   3.444   4.363   6.058
 7035SOL    HW121449   3.413   4.424   6.131
 7035SOL    HW221450   3.494   4.415   5.989
 7036SOL     OW21451   2.216   5.234   6.915
 7036SOL    HW121452   2.195   5.190   6.828
 7036SOL    HW221453   2.313   5.260   6.918
 7037SOL     OW21454   2.264   4.475   7.184
 7037SOL    HW121455   2.332   4.530   7.137
 7037SOL    HW221456   2.304   4.387   7.211
 7038SOL     OW21457   3.449   4.503   7.256
 7038SOL    HW121458   3.357   4.541   7.251
 7038SOL    HW221459   3.509   4.550   7.191
 7039SOL     OW21460   2.875   3.829   7.356
 7039SOL    HW121461   2.881   3.914   7.304
 7039SOL    HW221462   2.907   3.753   7.299
 7040SOL     OW21463   2.366   3.774   7.326
 7040SOL    HW121464   2.324   3.717   7.256
 7040SOL    HW221465   2.300   3.843   7.358
 7041SOL     OW21466   2.435   4.594   6.615
 7041SOL    HW121467   2.479   4.683   6.606
 7041SOL    HW221468   2.372   4.594   6.692
 7042SOL     OW21469   3.222   4.586   6.631
 7042SOL    HW121470   3.147   4.586   6.565
 7042SOL    HW221471   3.259   4.494   6.640
 7043SOL     OW21472   3.071   4.249   5.861
 7043SOL    HW121473   3.084   4.165   5.915
 7043SOL    HW221474   3.042   4.323   5.921
 7044SOL     OW21475   2.169   3.937   6.817
 7044SOL    HW121476   2.146   3.974   6.907
 7044SOL    HW221477   2.139   3.842   6.811
 7045SOL     OW21478   1.899   5.034   6.868
 7045SOL    HW121479   1.952   4.985   6.936
 7045SOL    HW221480   1.921   5.132   6.873
 7046SOL     OW21481   2.594   4.358   6.650
 7046SOL    HW121482   2.653   4.332   6.574
 7046SOL    HW221483   2.566   4.454   6.639
 7047SOL     OW21484   3.590   4.659   7.440
 7047SOL    HW121485   3.544   4.652   7.351
 7047SOL    HW221486   3.528   4.703   7.506
 7048SOL     OW21487   2.169   3.787   6.204
 7048SOL    HW121488   2.158   3.881   6.237
 7048SOL    HW221489   2.164   3.724   6.281
 7049SOL     OW21490   3.484   4.091   5.960
 7049SOL    HW121491   3.486   4.015   6.024
 7049SOL    HW221492   3.436   4.168   6.000
 7050SOL     OW21493   2.885   4.490   6.552
 7050SOL    HW121494   2.900   4.511   6.648
 7050SOL    HW221495   2.855   4.395   6.543
 7051SOL     OW21496   2.842   5.297   7.286
 7051SOL    HW121497   2.822   5.341   7.198
 7051SOL    HW221498   2.881   5.206   7.270
 7052SOL     OW21499   3.721   5.242   7.191
 7052SOL    HW121500   3.735   5.269   7.096
 7052SOL    HW221501   3.804   5.264   7.244
 7053SOL     OW21502   2.212   4.622   7.390
 7053SOL    HW121503   2.288   4.666   7.438
 7053SOL    HW221504   2.247   4.575   7.308
 7054SOL     OW21505   3.402   3.998   5.711
 7054SOL    HW121506   3.341   3.923   5.734
 7054SOL    HW221507   3.424   4.050   5.794
 7055SOL     OW21508   3.165   4.562   5.628
 7055SOL    HW121509   3.199   4.469   5.643
 7055SOL    HW221510   3.183   4.589   5.533
 7056SOL     OW21511   2.930   5.057   6.435
 7056SOL    HW121512   2.937   4.973   6.380
 7056SOL    HW221513   2.992   5.126   6.399
 7057SOL     OW21514   2.181   4.534   6.535
 7057SOL    HW121515   2.274   4.570   6.540
 7057SOL    HW221516   2.175   4.449   6.587
 7058SOL     OW21517   2.201   4.233   6.592
 7058SOL    HW121518   2.149   4.150   6.575
 7058SOL    HW221519   2.278   4.238   6.528
 7059SOL     OW21520   3.000   4.104   7.264
 7059SOL    HW121521   2.955   4.167   7.328
 7059SOL    HW221522   3.093   4.135   7.247
 7060SOL     OW21523   3.022   3.931   7.063
 7060SOL    HW121524   3.022   3.995   7.140
 7060SOL    HW221525   3.050   3.979   6.980
 7061SOL     OW21526   1.870   5.050   5.786
 7061SOL    HW121527   1.777   5.071   5.755
 7061SOL    HW221528   1.880   4.951   5.799
 7062SOL     OW21529   1.950   5.525   6.513
 7062SOL    HW121530   1.908   5.439   6.486
 7062SOL    HW221531   2.044   5.528   6.479
 7063SOL     OW21532   2.366   5.292   6.496
 7063SOL    HW121533   2.432   5.366   6.505
 7063SOL    HW221534   2.410   5.213   6.454
 7064SOL     OW21535   2.864   4.520   6.824
 7064SOL    HW121536   2.905   4.488   6.910
 7064SOL    HW221537   2.768   4.493   6.821
 7065SOL     OW21538   1.902   4.268   6.700
 7065SOL    HW121539   1.987   4.235   6.659
 7065SOL    HW221540   1.915   4.283   6.798
 7066SOL     OW21541   2.051   4.244   7.308
 7066SOL    HW121542   2.110   4.204   7.238
 7066SOL    HW221543   1.993   4.315   7.267
 7067SOL     OW21544   3.231   4.674   7.246
 7067SOL    HW121545   3.270   4.763   7.266
 7067SOL    HW221546   3.241   4.654   7.149
 7068SOL     OW21547   2.677   4.296   5.911
 7068SOL    HW121548   2.684   4.207   5.865
 7068SOL    HW221549   2.583   4.330   5.903
 7069SOL     OW21550   3.519   4.328   6.792
 7069SOL    HW121551   3.481   4.259   6.854
 7069SOL    HW221552   3.601   4.292   6.748
 7070SOL     OW21553   2.114   5.288   7.330
 7070SOL    HW121554   2.084   5.345   7.406
 7070SOL    HW221555   2.107   5.191   7.356
 7071SOL     OW21556   2.533   4.188   6.855
 7071SOL    HW121557   2.499   4.099   6.825
 7071SOL    HW221558   2.559   4.242   6.775
 7072SOL     OW21559   2.792   5.402   7.051
 7072SOL    HW121560   2.768   5.384   6.956
 7072SOL    HW221561   2.822   5.496   7.061
 7073SOL     OW21562   2.335   4.224   5.777
 7073SOL    HW121563   2.396   4.304   5.781
 7073SOL    HW221564   2.240   4.255   5.784
 7074SOL     OW21565   2.021   4.861   7.052
 7074SOL    HW121566   2.043   4.800   7.128
 7074SOL    HW221567   2.031   4.812   6.966
 7075SOL     OW21568   3.209   4.783   6.820
 7075SOL    HW121569   3.233   4.720   6.746
 7075SOL    HW221570   3.119   4.823   6.802
 7076SOL     OW21571   3.164   4.579   5.895
 7076SOL    HW121572   3.078   4.548   5.937
 7076SOL    HW221573   3.160   4.565   5.796
 7077SOL     OW21574   3.621   5.471   6.740
 7077SOL    HW121575   3.682   5.501   6.667
 7077SOL    HW221576   3.583   5.382   6.718
 7078SOL     OW21577   3.114   5.455   6.714
 7078SOL    HW121578   3.198   5.460   6.660
 7078SOL    HW221579   3.091   5.359   6.732
 7079SOL     OW21580   1.945   4.982   6.608
 7079SOL    HW121581   1.940   4.981   6.708
 7079SOL    HW221582   1.862   4.941   6.570
 7080SOL     OW21583   2.550   5.386   7.302
 7080SOL    HW121584   2.494   5.467   7.311
 7080SOL    HW221585   2.602   5.390   7.216
 7081SOL     OW21586   3.588   3.859   6.109
 7081SOL    HW121587   3.661   3.842   6.042
 7081SOL    HW221588   3.557   3.772   6.147
 7082SOL     OW21589   3.250   5.297   6.063
 7082SOL    HW121590   3.317   5.309   5.989
 7082SOL    HW221591   3.210   5.386   6.086
 7083SOL     OW21592   1.992   5.518   7.437
 7083SOL    HW121593   1.951   5.444   7.490
 7083SOL    HW221594   2.056   5.569   7.495
 7084SOL     OW21595   3.142   4.651   6.258
 7084SOL    HW121596   3.202   4.570   6.260
 7084SOL    HW221597   3.182   4.720   6.198
 7085SOL     OW21598   2.692   4.997   7.008
 7085SOL    HW121599   2.687   5.030   7.103
 7085SOL    HW221600   2.606   5.016   6.962
 7086SOL     OW21601   2.534   5.340   5.740
 7086SOL    HW121602   2.543   5.350   5.641
 7086SOL    HW221603   2.494   5.251   5.761
 7087SOL     OW21604   3.512   5.444   6.980
 7087SOL    HW121605   3.565   5.454   6.896
 7087SOL    HW221606   3.485   5.534   7.014
 7088SOL     OW21607   3.703   3.899   6.549
 7088SOL    HW121608   3.742   3.814   6.513
 7088SOL    HW221609   3.605   3.901   6.530
 7089SOL     OW21610   2.125   4.050   6.306
 7089SOL    HW121611   2.046   4.101   6.272
 7089SOL    HW221612   2.116   4.035   6.404
 7090SOL     OW21613   3.056   5.336   5.617
 7090SOL    HW121614   3.062   5.243   5.654
 7090SOL    HW221615   2.997   5.336   5.537
 7091SOL     OW21616   2.684   4.726   6.958
 7091SOL    HW121617   2.724   4.725   6.866
 7091SOL    HW221618   2.694   4.818   6.998
 7092SOL     OW21619   2.778   4.634   5.877
 7092SOL    HW121620   2.841   4.672   5.809
 7092SOL    HW221621   2.818   4.551   5.916
 7093SOL     OW21622   3.366   5.331   5.630
 7093SOL    HW121623   3.274   5.368   5.637
 7093SOL    HW221624   3.404   5.351   5.540
 7094SOL     OW21625   2.234   5.012   7.076
 7094SOL    HW121626   2.221   5.105   7.042
 7094SOL    HW221627   2.150   4.960   7.063
 7095SOL     OW21628   3.476   5.016   6.875
 7095SOL    HW121629   3.536   5.019   6.955
 7095SOL    HW221630   3.401   5.080   6.888
 7096SOL     OW21631   2.901   4.822   6.282
 7096SOL    HW121632   2.831   4.775   6.336
 7096SOL    HW221633   2.960   4.754   6.239
 7097SOL     OW21634   2.876   3.960   6.557
 7097SOL    HW121635   2.868   3.924   6.464
 7097SOL    HW221636   2.874   3.884   6.622
 7098SOL     OW21637   2.452   5.211   6.077
 7098SOL    HW121638   2.494   5.153   6.007
 7098SOL    HW221639   2.408   5.290   6.033
 7099SOL     OW21640   3.571   4.109   6.967
 7099SOL    HW121641   3.644   4.178   6.971
 7099SOL    HW221642   3.599   4.034   6.908
 7100SOL     OW21643   2.117   5.072   5.876
 7100SOL    HW121644   2.021   5.073   5.849
 7100SOL    HW221645   2.129   5.125   5.960
 7101SOL     OW21646   1.967   4.737   7.312
 7101SOL    HW121647   1.890   4.704   7.366
 7101SOL    HW221648   2.052   4.707   7.354
 7102SOL     OW21649   2.534   3.927   7.075
 7102SOL    HW121650   2.624   3.911   7.035
 7102SOL    HW221651   2.542   3.932   7.174
 7103SOL     OW21652   1.937   4.069   5.619
 7103SOL    HW121653   1.845   4.041   5.590
 7103SOL    HW221654   1.968   4.146   5.563
 7104SOL     OW21655   3.302   4.580   6.984
 7104SOL    HW121656   3.245   4.632   6.921
 7104SOL    HW221657   3.398   4.592   6.960
 7105SOL     OW21658   1.934   3.890   5.904
 7105SOL    HW121659   1.917   3.973   5.850
 7105SOL    HW221660   2.024   3.853   5.882
 7106SOL     OW21661   3.045   5.059   5.705
 7106SOL    HW121662   2.946   5.048   5.707
 7106SOL    HW221663   3.079   5.074   5.798
 7107SOL     OW21664   2.475   4.566   7.017
 7107SOL    HW121665   2.531   4.647   7.000
 7107SOL    HW221666   2.534   4.486   7.020
 7108SOL     OW21667   3.355   5.491   6.545
 7108SOL    HW121668   3.388   5.555   6.476
 7108SOL    HW221669   3.421   5.485   6.620
 7109SOL     OW21670   2.578   4.289   7.294
 7109SOL    HW121671   2.597   4.354   7.368
 7109SOL    HW221672   2.638   4.209   7.303
 7110SOL     OW21673   3.312   4.944   7.219
 7110SOL    HW121674   3.303   4.934   7.318
 7110SOL    HW221675   3.408   4.937   7.193
 7111SOL     OW21676   2.252   5.465   7.146
 7111SOL    HW121677   2.161   5.506   7.144
 7111SOL    HW221678   2.245   5.371   7.178
 7112SOL     OW21679   3.536   4.607   6.840
 7112SOL    HW121680   3.509   4.518   6.803
 7112SOL    HW221681   3.537   4.675   6.767
 7113SOL     OW21682   3.087   4.049   6.035
 7113SOL    HW121683   3.152   3.975   6.024
 7113SOL    HW221684   3.107   4.099   6.119
 7114SOL     OW21685   2.456   4.469   6.238
 7114SOL    HW121686   2.506   4.554   6.219
 7114SOL    HW221687   2.368   4.471   6.190
 7115SOL     OW21688   3.639   4.066   7.228
 7115SOL    HW121689   3.622   4.097   7.134
 7115SOL    HW221690   3.555   4.029   7.266
 7116SOL     OW21691   3.592   4.658   7.103
 7116SOL    HW121692   3.630   4.749   7.118
 7116SOL    HW221693   3.584   4.641   7.004
 7117SOL     OW21694   2.721   5.098   5.602
 7117SOL    HW121695   2.675   5.113   5.690
 7117SOL    HW221696   2.765   5.183   5.572
 7118SOL     OW21697   2.523   5.514   6.539
 7118SOL    HW121698   2.477   5.602   6.526
 7118SOL    HW221699   2.622   5.526   6.532
 7119SOL     OW21700   2.721   4.680   6.447
 7119SOL    HW121701   2.775   4.611   6.495
 7119SOL    HW221702   2.689   4.749   6.513
 7120SOL     OW21703   2.945   4.708   5.673
 7120SOL    HW121704   2.922   4.761   5.591
 7120SOL    HW221705   3.026   4.652   5.654
 7121SOL     OW21706   3.723   5.293   6.437
 7121SOL    HW121707   3.652   5.281   6.367
 7121SOL    HW221708   3.724   5.214   6.497
 7122SOL     OW21709   2.083   5.038   7.430
 7122SOL    HW121710   2.018   4.965   7.409
 7122SOL    HW221711   2.087   5.052   7.528
 7123SOL     OW21712   1.941   4.964   6.239
 7123SOL    HW121713   1.940   4.917   6.327
 7123SOL    HW221714   2.023   4.936   6.188
 7124SOL     OW21715   2.534   5.115   7.210
 7124SOL    HW121716   2.456   5.065   7.248
 7124SOL    HW221717   2.531   5.210   7.241
 7125SOL     OW21718   3.686   3.916   6.813
 7125SOL    HW121719   3.682   3.826   6.857
 7125SOL    HW221720   3.689   3.905   6.714
 7126SOL     OW21721   2.290   4.148   6.106
 7126SOL    HW121722   2.320   4.076   6.044
 7126SOL    HW221723   2.251   4.108   6.189
 7127SOL     OW21724   3.567   5.211   6.690
 7127SOL    HW121725   3.474   5.186   6.663
 7127SOL    HW221726   3.593   5.161   6.772
 7128SOL     OW21727   2.179   4.271   6.866
 7128SOL    HW121728   2.217   4.212   6.938
 7128SOL    HW221729   2.219   4.245   6.778
 7129SOL     OW21730   2.674   5.310   6.273
 7129SOL    HW121731   2.706   5.320   6.179
 7129SOL    HW221732   2.595   5.248   6.275
 7130SOL     OW21733   3.286   3.938   6.698
 7130SOL    HW121734   3.338   3.873   6.753
 7130SOL    HW221735   3.237   4.001   6.759
 7131SOL     OW21736   2.863   3.758   6.740
 7131SOL    HW121737   2.800   3.686   6.709
 7131SOL    HW221738   2.956   3.722   6.740
 7132SOL     OW21739   2.632   5.054   5.887
 7132SOL    HW121740   2.586   4.967   5.904
 7132SOL    HW221741   2.723   5.051   5.928
 7133SOL     OW21742   2.480   5.291   6.870
 7133SOL    HW121743   2.475   5.373   6.927
 7133SOL    HW221744   2.569   5.288   6.825
 7134SOL     OW21745   3.214   3.776   5.754
 7134SOL    HW121746   3.249   3.735   5.670
 7134SOL    HW221747   3.124   3.738   5.774
 7135SOL     OW21748   3.162   4.177   6.277
 7135SOL    HW121749   3.103   4.257   6.281
 7135SOL    HW221750   3.177   4.142   6.370
 7136SOL     OW21751   3.455   3.945   6.468
 7136SOL    HW121752   3.371   3.944   6.522
 7136SOL    HW221753   3.457   4.028   6.412
 7137SOL     OW21754   1.901   4.801   5.886
 7137SOL    HW121755   2.000   4.790   5.877
 7137SOL    HW221756   1.861   4.715   5.918
 7138SOL     OW21757   2.737   5.370   5.923
 7138SOL    HW121758   2.660   5.335   5.869
 7138SOL    HW221759   2.705   5.441   5.985
 7139SOL     OW21760   2.092   4.352   7.561
 7139SOL    HW121761   1.999   4.350   7.598
 7139SOL    HW221762   2.093   4.313   7.469
 7140SOL     OW21763   2.093   5.437   7.931
 7140SOL    HW121764   2.127   5.514   7.985
 7140SOL    HW221765   2.137   5.437   7.841
 7141SOL     OW21766   2.468   4.688   7.571
 7141SOL    HW121767   2.475   4.772   7.517
 7141SOL    HW221768   2.514   4.701   7.659
 7142SOL     OW21769   3.704   5.491   7.807
 7142SOL    HW121770   3.758   5.462   7.887
 7142SOL    HW221771   3.734   5.581   7.778
 7143SOL     OW21772   1.889   5.320   7.565
 7143SOL    HW121773   1.870   5.224   7.586
 7143SOL    HW221774   1.856   5.378   7.640
 7144SOL     OW21775   3.503   4.832   7.880
 7144SOL    HW121776   3.589   4.834   7.828
 7144SOL    HW221777   3.517   4.879   7.968
 7145SOL     OW21778   2.671   3.728   7.950
 7145SOL    HW121779   2.711   3.819   7.941
 7145SOL    HW221780   2.571   3.736   7.956
 7146SOL     OW21781   3.387   4.723   7.638
 7146SOL    HW121782   3.324   4.647   7.651
 7146SOL    HW221783   3.435   4.741   7.724
 7147SOL     OW21784   3.529   5.438   8.020
 7147SOL    HW121785   3.488   5.415   7.932
 7147SOL    HW221786   3.511   5.364   8.085
 7148SOL     OW21787   2.460   4.453   7.718
 7148SOL    HW121788   2.484   4.522   7.650
 7148SOL    HW221789   2.382   4.486   7.772
 7149SOL     OW21790   3.438   5.386   7.755
 7149SOL    HW121791   3.527   5.432   7.758
 7149SOL    HW221792   3.417   5.362   7.660
 7150SOL     OW21793   2.903   4.425   7.877
 7150SOL    HW121794   2.929   4.421   7.973
 7150SOL    HW221795   2.818   4.374   7.863
 7151SOL     OW21796   2.727   4.072   7.643
 7151SOL    HW121797   2.786   4.135   7.594
 7151SOL    HW221798   2.746   3.978   7.614
 7152SOL     OW21799   3.224   4.868   7.993
 7152SOL    HW121800   3.307   4.839   7.945
 7152SOL    HW221801   3.175   4.935   7.937
 7153SOL     OW21802   2.870   5.180   7.925
 7153SOL    HW121803   2.824   5.252   7.873
 7153SOL    HW221804   2.866   5.200   8.023
 7154SOL     OW21805   2.183   4.667   7.690
 7154SOL    HW121806   2.265   4.706   7.648
 7154SOL    HW221807   2.156   4.585   7.641
 7155SOL     OW21808   2.973   5.500   7.685
 7155SOL    HW121809   2.913   5.438   7.735
 7155SOL    HW221810   3.004   5.456   7.600
 7156SOL     OW21811   3.494   5.101   7.529
 7156SOL    HW121812   3.462   5.195   7.519
 7156SOL    HW221813   3.418   5.038   7.517
 7157SOL     OW21814   2.326   5.467   7.771
 7157SOL    HW121815   2.359   5.506   7.857
 7157SOL    HW221816   2.402   5.460   7.706
 7158SOL     OW21817   2.244   4.424   7.928
 7158SOL    HW121818   2.289   4.334   7.925
 7158SOL    HW221819   2.150   4.413   7.961
 7159SOL     OW21820   2.476   3.846   7.565
 7159SOL    HW121821   2.574   3.824   7.572
 7159SOL    HW221822   2.445   3.829   7.472
 7160SOL     OW21823   2.401   3.788   7.960
 7160SOL    HW121824   2.320   3.789   8.018
 7160SOL    HW221825   2.404   3.871   7.905
 7161SOL     OW21826   3.296   4.912   7.489
 7161SOL    HW121827   3.328   4.836   7.546
 7161SOL    HW221828   3.204   4.939   7.519
 7162SOL     OW21829   2.159   3.759   7.619
 7162SOL    HW121830   2.208   3.843   7.598
 7162SOL    HW221831   2.221   3.694   7.664
 7163SOL     OW21832   2.797   3.960   7.928
 7163SOL    HW121833   2.749   4.001   7.850
 7163SOL    HW221834   2.896   3.958   7.909
 7164SOL     OW21835   2.894   4.273   7.464
 7164SOL    HW121836   2.853   4.355   7.425
 7164SOL    HW221837   2.958   4.299   7.537
 7165SOL     OW21838   2.350   5.109   7.622
 7165SOL    HW121839   2.263   5.094   7.669
 7165SOL    HW221840   2.333   5.135   7.527
 7166SOL     OW21841   3.252   4.299   7.526
 7166SOL    HW121842   3.198   4.278   7.607
 7166SOL    HW221843   3.343   4.258   7.535
 7167SOL     OW21844   2.389   3.980   7.776
 7167SOL    HW121845   2.416   3.921   7.701
 7167SOL    HW221846   2.389   4.075   7.745
 7168SOL     OW21847   2.567   4.774   7.816
 7168SOL    HW121848   2.553   4.781   7.915
 7168SOL    HW221849   2.651   4.723   7.798
 7169SOL     OW21850   2.229   4.824   7.949
 7169SOL    HW121851   2.222   4.907   7.893
 7169SOL    HW221852   2.233   4.744   7.889
 7170SOL     OW21853   3.114   5.072   7.836
 7170SOL    HW121854   3.164   5.149   7.876
 7170SOL    HW221855   3.019   5.074   7.868
 7171SOL     OW21856   3.402   3.998   7.573
 7171SOL    HW121857   3.341   3.923   7.596
 7171SOL    HW221858   3.424   4.050   7.656
 7172SOL     OW21859   3.165   4.562   7.490
 7172SOL    HW121860   3.199   4.469   7.505
 7172SOL    HW221861   3.183   4.589   7.395
 7173SOL     OW21862   1.870   5.050   7.648
 7173SOL    HW121863   1.777   5.071   7.617
 7173SOL    HW221864   1.880   4.951   7.661
 7174SOL     OW21865   2.677   4.296   7.773
 7174SOL    HW121866   2.684   4.207   7.727
 7174SOL    HW221867   2.583   4.330   7.765
 7175SOL     OW21868   2.335   4.224   7.639
 7175SOL    HW121869   2.396   4.304   7.643
 7175SOL    HW221870   2.240   4.255   7.646
 7176SOL     OW21871   3.250   5.297   7.925
 7176SOL    HW121872   3.317   5.309   7.851
 7176SOL    HW221873   3.210   5.386   7.948
 7177SOL     OW21874   2.534   5.340   7.602
 7177SOL    HW121875   2.543   5.350   7.503
 7177SOL    HW221876   2.494   5.251   7.623
 7178SOL     OW21877   3.056   5.336   7.479
 7178SOL    HW121878   3.062   5.243   7.516
 7178SOL    HW221879   2.997   5.336   7.399
 7179SOL     OW21880   2.778   4.634   7.739
 7179SOL    HW121881   2.841   4.672   7.671
 7179SOL    HW221882   2.818   4.551   7.778
 7180SOL     OW21883   3.366   5.331   7.492
 7180SOL    HW121884   3.274   5.368   7.499
 7180SOL    HW221885   3.404   5.351   7.402
 7181SOL     OW21886   2.452   5.211   7.939
 7181SOL    HW121887   2.494   5.153   7.869
 7181SOL    HW221888   2.408   5.290   7.895
 7182SOL     OW21889   2.117   5.072   7.738
 7182SOL    HW121890   2.021   5.073   7.711
 7182SOL    HW221891   2.129   5.125   7.822
 7183SOL     OW21892   1.937   4.069   7.481
 7183SOL    HW121893   1.845   4.041   7.452
 7183SOL    HW221894   1.968   4.146   7.425
 7184SOL     OW21895   1.934   3.890   7.766
 7184SOL    HW121896   1.917   3.973   7.712
 7184SOL    HW221897   2.024   3.853   7.744
 7185SOL     OW21898   3.045   5.059   7.567
 7185SOL    HW121899   2.946   5.048   7.569
 7185SOL    HW221900   3.079   5.074   7.660
 7186SOL     OW21901   2.721   5.098   7.464
 7186SOL    HW121902   2.675   5.113   7.552
 7186SOL    HW221903   2.765   5.183   7.434
 7187SOL     OW21904   2.945   4.708   7.535
 7187SOL    HW121905   2.922   4.761   7.453
 7187SOL    HW221906   3.026   4.652   7.516
 7188SOL     OW21907   2.290   4.148   7.968
 7188SOL    HW121908   2.320   4.076   7.906
 7188SOL    HW221909   2.251   4.108   8.051
 7189SOL     OW21910   2.632   5.054   7.749
 7189SOL    HW121911   2.586   4.967   7.766
 7189SOL    HW221912   2.723   5.051   7.790
 7190SOL     OW21913   3.214   3.776   7.616
 7190SOL    HW121914   3.249   3.735   7.532
 7190SOL    HW221915   3.124   3.738   7.636
 7191SOL     OW21916   1.901   4.801   7.748
 7191SOL    HW121917   2.000   4.790   7.739
 7191SOL    HW221918   1.861   4.715   7.780
 7192SOL     OW21919   2.737   5.370   7.785
 7192SOL    HW121920   2.660   5.335   7.731
 7192SOL    HW221921   2.705   5.441   7.847
 7193SOL     OW21922   2.092   6.214   0.113
 7193SOL    HW121923   1.999   6.212   0.150
 7193SOL    HW221924   2.093   6.175   0.021
 7194SOL     OW21925   2.087   5.861   0.996
 7194SOL    HW121926   2.122   5.844   1.088
 7194SOL    HW221927   1.999   5.816   0.984
 7195SOL     OW21928   1.881   5.954   0.647
 7195SOL    HW121929   1.799   5.997   0.686
 7195SOL    HW221930   1.853   5.881   0.584
 7196SOL     OW21931   2.431   6.861   1.165
 7196SOL    HW121932   2.338   6.854   1.128
 7196SOL    HW221933   2.442   6.950   1.209
 7197SOL     OW21934   3.417   7.097   0.703
 7197SOL    HW121935   3.360   7.081   0.784
 7197SOL    HW221936   3.358   7.107   0.623
 7198SOL     OW21937   2.997   6.289   0.717
 7198SOL    HW121938   3.054   6.367   0.692
 7198SOL    HW221939   2.937   6.315   0.793
 7199SOL     OW21940   3.617   6.193   0.231
 7199SOL    HW121941   3.605   6.180   0.132
 7199SOL    HW221942   3.587   6.112   0.280
 7200SOL     OW21943   2.630   6.730   1.023
 7200SOL    HW121944   2.552   6.747   1.083
 7200SOL    HW221945   2.664   6.817   0.987
 7201SOL     OW21946   2.712   6.384   1.823
 7201SOL    HW121947   2.708   6.460   1.888
 7201SOL    HW221948   2.734   6.420   1.732
 7202SOL     OW21949   2.547   6.598   0.665
 7202SOL    HW121950   2.616   6.582   0.735
 7202SOL    HW221951   2.474   6.655   0.703
 7203SOL     OW21952   2.548   6.747   1.803
 7203SOL    HW121953   2.608   6.826   1.817
 7203SOL    HW221954   2.462   6.778   1.762
 7204SOL     OW21955   2.197   7.021   1.061
 7204SOL    HW121956   2.119   6.990   1.008
 7204SOL    HW221957   2.255   7.079   1.004
 7205SOL     OW21958   3.322   7.091   1.339
 7205SOL    HW121959   3.346   7.185   1.365
 7205SOL    HW221960   3.306   7.037   1.421
 7206SOL     OW21961   2.300   5.978   1.499
 7206SOL    HW121962   2.382   5.922   1.508
 7206SOL    HW221963   2.219   5.920   1.503
 7207SOL     OW21964   3.465   6.033   0.737
 7207SOL    HW121965   3.391   6.079   0.687
 7207SOL    HW221966   3.516   6.101   0.790
 7208SOL     OW21967   2.093   7.299   0.483
 7208SOL    HW121968   2.127   7.376   0.537
 7208SOL    HW221969   2.137   7.299   0.393
 7209SOL     OW21970   2.989   6.927   1.690
 7209SOL    HW121971   3.036   6.927   1.778
 7209SOL    HW221972   2.941   6.840   1.679
 7210SOL     OW21973   2.092   7.020   0.538
 7210SOL    HW121974   2.066   7.116   0.538
 7210SOL    HW221975   2.021   6.966   0.583
 7211SOL     OW21976   2.102   6.677   0.886
 7211SOL    HW121977   2.116   6.593   0.938
 7211SOL    HW221978   2.047   6.741   0.941
 7212SOL     OW21979   2.482   7.372   1.439
 7212SOL    HW121980   2.390   7.355   1.474
 7212SOL    HW221981   2.510   7.464   1.465
 7213SOL     OW21982   2.468   6.550   0.123
 7213SOL    HW121983   2.475   6.634   0.069
 7213SOL    HW221984   2.514   6.563   0.211
 7214SOL     OW21985   3.456   5.700   1.480
 7214SOL    HW121986   3.438   5.767   1.408
 7214SOL    HW221987   3.453   5.746   1.569
 7215SOL     OW21988   1.984   6.229   0.563
 7215SOL    HW121989   1.939   6.141   0.580
 7215SOL    HW221990   1.983   6.283   0.647
 7216SOL     OW21991   3.704   7.353   0.359
 7216SOL    HW121992   3.758   7.324   0.439
 7216SOL    HW221993   3.734   7.443   0.330
 7217SOL     OW21994   1.889   7.182   0.117
 7217SOL    HW121995   1.870   7.086   0.138
 7217SOL    HW221996   1.856   7.240   0.192
 7218SOL     OW21997   3.551   6.508   0.612
 7218SOL    HW121998   3.646   6.479   0.620
 7218SOL    HW221999   3.543   6.573   0.537
 7219SOL     OW22000   3.503   6.694   0.432
 7219SOL    HW122001   3.589   6.696   0.380
 7219SOL    HW222002   3.517   6.741   0.520
 7220SOL     OW22003   1.975   6.323   1.597
 7220SOL    HW122004   2.063   6.310   1.642
 7220SOL    HW222005   1.962   6.420   1.575
 7221SOL     OW22006   2.475   6.951   0.726
 7221SOL    HW122007   2.426   6.864   0.735
 7221SOL    HW222008   2.452   6.994   0.639
 7222SOL     OW22009   3.155   6.814   1.423
 7222SOL    HW122010   3.192   6.741   1.365
 7222SOL    HW222011   3.207   6.819   1.508
 7223SOL     OW22012   2.671   5.590   0.502
 7223SOL    HW122013   2.711   5.681   0.493
 7223SOL    HW222014   2.571   5.598   0.508
 7224SOL     OW22015   2.059   6.562   1.264
 7224SOL    HW122016   2.148   6.517   1.250
 7224SOL    HW222017   1.986   6.497   1.245
 7225SOL     OW22018   3.387   6.585   0.190
 7225SOL    HW122019   3.324   6.509   0.203
 7225SOL    HW222020   3.435   6.603   0.276
 7226SOL     OW22021   3.049   7.378   1.616
 7226SOL    HW122022   3.073   7.438   1.540
 7226SOL    HW222023   3.056   7.283   1.586
 7227SOL     OW22024   2.179   5.837   1.801
 7227SOL    HW122025   2.250   5.908   1.807
 7227SOL    HW222026   2.091   5.876   1.829
 7228SOL     OW22027   3.328   7.003   0.953
 7228SOL    HW122028   3.269   7.009   1.033
 7228SOL    HW222029   3.313   6.915   0.907
 7229SOL     OW22030   3.529   7.300   0.572
 7229SOL    HW122031   3.488   7.277   0.484
 7229SOL    HW222032   3.511   7.226   0.637
 7230SOL     OW22033   2.460   6.315   0.270
 7230SOL    HW122034   2.484   6.384   0.202
 7230SOL    HW222035   2.382   6.348   0.324
 7231SOL     OW22036   3.143   5.931   0.944
 7231SOL    HW122037   3.057   5.881   0.931
 7231SOL    HW222038   3.205   5.877   1.000
 7232SOL     OW22039   3.438   7.248   0.307
 7232SOL    HW122040   3.527   7.294   0.310
 7232SOL    HW222041   3.417   7.224   0.212
 7233SOL     OW22042   2.669   6.191   1.465
 7233SOL    HW122043   2.622   6.188   1.554
 7233SOL    HW222044   2.618   6.136   1.399
 7234SOL     OW22045   3.256   6.055   1.674
 7234SOL    HW122046   3.236   6.098   1.762
 7234SOL    HW222047   3.334   5.993   1.683
 7235SOL     OW22048   2.835   6.476   1.572
 7235SOL    HW122049   2.881   6.392   1.543
 7235SOL    HW222050   2.779   6.510   1.497
 7236SOL     OW22051   2.853   5.996   1.242
 7236SOL    HW122052   2.776   6.030   1.296
 7236SOL    HW222053   2.819   5.945   1.163
 7237SOL     OW22054   2.903   6.287   0.429
 7237SOL    HW122055   2.929   6.283   0.525
 7237SOL    HW222056   2.818   6.236   0.415
 7238SOL     OW22057   1.938   6.397   0.789
 7238SOL    HW122058   2.037   6.385   0.798
 7238SOL    HW222059   1.914   6.492   0.810
 7239SOL     OW22060   1.992   7.407   1.571
 7239SOL    HW122061   1.982   7.392   1.670
 7239SOL    HW222062   1.906   7.443   1.535
 7240SOL     OW22063   2.727   5.934   0.195
 7240SOL    HW122064   2.786   5.997   0.146
 7240SOL    HW222065   2.746   5.840   0.166
 7241SOL     OW22066   3.581   6.171   1.831
 7241SOL    HW122067   3.555   6.260   1.795
 7241SOL    HW222068   3.579   6.103   1.758
 7242SOL     OW22069   3.224   6.730   0.545
 7242SOL    HW122070   3.307   6.701   0.497
 7242SOL    HW222071   3.175   6.797   0.489
 7243SOL     OW22072   2.412   5.782   0.885
 7243SOL    HW122073   2.407   5.777   0.985
 7243SOL    HW222074   2.414   5.878   0.856
 7244SOL     OW22075   2.870   7.042   0.477
 7244SOL    HW122076   2.824   7.114   0.425
 7244SOL    HW222077   2.866   7.062   0.575
 7245SOL     OW22078   2.213   7.387   0.853
 7245SOL    HW122079   2.263   7.301   0.859
 7245SOL    HW222080   2.278   7.464   0.850
 7246SOL     OW22081   3.657   6.652   0.873
 7246SOL    HW122082   3.595   6.637   0.797
 7246SOL    HW222083   3.605   6.663   0.958
 7247SOL     OW22084   3.089   7.136   1.506
 7247SOL    HW122085   3.095   7.059   1.570
 7247SOL    HW222086   3.037   7.110   1.426
 7248SOL     OW22087   2.183   6.529   0.242
 7248SOL    HW122088   2.265   6.568   0.200
 7248SOL    HW222089   2.156   6.447   0.193
 7249SOL     OW22090   3.320   6.321   0.728
 7249SOL    HW122091   3.315   6.256   0.803
 7249SOL    HW222092   3.400   6.380   0.741
 7250SOL     OW22093   2.323   6.852   1.727
 7250SOL    HW122094   2.273   6.853   1.641
 7250SOL    HW222095   2.260   6.834   1.803
 7251SOL     OW22096   2.973   7.362   0.237
 7251SOL    HW122097   2.913   7.300   0.287
 7251SOL    HW222098   3.004   7.318   0.152
 7252SOL     OW22099   2.064   5.871   1.498
 7252SOL    HW122100   1.984   5.931   1.485
 7252SOL    HW222101   2.054   5.822   1.584
 7253SOL     OW22102   3.494   6.963   0.081
 7253SOL    HW122103   3.462   7.057   0.071
 7253SOL    HW222104   3.418   6.900   0.069
 7254SOL     OW22105   2.326   7.329   0.323
 7254SOL    HW122106   2.359   7.368   0.409
 7254SOL    HW222107   2.402   7.322   0.258
 7255SOL     OW22108   3.262   5.693   0.426
 7255SOL    HW122109   3.238   5.656   0.336
 7255SOL    HW222110   3.361   5.709   0.430
 7256SOL     OW22111   2.111   7.371   1.241
 7256SOL    HW122112   2.168   7.306   1.291
 7256SOL    HW222113   2.095   7.338   1.148
 7257SOL     OW22114   2.802   7.284   0.904
 7257SOL    HW122115   2.882   7.227   0.925
 7257SOL    HW222116   2.753   7.244   0.827
 7258SOL     OW22117   2.244   6.286   0.480
 7258SOL    HW122118   2.289   6.196   0.477
 7258SOL    HW222119   2.150   6.275   0.513
 7259SOL     OW22120   3.409   5.808   1.729
 7259SOL    HW122121   3.404   5.845   1.821
 7259SOL    HW222122   3.337   5.739   1.717
 7260SOL     OW22123   2.476   5.708   0.117
 7260SOL    HW122124   2.574   5.686   0.124
 7260SOL    HW222125   2.445   5.691   0.024
 7261SOL     OW22126   2.643   5.850   1.749
 7261SOL    HW122127   2.710   5.789   1.792
 7261SOL    HW222128   2.570   5.869   1.814
 7262SOL     OW22129   2.750   7.100   1.195
 7262SOL    HW122130   2.727   7.075   1.101
 7262SOL    HW222131   2.811   7.031   1.234
 7263SOL     OW22132   3.213   6.176   1.433
 7263SOL    HW122133   3.241   6.133   1.518
 7263SOL    HW222134   3.238   6.272   1.434
 7264SOL     OW22135   2.665   6.988   0.924
 7264SOL    HW122136   2.755   7.002   0.882
 7264SOL    HW222137   2.594   6.990   0.853
 7265SOL     OW22138   2.784   6.089   0.899
 7265SOL    HW122139   2.759   6.080   0.803
 7265SOL    HW222140   2.832   6.007   0.930
 7266SOL     OW22141   2.401   5.650   0.512
 7266SOL    HW122142   2.320   5.651   0.570
 7266SOL    HW222143   2.404   5.733   0.457
 7267SOL     OW22144   3.296   6.774   0.041
 7267SOL    HW122145   3.328   6.698   0.098
 7267SOL    HW222146   3.204   6.801   0.071
 7268SOL     OW22147   2.159   5.621   0.171
 7268SOL    HW122148   2.208   5.705   0.150
 7268SOL    HW222149   2.221   5.556   0.216
 7269SOL     OW22150   2.797   5.822   0.480
 7269SOL    HW122151   2.749   5.863   0.402
 7269SOL    HW222152   2.896   5.820   0.461
 7270SOL     OW22153   2.938   6.269   1.464
 7270SOL    HW122154   2.858   6.208   1.467
 7270SOL    HW222155   3.019   6.216   1.440
 7271SOL     OW22156   3.089   7.156   0.793
 7271SOL    HW122157   3.110   7.230   0.728
 7271SOL    HW222158   3.157   7.156   0.866
 7272SOL     OW22159   2.321   6.738   0.741
 7272SOL    HW122160   2.250   6.711   0.806
 7272SOL    HW222161   2.295   6.710   0.648
 7273SOL     OW22162   3.133   7.383   0.591
 7273SOL    HW122163   3.177   7.447   0.527
 7273SOL    HW222164   3.083   7.435   0.661
 7274SOL     OW22165   2.894   6.135   0.016
 7274SOL    HW122166   2.853   6.217  -0.023
 7274SOL    HW222167   2.958   6.161   0.089
 7275SOL     OW22168   1.940   6.142   1.386
 7275SOL    HW122169   2.032   6.141   1.345
 7275SOL    HW222170   1.934   6.216   1.453
 7276SOL     OW22171   2.423   5.808   1.147
 7276SOL    HW122172   2.461   5.724   1.184
 7276SOL    HW222173   2.335   5.827   1.191
 7277SOL     OW22174   2.728   6.040   0.642
 7277SOL    HW122175   2.696   6.112   0.580
 7277SOL    HW222176   2.752   5.959   0.589
 7278SOL     OW22177   2.879   5.625   0.753
 7278SOL    HW122178   2.807   5.630   0.684
 7278SOL    HW222179   2.855   5.556   0.822
 7279SOL     OW22180   3.291   6.759   0.867
 7279SOL    HW122181   3.236   6.675   0.860
 7279SOL    HW222182   3.317   6.788   0.775
 7280SOL     OW22183   3.328   6.176   0.992
 7280SOL    HW122184   3.298   6.081   0.999
 7280SOL    HW222185   3.401   6.192   1.058
 7281SOL     OW22186   3.719   6.419   0.377
 7281SOL    HW122187   3.761   6.355   0.441
 7281SOL    HW222188   3.681   6.368   0.299
 7282SOL     OW22189   2.350   6.971   0.174
 7282SOL    HW122190   2.263   6.956   0.221
 7282SOL    HW222191   2.333   6.997   0.079
 7283SOL     OW22192   3.526   6.866   0.657
 7283SOL    HW122193   3.625   6.874   0.671
 7283SOL    HW222194   3.481   6.950   0.688
 7284SOL     OW22195   3.252   6.161   0.078
 7284SOL    HW122196   3.198   6.140   0.159
 7284SOL    HW222197   3.343   6.120   0.087
 7285SOL     OW22198   2.389   5.842   0.328
 7285SOL    HW122199   2.416   5.783   0.253
 7285SOL    HW222200   2.389   5.937   0.297
 7286SOL     OW22201   3.616   6.809   1.588
 7286SOL    HW122202   3.707   6.770   1.575
 7286SOL    HW222203   3.624   6.905   1.612
 7287SOL     OW22204   2.926   6.933   1.340
 7287SOL    HW122205   2.846   6.910   1.395
 7287SOL    HW222206   3.009   6.907   1.389
 7288SOL     OW22207   3.454   7.215   1.625
 7288SOL    HW122208   3.481   7.249   1.535
 7288SOL    HW222209   3.533   7.177   1.671
 7289SOL     OW22210   2.973   6.781   1.100
 7289SOL    HW122211   2.933   6.825   1.181
 7289SOL    HW222212   2.932   6.818   1.017
 7290SOL     OW22213   3.500   6.685   1.079
 7290SOL    HW122214   3.505   6.766   1.138
 7290SOL    HW222215   3.414   6.687   1.028
 7291SOL     OW22216   2.777   5.675   1.402
 7291SOL    HW122217   2.802   5.655   1.307
 7291SOL    HW222218   2.849   5.731   1.444
 7292SOL     OW22219   2.842   6.702   1.719
 7292SOL    HW122220   2.743   6.708   1.729
 7292SOL    HW222221   2.865   6.622   1.663
 7293SOL     OW22222   2.567   6.636   0.368
 7293SOL    HW122223   2.553   6.643   0.467
 7293SOL    HW222224   2.651   6.585   0.350
 7294SOL     OW22225   2.272   6.399   1.251
 7294SOL    HW122226   2.358   6.411   1.301
 7294SOL    HW222227   2.230   6.312   1.278
 7295SOL     OW22228   3.136   5.972   1.262
 7295SOL    HW122229   3.157   6.046   1.326
 7295SOL    HW222230   3.047   5.989   1.219
 7296SOL     OW22231   1.926   7.150   1.331
 7296SOL    HW122232   1.880   7.232   1.297
 7296SOL    HW222233   2.024   7.169   1.340
 7297SOL     OW22234   2.229   6.686   0.501
 7297SOL    HW122235   2.222   6.769   0.445
 7297SOL    HW222236   2.233   6.606   0.441
 7298SOL     OW22237   2.428   6.123   0.865
 7298SOL    HW122238   2.440   6.189   0.791
 7298SOL    HW222239   2.474   6.157   0.948
 7299SOL     OW22240   3.114   6.934   0.388
 7299SOL    HW122241   3.164   7.011   0.428
 7299SOL    HW222242   3.019   6.936   0.420
 7300SOL     OW22243   3.134   7.031   1.142
 7300SOL    HW122244   3.181   7.044   1.229
 7300SOL    HW222245   3.068   6.957   1.151
 7301SOL     OW22246   3.444   6.225   0.472
 7301SOL    HW122247   3.413   6.286   0.545
 7301SOL    HW222248   3.494   6.277   0.403
 7302SOL     OW22249   2.216   7.096   1.329
 7302SOL    HW122250   2.195   7.052   1.242
 7302SOL    HW222251   2.313   7.122   1.332
 7303SOL     OW22252   2.264   6.337   1.598
 7303SOL    HW122253   2.332   6.392   1.551
 7303SOL    HW222254   2.304   6.249   1.625
 7304SOL     OW22255   3.449   6.365   1.670
 7304SOL    HW122256   3.357   6.403   1.665
 7304SOL    HW222257   3.509   6.412   1.605
 7305SOL     OW22258   2.875   5.691   1.770
 7305SOL    HW122259   2.881   5.776   1.718
 7305SOL    HW222260   2.907   5.615   1.713
 7306SOL     OW22261   2.366   5.636   1.740
 7306SOL    HW122262   2.324   5.579   1.670
 7306SOL    HW222263   2.300   5.705   1.772
 7307SOL     OW22264   2.435   6.456   1.029
 7307SOL    HW122265   2.479   6.545   1.020
 7307SOL    HW222266   2.372   6.456   1.106
 7308SOL     OW22267   3.222   6.448   1.045
 7308SOL    HW122268   3.147   6.448   0.979
 7308SOL    HW222269   3.259   6.356   1.054
 7309SOL     OW22270   3.071   6.111   0.275
 7309SOL    HW122271   3.084   6.027   0.329
 7309SOL    HW222272   3.042   6.185   0.335
 7310SOL     OW22273   2.169   5.799   1.231
 7310SOL    HW122274   2.146   5.836   1.321
 7310SOL    HW222275   2.139   5.704   1.225
 7311SOL     OW22276   1.899   6.896   1.282
 7311SOL    HW122277   1.952   6.847   1.350
 7311SOL    HW222278   1.921   6.994   1.287
 7312SOL     OW22279   2.594   6.220   1.064
 7312SOL    HW122280   2.653   6.194   0.988
 7312SOL    HW222281   2.566   6.316   1.053
 7313SOL     OW22282   3.590   6.521   1.854
 7313SOL    HW122283   3.544   6.514   1.765
 7313SOL    HW222284   3.528   6.565   1.920
 7314SOL     OW22285   2.169   5.649   0.618
 7314SOL    HW122286   2.158   5.743   0.651
 7314SOL    HW222287   2.164   5.586   0.695
 7315SOL     OW22288   3.484   5.953   0.374
 7315SOL    HW122289   3.486   5.877   0.438
 7315SOL    HW222290   3.436   6.030   0.414
 7316SOL     OW22291   2.885   6.352   0.966
 7316SOL    HW122292   2.900   6.373   1.062
 7316SOL    HW222293   2.855   6.257   0.957
 7317SOL     OW22294   2.842   7.159   1.700
 7317SOL    HW122295   2.822   7.203   1.612
 7317SOL    HW222296   2.881   7.068   1.684
 7318SOL     OW22297   3.721   7.104   1.605
 7318SOL    HW122298   3.735   7.131   1.510
 7318SOL    HW222299   3.804   7.126   1.658
 7319SOL     OW22300   2.212   6.484   1.804
 7319SOL    HW122301   2.288   6.528   1.852
 7319SOL    HW222302   2.247   6.437   1.722
 7320SOL     OW22303   3.402   5.860   0.125
 7320SOL    HW122304   3.341   5.785   0.148
 7320SOL    HW222305   3.424   5.912   0.208
 7321SOL     OW22306   3.165   6.424   0.042
 7321SOL    HW122307   3.199   6.331   0.057
 7321SOL    HW222308   3.183   6.451  -0.053
 7322SOL     OW22309   2.930   6.919   0.849
 7322SOL    HW122310   2.937   6.835   0.794
 7322SOL    HW222311   2.992   6.988   0.813
 7323SOL     OW22312   2.181   6.396   0.949
 7323SOL    HW122313   2.274   6.432   0.954
 7323SOL    HW222314   2.175   6.311   1.001
 7324SOL     OW22315   2.201   6.095   1.006
 7324SOL    HW122316   2.149   6.012   0.989
 7324SOL    HW222317   2.278   6.100   0.942
 7325SOL     OW22318   3.000   5.966   1.678
 7325SOL    HW122319   2.955   6.029   1.742
 7325SOL    HW222320   3.093   5.997   1.661
 7326SOL     OW22321   3.022   5.793   1.477
 7326SOL    HW122322   3.022   5.857   1.554
 7326SOL    HW222323   3.050   5.841   1.394
 7327SOL     OW22324   1.870   6.912   0.200
 7327SOL    HW122325   1.777   6.933   0.169
 7327SOL    HW222326   1.880   6.813   0.213
 7328SOL     OW22327   1.950   7.387   0.927
 7328SOL    HW122328   1.908   7.301   0.900
 7328SOL    HW222329   2.044   7.390   0.893
 7329SOL     OW22330   2.366   7.154   0.910
 7329SOL    HW122331   2.432   7.228   0.919
 7329SOL    HW222332   2.410   7.075   0.868
 7330SOL     OW22333   2.864   6.382   1.238
 7330SOL    HW122334   2.905   6.350   1.324
 7330SOL    HW222335   2.768   6.355   1.235
 7331SOL     OW22336   1.902   6.130   1.114
 7331SOL    HW122337   1.987   6.097   1.073
 7331SOL    HW222338   1.915   6.145   1.212
 7332SOL     OW22339   2.051   6.106   1.722
 7332SOL    HW122340   2.110   6.066   1.652
 7332SOL    HW222341   1.993   6.177   1.681
 7333SOL     OW22342   3.231   6.536   1.660
 7333SOL    HW122343   3.270   6.625   1.680
 7333SOL    HW222344   3.241   6.516   1.563
 7334SOL     OW22345   2.677   6.158   0.325
 7334SOL    HW122346   2.684   6.069   0.279
 7334SOL    HW222347   2.583   6.192   0.317
 7335SOL     OW22348   3.519   6.190   1.206
 7335SOL    HW122349   3.481   6.121   1.268
 7335SOL    HW222350   3.601   6.154   1.162
 7336SOL     OW22351   2.114   7.150   1.744
 7336SOL    HW122352   2.084   7.207   1.820
 7336SOL    HW222353   2.107   7.053   1.770
 7337SOL     OW22354   2.533   6.050   1.269
 7337SOL    HW122355   2.499   5.961   1.239
 7337SOL    HW222356   2.559   6.104   1.189
 7338SOL     OW22357   2.792   7.264   1.465
 7338SOL    HW122358   2.768   7.246   1.370
 7338SOL    HW222359   2.822   7.358   1.475
 7339SOL     OW22360   2.335   6.086   0.191
 7339SOL    HW122361   2.396   6.166   0.195
 7339SOL    HW222362   2.240   6.117   0.198
 7340SOL     OW22363   2.021   6.723   1.466
 7340SOL    HW122364   2.043   6.662   1.542
 7340SOL    HW222365   2.031   6.674   1.380
 7341SOL     OW22366   3.209   6.645   1.234
 7341SOL    HW122367   3.233   6.582   1.160
 7341SOL    HW222368   3.119   6.685   1.216
 7342SOL     OW22369   3.164   6.441   0.309
 7342SOL    HW122370   3.078   6.410   0.351
 7342SOL    HW222371   3.160   6.427   0.210
 7343SOL     OW22372   3.621   7.333   1.154
 7343SOL    HW122373   3.682   7.363   1.081
 7343SOL    HW222374   3.583   7.244   1.132
 7344SOL     OW22375   3.114   7.317   1.128
 7344SOL    HW122376   3.198   7.322   1.074
 7344SOL    HW222377   3.091   7.221   1.146
 7345SOL     OW22378   1.945   6.844   1.022
 7345SOL    HW122379   1.940   6.843   1.122
 7345SOL    HW222380   1.862   6.803   0.984
 7346SOL     OW22381   2.550   7.248   1.716
 7346SOL    HW122382   2.494   7.329   1.725
 7346SOL    HW222383   2.602   7.252   1.630
 7347SOL     OW22384   2.765   5.672   0.133
 7347SOL    HW122385   2.816   5.673   0.047
 7347SOL    HW222386   2.821   5.630   0.204
 7348SOL     OW22387   3.588   5.721   0.523
 7348SOL    HW122388   3.661   5.704   0.456
 7348SOL    HW222389   3.557   5.634   0.561
 7349SOL     OW22390   3.250   7.159   0.477
 7349SOL    HW122391   3.317   7.171   0.403
 7349SOL    HW222392   3.210   7.248   0.500
 7350SOL     OW22393   1.992   7.380   1.851
 7350SOL    HW122394   1.951   7.306   1.904
 7350SOL    HW222395   2.056   7.431   1.909
 7351SOL     OW22396   3.142   6.513   0.672
 7351SOL    HW122397   3.202   6.432   0.674
 7351SOL    HW222398   3.182   6.582   0.612
 7352SOL     OW22399   2.692   6.859   1.422
 7352SOL    HW122400   2.687   6.892   1.517
 7352SOL    HW222401   2.606   6.878   1.376
 7353SOL     OW22402   2.534   7.202   0.154
 7353SOL    HW122403   2.543   7.212   0.055
 7353SOL    HW222404   2.494   7.113   0.175
 7354SOL     OW22405   3.512   7.306   1.394
 7354SOL    HW122406   3.565   7.316   1.310
 7354SOL    HW222407   3.485   7.396   1.428
 7355SOL     OW22408   3.703   5.761   0.963
 7355SOL    HW122409   3.742   5.676   0.927
 7355SOL    HW222410   3.605   5.763   0.944
 7356SOL     OW22411   2.125   5.912   0.720
 7356SOL    HW122412   2.046   5.963   0.686
 7356SOL    HW222413   2.116   5.897   0.818
 7357SOL     OW22414   3.056   7.198   0.031
 7357SOL    HW122415   3.062   7.105   0.068
 7357SOL    HW222416   2.997   7.198  -0.049
 7358SOL     OW22417   2.684   6.588   1.372
 7358SOL    HW122418   2.724   6.587   1.280
 7358SOL    HW222419   2.694   6.680   1.412
 7359SOL     OW22420   2.778   6.496   0.291
 7359SOL    HW122421   2.841   6.534   0.223
 7359SOL    HW222422   2.818   6.413   0.330
 7360SOL     OW22423   3.366   7.193   0.044
 7360SOL    HW122424   3.274   7.230   0.051
 7360SOL    HW222425   3.404   7.213  -0.046
 7361SOL     OW22426   2.234   6.874   1.490
 7361SOL    HW122427   2.221   6.967   1.456
 7361SOL    HW222428   2.150   6.822   1.477
 7362SOL     OW22429   3.476   6.878   1.289
 7362SOL    HW122430   3.536   6.881   1.369
 7362SOL    HW222431   3.401   6.942   1.302
 7363SOL     OW22432   2.901   6.684   0.696
 7363SOL    HW122433   2.831   6.637   0.750
 7363SOL    HW222434   2.960   6.616   0.653
 7364SOL     OW22435   2.876   5.822   0.971
 7364SOL    HW122436   2.868   5.786   0.878
 7364SOL    HW222437   2.874   5.746   1.036
 7365SOL     OW22438   2.452   7.073   0.491
 7365SOL    HW122439   2.494   7.015   0.421
 7365SOL    HW222440   2.408   7.152   0.447
 7366SOL     OW22441   3.571   5.971   1.381
 7366SOL    HW122442   3.644   6.040   1.385
 7366SOL    HW222443   3.599   5.896   1.322
 7367SOL     OW22444   2.117   6.934   0.290
 7367SOL    HW122445   2.021   6.935   0.263
 7367SOL    HW222446   2.129   6.987   0.374
 7368SOL     OW22447   1.967   6.599   1.726
 7368SOL    HW122448   1.890   6.566   1.780
 7368SOL    HW222449   2.052   6.569   1.768
 7369SOL     OW22450   2.534   5.789   1.489
 7369SOL    HW122451   2.624   5.773   1.449
 7369SOL    HW222452   2.542   5.794   1.588
 7370SOL     OW22453   1.937   5.931   0.033
 7370SOL    HW122454   1.845   5.903   0.004
 7370SOL    HW222455   1.968   6.008  -0.023
 7371SOL     OW22456   3.302   6.442   1.398
 7371SOL    HW122457   3.245   6.494   1.335
 7371SOL    HW222458   3.398   6.454   1.374
 7372SOL     OW22459   1.934   5.752   0.318
 7372SOL    HW122460   1.917   5.835   0.264
 7372SOL    HW222461   2.024   5.715   0.296
 7373SOL     OW22462   3.045   6.921   0.119
 7373SOL    HW122463   2.946   6.910   0.121
 7373SOL    HW222464   3.079   6.936   0.212
 7374SOL     OW22465   2.475   6.428   1.431
 7374SOL    HW122466   2.531   6.509   1.414
 7374SOL    HW222467   2.534   6.348   1.434
 7375SOL     OW22468   3.355   7.353   0.959
 7375SOL    HW122469   3.388   7.417   0.890
 7375SOL    HW222470   3.421   7.347   1.034
 7376SOL     OW22471   2.578   6.151   1.708
 7376SOL    HW122472   2.597   6.216   1.782
 7376SOL    HW222473   2.638   6.071   1.717
 7377SOL     OW22474   3.312   6.806   1.633
 7377SOL    HW122475   3.303   6.796   1.732
 7377SOL    HW222476   3.408   6.799   1.607
 7378SOL     OW22477   2.252   7.327   1.560
 7378SOL    HW122478   2.161   7.368   1.558
 7378SOL    HW222479   2.245   7.233   1.592
 7379SOL     OW22480   3.536   6.469   1.254
 7379SOL    HW122481   3.509   6.380   1.217
 7379SOL    HW222482   3.537   6.537   1.181
 7380SOL     OW22483   3.087   5.911   0.449
 7380SOL    HW122484   3.152   5.837   0.438
 7380SOL    HW222485   3.107   5.961   0.533
 7381SOL     OW22486   2.456   6.331   0.652
 7381SOL    HW122487   2.506   6.416   0.633
 7381SOL    HW222488   2.368   6.333   0.604
 7382SOL     OW22489   3.639   5.928   1.642
 7382SOL    HW122490   3.622   5.959   1.548
 7382SOL    HW222491   3.555   5.891   1.680
 7383SOL     OW22492   3.592   6.520   1.517
 7383SOL    HW122493   3.630   6.611   1.532
 7383SOL    HW222494   3.584   6.503   1.418
 7384SOL     OW22495   2.721   6.960   0.016
 7384SOL    HW122496   2.675   6.975   0.104
 7384SOL    HW222497   2.765   7.045  -0.014
 7385SOL     OW22498   2.523   7.376   0.953
 7385SOL    HW122499   2.477   7.464   0.940
 7385SOL    HW222500   2.622   7.388   0.946
 7386SOL     OW22501   2.721   6.542   0.861
 7386SOL    HW122502   2.775   6.473   0.909
 7386SOL    HW222503   2.689   6.611   0.927
 7387SOL     OW22504   2.945   6.570   0.087
 7387SOL    HW122505   2.922   6.623   0.005
 7387SOL    HW222506   3.026   6.514   0.068
 7388SOL     OW22507   3.723   7.155   0.851
 7388SOL    HW122508   3.652   7.143   0.781
 7388SOL    HW222509   3.724   7.076   0.911
 7389SOL     OW22510   2.083   6.900   1.844
 7389SOL    HW122511   2.018   6.827   1.823
 7389SOL    HW222512   2.087   6.914   1.942
 7390SOL     OW22513   1.941   6.826   0.653
 7390SOL    HW122514   1.940   6.779   0.741
 7390SOL    HW222515   2.023   6.798   0.602
 7391SOL     OW22516   2.534   6.977   1.624
 7391SOL    HW122517   2.456   6.927   1.662
 7391SOL    HW222518   2.531   7.072   1.655
 7392SOL     OW22519   3.686   5.778   1.227
 7392SOL    HW122520   3.682   5.688   1.271
 7392SOL    HW222521   3.689   5.767   1.128
 7393SOL     OW22522   2.290   6.010   0.520
 7393SOL    HW122523   2.320   5.938   0.458
 7393SOL    HW222524   2.251   5.970   0.603
 7394SOL     OW22525   3.567   7.073   1.104
 7394SOL    HW122526   3.474   7.048   1.077
 7394SOL    HW222527   3.593   7.023   1.186
 7395SOL     OW22528   2.179   6.133   1.280
 7395SOL    HW122529   2.217   6.074   1.352
 7395SOL    HW222530   2.219   6.107   1.192
 7396SOL     OW22531   2.674   7.172   0.687
 7396SOL    HW122532   2.706   7.182   0.593
 7396SOL    HW222533   2.595   7.110   0.689
 7397SOL     OW22534   3.286   5.800   1.112
 7397SOL    HW122535   3.338   5.735   1.167
 7397SOL    HW222536   3.237   5.863   1.173
 7398SOL     OW22537   2.863   5.620   1.154
 7398SOL    HW122538   2.800   5.548   1.123
 7398SOL    HW222539   2.956   5.584   1.154
 7399SOL     OW22540   2.632   6.916   0.301
 7399SOL    HW122541   2.586   6.829   0.318
 7399SOL    HW222542   2.723   6.913   0.342
 7400SOL     OW22543   2.480   7.153   1.284
 7400SOL    HW122544   2.475   7.235   1.341
 7400SOL    HW222545   2.569   7.150   1.239
 7401SOL     OW22546   3.214   5.638   0.168
 7401SOL    HW122547   3.249   5.597   0.084
 7401SOL    HW222548   3.124   5.600   0.188
 7402SOL     OW22549   3.162   6.039   0.691
 7402SOL    HW122550   3.103   6.119   0.695
 7402SOL    HW222551   3.177   6.004   0.784
 7403SOL     OW22552   3.455   5.807   0.882
 7403SOL    HW122553   3.371   5.806   0.936
 7403SOL    HW222554   3.457   5.890   0.826
 7404SOL     OW22555   1.901   6.663   0.300
 7404SOL    HW122556   2.000   6.652   0.291
 7404SOL    HW222557   1.861   6.577   0.332
 7405SOL     OW22558   2.737   7.232   0.337
 7405SOL    HW122559   2.660   7.197   0.283
 7405SOL    HW222560   2.705   7.303   0.399
 7406SOL     OW22561   2.092   6.214   1.975
 7406SOL    HW122562   1.999   6.212   2.012
 7406SOL    HW222563   2.093   6.175   1.883
 7407SOL     OW22564   2.087   5.861   2.858
 7407SOL    HW122565   2.122   5.844   2.950
 7407SOL    HW222566   1.999   5.816   2.846
 7408SOL     OW22567   1.881   5.954   2.509
 7408SOL    HW122568   1.799   5.997   2.548
 7408SOL    HW222569   1.853   5.881   2.446
 7409SOL     OW22570   2.431   6.861   3.027
 7409SOL    HW122571   2.338   6.854   2.990
 7409SOL    HW222572   2.442   6.950   3.071
 7410SOL     OW22573   3.417   7.097   2.565
 7410SOL    HW122574   3.360   7.081   2.646
 7410SOL    HW222575   3.358   7.107   2.485
 7411SOL     OW22576   2.997   6.289   2.579
 7411SOL    HW122577   3.054   6.367   2.554
 7411SOL    HW222578   2.937   6.315   2.655
 7412SOL     OW22579   3.617   6.193   2.093
 7412SOL    HW122580   3.605   6.180   1.994
 7412SOL    HW222581   3.587   6.112   2.142
 7413SOL     OW22582   2.630   6.730   2.885
 7413SOL    HW122583   2.552   6.747   2.945
 7413SOL    HW222584   2.664   6.817   2.849
 7414SOL     OW22585   2.712   6.384   3.685
 7414SOL    HW122586   2.708   6.460   3.750
 7414SOL    HW222587   2.734   6.420   3.594
 7415SOL     OW22588   2.547   6.598   2.527
 7415SOL    HW122589   2.616   6.582   2.597
 7415SOL    HW222590   2.474   6.655   2.565
 7416SOL     OW22591   2.548   6.747   3.665
 7416SOL    HW122592   2.608   6.826   3.679
 7416SOL    HW222593   2.462   6.778   3.624
 7417SOL     OW22594   2.197   7.021   2.923
 7417SOL    HW122595   2.119   6.990   2.870
 7417SOL    HW222596   2.255   7.079   2.866
 7418SOL     OW22597   3.322   7.091   3.201
 7418SOL    HW122598   3.346   7.185   3.227
 7418SOL    HW222599   3.306   7.037   3.283
 7419SOL     OW22600   2.300   5.978   3.361
 7419SOL    HW122601   2.382   5.922   3.370
 7419SOL    HW222602   2.219   5.920   3.365
 7420SOL     OW22603   3.465   6.033   2.599
 7420SOL    HW122604   3.391   6.079   2.549
 7420SOL    HW222605   3.516   6.101   2.652
 7421SOL     OW22606   2.093   7.299   2.345
 7421SOL    HW122607   2.127   7.376   2.399
 7421SOL    HW222608   2.137   7.299   2.255
 7422SOL     OW22609   2.989   6.927   3.552
 7422SOL    HW122610   3.036   6.927   3.640
 7422SOL    HW222611   2.941   6.840   3.541
 7423SOL     OW22612   2.092   7.020   2.400
 7423SOL    HW122613   2.066   7.116   2.400
 7423SOL    HW222614   2.021   6.966   2.445
 7424SOL     OW22615   2.102   6.677   2.748
 7424SOL    HW122616   2.116   6.593   2.800
 7424SOL    HW222617   2.047   6.741   2.803
 7425SOL     OW22618   2.482   7.372   3.301
 7425SOL    HW122619   2.390   7.355   3.336
 7425SOL    HW222620   2.510   7.464   3.327
 7426SOL     OW22621   2.468   6.550   1.985
 7426SOL    HW122622   2.475   6.634   1.931
 7426SOL    HW222623   2.514   6.563   2.073
 7427SOL     OW22624   3.456   5.700   3.342
 7427SOL    HW122625   3.438   5.767   3.270
 7427SOL    HW222626   3.453   5.746   3.431
 7428SOL     OW22627   1.984   6.229   2.425
 7428SOL    HW122628   1.939   6.141   2.442
 7428SOL    HW222629   1.983   6.283   2.509
 7429SOL     OW22630   3.704   7.353   2.221
 7429SOL    HW122631   3.758   7.324   2.301
 7429SOL    HW222632   3.734   7.443   2.192
 7430SOL     OW22633   1.889   7.182   1.979
 7430SOL    HW122634   1.870   7.086   2.000
 7430SOL    HW222635   1.856   7.240   2.054
 7431SOL     OW22636   3.551   6.508   2.474
 7431SOL    HW122637   3.646   6.479   2.482
 7431SOL    HW222638   3.543   6.573   2.399
 7432SOL     OW22639   3.503   6.694   2.294
 7432SOL    HW122640   3.589   6.696   2.242
 7432SOL    HW222641   3.517   6.741   2.382
 7433SOL     OW22642   1.975   6.323   3.459
 7433SOL    HW122643   2.063   6.310   3.504
 7433SOL    HW222644   1.962   6.420   3.437
 7434SOL     OW22645   2.475   6.951   2.588
 7434SOL    HW122646   2.426   6.864   2.597
 7434SOL    HW222647   2.452   6.994   2.501
 7435SOL     OW22648   3.155   6.814   3.285
 7435SOL    HW122649   3.192   6.741   3.227
 7435SOL    HW222650   3.207   6.819   3.370
 7436SOL     OW22651   2.671   5.590   2.364
 7436SOL    HW122652   2.711   5.681   2.355
 7436SOL    HW222653   2.571   5.598   2.370
 7437SOL     OW22654   2.059   6.562   3.126
 7437SOL    HW122655   2.148   6.517   3.112
 7437SOL    HW222656   1.986   6.497   3.107
 7438SOL     OW22657   3.387   6.585   2.052
 7438SOL    HW122658   3.324   6.509   2.065
 7438SOL    HW222659   3.435   6.603   2.138
 7439SOL     OW22660   3.049   7.378   3.478
 7439SOL    HW122661   3.073   7.438   3.402
 7439SOL    HW222662   3.056   7.283   3.448
 7440SOL     OW22663   2.179   5.837   3.663
 7440SOL    HW122664   2.250   5.908   3.669
 7440SOL    HW222665   2.091   5.876   3.691
 7441SOL     OW22666   3.328   7.003   2.815
 7441SOL    HW122667   3.269   7.009   2.895
 7441SOL    HW222668   3.313   6.915   2.769
 7442SOL     OW22669   3.529   7.300   2.434
 7442SOL    HW122670   3.488   7.277   2.346
 7442SOL    HW222671   3.511   7.226   2.499
 7443SOL     OW22672   2.460   6.315   2.132
 7443SOL    HW122673   2.484   6.384   2.064
 7443SOL    HW222674   2.382   6.348   2.186
 7444SOL     OW22675   3.143   5.931   2.806
 7444SOL    HW122676   3.057   5.881   2.793
 7444SOL    HW222677   3.205   5.877   2.862
 7445SOL     OW22678   3.438   7.248   2.169
 7445SOL    HW122679   3.527   7.294   2.172
 7445SOL    HW222680   3.417   7.224   2.074
 7446SOL     OW22681   2.669   6.191   3.327
 7446SOL    HW122682   2.622   6.188   3.416
 7446SOL    HW222683   2.618   6.136   3.261
 7447SOL     OW22684   3.256   6.055   3.536
 7447SOL    HW122685   3.236   6.098   3.624
 7447SOL    HW222686   3.334   5.993   3.545
 7448SOL     OW22687   2.835   6.476   3.434
 7448SOL    HW122688   2.881   6.392   3.405
 7448SOL    HW222689   2.779   6.510   3.359
 7449SOL     OW22690   2.853   5.996   3.104
 7449SOL    HW122691   2.776   6.030   3.158
 7449SOL    HW222692   2.819   5.945   3.025
 7450SOL     OW22693   2.903   6.287   2.291
 7450SOL    HW122694   2.929   6.283   2.387
 7450SOL    HW222695   2.818   6.236   2.277
 7451SOL     OW22696   1.938   6.397   2.651
 7451SOL    HW122697   2.037   6.385   2.660
 7451SOL    HW222698   1.914   6.492   2.672
 7452SOL     OW22699   1.992   7.407   3.433
 7452SOL    HW122700   1.982   7.392   3.532
 7452SOL    HW222701   1.906   7.443   3.397
 7453SOL     OW22702   2.727   5.934   2.057
 7453SOL    HW122703   2.786   5.997   2.008
 7453SOL    HW222704   2.746   5.840   2.028
 7454SOL     OW22705   3.581   6.171   3.693
 7454SOL    HW122706   3.555   6.260   3.657
 7454SOL    HW222707   3.579   6.103   3.620
 7455SOL     OW22708   3.224   6.730   2.407
 7455SOL    HW122709   3.307   6.701   2.359
 7455SOL    HW222710   3.175   6.797   2.351
 7456SOL     OW22711   2.412   5.782   2.747
 7456SOL    HW122712   2.407   5.777   2.847
 7456SOL    HW222713   2.414   5.878   2.718
 7457SOL     OW22714   2.870   7.042   2.339
 7457SOL    HW122715   2.824   7.114   2.287
 7457SOL    HW222716   2.866   7.062   2.437
 7458SOL     OW22717   2.213   7.387   2.715
 7458SOL    HW122718   2.263   7.301   2.721
 7458SOL    HW222719   2.278   7.464   2.712
 7459SOL     OW22720   3.657   6.652   2.735
 7459SOL    HW122721   3.595   6.637   2.659
 7459SOL    HW222722   3.605   6.663   2.820
 7460SOL     OW22723   3.089   7.136   3.368
 7460SOL    HW122724   3.095   7.059   3.432
 7460SOL    HW222725   3.037   7.110   3.288
 7461SOL     OW22726   2.183   6.529   2.104
 7461SOL    HW122727   2.265   6.568   2.062
 7461SOL    HW222728   2.156   6.447   2.055
 7462SOL     OW22729   3.320   6.321   2.590
 7462SOL    HW122730   3.315   6.256   2.665
 7462SOL    HW222731   3.400   6.380   2.603
 7463SOL     OW22732   2.323   6.852   3.589
 7463SOL    HW122733   2.273   6.853   3.503
 7463SOL    HW222734   2.260   6.834   3.665
 7464SOL     OW22735   2.973   7.362   2.099
 7464SOL    HW122736   2.913   7.300   2.149
 7464SOL    HW222737   3.004   7.318   2.014
 7465SOL     OW22738   2.064   5.871   3.360
 7465SOL    HW122739   1.984   5.931   3.347
 7465SOL    HW222740   2.054   5.822   3.446
 7466SOL     OW22741   3.494   6.963   1.943
 7466SOL    HW122742   3.462   7.057   1.933
 7466SOL    HW222743   3.418   6.900   1.931
 7467SOL     OW22744   2.326   7.329   2.185
 7467SOL    HW122745   2.359   7.368   2.271
 7467SOL    HW222746   2.402   7.322   2.120
 7468SOL     OW22747   3.262   5.693   2.288
 7468SOL    HW122748   3.238   5.656   2.198
 7468SOL    HW222749   3.361   5.709   2.292
 7469SOL     OW22750   2.111   7.371   3.103
 7469SOL    HW122751   2.168   7.306   3.153
 7469SOL    HW222752   2.095   7.338   3.010
 7470SOL     OW22753   2.802   7.284   2.766
 7470SOL    HW122754   2.882   7.227   2.787
 7470SOL    HW222755   2.753   7.244   2.689
 7471SOL     OW22756   2.244   6.286   2.342
 7471SOL    HW122757   2.289   6.196   2.339
 7471SOL    HW222758   2.150   6.275   2.375
 7472SOL     OW22759   3.409   5.808   3.591
 7472SOL    HW122760   3.404   5.845   3.683
 7472SOL    HW222761   3.337   5.739   3.579
 7473SOL     OW22762   2.476   5.708   1.979
 7473SOL    HW122763   2.574   5.686   1.986
 7473SOL    HW222764   2.445   5.691   1.886
 7474SOL     OW22765   2.643   5.850   3.611
 7474SOL    HW122766   2.710   5.789   3.654
 7474SOL    HW222767   2.570   5.869   3.676
 7475SOL     OW22768   2.750   7.100   3.057
 7475SOL    HW122769   2.727   7.075   2.963
 7475SOL    HW222770   2.811   7.031   3.096
 7476SOL     OW22771   3.213   6.176   3.295
 7476SOL    HW122772   3.241   6.133   3.380
 7476SOL    HW222773   3.238   6.272   3.296
 7477SOL     OW22774   2.665   6.988   2.786
 7477SOL    HW122775   2.755   7.002   2.744
 7477SOL    HW222776   2.594   6.990   2.715
 7478SOL     OW22777   2.784   6.089   2.761
 7478SOL    HW122778   2.759   6.080   2.665
 7478SOL    HW222779   2.832   6.007   2.792
 7479SOL     OW22780   2.401   5.650   2.374
 7479SOL    HW122781   2.320   5.651   2.432
 7479SOL    HW222782   2.404   5.733   2.319
 7480SOL     OW22783   3.296   6.774   1.903
 7480SOL    HW122784   3.328   6.698   1.960
 7480SOL    HW222785   3.204   6.801   1.933
 7481SOL     OW22786   2.159   5.621   2.033
 7481SOL    HW122787   2.208   5.705   2.012
 7481SOL    HW222788   2.221   5.556   2.078
 7482SOL     OW22789   2.797   5.822   2.342
 7482SOL    HW122790   2.749   5.863   2.264
 7482SOL    HW222791   2.896   5.820   2.323
 7483SOL     OW22792   2.938   6.269   3.326
 7483SOL    HW122793   2.858   6.208   3.329
 7483SOL    HW222794   3.019   6.216   3.302
 7484SOL     OW22795   3.089   7.156   2.655
 7484SOL    HW122796   3.110   7.230   2.590
 7484SOL    HW222797   3.157   7.156   2.728
 7485SOL     OW22798   2.321   6.738   2.603
 7485SOL    HW122799   2.250   6.711   2.668
 7485SOL    HW222800   2.295   6.710   2.510
 7486SOL     OW22801   3.133   7.383   2.453
 7486SOL    HW122802   3.177   7.447   2.389
 7486SOL    HW222803   3.083   7.435   2.523
 7487SOL     OW22804   2.894   6.135   1.878
 7487SOL    HW122805   2.853   6.217   1.839
 7487SOL    HW222806   2.958   6.161   1.951
 7488SOL     OW22807   1.940   6.142   3.248
 7488SOL    HW122808   2.032   6.141   3.207
 7488SOL    HW222809   1.934   6.216   3.315
 7489SOL     OW22810   2.423   5.808   3.009
 7489SOL    HW122811   2.461   5.724   3.046
 7489SOL    HW222812   2.335   5.827   3.053
 7490SOL     OW22813   2.728   6.040   2.504
 7490SOL    HW122814   2.696   6.112   2.442
 7490SOL    HW222815   2.752   5.959   2.451
 7491SOL     OW22816   2.879   5.625   2.615
 7491SOL    HW122817   2.807   5.630   2.546
 7491SOL    HW222818   2.855   5.556   2.684
 7492SOL     OW22819   3.291   6.759   2.729
 7492SOL    HW122820   3.236   6.675   2.722
 7492SOL    HW222821   3.317   6.788   2.637
 7493SOL     OW22822   3.328   6.176   2.854
 7493SOL    HW122823   3.298   6.081   2.861
 7493SOL    HW222824   3.401   6.192   2.920
 7494SOL     OW22825   3.719   6.419   2.239
 7494SOL    HW122826   3.761   6.355   2.303
 7494SOL    HW222827   3.681   6.368   2.161
 7495SOL     OW22828   2.350   6.971   2.036
 7495SOL    HW122829   2.263   6.956   2.083
 7495SOL    HW222830   2.333   6.997   1.941
 7496SOL     OW22831   3.526   6.866   2.519
 7496SOL    HW122832   3.625   6.874   2.533
 7496SOL    HW222833   3.481   6.950   2.550
 7497SOL     OW22834   3.252   6.161   1.940
 7497SOL    HW122835   3.198   6.140   2.021
 7497SOL    HW222836   3.343   6.120   1.949
 7498SOL     OW22837   2.389   5.842   2.190
 7498SOL    HW122838   2.416   5.783   2.115
 7498SOL    HW222839   2.389   5.937   2.159
 7499SOL     OW22840   3.616   6.809   3.450
 7499SOL    HW122841   3.707   6.770   3.437
 7499SOL    HW222842   3.624   6.905   3.474
 7500SOL     OW22843   2.926   6.933   3.202
 7500SOL    HW122844   2.846   6.910   3.257
 7500SOL    HW222845   3.009   6.907   3.251
 7501SOL     OW22846   3.454   7.215   3.487
 7501SOL    HW122847   3.481   7.249   3.397
 7501SOL    HW222848   3.533   7.177   3.533
 7502SOL     OW22849   2.973   6.781   2.962
 7502SOL    HW122850   2.933   6.825   3.043
 7502SOL    HW222851   2.932   6.818   2.879
 7503SOL     OW22852   3.500   6.685   2.941
 7503SOL    HW122853   3.505   6.766   3.000
 7503SOL    HW222854   3.414   6.687   2.890
 7504SOL     OW22855   2.777   5.675   3.264
 7504SOL    HW122856   2.802   5.655   3.169
 7504SOL    HW222857   2.849   5.731   3.306
 7505SOL     OW22858   2.842   6.702   3.581
 7505SOL    HW122859   2.743   6.708   3.591
 7505SOL    HW222860   2.865   6.622   3.525
 7506SOL     OW22861   2.567   6.636   2.230
 7506SOL    HW122862   2.553   6.643   2.329
 7506SOL    HW222863   2.651   6.585   2.212
 7507SOL     OW22864   2.272   6.399   3.113
 7507SOL    HW122865   2.358   6.411   3.163
 7507SOL    HW222866   2.230   6.312   3.140
 7508SOL     OW22867   3.136   5.972   3.124
 7508SOL    HW122868   3.157   6.046   3.188
 7508SOL    HW222869   3.047   5.989   3.081
 7509SOL     OW22870   1.926   7.150   3.193
 7509SOL    HW122871   1.880   7.232   3.159
 7509SOL    HW222872   2.024   7.169   3.202
 7510SOL     OW22873   2.229   6.686   2.363
 7510SOL    HW122874   2.222   6.769   2.307
 7510SOL    HW222875   2.233   6.606   2.303
 7511SOL     OW22876   2.428   6.123   2.727
 7511SOL    HW122877   2.440   6.189   2.653
 7511SOL    HW222878   2.474   6.157   2.810
 7512SOL     OW22879   3.114   6.934   2.250
 7512SOL    HW122880   3.164   7.011   2.290
 7512SOL    HW222881   3.019   6.936   2.282
 7513SOL     OW22882   3.134   7.031   3.004
 7513SOL    HW122883   3.181   7.044   3.091
 7513SOL    HW222884   3.068   6.957   3.013
 7514SOL     OW22885   3.444   6.225   2.334
 7514SOL    HW122886   3.413   6.286   2.407
 7514SOL    HW222887   3.494   6.277   2.265
 7515SOL     OW22888   2.216   7.096   3.191
 7515SOL    HW122889   2.195   7.052   3.104
 7515SOL    HW222890   2.313   7.122   3.194
 7516SOL     OW22891   2.264   6.337   3.460
 7516SOL    HW122892   2.332   6.392   3.413
 7516SOL    HW222893   2.304   6.249   3.487
 7517SOL     OW22894   3.449   6.365   3.532
 7517SOL    HW122895   3.357   6.403   3.527
 7517SOL    HW222896   3.509   6.412   3.467
 7518SOL     OW22897   2.875   5.691   3.632
 7518SOL    HW122898   2.881   5.776   3.580
 7518SOL    HW222899   2.907   5.615   3.575
 7519SOL     OW22900   2.366   5.636   3.602
 7519SOL    HW122901   2.324   5.579   3.532
 7519SOL    HW222902   2.300   5.705   3.634
 7520SOL     OW22903   2.435   6.456   2.891
 7520SOL    HW122904   2.479   6.545   2.882
 7520SOL    HW222905   2.372   6.456   2.968
 7521SOL     OW22906   3.222   6.448   2.907
 7521SOL    HW122907   3.147   6.448   2.841
 7521SOL    HW222908   3.259   6.356   2.916
 7522SOL     OW22909   3.071   6.111   2.137
 7522SOL    HW122910   3.084   6.027   2.191
 7522SOL    HW222911   3.042   6.185   2.197
 7523SOL     OW22912   2.169   5.799   3.093
 7523SOL    HW122913   2.146   5.836   3.183
 7523SOL    HW222914   2.139   5.704   3.087
 7524SOL     OW22915   1.899   6.896   3.144
 7524SOL    HW122916   1.952   6.847   3.212
 7524SOL    HW222917   1.921   6.994   3.149
 7525SOL     OW22918   2.594   6.220   2.926
 7525SOL    HW122919   2.653   6.194   2.850
 7525SOL    HW222920   2.566   6.316   2.915
 7526SOL     OW22921   3.590   6.521   3.716
 7526SOL    HW122922   3.544   6.514   3.627
 7526SOL    HW222923   3.528   6.565   3.782
 7527SOL     OW22924   2.169   5.649   2.480
 7527SOL    HW122925   2.158   5.743   2.513
 7527SOL    HW222926   2.164   5.586   2.557
 7528SOL     OW22927   3.484   5.953   2.236
 7528SOL    HW122928   3.486   5.877   2.300
 7528SOL    HW222929   3.436   6.030   2.276
 7529SOL     OW22930   2.885   6.352   2.828
 7529SOL    HW122931   2.900   6.373   2.924
 7529SOL    HW222932   2.855   6.257   2.819
 7530SOL     OW22933   2.842   7.159   3.562
 7530SOL    HW122934   2.822   7.203   3.474
 7530SOL    HW222935   2.881   7.068   3.546
 7531SOL     OW22936   3.721   7.104   3.467
 7531SOL    HW122937   3.735   7.131   3.372
 7531SOL    HW222938   3.804   7.126   3.520
 7532SOL     OW22939   2.212   6.484   3.666
 7532SOL    HW122940   2.288   6.528   3.714
 7532SOL    HW222941   2.247   6.437   3.584
 7533SOL     OW22942   3.402   5.860   1.987
 7533SOL    HW122943   3.341   5.785   2.010
 7533SOL    HW222944   3.424   5.912   2.070
 7534SOL     OW22945   3.165   6.424   1.904
 7534SOL    HW122946   3.199   6.331   1.919
 7534SOL    HW222947   3.183   6.451   1.809
 7535SOL     OW22948   2.930   6.919   2.711
 7535SOL    HW122949   2.937   6.835   2.656
 7535SOL    HW222950   2.992   6.988   2.675
 7536SOL     OW22951   2.181   6.396   2.811
 7536SOL    HW122952   2.274   6.432   2.816
 7536SOL    HW222953   2.175   6.311   2.863
 7537SOL     OW22954   2.201   6.095   2.868
 7537SOL    HW122955   2.149   6.012   2.851
 7537SOL    HW222956   2.278   6.100   2.804
 7538SOL     OW22957   3.000   5.966   3.540
 7538SOL    HW122958   2.955   6.029   3.604
 7538SOL    HW222959   3.093   5.997   3.523
 7539SOL     OW22960   3.022   5.793   3.339
 7539SOL    HW122961   3.022   5.857   3.416
 7539SOL    HW222962   3.050   5.841   3.256
 7540SOL     OW22963   1.870   6.912   2.062
 7540SOL    HW122964   1.777   6.933   2.031
 7540SOL    HW222965   1.880   6.813   2.075
 7541SOL     OW22966   1.950   7.387   2.789
 7541SOL    HW122967   1.908   7.301   2.762
 7541SOL    HW222968   2.044   7.390   2.755
 7542SOL     OW22969   2.366   7.154   2.772
 7542SOL    HW122970   2.432   7.228   2.781
 7542SOL    HW222971   2.410   7.075   2.730
 7543SOL     OW22972   2.864   6.382   3.100
 7543SOL    HW122973   2.905   6.350   3.186
 7543SOL    HW222974   2.768   6.355   3.097
 7544SOL     OW22975   1.902   6.130   2.976
 7544SOL    HW122976   1.987   6.097   2.935
 7544SOL    HW222977   1.915   6.145   3.074
 7545SOL     OW22978   2.051   6.106   3.584
 7545SOL    HW122979   2.110   6.066   3.514
 7545SOL    HW222980   1.993   6.177   3.543
 7546SOL     OW22981   3.231   6.536   3.522
 7546SOL    HW122982   3.270   6.625   3.542
 7546SOL    HW222983   3.241   6.516   3.425
 7547SOL     OW22984   2.677   6.158   2.187
 7547SOL    HW122985   2.684   6.069   2.141
 7547SOL    HW222986   2.583   6.192   2.179
 7548SOL     OW22987   3.519   6.190   3.068
 7548SOL    HW122988   3.481   6.121   3.130
 7548SOL    HW222989   3.601   6.154   3.024
 7549SOL     OW22990   2.114   7.150   3.606
 7549SOL    HW122991   2.084   7.207   3.682
 7549SOL    HW222992   2.107   7.053   3.632
 7550SOL     OW22993   2.533   6.050   3.131
 7550SOL    HW122994   2.499   5.961   3.101
 7550SOL    HW222995   2.559   6.104   3.051
 7551SOL     OW22996   2.792   7.264   3.327
 7551SOL    HW122997   2.768   7.246   3.232
 7551SOL    HW222998   2.822   7.358   3.337
 7552SOL     OW22999   2.335   6.086   2.053
 7552SOL    HW123000   2.396   6.166   2.057
 7552SOL    HW223001   2.240   6.117   2.060
 7553SOL     OW23002   2.021   6.723   3.328
 7553SOL    HW123003   2.043   6.662   3.404
 7553SOL    HW223004   2.031   6.674   3.242
 7554SOL     OW23005   3.209   6.645   3.096
 7554SOL    HW123006   3.233   6.582   3.022
 7554SOL    HW223007   3.119   6.685   3.078
 7555SOL     OW23008   3.164   6.441   2.171
 7555SOL    HW123009   3.078   6.410   2.213
 7555SOL    HW223010   3.160   6.427   2.072
 7556SOL     OW23011   3.621   7.333   3.016
 7556SOL    HW123012   3.682   7.363   2.943
 7556SOL    HW223013   3.583   7.244   2.994
 7557SOL     OW23014   3.114   7.317   2.990
 7557SOL    HW123015   3.198   7.322   2.936
 7557SOL    HW223016   3.091   7.221   3.008
 7558SOL     OW23017   1.945   6.844   2.884
 7558SOL    HW123018   1.940   6.843   2.984
 7558SOL    HW223019   1.862   6.803   2.846
 7559SOL     OW23020   2.550   7.248   3.578
 7559SOL    HW123021   2.494   7.329   3.587
 7559SOL    HW223022   2.602   7.252   3.492
 7560SOL     OW23023   3.588   5.721   2.385
 7560SOL    HW123024   3.661   5.704   2.318
 7560SOL    HW223025   3.557   5.634   2.423
 7561SOL     OW23026   3.250   7.159   2.339
 7561SOL    HW123027   3.317   7.171   2.265
 7561SOL    HW223028   3.210   7.248   2.362
 7562SOL     OW23029   1.992   7.380   3.713
 7562SOL    HW123030   1.951   7.306   3.766
 7562SOL    HW223031   2.056   7.431   3.771
 7563SOL     OW23032   3.142   6.513   2.534
 7563SOL    HW123033   3.202   6.432   2.536
 7563SOL    HW223034   3.182   6.582   2.474
 7564SOL     OW23035   2.692   6.859   3.284
 7564SOL    HW123036   2.687   6.892   3.379
 7564SOL    HW223037   2.606   6.878   3.238
 7565SOL     OW23038   2.534   7.202   2.016
 7565SOL    HW123039   2.543   7.212   1.917
 7565SOL    HW223040   2.494   7.113   2.037
 7566SOL     OW23041   3.512   7.306   3.256
 7566SOL    HW123042   3.565   7.316   3.172
 7566SOL    HW223043   3.485   7.396   3.290
 7567SOL     OW23044   3.703   5.761   2.825
 7567SOL    HW123045   3.742   5.676   2.789
 7567SOL    HW223046   3.605   5.763   2.806
 7568SOL     OW23047   2.125   5.912   2.582
 7568SOL    HW123048   2.046   5.963   2.548
 7568SOL    HW223049   2.116   5.897   2.680
 7569SOL     OW23050   3.056   7.198   1.893
 7569SOL    HW123051   3.062   7.105   1.930
 7569SOL    HW223052   2.997   7.198   1.813
 7570SOL     OW23053   2.684   6.588   3.234
 7570SOL    HW123054   2.724   6.587   3.142
 7570SOL    HW223055   2.694   6.680   3.274
 7571SOL     OW23056   2.778   6.496   2.153
 7571SOL    HW123057   2.841   6.534   2.085
 7571SOL    HW223058   2.818   6.413   2.192
 7572SOL     OW23059   3.366   7.193   1.906
 7572SOL    HW123060   3.274   7.230   1.913
 7572SOL    HW223061   3.404   7.213   1.816
 7573SOL     OW23062   2.234   6.874   3.352
 7573SOL    HW123063   2.221   6.967   3.318
 7573SOL    HW223064   2.150   6.822   3.339
 7574SOL     OW23065   3.476   6.878   3.151
 7574SOL    HW123066   3.536   6.881   3.231
 7574SOL    HW223067   3.401   6.942   3.164
 7575SOL     OW23068   2.901   6.684   2.558
 7575SOL    HW123069   2.831   6.637   2.612
 7575SOL    HW223070   2.960   6.616   2.515
 7576SOL     OW23071   2.876   5.822   2.833
 7576SOL    HW123072   2.868   5.786   2.740
 7576SOL    HW223073   2.874   5.746   2.898
 7577SOL     OW23074   2.452   7.073   2.353
 7577SOL    HW123075   2.494   7.015   2.283
 7577SOL    HW223076   2.408   7.152   2.309
 7578SOL     OW23077   3.571   5.971   3.243
 7578SOL    HW123078   3.644   6.040   3.247
 7578SOL    HW223079   3.599   5.896   3.184
 7579SOL     OW23080   2.117   6.934   2.152
 7579SOL    HW123081   2.021   6.935   2.125
 7579SOL    HW223082   2.129   6.987   2.236
 7580SOL     OW23083   1.967   6.599   3.588
 7580SOL    HW123084   1.890   6.566   3.642
 7580SOL    HW223085   2.052   6.569   3.630
 7581SOL     OW23086   2.534   5.789   3.351
 7581SOL    HW123087   2.624   5.773   3.311
 7581SOL    HW223088   2.542   5.794   3.450
 7582SOL     OW23089   1.937   5.931   1.895
 7582SOL    HW123090   1.845   5.903   1.866
 7582SOL    HW223091   1.968   6.008   1.839
 7583SOL     OW23092   3.302   6.442   3.260
 7583SOL    HW123093   3.245   6.494   3.197
 7583SOL    HW223094   3.398   6.454   3.236
 7584SOL     OW23095   1.934   5.752   2.180
 7584SOL    HW123096   1.917   5.835   2.126
 7584SOL    HW223097   2.024   5.715   2.158
 7585SOL     OW23098   3.045   6.921   1.981
 7585SOL    HW123099   2.946   6.910   1.983
 7585SOL    HW223100   3.079   6.936   2.074
 7586SOL     OW23101   2.475   6.428   3.293
 7586SOL    HW123102   2.531   6.509   3.276
 7586SOL    HW223103   2.534   6.348   3.296
 7587SOL     OW23104   3.355   7.353   2.821
 7587SOL    HW123105   3.388   7.417   2.752
 7587SOL    HW223106   3.421   7.347   2.896
 7588SOL     OW23107   2.578   6.151   3.570
 7588SOL    HW123108   2.597   6.216   3.644
 7588SOL    HW223109   2.638   6.071   3.579
 7589SOL     OW23110   3.312   6.806   3.495
 7589SOL    HW123111   3.303   6.796   3.594
 7589SOL    HW223112   3.408   6.799   3.469
 7590SOL     OW23113   2.252   7.327   3.422
 7590SOL    HW123114   2.161   7.368   3.420
 7590SOL    HW223115   2.245   7.233   3.454
 7591SOL     OW23116   3.536   6.469   3.116
 7591SOL    HW123117   3.509   6.380   3.079
 7591SOL    HW223118   3.537   6.537   3.043
 7592SOL     OW23119   3.087   5.911   2.311
 7592SOL    HW123120   3.152   5.837   2.300
 7592SOL    HW223121   3.107   5.961   2.395
 7593SOL     OW23122   2.456   6.331   2.514
 7593SOL    HW123123   2.506   6.416   2.495
 7593SOL    HW223124   2.368   6.333   2.466
 7594SOL     OW23125   3.639   5.928   3.504
 7594SOL    HW123126   3.622   5.959   3.410
 7594SOL    HW223127   3.555   5.891   3.542
 7595SOL     OW23128   3.592   6.520   3.379
 7595SOL    HW123129   3.630   6.611   3.394
 7595SOL    HW223130   3.584   6.503   3.280
 7596SOL     OW23131   2.721   6.960   1.878
 7596SOL    HW123132   2.675   6.975   1.966
 7596SOL    HW223133   2.765   7.045   1.848
 7597SOL     OW23134   2.523   7.376   2.815
 7597SOL    HW123135   2.477   7.464   2.802
 7597SOL    HW223136   2.622   7.388   2.808
 7598SOL     OW23137   2.721   6.542   2.723
 7598SOL    HW123138   2.775   6.473   2.771
 7598SOL    HW223139   2.689   6.611   2.789
 7599SOL     OW23140   2.945   6.570   1.949
 7599SOL    HW123141   2.922   6.623   1.867
 7599SOL    HW223142   3.026   6.514   1.930
 7600SOL     OW23143   3.723   7.155   2.713
 7600SOL    HW123144   3.652   7.143   2.643
 7600SOL    HW223145   3.724   7.076   2.773
 7601SOL     OW23146   2.083   6.900   3.706
 7601SOL    HW123147   2.018   6.827   3.685
 7601SOL    HW223148   2.087   6.914   3.804
 7602SOL     OW23149   1.941   6.826   2.515
 7602SOL    HW123150   1.940   6.779   2.603
 7602SOL    HW223151   2.023   6.798   2.464
 7603SOL     OW23152   2.534   6.977   3.486
 7603SOL    HW123153   2.456   6.927   3.524
 7603SOL    HW223154   2.531   7.072   3.517
 7604SOL     OW23155   3.686   5.778   3.089
 7604SOL    HW123156   3.682   5.688   3.133
 7604SOL    HW223157   3.689   5.767   2.990
 7605SOL     OW23158   2.290   6.010   2.382
 7605SOL    HW123159   2.320   5.938   2.320
 7605SOL    HW223160   2.251   5.970   2.465
 7606SOL     OW23161   3.567   7.073   2.966
 7606SOL    HW123162   3.474   7.048   2.939
 7606SOL    HW223163   3.593   7.023   3.048
 7607SOL     OW23164   2.179   6.133   3.142
 7607SOL    HW123165   2.217   6.074   3.214
 7607SOL    HW223166   2.219   6.107   3.054
 7608SOL     OW23167   2.674   7.172   2.549
 7608SOL    HW123168   2.706   7.182   2.455
 7608SOL    HW223169   2.595   7.110   2.551
 7609SOL     OW23170   3.286   5.800   2.974
 7609SOL    HW123171   3.338   5.735   3.029
 7609SOL    HW223172   3.237   5.863   3.035
 7610SOL     OW23173   2.863   5.620   3.016
 7610SOL    HW123174   2.800   5.548   2.985
 7610SOL    HW223175   2.956   5.584   3.016
 7611SOL     OW23176   2.632   6.916   2.163
 7611SOL    HW123177   2.586   6.829   2.180
 7611SOL    HW223178   2.723   6.913   2.204
 7612SOL     OW23179   2.480   7.153   3.146
 7612SOL    HW123180   2.475   7.235   3.203
 7612SOL    HW223181   2.569   7.150   3.101
 7613SOL     OW23182   3.214   5.638   2.030
 7613SOL    HW123183   3.249   5.597   1.946
 7613SOL    HW223184   3.124   5.600   2.050
 7614SOL     OW23185   3.162   6.039   2.553
 7614SOL    HW123186   3.103   6.119   2.557
 7614SOL    HW223187   3.177   6.004   2.646
 7615SOL     OW23188   3.455   5.807   2.744
 7615SOL    HW123189   3.371   5.806   2.798
 7615SOL    HW223190   3.457   5.890   2.688
 7616SOL     OW23191   1.901   6.663   2.162
 7616SOL    HW123192   2.000   6.652   2.153
 7616SOL    HW223193   1.861   6.577   2.194
 7617SOL     OW23194   2.737   7.232   2.199
 7617SOL    HW123195   2.660   7.197   2.145
 7617SOL    HW223196   2.705   7.303   2.261
 7618SOL     OW23197   2.092   6.214   3.837
 7618SOL    HW123198   1.999   6.212   3.874
 7618SOL    HW223199   2.093   6.175   3.745
 7619SOL     OW23200   2.087   5.861   4.720
 7619SOL    HW123201   2.122   5.844   4.812
 7619SOL    HW223202   1.999   5.816   4.708
 7620SOL     OW23203   1.881   5.954   4.371
 7620SOL    HW123204   1.799   5.997   4.410
 7620SOL    HW223205   1.853   5.881   4.308
 7621SOL     OW23206   2.431   6.861   4.889
 7621SOL    HW123207   2.338   6.854   4.852
 7621SOL    HW223208   2.442   6.950   4.933
 7622SOL     OW23209   3.417   7.097   4.427
 7622SOL    HW123210   3.360   7.081   4.508
 7622SOL    HW223211   3.358   7.107   4.347
 7623SOL     OW23212   2.997   6.289   4.441
 7623SOL    HW123213   3.054   6.367   4.416
 7623SOL    HW223214   2.937   6.315   4.517
 7624SOL     OW23215   3.617   6.193   3.955
 7624SOL    HW123216   3.605   6.180   3.856
 7624SOL    HW223217   3.587   6.112   4.004
 7625SOL     OW23218   2.630   6.730   4.747
 7625SOL    HW123219   2.552   6.747   4.807
 7625SOL    HW223220   2.664   6.817   4.711
 7626SOL     OW23221   2.547   6.598   4.389
 7626SOL    HW123222   2.616   6.582   4.459
 7626SOL    HW223223   2.474   6.655   4.427
 7627SOL     OW23224   2.548   6.747   5.527
 7627SOL    HW123225   2.608   6.826   5.541
 7627SOL    HW223226   2.462   6.778   5.486
 7628SOL     OW23227   2.197   7.021   4.785
 7628SOL    HW123228   2.119   6.990   4.732
 7628SOL    HW223229   2.255   7.079   4.728
 7629SOL     OW23230   2.300   5.978   5.223
 7629SOL    HW123231   2.382   5.922   5.232
 7629SOL    HW223232   2.219   5.920   5.227
 7630SOL     OW23233   3.465   6.033   4.461
 7630SOL    HW123234   3.391   6.079   4.411
 7630SOL    HW223235   3.516   6.101   4.514
 7631SOL     OW23236   2.093   7.299   4.207
 7631SOL    HW123237   2.127   7.376   4.261
 7631SOL    HW223238   2.137   7.299   4.117
 7632SOL     OW23239   2.989   6.927   5.414
 7632SOL    HW123240   3.036   6.927   5.502
 7632SOL    HW223241   2.941   6.840   5.403
 7633SOL     OW23242   2.092   7.020   4.262
 7633SOL    HW123243   2.066   7.116   4.262
 7633SOL    HW223244   2.021   6.966   4.307
 7634SOL     OW23245   2.102   6.677   4.610
 7634SOL    HW123246   2.116   6.593   4.662
 7634SOL    HW223247   2.047   6.741   4.665
 7635SOL     OW23248   2.482   7.372   5.163
 7635SOL    HW123249   2.390   7.355   5.198
 7635SOL    HW223250   2.510   7.464   5.189
 7636SOL     OW23251   2.468   6.550   3.847
 7636SOL    HW123252   2.475   6.634   3.793
 7636SOL    HW223253   2.514   6.563   3.935
 7637SOL     OW23254   3.456   5.700   5.204
 7637SOL    HW123255   3.438   5.767   5.132
 7637SOL    HW223256   3.453   5.746   5.293
 7638SOL     OW23257   1.984   6.229   4.287
 7638SOL    HW123258   1.939   6.141   4.304
 7638SOL    HW223259   1.983   6.283   4.371
 7639SOL     OW23260   3.704   7.353   4.083
 7639SOL    HW123261   3.758   7.324   4.163
 7639SOL    HW223262   3.734   7.443   4.054
 7640SOL     OW23263   1.889   7.182   3.841
 7640SOL    HW123264   1.870   7.086   3.862
 7640SOL    HW223265   1.856   7.240   3.916
 7641SOL     OW23266   3.551   6.508   4.336
 7641SOL    HW123267   3.646   6.479   4.344
 7641SOL    HW223268   3.543   6.573   4.261
 7642SOL     OW23269   3.503   6.694   4.156
 7642SOL    HW123270   3.589   6.696   4.104
 7642SOL    HW223271   3.517   6.741   4.244
 7643SOL     OW23272   1.975   6.323   5.321
 7643SOL    HW123273   2.063   6.310   5.366
 7643SOL    HW223274   1.962   6.420   5.299
 7644SOL     OW23275   2.475   6.951   4.450
 7644SOL    HW123276   2.426   6.864   4.459
 7644SOL    HW223277   2.452   6.994   4.363
 7645SOL     OW23278   2.671   5.590   4.226
 7645SOL    HW123279   2.711   5.681   4.217
 7645SOL    HW223280   2.571   5.598   4.232
 7646SOL     OW23281   2.059   6.562   4.988
 7646SOL    HW123282   2.148   6.517   4.974
 7646SOL    HW223283   1.986   6.497   4.969
 7647SOL     OW23284   3.387   6.585   3.914
 7647SOL    HW123285   3.324   6.509   3.927
 7647SOL    HW223286   3.435   6.603   4.000
 7648SOL     OW23287   3.049   7.378   5.340
 7648SOL    HW123288   3.073   7.438   5.264
 7648SOL    HW223289   3.056   7.283   5.310
 7649SOL     OW23290   2.179   5.837   5.525
 7649SOL    HW123291   2.250   5.908   5.531
 7649SOL    HW223292   2.091   5.876   5.553
 7650SOL     OW23293   3.328   7.003   4.677
 7650SOL    HW123294   3.269   7.009   4.757
 7650SOL    HW223295   3.313   6.915   4.631
 7651SOL     OW23296   3.529   7.300   4.296
 7651SOL    HW123297   3.488   7.277   4.208
 7651SOL    HW223298   3.511   7.226   4.361
 7652SOL     OW23299   2.460   6.315   3.994
 7652SOL    HW123300   2.484   6.384   3.926
 7652SOL    HW223301   2.382   6.348   4.048
 7653SOL     OW23302   3.143   5.931   4.668
 7653SOL    HW123303   3.057   5.881   4.655
 7653SOL    HW223304   3.205   5.877   4.724
 7654SOL     OW23305   3.438   7.248   4.031
 7654SOL    HW123306   3.527   7.294   4.034
 7654SOL    HW223307   3.417   7.224   3.936
 7655SOL     OW23308   2.669   6.191   5.189
 7655SOL    HW123309   2.622   6.188   5.278
 7655SOL    HW223310   2.618   6.136   5.123
 7656SOL     OW23311   3.256   6.055   5.398
 7656SOL    HW123312   3.236   6.098   5.486
 7656SOL    HW223313   3.334   5.993   5.407
 7657SOL     OW23314   2.853   5.996   4.966
 7657SOL    HW123315   2.776   6.030   5.020
 7657SOL    HW223316   2.819   5.945   4.887
 7658SOL     OW23317   2.903   6.287   4.153
 7658SOL    HW123318   2.929   6.283   4.249
 7658SOL    HW223319   2.818   6.236   4.139
 7659SOL     OW23320   1.938   6.397   4.513
 7659SOL    HW123321   2.037   6.385   4.522
 7659SOL    HW223322   1.914   6.492   4.534
 7660SOL     OW23323   1.992   7.407   5.295
 7660SOL    HW123324   1.982   7.392   5.394
 7660SOL    HW223325   1.906   7.443   5.259
 7661SOL     OW23326   2.727   5.934   3.919
 7661SOL    HW123327   2.786   5.997   3.870
 7661SOL    HW223328   2.746   5.840   3.890
 7662SOL     OW23329   3.581   6.171   5.555
 7662SOL    HW123330   3.555   6.260   5.519
 7662SOL    HW223331   3.579   6.103   5.482
 7663SOL     OW23332   3.224   6.730   4.269
 7663SOL    HW123333   3.307   6.701   4.221
 7663SOL    HW223334   3.175   6.797   4.213
 7664SOL     OW23335   2.412   5.782   4.609
 7664SOL    HW123336   2.407   5.777   4.709
 7664SOL    HW223337   2.414   5.878   4.580
 7665SOL     OW23338   2.870   7.042   4.201
 7665SOL    HW123339   2.824   7.114   4.149
 7665SOL    HW223340   2.866   7.062   4.299
 7666SOL     OW23341   2.213   7.387   4.577
 7666SOL    HW123342   2.263   7.301   4.583
 7666SOL    HW223343   2.278   7.464   4.574
 7667SOL     OW23344   3.657   6.652   4.597
 7667SOL    HW123345   3.595   6.637   4.521
 7667SOL    HW223346   3.605   6.663   4.682
 7668SOL     OW23347   3.089   7.136   5.230
 7668SOL    HW123348   3.095   7.059   5.294
 7668SOL    HW223349   3.037   7.110   5.150
 7669SOL     OW23350   2.183   6.529   3.966
 7669SOL    HW123351   2.265   6.568   3.924
 7669SOL    HW223352   2.156   6.447   3.917
 7670SOL     OW23353   3.320   6.321   4.452
 7670SOL    HW123354   3.315   6.256   4.527
 7670SOL    HW223355   3.400   6.380   4.465
 7671SOL     OW23356   2.323   6.852   5.451
 7671SOL    HW123357   2.273   6.853   5.365
 7671SOL    HW223358   2.260   6.834   5.527
 7672SOL     OW23359   2.973   7.362   3.961
 7672SOL    HW123360   2.913   7.300   4.011
 7672SOL    HW223361   3.004   7.318   3.876
 7673SOL     OW23362   2.064   5.871   5.222
 7673SOL    HW123363   1.984   5.931   5.209
 7673SOL    HW223364   2.054   5.822   5.308
 7674SOL     OW23365   3.494   6.963   3.805
 7674SOL    HW123366   3.462   7.057   3.795
 7674SOL    HW223367   3.418   6.900   3.793
 7675SOL     OW23368   2.326   7.329   4.047
 7675SOL    HW123369   2.359   7.368   4.133
 7675SOL    HW223370   2.402   7.322   3.982
 7676SOL     OW23371   3.262   5.693   4.150
 7676SOL    HW123372   3.238   5.656   4.060
 7676SOL    HW223373   3.361   5.709   4.154
 7677SOL     OW23374   2.111   7.371   4.965
 7677SOL    HW123375   2.168   7.306   5.015
 7677SOL    HW223376   2.095   7.338   4.872
 7678SOL     OW23377   2.802   7.284   4.628
 7678SOL    HW123378   2.882   7.227   4.649
 7678SOL    HW223379   2.753   7.244   4.551
 7679SOL     OW23380   2.244   6.286   4.204
 7679SOL    HW123381   2.289   6.196   4.201
 7679SOL    HW223382   2.150   6.275   4.237
 7680SOL     OW23383   3.409   5.808   5.453
 7680SOL    HW123384   3.404   5.845   5.545
 7680SOL    HW223385   3.337   5.739   5.441
 7681SOL     OW23386   2.476   5.708   3.841
 7681SOL    HW123387   2.574   5.686   3.848
 7681SOL    HW223388   2.445   5.691   3.748
 7682SOL     OW23389   2.643   5.850   5.473
 7682SOL    HW123390   2.710   5.789   5.516
 7682SOL    HW223391   2.570   5.869   5.538
 7683SOL     OW23392   2.750   7.100   4.919
 7683SOL    HW123393   2.727   7.075   4.825
 7683SOL    HW223394   2.811   7.031   4.958
 7684SOL     OW23395   3.213   6.176   5.157
 7684SOL    HW123396   3.241   6.133   5.242
 7684SOL    HW223397   3.238   6.272   5.158
 7685SOL     OW23398   2.665   6.988   4.648
 7685SOL    HW123399   2.755   7.002   4.606
 7685SOL    HW223400   2.594   6.990   4.577
 7686SOL     OW23401   2.784   6.089   4.623
 7686SOL    HW123402   2.759   6.080   4.527
 7686SOL    HW223403   2.832   6.007   4.654
 7687SOL     OW23404   2.401   5.650   4.236
 7687SOL    HW123405   2.320   5.651   4.294
 7687SOL    HW223406   2.404   5.733   4.181
 7688SOL     OW23407   3.296   6.774   3.765
 7688SOL    HW123408   3.328   6.698   3.822
 7688SOL    HW223409   3.204   6.801   3.795
 7689SOL     OW23410   2.159   5.621   3.895
 7689SOL    HW123411   2.208   5.705   3.874
 7689SOL    HW223412   2.221   5.556   3.940
 7690SOL     OW23413   2.797   5.822   4.204
 7690SOL    HW123414   2.749   5.863   4.126
 7690SOL    HW223415   2.896   5.820   4.185
 7691SOL     OW23416   3.089   7.156   4.517
 7691SOL    HW123417   3.110   7.230   4.452
 7691SOL    HW223418   3.157   7.156   4.590
 7692SOL     OW23419   2.321   6.738   4.465
 7692SOL    HW123420   2.250   6.711   4.530
 7692SOL    HW223421   2.295   6.710   4.372
 7693SOL     OW23422   3.133   7.383   4.315
 7693SOL    HW123423   3.177   7.447   4.251
 7693SOL    HW223424   3.083   7.435   4.385
 7694SOL     OW23425   2.894   6.135   3.740
 7694SOL    HW123426   2.853   6.217   3.701
 7694SOL    HW223427   2.958   6.161   3.813
 7695SOL     OW23428   1.940   6.142   5.110
 7695SOL    HW123429   2.032   6.141   5.069
 7695SOL    HW223430   1.934   6.216   5.177
 7696SOL     OW23431   2.423   5.808   4.871
 7696SOL    HW123432   2.461   5.724   4.908
 7696SOL    HW223433   2.335   5.827   4.915
 7697SOL     OW23434   2.728   6.040   4.366
 7697SOL    HW123435   2.696   6.112   4.304
 7697SOL    HW223436   2.752   5.959   4.313
 7698SOL     OW23437   2.879   5.625   4.477
 7698SOL    HW123438   2.807   5.630   4.408
 7698SOL    HW223439   2.855   5.556   4.546
 7699SOL     OW23440   3.291   6.759   4.591
 7699SOL    HW123441   3.236   6.675   4.584
 7699SOL    HW223442   3.317   6.788   4.499
 7700SOL     OW23443   3.328   6.176   4.716
 7700SOL    HW123444   3.298   6.081   4.723
 7700SOL    HW223445   3.401   6.192   4.782
 7701SOL     OW23446   3.719   6.419   4.101
 7701SOL    HW123447   3.761   6.355   4.165
 7701SOL    HW223448   3.681   6.368   4.023
 7702SOL     OW23449   2.350   6.971   3.898
 7702SOL    HW123450   2.263   6.956   3.945
 7702SOL    HW223451   2.333   6.997   3.803
 7703SOL     OW23452   3.526   6.866   4.381
 7703SOL    HW123453   3.625   6.874   4.395
 7703SOL    HW223454   3.481   6.950   4.412
 7704SOL     OW23455   3.252   6.161   3.802
 7704SOL    HW123456   3.198   6.140   3.883
 7704SOL    HW223457   3.343   6.120   3.811
 7705SOL     OW23458   2.389   5.842   4.052
 7705SOL    HW123459   2.416   5.783   3.977
 7705SOL    HW223460   2.389   5.937   4.021
 7706SOL     OW23461   2.926   6.933   5.064
 7706SOL    HW123462   2.846   6.910   5.119
 7706SOL    HW223463   3.009   6.907   5.113
 7707SOL     OW23464   3.454   7.215   5.349
 7707SOL    HW123465   3.481   7.249   5.259
 7707SOL    HW223466   3.533   7.177   5.395
 7708SOL     OW23467   2.973   6.781   4.824
 7708SOL    HW123468   2.933   6.825   4.905
 7708SOL    HW223469   2.932   6.818   4.741
 7709SOL     OW23470   3.500   6.685   4.803
 7709SOL    HW123471   3.505   6.766   4.862
 7709SOL    HW223472   3.414   6.687   4.752
 7710SOL     OW23473   2.777   5.675   5.126
 7710SOL    HW123474   2.802   5.655   5.031
 7710SOL    HW223475   2.849   5.731   5.168
 7711SOL     OW23476   2.567   6.636   4.092
 7711SOL    HW123477   2.553   6.643   4.191
 7711SOL    HW223478   2.651   6.585   4.074
 7712SOL     OW23479   2.272   6.399   4.975
 7712SOL    HW123480   2.358   6.411   5.025
 7712SOL    HW223481   2.230   6.312   5.002
 7713SOL     OW23482   3.136   5.972   4.986
 7713SOL    HW123483   3.157   6.046   5.050
 7713SOL    HW223484   3.047   5.989   4.943
 7714SOL     OW23485   1.926   7.150   5.055
 7714SOL    HW123486   1.880   7.232   5.021
 7714SOL    HW223487   2.024   7.169   5.064
 7715SOL     OW23488   2.229   6.686   4.225
 7715SOL    HW123489   2.222   6.769   4.169
 7715SOL    HW223490   2.233   6.606   4.165
 7716SOL     OW23491   2.428   6.123   4.589
 7716SOL    HW123492   2.440   6.189   4.515
 7716SOL    HW223493   2.474   6.157   4.672
 7717SOL     OW23494   3.114   6.934   4.112
 7717SOL    HW123495   3.164   7.011   4.152
 7717SOL    HW223496   3.019   6.936   4.144
 7718SOL     OW23497   3.444   6.225   4.196
 7718SOL    HW123498   3.413   6.286   4.269
 7718SOL    HW223499   3.494   6.277   4.127
 7719SOL     OW23500   2.216   7.096   5.053
 7719SOL    HW123501   2.195   7.052   4.966
 7719SOL    HW223502   2.313   7.122   5.056
 7720SOL     OW23503   2.264   6.337   5.322
 7720SOL    HW123504   2.332   6.392   5.275
 7720SOL    HW223505   2.304   6.249   5.349
 7721SOL     OW23506   3.449   6.365   5.394
 7721SOL    HW123507   3.357   6.403   5.389
 7721SOL    HW223508   3.509   6.412   5.329
 7722SOL     OW23509   2.875   5.691   5.494
 7722SOL    HW123510   2.881   5.776   5.442
 7722SOL    HW223511   2.907   5.615   5.437
 7723SOL     OW23512   2.366   5.636   5.464
 7723SOL    HW123513   2.324   5.579   5.394
 7723SOL    HW223514   2.300   5.705   5.496
 7724SOL     OW23515   2.435   6.456   4.753
 7724SOL    HW123516   2.479   6.545   4.744
 7724SOL    HW223517   2.372   6.456   4.830
 7725SOL     OW23518   3.222   6.448   4.769
 7725SOL    HW123519   3.147   6.448   4.703
 7725SOL    HW223520   3.259   6.356   4.778
 7726SOL     OW23521   3.071   6.111   3.999
 7726SOL    HW123522   3.084   6.027   4.053
 7726SOL    HW223523   3.042   6.185   4.059
 7727SOL     OW23524   2.169   5.799   4.955
 7727SOL    HW123525   2.146   5.836   5.045
 7727SOL    HW223526   2.139   5.704   4.949
 7728SOL     OW23527   1.899   6.896   5.006
 7728SOL    HW123528   1.952   6.847   5.074
 7728SOL    HW223529   1.921   6.994   5.011
 7729SOL     OW23530   2.594   6.220   4.788
 7729SOL    HW123531   2.653   6.194   4.712
 7729SOL    HW223532   2.566   6.316   4.777
 7730SOL     OW23533   3.590   6.521   5.578
 7730SOL    HW123534   3.544   6.514   5.489
 7730SOL    HW223535   3.528   6.565   5.644
 7731SOL     OW23536   2.169   5.649   4.342
 7731SOL    HW123537   2.158   5.743   4.375
 7731SOL    HW223538   2.164   5.586   4.419
 7732SOL     OW23539   3.484   5.953   4.098
 7732SOL    HW123540   3.486   5.877   4.162
 7732SOL    HW223541   3.436   6.030   4.138
 7733SOL     OW23542   2.885   6.352   4.690
 7733SOL    HW123543   2.900   6.373   4.786
 7733SOL    HW223544   2.855   6.257   4.681
 7734SOL     OW23545   2.842   7.159   5.424
 7734SOL    HW123546   2.822   7.203   5.336
 7734SOL    HW223547   2.881   7.068   5.408
 7735SOL     OW23548   2.212   6.484   5.528
 7735SOL    HW123549   2.288   6.528   5.576
 7735SOL    HW223550   2.247   6.437   5.446
 7736SOL     OW23551   3.402   5.860   3.849
 7736SOL    HW123552   3.341   5.785   3.872
 7736SOL    HW223553   3.424   5.912   3.932
 7737SOL     OW23554   3.165   6.424   3.766
 7737SOL    HW123555   3.199   6.331   3.781
 7737SOL    HW223556   3.183   6.451   3.671
 7738SOL     OW23557   2.930   6.919   4.573
 7738SOL    HW123558   2.937   6.835   4.518
 7738SOL    HW223559   2.992   6.988   4.537
 7739SOL     OW23560   2.181   6.396   4.673
 7739SOL    HW123561   2.274   6.432   4.678
 7739SOL    HW223562   2.175   6.311   4.725
 7740SOL     OW23563   2.201   6.095   4.730
 7740SOL    HW123564   2.149   6.012   4.713
 7740SOL    HW223565   2.278   6.100   4.666
 7741SOL     OW23566   3.000   5.966   5.402
 7741SOL    HW123567   2.955   6.029   5.466
 7741SOL    HW223568   3.093   5.997   5.385
 7742SOL     OW23569   3.022   5.793   5.201
 7742SOL    HW123570   3.022   5.857   5.278
 7742SOL    HW223571   3.050   5.841   5.118
 7743SOL     OW23572   1.870   6.912   3.924
 7743SOL    HW123573   1.777   6.933   3.893
 7743SOL    HW223574   1.880   6.813   3.937
 7744SOL     OW23575   1.950   7.387   4.651
 7744SOL    HW123576   1.908   7.301   4.624
 7744SOL    HW223577   2.044   7.390   4.617
 7745SOL     OW23578   2.366   7.154   4.634
 7745SOL    HW123579   2.432   7.228   4.643
 7745SOL    HW223580   2.410   7.075   4.592
 7746SOL     OW23581   2.864   6.382   4.962
 7746SOL    HW123582   2.905   6.350   5.048
 7746SOL    HW223583   2.768   6.355   4.959
 7747SOL     OW23584   1.902   6.130   4.838
 7747SOL    HW123585   1.987   6.097   4.797
 7747SOL    HW223586   1.915   6.145   4.936
 7748SOL     OW23587   2.051   6.106   5.446
 7748SOL    HW123588   2.110   6.066   5.376
 7748SOL    HW223589   1.993   6.177   5.405
 7749SOL     OW23590   2.677   6.158   4.049
 7749SOL    HW123591   2.684   6.069   4.003
 7749SOL    HW223592   2.583   6.192   4.041
 7750SOL     OW23593   3.519   6.190   4.930
 7750SOL    HW123594   3.481   6.121   4.992
 7750SOL    HW223595   3.601   6.154   4.886
 7751SOL     OW23596   2.114   7.150   5.468
 7751SOL    HW123597   2.084   7.207   5.544
 7751SOL    HW223598   2.107   7.053   5.494
 7752SOL     OW23599   2.533   6.050   4.993
 7752SOL    HW123600   2.499   5.961   4.963
 7752SOL    HW223601   2.559   6.104   4.913
 7753SOL     OW23602   2.792   7.264   5.189
 7753SOL    HW123603   2.768   7.246   5.094
 7753SOL    HW223604   2.822   7.358   5.199
 7754SOL     OW23605   2.335   6.086   3.915
 7754SOL    HW123606   2.396   6.166   3.919
 7754SOL    HW223607   2.240   6.117   3.922
 7755SOL     OW23608   2.021   6.723   5.190
 7755SOL    HW123609   2.043   6.662   5.266
 7755SOL    HW223610   2.031   6.674   5.104
 7756SOL     OW23611   3.209   6.645   4.958
 7756SOL    HW123612   3.233   6.582   4.884
 7756SOL    HW223613   3.119   6.685   4.940
 7757SOL     OW23614   3.164   6.441   4.033
 7757SOL    HW123615   3.078   6.410   4.075
 7757SOL    HW223616   3.160   6.427   3.934
 7758SOL     OW23617   3.114   7.317   4.852
 7758SOL    HW123618   3.198   7.322   4.798
 7758SOL    HW223619   3.091   7.221   4.870
 7759SOL     OW23620   1.945   6.844   4.746
 7759SOL    HW123621   1.940   6.843   4.846
 7759SOL    HW223622   1.862   6.803   4.708
 7760SOL     OW23623   2.550   7.248   5.440
 7760SOL    HW123624   2.494   7.329   5.449
 7760SOL    HW223625   2.602   7.252   5.354
 7761SOL     OW23626   3.588   5.721   4.247
 7761SOL    HW123627   3.661   5.704   4.180
 7761SOL    HW223628   3.557   5.634   4.285
 7762SOL     OW23629   3.250   7.159   4.201
 7762SOL    HW123630   3.317   7.171   4.127
 7762SOL    HW223631   3.210   7.248   4.224
 7763SOL     OW23632   1.992   7.380   5.575
 7763SOL    HW123633   1.951   7.306   5.628
 7763SOL    HW223634   2.056   7.431   5.633
 7764SOL     OW23635   3.142   6.513   4.396
 7764SOL    HW123636   3.202   6.432   4.398
 7764SOL    HW223637   3.182   6.582   4.336
 7765SOL     OW23638   2.692   6.859   5.146
 7765SOL    HW123639   2.687   6.892   5.241
 7765SOL    HW223640   2.606   6.878   5.100
 7766SOL     OW23641   2.534   7.202   3.878
 7766SOL    HW123642   2.543   7.212   3.779
 7766SOL    HW223643   2.494   7.113   3.899
 7767SOL     OW23644   3.512   7.306   5.118
 7767SOL    HW123645   3.565   7.316   5.034
 7767SOL    HW223646   3.485   7.396   5.152
 7768SOL     OW23647   3.703   5.761   4.687
 7768SOL    HW123648   3.742   5.676   4.651
 7768SOL    HW223649   3.605   5.763   4.668
 7769SOL     OW23650   2.125   5.912   4.444
 7769SOL    HW123651   2.046   5.963   4.410
 7769SOL    HW223652   2.116   5.897   4.542
 7770SOL     OW23653   3.056   7.198   3.755
 7770SOL    HW123654   3.062   7.105   3.792
 7770SOL    HW223655   2.997   7.198   3.675
 7771SOL     OW23656   2.684   6.588   5.096
 7771SOL    HW123657   2.724   6.587   5.004
 7771SOL    HW223658   2.694   6.680   5.136
 7772SOL     OW23659   2.778   6.496   4.015
 7772SOL    HW123660   2.841   6.534   3.947
 7772SOL    HW223661   2.818   6.413   4.054
 7773SOL     OW23662   3.366   7.193   3.768
 7773SOL    HW123663   3.274   7.230   3.775
 7773SOL    HW223664   3.404   7.213   3.678
 7774SOL     OW23665   2.234   6.874   5.214
 7774SOL    HW123666   2.221   6.967   5.180
 7774SOL    HW223667   2.150   6.822   5.201
 7775SOL     OW23668   2.901   6.684   4.420
 7775SOL    HW123669   2.831   6.637   4.474
 7775SOL    HW223670   2.960   6.616   4.377
 7776SOL     OW23671   2.876   5.822   4.695
 7776SOL    HW123672   2.868   5.786   4.602
 7776SOL    HW223673   2.874   5.746   4.760
 7777SOL     OW23674   2.452   7.073   4.215
 7777SOL    HW123675   2.494   7.015   4.145
 7777SOL    HW223676   2.408   7.152   4.171
 7778SOL     OW23677   3.571   5.971   5.105
 7778SOL    HW123678   3.644   6.040   5.109
 7778SOL    HW223679   3.599   5.896   5.046
 7779SOL     OW23680   2.117   6.934   4.014
 7779SOL    HW123681   2.021   6.935   3.987
 7779SOL    HW223682   2.129   6.987   4.098
 7780SOL     OW23683   1.967   6.599   5.450
 7780SOL    HW123684   1.890   6.566   5.504
 7780SOL    HW223685   2.052   6.569   5.492
 7781SOL     OW23686   2.534   5.789   5.213
 7781SOL    HW123687   2.624   5.773   5.173
 7781SOL    HW223688   2.542   5.794   5.312
 7782SOL     OW23689   1.937   5.931   3.757
 7782SOL    HW123690   1.845   5.903   3.728
 7782SOL    HW223691   1.968   6.008   3.701
 7783SOL     OW23692   3.302   6.442   5.122
 7783SOL    HW123693   3.245   6.494   5.059
 7783SOL    HW223694   3.398   6.454   5.098
 7784SOL     OW23695   1.934   5.752   4.042
 7784SOL    HW123696   1.917   5.835   3.988
 7784SOL    HW223697   2.024   5.715   4.020
 7785SOL     OW23698   3.045   6.921   3.843
 7785SOL    HW123699   2.946   6.910   3.845
 7785SOL    HW223700   3.079   6.936   3.936
 7786SOL     OW23701   2.475   6.428   5.155
 7786SOL    HW123702   2.531   6.509   5.138
 7786SOL    HW223703   2.534   6.348   5.158
 7787SOL     OW23704   3.355   7.353   4.683
 7787SOL    HW123705   3.388   7.417   4.614
 7787SOL    HW223706   3.421   7.347   4.758
 7788SOL     OW23707   2.578   6.151   5.432
 7788SOL    HW123708   2.597   6.216   5.506
 7788SOL    HW223709   2.638   6.071   5.441
 7789SOL     OW23710   2.252   7.327   5.284
 7789SOL    HW123711   2.161   7.368   5.282
 7789SOL    HW223712   2.245   7.233   5.316
 7790SOL     OW23713   3.536   6.469   4.978
 7790SOL    HW123714   3.509   6.380   4.941
 7790SOL    HW223715   3.537   6.537   4.905
 7791SOL     OW23716   3.087   5.911   4.173
 7791SOL    HW123717   3.152   5.837   4.162
 7791SOL    HW223718   3.107   5.961   4.257
 7792SOL     OW23719   2.456   6.331   4.376
 7792SOL    HW123720   2.506   6.416   4.357
 7792SOL    HW223721   2.368   6.333   4.328
 7793SOL     OW23722   3.639   5.928   5.366
 7793SOL    HW123723   3.622   5.959   5.272
 7793SOL    HW223724   3.555   5.891   5.404
 7794SOL     OW23725   3.592   6.520   5.241
 7794SOL    HW123726   3.630   6.611   5.256
 7794SOL    HW223727   3.584   6.503   5.142
 7795SOL     OW23728   2.721   6.960   3.740
 7795SOL    HW123729   2.675   6.975   3.828
 7795SOL    HW223730   2.765   7.045   3.710
 7796SOL     OW23731   2.523   7.376   4.677
 7796SOL    HW123732   2.477   7.464   4.664
 7796SOL    HW223733   2.622   7.388   4.670
 7797SOL     OW23734   2.721   6.542   4.585
 7797SOL    HW123735   2.775   6.473   4.633
 7797SOL    HW223736   2.689   6.611   4.651
 7798SOL     OW23737   2.945   6.570   3.811
 7798SOL    HW123738   2.922   6.623   3.729
 7798SOL    HW223739   3.026   6.514   3.792
 7799SOL     OW23740   3.723   7.155   4.575
 7799SOL    HW123741   3.652   7.143   4.505
 7799SOL    HW223742   3.724   7.076   4.635
 7800SOL     OW23743   2.083   6.900   5.568
 7800SOL    HW123744   2.018   6.827   5.547
 7800SOL    HW223745   2.087   6.914   5.666
 7801SOL     OW23746   1.941   6.826   4.377
 7801SOL    HW123747   1.940   6.779   4.465
 7801SOL    HW223748   2.023   6.798   4.326
 7802SOL     OW23749   2.534   6.977   5.348
 7802SOL    HW123750   2.456   6.927   5.386
 7802SOL    HW223751   2.531   7.072   5.379
 7803SOL     OW23752   3.686   5.778   4.951
 7803SOL    HW123753   3.682   5.688   4.995
 7803SOL    HW223754   3.689   5.767   4.852
 7804SOL     OW23755   2.290   6.010   4.244
 7804SOL    HW123756   2.320   5.938   4.182
 7804SOL    HW223757   2.251   5.970   4.327
 7805SOL     OW23758   3.567   7.073   4.828
 7805SOL    HW123759   3.474   7.048   4.801
 7805SOL    HW223760   3.593   7.023   4.910
 7806SOL     OW23761   2.179   6.133   5.004
 7806SOL    HW123762   2.217   6.074   5.076
 7806SOL    HW223763   2.219   6.107   4.916
 7807SOL     OW23764   2.674   7.172   4.411
 7807SOL    HW123765   2.706   7.182   4.317
 7807SOL    HW223766   2.595   7.110   4.413
 7808SOL     OW23767   3.286   5.800   4.836
 7808SOL    HW123768   3.338   5.735   4.891
 7808SOL    HW223769   3.237   5.863   4.897
 7809SOL     OW23770   2.863   5.620   4.878
 7809SOL    HW123771   2.800   5.548   4.847
 7809SOL    HW223772   2.956   5.584   4.878
 7810SOL     OW23773   2.632   6.916   4.025
 7810SOL    HW123774   2.586   6.829   4.042
 7810SOL    HW223775   2.723   6.913   4.066
 7811SOL     OW23776   2.480   7.153   5.008
 7811SOL    HW123777   2.475   7.235   5.065
 7811SOL    HW223778   2.569   7.150   4.963
 7812SOL     OW23779   3.214   5.638   3.892
 7812SOL    HW123780   3.249   5.597   3.808
 7812SOL    HW223781   3.124   5.600   3.912
 7813SOL     OW23782   3.162   6.039   4.415
 7813SOL    HW123783   3.103   6.119   4.419
 7813SOL    HW223784   3.177   6.004   4.508
 7814SOL     OW23785   3.455   5.807   4.606
 7814SOL    HW123786   3.371   5.806   4.660
 7814SOL    HW223787   3.457   5.890   4.550
 7815SOL     OW23788   1.901   6.663   4.024
 7815SOL    HW123789   2.000   6.652   4.015
 7815SOL    HW223790   1.861   6.577   4.056
 7816SOL     OW23791   2.737   7.232   4.061
 7816SOL    HW123792   2.660   7.197   4.007
 7816SOL    HW223793   2.705   7.303   4.123
 7817SOL     OW23794   2.092   6.214   5.699
 7817SOL    HW123795   1.999   6.212   5.736
 7817SOL    HW223796   2.093   6.175   5.607
 7818SOL     OW23797   2.087   5.861   6.582
 7818SOL    HW123798   2.122   5.844   6.674
 7818SOL    HW223799   1.999   5.816   6.570
 7819SOL     OW23800   1.881   5.954   6.233
 7819SOL    HW123801   1.799   5.997   6.272
 7819SOL    HW223802   1.853   5.881   6.170
 7820SOL     OW23803   2.431   6.861   6.751
 7820SOL    HW123804   2.338   6.854   6.714
 7820SOL    HW223805   2.442   6.950   6.795
 7821SOL     OW23806   3.417   7.097   6.289
 7821SOL    HW123807   3.360   7.081   6.370
 7821SOL    HW223808   3.358   7.107   6.209
 7822SOL     OW23809   2.997   6.289   6.303
 7822SOL    HW123810   3.054   6.367   6.278
 7822SOL    HW223811   2.937   6.315   6.379
 7823SOL     OW23812   3.617   6.193   5.817
 7823SOL    HW123813   3.605   6.180   5.718
 7823SOL    HW223814   3.587   6.112   5.866
 7824SOL     OW23815   2.630   6.730   6.609
 7824SOL    HW123816   2.552   6.747   6.669
 7824SOL    HW223817   2.664   6.817   6.573
 7825SOL     OW23818   2.712   6.384   7.409
 7825SOL    HW123819   2.708   6.460   7.474
 7825SOL    HW223820   2.734   6.420   7.318
 7826SOL     OW23821   2.547   6.598   6.251
 7826SOL    HW123822   2.616   6.582   6.321
 7826SOL    HW223823   2.474   6.655   6.289
 7827SOL     OW23824   2.548   6.747   7.389
 7827SOL    HW123825   2.608   6.826   7.403
 7827SOL    HW223826   2.462   6.778   7.348
 7828SOL     OW23827   2.197   7.021   6.647
 7828SOL    HW123828   2.119   6.990   6.594
 7828SOL    HW223829   2.255   7.079   6.590
 7829SOL     OW23830   3.322   7.091   6.925
 7829SOL    HW123831   3.346   7.185   6.951
 7829SOL    HW223832   3.306   7.037   7.007
 7830SOL     OW23833   2.300   5.978   7.085
 7830SOL    HW123834   2.382   5.922   7.094
 7830SOL    HW223835   2.219   5.920   7.089
 7831SOL     OW23836   3.465   6.033   6.323
 7831SOL    HW123837   3.391   6.079   6.273
 7831SOL    HW223838   3.516   6.101   6.376
 7832SOL     OW23839   2.093   7.299   6.069
 7832SOL    HW123840   2.127   7.376   6.123
 7832SOL    HW223841   2.137   7.299   5.979
 7833SOL     OW23842   2.989   6.927   7.276
 7833SOL    HW123843   3.036   6.927   7.364
 7833SOL    HW223844   2.941   6.840   7.265
 7834SOL     OW23845   2.092   7.020   6.124
 7834SOL    HW123846   2.066   7.116   6.124
 7834SOL    HW223847   2.021   6.966   6.169
 7835SOL     OW23848   2.102   6.677   6.472
 7835SOL    HW123849   2.116   6.593   6.524
 7835SOL    HW223850   2.047   6.741   6.527
 7836SOL     OW23851   2.482   7.372   7.025
 7836SOL    HW123852   2.390   7.355   7.060
 7836SOL    HW223853   2.510   7.464   7.051
 7837SOL     OW23854   2.468   6.550   5.709
 7837SOL    HW123855   2.475   6.634   5.655
 7837SOL    HW223856   2.514   6.563   5.797
 7838SOL     OW23857   3.456   5.700   7.066
 7838SOL    HW123858   3.438   5.767   6.994
 7838SOL    HW223859   3.453   5.746   7.155
 7839SOL     OW23860   1.984   6.229   6.149
 7839SOL    HW123861   1.939   6.141   6.166
 7839SOL    HW223862   1.983   6.283   6.233
 7840SOL     OW23863   3.704   7.353   5.945
 7840SOL    HW123864   3.758   7.324   6.025
 7840SOL    HW223865   3.734   7.443   5.916
 7841SOL     OW23866   1.889   7.182   5.703
 7841SOL    HW123867   1.870   7.086   5.724
 7841SOL    HW223868   1.856   7.240   5.778
 7842SOL     OW23869   1.975   6.323   7.183
 7842SOL    HW123870   2.063   6.310   7.228
 7842SOL    HW223871   1.962   6.420   7.161
 7843SOL     OW23872   2.475   6.951   6.312
 7843SOL    HW123873   2.426   6.864   6.321
 7843SOL    HW223874   2.452   6.994   6.225
 7844SOL     OW23875   3.155   6.814   7.009
 7844SOL    HW123876   3.192   6.741   6.951
 7844SOL    HW223877   3.207   6.819   7.094
 7845SOL     OW23878   2.671   5.590   6.088
 7845SOL    HW123879   2.711   5.681   6.079
 7845SOL    HW223880   2.571   5.598   6.094
 7846SOL     OW23881   2.059   6.562   6.850
 7846SOL    HW123882   2.148   6.517   6.836
 7846SOL    HW223883   1.986   6.497   6.831
 7847SOL     OW23884   3.049   7.378   7.202
 7847SOL    HW123885   3.073   7.438   7.126
 7847SOL    HW223886   3.056   7.283   7.172
 7848SOL     OW23887   2.179   5.837   7.387
 7848SOL    HW123888   2.250   5.908   7.393
 7848SOL    HW223889   2.091   5.876   7.415
 7849SOL     OW23890   3.328   7.003   6.539
 7849SOL    HW123891   3.269   7.009   6.619
 7849SOL    HW223892   3.313   6.915   6.493
 7850SOL     OW23893   3.529   7.300   6.158
 7850SOL    HW123894   3.488   7.277   6.070
 7850SOL    HW223895   3.511   7.226   6.223
 7851SOL     OW23896   2.460   6.315   5.856
 7851SOL    HW123897   2.484   6.384   5.788
 7851SOL    HW223898   2.382   6.348   5.910
 7852SOL     OW23899   3.143   5.931   6.530
 7852SOL    HW123900   3.057   5.881   6.517
 7852SOL    HW223901   3.205   5.877   6.586
 7853SOL     OW23902   3.438   7.248   5.893
 7853SOL    HW123903   3.527   7.294   5.896
 7853SOL    HW223904   3.417   7.224   5.798
 7854SOL     OW23905   2.669   6.191   7.051
 7854SOL    HW123906   2.622   6.188   7.140
 7854SOL    HW223907   2.618   6.136   6.985
 7855SOL     OW23908   3.256   6.055   7.260
 7855SOL    HW123909   3.236   6.098   7.348
 7855SOL    HW223910   3.334   5.993   7.269
 7856SOL     OW23911   2.835   6.476   7.158
 7856SOL    HW123912   2.881   6.392   7.129
 7856SOL    HW223913   2.779   6.510   7.083
 7857SOL     OW23914   2.853   5.996   6.828
 7857SOL    HW123915   2.776   6.030   6.882
 7857SOL    HW223916   2.819   5.945   6.749
 7858SOL     OW23917   2.903   6.287   6.015
 7858SOL    HW123918   2.929   6.283   6.111
 7858SOL    HW223919   2.818   6.236   6.001
 7859SOL     OW23920   1.938   6.397   6.375
 7859SOL    HW123921   2.037   6.385   6.384
 7859SOL    HW223922   1.914   6.492   6.396
 7860SOL     OW23923   1.992   7.407   7.157
 7860SOL    HW123924   1.982   7.392   7.256
 7860SOL    HW223925   1.906   7.443   7.121
 7861SOL     OW23926   2.727   5.934   5.781
 7861SOL    HW123927   2.786   5.997   5.732
 7861SOL    HW223928   2.746   5.840   5.752
 7862SOL     OW23929   3.581   6.171   7.417
 7862SOL    HW123930   3.555   6.260   7.381
 7862SOL    HW223931   3.579   6.103   7.344
 7863SOL     OW23932   2.412   5.782   6.471
 7863SOL    HW123933   2.407   5.777   6.571
 7863SOL    HW223934   2.414   5.878   6.442
 7864SOL     OW23935   2.213   7.387   6.439
 7864SOL    HW123936   2.263   7.301   6.445
 7864SOL    HW223937   2.278   7.464   6.436
 7865SOL     OW23938   3.089   7.136   7.092
 7865SOL    HW123939   3.095   7.059   7.156
 7865SOL    HW223940   3.037   7.110   7.012
 7866SOL     OW23941   2.183   6.529   5.828
 7866SOL    HW123942   2.265   6.568   5.786
 7866SOL    HW223943   2.156   6.447   5.779
 7867SOL     OW23944   3.320   6.321   6.314
 7867SOL    HW123945   3.315   6.256   6.389
 7867SOL    HW223946   3.400   6.380   6.327
 7868SOL     OW23947   2.323   6.852   7.313
 7868SOL    HW123948   2.273   6.853   7.227
 7868SOL    HW223949   2.260   6.834   7.389
 7869SOL     OW23950   2.973   7.362   5.823
 7869SOL    HW123951   2.913   7.300   5.873
 7869SOL    HW223952   3.004   7.318   5.738
 7870SOL     OW23953   2.064   5.871   7.084
 7870SOL    HW123954   1.984   5.931   7.071
 7870SOL    HW223955   2.054   5.822   7.170
 7871SOL     OW23956   3.494   6.963   5.667
 7871SOL    HW123957   3.462   7.057   5.657
 7871SOL    HW223958   3.418   6.900   5.655
 7872SOL     OW23959   2.326   7.329   5.909
 7872SOL    HW123960   2.359   7.368   5.995
 7872SOL    HW223961   2.402   7.322   5.844
 7873SOL     OW23962   3.262   5.693   6.012
 7873SOL    HW123963   3.238   5.656   5.922
 7873SOL    HW223964   3.361   5.709   6.016
 7874SOL     OW23965   2.111   7.371   6.827
 7874SOL    HW123966   2.168   7.306   6.877
 7874SOL    HW223967   2.095   7.338   6.734
 7875SOL     OW23968   2.802   7.284   6.490
 7875SOL    HW123969   2.882   7.227   6.511
 7875SOL    HW223970   2.753   7.244   6.413
 7876SOL     OW23971   2.244   6.286   6.066
 7876SOL    HW123972   2.289   6.196   6.063
 7876SOL    HW223973   2.150   6.275   6.099
 7877SOL     OW23974   3.409   5.808   7.315
 7877SOL    HW123975   3.404   5.845   7.407
 7877SOL    HW223976   3.337   5.739   7.303
 7878SOL     OW23977   2.476   5.708   5.703
 7878SOL    HW123978   2.574   5.686   5.710
 7878SOL    HW223979   2.445   5.691   5.610
 7879SOL     OW23980   2.643   5.850   7.335
 7879SOL    HW123981   2.710   5.789   7.378
 7879SOL    HW223982   2.570   5.869   7.400
 7880SOL     OW23983   2.750   7.100   6.781
 7880SOL    HW123984   2.727   7.075   6.687
 7880SOL    HW223985   2.811   7.031   6.820
 7881SOL     OW23986   3.213   6.176   7.019
 7881SOL    HW123987   3.241   6.133   7.104
 7881SOL    HW223988   3.238   6.272   7.020
 7882SOL     OW23989   2.665   6.988   6.510
 7882SOL    HW123990   2.755   7.002   6.468
 7882SOL    HW223991   2.594   6.990   6.439
 7883SOL     OW23992   2.784   6.089   6.485
 7883SOL    HW123993   2.759   6.080   6.389
 7883SOL    HW223994   2.832   6.007   6.516
 7884SOL     OW23995   2.401   5.650   6.098
 7884SOL    HW123996   2.320   5.651   6.156
 7884SOL    HW223997   2.404   5.733   6.043
 7885SOL     OW23998   2.159   5.621   5.757
 7885SOL    HW123999   2.208   5.705   5.736
 7885SOL    HW224000   2.221   5.556   5.802
 7886SOL     OW24001   2.797   5.822   6.066
 7886SOL    HW124002   2.749   5.863   5.988
 7886SOL    HW224003   2.896   5.820   6.047
 7887SOL     OW24004   2.938   6.269   7.050
 7887SOL    HW124005   2.858   6.208   7.053
 7887SOL    HW224006   3.019   6.216   7.026
 7888SOL     OW24007   3.089   7.156   6.379
 7888SOL    HW124008   3.110   7.230   6.314
 7888SOL    HW224009   3.157   7.156   6.452
 7889SOL     OW24010   2.321   6.738   6.327
 7889SOL    HW124011   2.250   6.711   6.392
 7889SOL    HW224012   2.295   6.710   6.234
 7890SOL     OW24013   3.133   7.383   6.177
 7890SOL    HW124014   3.177   7.447   6.113
 7890SOL    HW224015   3.083   7.435   6.247
 7891SOL     OW24016   2.894   6.135   5.602
 7891SOL    HW124017   2.853   6.217   5.563
 7891SOL    HW224018   2.958   6.161   5.675
 7892SOL     OW24019   1.940   6.142   6.972
 7892SOL    HW124020   2.032   6.141   6.931
 7892SOL    HW224021   1.934   6.216   7.039
 7893SOL     OW24022   2.423   5.808   6.733
 7893SOL    HW124023   2.461   5.724   6.770
 7893SOL    HW224024   2.335   5.827   6.777
 7894SOL     OW24025   2.728   6.040   6.228
 7894SOL    HW124026   2.696   6.112   6.166
 7894SOL    HW224027   2.752   5.959   6.175
 7895SOL     OW24028   2.879   5.625   6.339
 7895SOL    HW124029   2.807   5.630   6.270
 7895SOL    HW224030   2.855   5.556   6.408
 7896SOL     OW24031   3.328   6.176   6.578
 7896SOL    HW124032   3.298   6.081   6.585
 7896SOL    HW224033   3.401   6.192   6.644
 7897SOL     OW24034   3.719   6.419   5.963
 7897SOL    HW124035   3.761   6.355   6.027
 7897SOL    HW224036   3.681   6.368   5.885
 7898SOL     OW24037   3.526   6.866   6.243
 7898SOL    HW124038   3.625   6.874   6.257
 7898SOL    HW224039   3.481   6.950   6.274
 7899SOL     OW24040   3.252   6.161   5.664
 7899SOL    HW124041   3.198   6.140   5.745
 7899SOL    HW224042   3.343   6.120   5.673
 7900SOL     OW24043   2.389   5.842   5.914
 7900SOL    HW124044   2.416   5.783   5.839
 7900SOL    HW224045   2.389   5.937   5.883
 7901SOL     OW24046   3.616   6.809   7.174
 7901SOL    HW124047   3.707   6.770   7.161
 7901SOL    HW224048   3.624   6.905   7.198
 7902SOL     OW24049   2.926   6.933   6.926
 7902SOL    HW124050   2.846   6.910   6.981
 7902SOL    HW224051   3.009   6.907   6.975
 7903SOL     OW24052   3.454   7.215   7.211
 7903SOL    HW124053   3.481   7.249   7.121
 7903SOL    HW224054   3.533   7.177   7.257
 7904SOL     OW24055   2.973   6.781   6.686
 7904SOL    HW124056   2.933   6.825   6.767
 7904SOL    HW224057   2.932   6.818   6.603
 7905SOL     OW24058   2.777   5.675   6.988
 7905SOL    HW124059   2.802   5.655   6.893
 7905SOL    HW224060   2.849   5.731   7.030
 7906SOL     OW24061   2.842   6.702   7.305
 7906SOL    HW124062   2.743   6.708   7.315
 7906SOL    HW224063   2.865   6.622   7.249
 7907SOL     OW24064   2.272   6.399   6.837
 7907SOL    HW124065   2.358   6.411   6.887
 7907SOL    HW224066   2.230   6.312   6.864
 7908SOL     OW24067   3.136   5.972   6.848
 7908SOL    HW124068   3.157   6.046   6.912
 7908SOL    HW224069   3.047   5.989   6.805
 7909SOL     OW24070   1.926   7.150   6.917
 7909SOL    HW124071   1.880   7.232   6.883
 7909SOL    HW224072   2.024   7.169   6.926
 7910SOL     OW24073   2.229   6.686   6.087
 7910SOL    HW124074   2.222   6.769   6.031
 7910SOL    HW224075   2.233   6.606   6.027
 7911SOL     OW24076   2.428   6.123   6.451
 7911SOL    HW124077   2.440   6.189   6.377
 7911SOL    HW224078   2.474   6.157   6.534
 7912SOL     OW24079   3.134   7.031   6.728
 7912SOL    HW124080   3.181   7.044   6.815
 7912SOL    HW224081   3.068   6.957   6.737
 7913SOL     OW24082   3.444   6.225   6.058
 7913SOL    HW124083   3.413   6.286   6.131
 7913SOL    HW224084   3.494   6.277   5.989
 7914SOL     OW24085   2.216   7.096   6.915
 7914SOL    HW124086   2.195   7.052   6.828
 7914SOL    HW224087   2.313   7.122   6.918
 7915SOL     OW24088   2.264   6.337   7.184
 7915SOL    HW124089   2.332   6.392   7.137
 7915SOL    HW224090   2.304   6.249   7.211
 7916SOL     OW24091   3.449   6.365   7.256
 7916SOL    HW124092   3.357   6.403   7.251
 7916SOL    HW224093   3.509   6.412   7.191
 7917SOL     OW24094   2.875   5.691   7.356
 7917SOL    HW124095   2.881   5.776   7.304
 7917SOL    HW224096   2.907   5.615   7.299
 7918SOL     OW24097   2.366   5.636   7.326
 7918SOL    HW124098   2.324   5.579   7.256
 7918SOL    HW224099   2.300   5.705   7.358
 7919SOL     OW24100   2.435   6.456   6.615
 7919SOL    HW124101   2.479   6.545   6.606
 7919SOL    HW224102   2.372   6.456   6.692
 7920SOL     OW24103   3.222   6.448   6.631
 7920SOL    HW124104   3.147   6.448   6.565
 7920SOL    HW224105   3.259   6.356   6.640
 7921SOL     OW24106   3.071   6.111   5.861
 7921SOL    HW124107   3.084   6.027   5.915
 7921SOL    HW224108   3.042   6.185   5.921
 7922SOL     OW24109   2.169   5.799   6.817
 7922SOL    HW124110   2.146   5.836   6.907
 7922SOL    HW224111   2.139   5.704   6.811
 7923SOL     OW24112   1.899   6.896   6.868
 7923SOL    HW124113   1.952   6.847   6.936
 7923SOL    HW224114   1.921   6.994   6.873
 7924SOL     OW24115   2.594   6.220   6.650
 7924SOL    HW124116   2.653   6.194   6.574
 7924SOL    HW224117   2.566   6.316   6.639
 7925SOL     OW24118   3.590   6.521   7.440
 7925SOL    HW124119   3.544   6.514   7.351
 7925SOL    HW224120   3.528   6.565   7.506
 7926SOL     OW24121   2.169   5.649   6.204
 7926SOL    HW124122   2.158   5.743   6.237
 7926SOL    HW224123   2.164   5.586   6.281
 7927SOL     OW24124   3.484   5.953   5.960
 7927SOL    HW124125   3.486   5.877   6.024
 7927SOL    HW224126   3.436   6.030   6.000
 7928SOL     OW24127   2.885   6.352   6.552
 7928SOL    HW124128   2.900   6.373   6.648
 7928SOL    HW224129   2.855   6.257   6.543
 7929SOL     OW24130   2.842   7.159   7.286
 7929SOL    HW124131   2.822   7.203   7.198
 7929SOL    HW224132   2.881   7.068   7.270
 7930SOL     OW24133   3.721   7.104   7.191
 7930SOL    HW124134   3.735   7.131   7.096
 7930SOL    HW224135   3.804   7.126   7.244
 7931SOL     OW24136   2.212   6.484   7.390
 7931SOL    HW124137   2.288   6.528   7.438
 7931SOL    HW224138   2.247   6.437   7.308
 7932SOL     OW24139   3.402   5.860   5.711
 7932SOL    HW124140   3.341   5.785   5.734
 7932SOL    HW224141   3.424   5.912   5.794
 7933SOL     OW24142   2.930   6.919   6.435
 7933SOL    HW124143   2.937   6.835   6.380
 7933SOL    HW224144   2.992   6.988   6.399
 7934SOL     OW24145   2.181   6.396   6.535
 7934SOL    HW124146   2.274   6.432   6.540
 7934SOL    HW224147   2.175   6.311   6.587
 7935SOL     OW24148   2.201   6.095   6.592
 7935SOL    HW124149   2.149   6.012   6.575
 7935SOL    HW224150   2.278   6.100   6.528
 7936SOL     OW24151   3.000   5.966   7.264
 7936SOL    HW124152   2.955   6.029   7.328
 7936SOL    HW224153   3.093   5.997   7.247
 7937SOL     OW24154   3.022   5.793   7.063
 7937SOL    HW124155   3.022   5.857   7.140
 7937SOL    HW224156   3.050   5.841   6.980
 7938SOL     OW24157   1.870   6.912   5.786
 7938SOL    HW124158   1.777   6.933   5.755
 7938SOL    HW224159   1.880   6.813   5.799
 7939SOL     OW24160   1.950   7.387   6.513
 7939SOL    HW124161   1.908   7.301   6.486
 7939SOL    HW224162   2.044   7.390   6.479
 7940SOL     OW24163   2.366   7.154   6.496
 7940SOL    HW124164   2.432   7.228   6.505
 7940SOL    HW224165   2.410   7.075   6.454
 7941SOL     OW24166   2.864   6.382   6.824
 7941SOL    HW124167   2.905   6.350   6.910
 7941SOL    HW224168   2.768   6.355   6.821
 7942SOL     OW24169   1.902   6.130   6.700
 7942SOL    HW124170   1.987   6.097   6.659
 7942SOL    HW224171   1.915   6.145   6.798
 7943SOL     OW24172   2.051   6.106   7.308
 7943SOL    HW124173   2.110   6.066   7.238
 7943SOL    HW224174   1.993   6.177   7.267
 7944SOL     OW24175   3.231   6.536   7.246
 7944SOL    HW124176   3.270   6.625   7.266
 7944SOL    HW224177   3.241   6.516   7.149
 7945SOL     OW24178   2.677   6.158   5.911
 7945SOL    HW124179   2.684   6.069   5.865
 7945SOL    HW224180   2.583   6.192   5.903
 7946SOL     OW24181   3.519   6.190   6.792
 7946SOL    HW124182   3.481   6.121   6.854
 7946SOL    HW224183   3.601   6.154   6.748
 7947SOL     OW24184   2.114   7.150   7.330
 7947SOL    HW124185   2.084   7.207   7.406
 7947SOL    HW224186   2.107   7.053   7.356
 7948SOL     OW24187   2.533   6.050   6.855
 7948SOL    HW124188   2.499   5.961   6.825
 7948SOL    HW224189   2.559   6.104   6.775
 7949SOL     OW24190   2.792   7.264   7.051
 7949SOL    HW124191   2.768   7.246   6.956
 7949SOL    HW224192   2.822   7.358   7.061
 7950SOL     OW24193   2.335   6.086   5.777
 7950SOL    HW124194   2.396   6.166   5.781
 7950SOL    HW224195   2.240   6.117   5.784
 7951SOL     OW24196   2.021   6.723   7.052
 7951SOL    HW124197   2.043   6.662   7.128
 7951SOL    HW224198   2.031   6.674   6.966
 7952SOL     OW24199   3.209   6.645   6.820
 7952SOL    HW124200   3.233   6.582   6.746
 7952SOL    HW224201   3.119   6.685   6.802
 7953SOL     OW24202   3.164   6.441   5.895
 7953SOL    HW124203   3.078   6.410   5.937
 7953SOL    HW224204   3.160   6.427   5.796
 7954SOL     OW24205   3.621   7.333   6.740
 7954SOL    HW124206   3.682   7.363   6.667
 7954SOL    HW224207   3.583   7.244   6.718
 7955SOL     OW24208   3.114   7.317   6.714
 7955SOL    HW124209   3.198   7.322   6.660
 7955SOL    HW224210   3.091   7.221   6.732
 7956SOL     OW24211   1.945   6.844   6.608
 7956SOL    HW124212   1.940   6.843   6.708
 7956SOL    HW224213   1.862   6.803   6.570
 7957SOL     OW24214   2.550   7.248   7.302
 7957SOL    HW124215   2.494   7.329   7.311
 7957SOL    HW224216   2.602   7.252   7.216
 7958SOL     OW24217   3.588   5.721   6.109
 7958SOL    HW124218   3.661   5.704   6.042
 7958SOL    HW224219   3.557   5.634   6.147
 7959SOL     OW24220   3.250   7.159   6.063
 7959SOL    HW124221   3.317   7.171   5.989
 7959SOL    HW224222   3.210   7.248   6.086
 7960SOL     OW24223   1.992   7.380   7.437
 7960SOL    HW124224   1.951   7.306   7.490
 7960SOL    HW224225   2.056   7.431   7.495
 7961SOL     OW24226   2.692   6.859   7.008
 7961SOL    HW124227   2.687   6.892   7.103
 7961SOL    HW224228   2.606   6.878   6.962
 7962SOL     OW24229   2.534   7.202   5.740
 7962SOL    HW124230   2.543   7.212   5.641
 7962SOL    HW224231   2.494   7.113   5.761
 7963SOL     OW24232   3.512   7.306   6.980
 7963SOL    HW124233   3.565   7.316   6.896
 7963SOL    HW224234   3.485   7.396   7.014
 7964SOL     OW24235   3.703   5.761   6.549
 7964SOL    HW124236   3.742   5.676   6.513
 7964SOL    HW224237   3.605   5.763   6.530
 7965SOL     OW24238   2.125   5.912   6.306
 7965SOL    HW124239   2.046   5.963   6.272
 7965SOL    HW224240   2.116   5.897   6.404
 7966SOL     OW24241   3.056   7.198   5.617
 7966SOL    HW124242   3.062   7.105   5.654
 7966SOL    HW224243   2.997   7.198   5.537
 7967SOL     OW24244   2.684   6.588   6.958
 7967SOL    HW124245   2.724   6.587   6.866
 7967SOL    HW224246   2.694   6.680   6.998
 7968SOL     OW24247   2.778   6.496   5.877
 7968SOL    HW124248   2.841   6.534   5.809
 7968SOL    HW224249   2.818   6.413   5.916
 7969SOL     OW24250   3.366   7.193   5.630
 7969SOL    HW124251   3.274   7.230   5.637
 7969SOL    HW224252   3.404   7.213   5.540
 7970SOL     OW24253   2.234   6.874   7.076
 7970SOL    HW124254   2.221   6.967   7.042
 7970SOL    HW224255   2.150   6.822   7.063
 7971SOL     OW24256   3.476   6.878   6.875
 7971SOL    HW124257   3.536   6.881   6.955
 7971SOL    HW224258   3.401   6.942   6.888
 7972SOL     OW24259   2.901   6.684   6.282
 7972SOL    HW124260   2.831   6.637   6.336
 7972SOL    HW224261   2.960   6.616   6.239
 7973SOL     OW24262   2.876   5.822   6.557
 7973SOL    HW124263   2.868   5.786   6.464
 7973SOL    HW224264   2.874   5.746   6.622
 7974SOL     OW24265   3.571   5.971   6.967
 7974SOL    HW124266   3.644   6.040   6.971
 7974SOL    HW224267   3.599   5.896   6.908
 7975SOL     OW24268   1.967   6.599   7.312
 7975SOL    HW124269   1.890   6.566   7.366
 7975SOL    HW224270   2.052   6.569   7.354
 7976SOL     OW24271   2.534   5.789   7.075
 7976SOL    HW124272   2.624   5.773   7.035
 7976SOL    HW224273   2.542   5.794   7.174
 7977SOL     OW24274   1.937   5.931   5.619
 7977SOL    HW124275   1.845   5.903   5.590
 7977SOL    HW224276   1.968   6.008   5.563
 7978SOL     OW24277   3.302   6.442   6.984
 7978SOL    HW124278   3.245   6.494   6.921
 7978SOL    HW224279   3.398   6.454   6.960
 7979SOL     OW24280   1.934   5.752   5.904
 7979SOL    HW124281   1.917   5.835   5.850
 7979SOL    HW224282   2.024   5.715   5.882
 7980SOL     OW24283   2.475   6.428   7.017
 7980SOL    HW124284   2.531   6.509   7.000
 7980SOL    HW224285   2.534   6.348   7.020
 7981SOL     OW24286   3.355   7.353   6.545
 7981SOL    HW124287   3.388   7.417   6.476
 7981SOL    HW224288   3.421   7.347   6.620
 7982SOL     OW24289   2.578   6.151   7.294
 7982SOL    HW124290   2.597   6.216   7.368
 7982SOL    HW224291   2.638   6.071   7.303
 7983SOL     OW24292   3.312   6.806   7.219
 7983SOL    HW124293   3.303   6.796   7.318
 7983SOL    HW224294   3.408   6.799   7.193
 7984SOL     OW24295   2.252   7.327   7.146
 7984SOL    HW124296   2.161   7.368   7.144
 7984SOL    HW224297   2.245   7.233   7.178
 7985SOL     OW24298   3.536   6.469   6.840
 7985SOL    HW124299   3.509   6.380   6.803
 7985SOL    HW224300   3.537   6.537   6.767
 7986SOL     OW24301   3.087   5.911   6.035
 7986SOL    HW124302   3.152   5.837   6.024
 7986SOL    HW224303   3.107   5.961   6.119
 7987SOL     OW24304   2.456   6.331   6.238
 7987SOL    HW124305   2.506   6.416   6.219
 7987SOL    HW224306   2.368   6.333   6.190
 7988SOL     OW24307   3.639   5.928   7.228
 7988SOL    HW124308   3.622   5.959   7.134
 7988SOL    HW224309   3.555   5.891   7.266
 7989SOL     OW24310   3.592   6.520   7.103
 7989SOL    HW124311   3.630   6.611   7.118
 7989SOL    HW224312   3.584   6.503   7.004
 7990SOL     OW24313   2.523   7.376   6.539
 7990SOL    HW124314   2.477   7.464   6.526
 7990SOL    HW224315   2.622   7.388   6.532
 7991SOL     OW24316   2.721   6.542   6.447
 7991SOL    HW124317   2.775   6.473   6.495
 7991SOL    HW224318   2.689   6.611   6.513
 7992SOL     OW24319   2.945   6.570   5.673
 7992SOL    HW124320   2.922   6.623   5.591
 7992SOL    HW224321   3.026   6.514   5.654
 7993SOL     OW24322   3.723   7.155   6.437
 7993SOL    HW124323   3.652   7.143   6.367
 7993SOL    HW224324   3.724   7.076   6.497
 7994SOL     OW24325   2.083   6.900   7.430
 7994SOL    HW124326   2.018   6.827   7.409
 7994SOL    HW224327   2.087   6.914   7.528
 7995SOL     OW24328   1.941   6.826   6.239
 7995SOL    HW124329   1.940   6.779   6.327
 7995SOL    HW224330   2.023   6.798   6.188
 7996SOL     OW24331   2.534   6.977   7.210
 7996SOL    HW124332   2.456   6.927   7.248
 7996SOL    HW224333   2.531   7.072   7.241
 7997SOL     OW24334   3.686   5.778   6.813
 7997SOL    HW124335   3.682   5.688   6.857
 7997SOL    HW224336   3.689   5.767   6.714
 7998SOL     OW24337   2.290   6.010   6.106
 7998SOL    HW124338   2.320   5.938   6.044
 7998SOL    HW224339   2.251   5.970   6.189
 7999SOL     OW24340   3.567   7.073   6.690
 7999SOL    HW124341   3.474   7.048   6.663
 7999SOL    HW224342   3.593   7.023   6.772
 8000SOL     OW24343   2.179   6.133   6.866
 8000SOL    HW124344   2.217   6.074   6.938
 8000SOL    HW224345   2.219   6.107   6.778
 8001SOL     OW24346   2.674   7.172   6.273
 8001SOL    HW124347   2.706   7.182   6.179
 8001SOL    HW224348   2.595   7.110   6.275
 8002SOL     OW24349   3.286   5.800   6.698
 8002SOL    HW124350   3.338   5.735   6.753
 8002SOL    HW224351   3.237   5.863   6.759
 8003SOL     OW24352   2.863   5.620   6.740
 8003SOL    HW124353   2.800   5.548   6.709
 8003SOL    HW224354   2.956   5.584   6.740
 8004SOL     OW24355   2.480   7.153   6.870
 8004SOL    HW124356   2.475   7.235   6.927
 8004SOL    HW224357   2.569   7.150   6.825
 8005SOL     OW24358   3.214   5.638   5.754
 8005SOL    HW124359   3.249   5.597   5.670
 8005SOL    HW224360   3.124   5.600   5.774
 8006SOL     OW24361   3.162   6.039   6.277
 8006SOL    HW124362   3.103   6.119   6.281
 8006SOL    HW224363   3.177   6.004   6.370
 8007SOL     OW24364   3.455   5.807   6.468
 8007SOL    HW124365   3.371   5.806   6.522
 8007SOL    HW224366   3.457   5.890   6.412
 8008SOL     OW24367   1.901   6.663   5.886
 8008SOL    HW124368   2.000   6.652   5.877
 8008SOL    HW224369   1.861   6.577   5.918
 8009SOL     OW24370   2.737   7.232   5.923
 8009SOL    HW124371   2.660   7.197   5.869
 8009SOL    HW224372   2.705   7.303   5.985
 8010SOL     OW24373   2.092   6.214   7.561
 8010SOL    HW124374   1.999   6.212   7.598
 8010SOL    HW224375   2.093   6.175   7.469
 8011SOL     OW24376   3.617   6.193   7.679
 8011SOL    HW124377   3.605   6.180   7.580
 8011SOL    HW224378   3.587   6.112   7.728
 8012SOL     OW24379   2.093   7.299   7.931
 8012SOL    HW124380   2.127   7.376   7.985
 8012SOL    HW224381   2.137   7.299   7.841
 8013SOL     OW24382   2.468   6.550   7.571
 8013SOL    HW124383   2.475   6.634   7.517
 8013SOL    HW224384   2.514   6.563   7.659
 8014SOL     OW24385   3.704   7.353   7.807
 8014SOL    HW124386   3.758   7.324   7.887
 8014SOL    HW224387   3.734   7.443   7.778
 8015SOL     OW24388   1.889   7.182   7.565
 8015SOL    HW124389   1.870   7.086   7.586
 8015SOL    HW224390   1.856   7.240   7.640
 8016SOL     OW24391   3.503   6.694   7.880
 8016SOL    HW124392   3.589   6.696   7.828
 8016SOL    HW224393   3.517   6.741   7.968
 8017SOL     OW24394   2.671   5.590   7.950
 8017SOL    HW124395   2.711   5.681   7.941
 8017SOL    HW224396   2.571   5.598   7.956
 8018SOL     OW24397   3.387   6.585   7.638
 8018SOL    HW124398   3.324   6.509   7.651
 8018SOL    HW224399   3.435   6.603   7.724
 8019SOL     OW24400   3.529   7.300   8.020
 8019SOL    HW124401   3.488   7.277   7.932
 8019SOL    HW224402   3.511   7.226   8.085
 8020SOL     OW24403   2.460   6.315   7.718
 8020SOL    HW124404   2.484   6.384   7.650
 8020SOL    HW224405   2.382   6.348   7.772
 8021SOL     OW24406   3.438   7.248   7.755
 8021SOL    HW124407   3.527   7.294   7.758
 8021SOL    HW224408   3.417   7.224   7.660
 8022SOL     OW24409   2.903   6.287   7.877
 8022SOL    HW124410   2.929   6.283   7.973
 8022SOL    HW224411   2.818   6.236   7.863
 8023SOL     OW24412   2.727   5.934   7.643
 8023SOL    HW124413   2.786   5.997   7.594
 8023SOL    HW224414   2.746   5.840   7.614
 8024SOL     OW24415   3.224   6.730   7.993
 8024SOL    HW124416   3.307   6.701   7.945
 8024SOL    HW224417   3.175   6.797   7.937
 8025SOL     OW24418   2.870   7.042   7.925
 8025SOL    HW124419   2.824   7.114   7.873
 8025SOL    HW224420   2.866   7.062   8.023
 8026SOL     OW24421   2.183   6.529   7.690
 8026SOL    HW124422   2.265   6.568   7.648
 8026SOL    HW224423   2.156   6.447   7.641
 8027SOL     OW24424   2.973   7.362   7.685
 8027SOL    HW124425   2.913   7.300   7.735
 8027SOL    HW224426   3.004   7.318   7.600
 8028SOL     OW24427   3.494   6.963   7.529
 8028SOL    HW124428   3.462   7.057   7.519
 8028SOL    HW224429   3.418   6.900   7.517
 8029SOL     OW24430   2.326   7.329   7.771
 8029SOL    HW124431   2.359   7.368   7.857
 8029SOL    HW224432   2.402   7.322   7.706
 8030SOL     OW24433   3.262   5.693   7.874
 8030SOL    HW124434   3.238   5.656   7.784
 8030SOL    HW224435   3.361   5.709   7.878
 8031SOL     OW24436   2.244   6.286   7.928
 8031SOL    HW124437   2.289   6.196   7.925
 8031SOL    HW224438   2.150   6.275   7.961
 8032SOL     OW24439   2.476   5.708   7.565
 8032SOL    HW124440   2.574   5.686   7.572
 8032SOL    HW224441   2.445   5.691   7.472
 8033SOL     OW24442   2.401   5.650   7.960
 8033SOL    HW124443   2.320   5.651   8.018
 8033SOL    HW224444   2.404   5.733   7.905
 8034SOL     OW24445   3.296   6.774   7.489
 8034SOL    HW124446   3.328   6.698   7.546
 8034SOL    HW224447   3.204   6.801   7.519
 8035SOL     OW24448   2.159   5.621   7.619
 8035SOL    HW124449   2.208   5.705   7.598
 8035SOL    HW224450   2.221   5.556   7.664
 8036SOL     OW24451   2.797   5.822   7.928
 8036SOL    HW124452   2.749   5.863   7.850
 8036SOL    HW224453   2.896   5.820   7.909
 8037SOL     OW24454   2.894   6.135   7.464
 8037SOL    HW124455   2.853   6.217   7.425
 8037SOL    HW224456   2.958   6.161   7.537
 8038SOL     OW24457   3.719   6.419   7.825
 8038SOL    HW124458   3.761   6.355   7.889
 8038SOL    HW224459   3.681   6.368   7.747
 8039SOL     OW24460   2.350   6.971   7.622
 8039SOL    HW124461   2.263   6.956   7.669
 8039SOL    HW224462   2.333   6.997   7.527
 8040SOL     OW24463   3.252   6.161   7.526
 8040SOL    HW124464   3.198   6.140   7.607
 8040SOL    HW224465   3.343   6.120   7.535
 8041SOL     OW24466   2.389   5.842   7.776
 8041SOL    HW124467   2.416   5.783   7.701
 8041SOL    HW224468   2.389   5.937   7.745
 8042SOL     OW24469   2.567   6.636   7.816
 8042SOL    HW124470   2.553   6.643   7.915
 8042SOL    HW224471   2.651   6.585   7.798
 8043SOL     OW24472   2.229   6.686   7.949
 8043SOL    HW124473   2.222   6.769   7.893
 8043SOL    HW224474   2.233   6.606   7.889
 8044SOL     OW24475   3.114   6.934   7.836
 8044SOL    HW124476   3.164   7.011   7.876
 8044SOL    HW224477   3.019   6.936   7.868
 8045SOL     OW24478   3.444   6.225   7.920
 8045SOL    HW124479   3.413   6.286   7.993
 8045SOL    HW224480   3.494   6.277   7.851
 8046SOL     OW24481   3.071   6.111   7.723
 8046SOL    HW124482   3.084   6.027   7.777
 8046SOL    HW224483   3.042   6.185   7.783
 8047SOL     OW24484   3.484   5.953   7.822
 8047SOL    HW124485   3.486   5.877   7.886
 8047SOL    HW224486   3.436   6.030   7.862
 8048SOL     OW24487   3.402   5.860   7.573
 8048SOL    HW124488   3.341   5.785   7.596
 8048SOL    HW224489   3.424   5.912   7.656
 8049SOL     OW24490   3.165   6.424   7.490
 8049SOL    HW124491   3.199   6.331   7.505
 8049SOL    HW224492   3.183   6.451   7.395
 8050SOL     OW24493   1.870   6.912   7.648
 8050SOL    HW124494   1.777   6.933   7.617
 8050SOL    HW224495   1.880   6.813   7.661
 8051SOL     OW24496   2.677   6.158   7.773
 8051SOL    HW124497   2.684   6.069   7.727
 8051SOL    HW224498   2.583   6.192   7.765
 8052SOL     OW24499   2.335   6.086   7.639
 8052SOL    HW124500   2.396   6.166   7.643
 8052SOL    HW224501   2.240   6.117   7.646
 8053SOL     OW24502   3.164   6.441   7.757
 8053SOL    HW124503   3.078   6.410   7.799
 8053SOL    HW224504   3.160   6.427   7.658
 8054SOL     OW24505   3.588   5.721   7.971
 8054SOL    HW124506   3.661   5.704   7.904
 8054SOL    HW224507   3.557   5.634   8.009
 8055SOL     OW24508   3.250   7.159   7.925
 8055SOL    HW124509   3.317   7.171   7.851
 8055SOL    HW224510   3.210   7.248   7.948
 8056SOL     OW24511   2.534   7.202   7.602
 8056SOL    HW124512   2.543   7.212   7.503
 8056SOL    HW224513   2.494   7.113   7.623
 8057SOL     OW24514   3.056   7.198   7.479
 8057SOL    HW124515   3.062   7.105   7.516
 8057SOL    HW224516   2.997   7.198   7.399
 8058SOL     OW24517   2.778   6.496   7.739
 8058SOL    HW124518   2.841   6.534   7.671
 8058SOL    HW224519   2.818   6.413   7.778
 8059SOL     OW24520   3.366   7.193   7.492
 8059SOL    HW124521   3.274   7.230   7.499
 8059SOL    HW224522   3.404   7.213   7.402
 8060SOL     OW24523   2.452   7.073   7.939
 8060SOL    HW124524   2.494   7.015   7.869
 8060SOL    HW224525   2.408   7.152   7.895
 8061SOL     OW24526   2.117   6.934   7.738
 8061SOL    HW124527   2.021   6.935   7.711
 8061SOL    HW224528   2.129   6.987   7.822
 8062SOL     OW24529   1.937   5.931   7.481
 8062SOL    HW124530   1.845   5.903   7.452
 8062SOL    HW224531   1.968   6.008   7.425
 8063SOL     OW24532   1.934   5.752   7.766
 8063SOL    HW124533   1.917   5.835   7.712
 8063SOL    HW224534   2.024   5.715   7.744
 8064SOL     OW24535   3.045   6.921   7.567
 8064SOL    HW124536   2.946   6.910   7.569
 8064SOL    HW224537   3.079   6.936   7.660
 8065SOL     OW24538   3.087   5.911   7.897
 8065SOL    HW124539   3.152   5.837   7.886
 8065SOL    HW224540   3.107   5.961   7.981
 8066SOL     OW24541   2.721   6.960   7.464
 8066SOL    HW124542   2.675   6.975   7.552
 8066SOL    HW224543   2.765   7.045   7.434
 8067SOL     OW24544   2.945   6.570   7.535
 8067SOL    HW124545   2.922   6.623   7.453
 8067SOL    HW224546   3.026   6.514   7.516
 8068SOL     OW24547   2.290   6.010   7.968
 8068SOL    HW124548   2.320   5.938   7.906
 8068SOL    HW224549   2.251   5.970   8.051
 8069SOL     OW24550   2.632   6.916   7.749
 8069SOL    HW124551   2.586   6.829   7.766
 8069SOL    HW224552   2.723   6.913   7.790
 8070SOL     OW24553   3.214   5.638   7.616
 8070SOL    HW124554   3.249   5.597   7.532
 8070SOL    HW224555   3.124   5.600   7.636
 8071SOL     OW24556   1.901   6.663   7.748
 8071SOL    HW124557   2.000   6.652   7.739
 8071SOL    HW224558   1.861   6.577   7.780
 8072SOL     OW24559   2.737   7.232   7.785
 8072SOL    HW124560   2.660   7.197   7.731
 8072SOL    HW224561   2.705   7.303   7.847
 8073SOL     OW24562   2.092   8.076   0.113
 8073SOL    HW124563   1.999   8.074   0.150
 8073SOL    HW224564   2.093   8.037   0.021
 8074SOL     OW24565   2.087   7.723   0.996
 8074SOL    HW124566   2.122   7.706   1.088
 8074SOL    HW224567   1.999   7.678   0.984
 8075SOL     OW24568   1.881   7.816   0.647
 8075SOL    HW124569   1.799   7.859   0.686
 8075SOL    HW224570   1.853   7.743   0.584
 8076SOL     OW24571   2.431   8.723   1.165
 8076SOL    HW124572   2.338   8.716   1.128
 8076SOL    HW224573   2.442   8.812   1.209
 8077SOL     OW24574   2.997   8.151   0.717
 8077SOL    HW124575   3.054   8.229   0.692
 8077SOL    HW224576   2.937   8.177   0.793
 8078SOL     OW24577   3.617   8.055   0.231
 8078SOL    HW124578   3.605   8.042   0.132
 8078SOL    HW224579   3.587   7.974   0.280
 8079SOL     OW24580   2.630   8.592   1.023
 8079SOL    HW124581   2.552   8.609   1.083
 8079SOL    HW224582   2.664   8.679   0.987
 8080SOL     OW24583   2.712   8.246   1.823
 8080SOL    HW124584   2.708   8.322   1.888
 8080SOL    HW224585   2.734   8.282   1.732
 8081SOL     OW24586   2.547   8.460   0.665
 8081SOL    HW124587   2.616   8.444   0.735
 8081SOL    HW224588   2.474   8.517   0.703
 8082SOL     OW24589   2.548   8.609   1.803
 8082SOL    HW124590   2.608   8.688   1.817
 8082SOL    HW224591   2.462   8.640   1.762
 8083SOL     OW24592   2.197   8.883   1.061
 8083SOL    HW124593   2.119   8.852   1.008
 8083SOL    HW224594   2.255   8.941   1.004
 8084SOL     OW24595   2.300   7.840   1.499
 8084SOL    HW124596   2.382   7.784   1.508
 8084SOL    HW224597   2.219   7.782   1.503
 8085SOL     OW24598   3.465   7.895   0.737
 8085SOL    HW124599   3.391   7.941   0.687
 8085SOL    HW224600   3.516   7.963   0.790
 8086SOL     OW24601   2.989   8.789   1.690
 8086SOL    HW124602   3.036   8.789   1.778
 8086SOL    HW224603   2.941   8.702   1.679
 8087SOL     OW24604   2.092   8.882   0.538
 8087SOL    HW124605   2.066   8.978   0.538
 8087SOL    HW224606   2.021   8.828   0.583
 8088SOL     OW24607   2.102   8.539   0.886
 8088SOL    HW124608   2.116   8.455   0.938
 8088SOL    HW224609   2.047   8.603   0.941
 8089SOL     OW24610   2.468   8.412   0.123
 8089SOL    HW124611   2.475   8.496   0.069
 8089SOL    HW224612   2.514   8.425   0.211
 8090SOL     OW24613   3.456   7.562   1.480
 8090SOL    HW124614   3.438   7.629   1.408
 8090SOL    HW224615   3.453   7.608   1.569
 8091SOL     OW24616   1.984   8.091   0.563
 8091SOL    HW124617   1.939   8.003   0.580
 8091SOL    HW224618   1.983   8.145   0.647
 8092SOL     OW24619   1.889   9.044   0.117
 8092SOL    HW124620   1.870   8.948   0.138
 8092SOL    HW224621   1.856   9.102   0.192
 8093SOL     OW24622   3.551   8.370   0.612
 8093SOL    HW124623   3.646   8.341   0.620
 8093SOL    HW224624   3.543   8.435   0.537
 8094SOL     OW24625   3.503   8.556   0.432
 8094SOL    HW124626   3.589   8.558   0.380
 8094SOL    HW224627   3.517   8.603   0.520
 8095SOL     OW24628   1.975   8.185   1.597
 8095SOL    HW124629   2.063   8.172   1.642
 8095SOL    HW224630   1.962   8.282   1.575
 8096SOL     OW24631   2.475   8.813   0.726
 8096SOL    HW124632   2.426   8.726   0.735
 8096SOL    HW224633   2.452   8.856   0.639
 8097SOL     OW24634   3.155   8.676   1.423
 8097SOL    HW124635   3.192   8.603   1.365
 8097SOL    HW224636   3.207   8.681   1.508
 8098SOL     OW24637   2.671   7.452   0.502
 8098SOL    HW124638   2.711   7.543   0.493
 8098SOL    HW224639   2.571   7.460   0.508
 8099SOL     OW24640   2.059   8.424   1.264
 8099SOL    HW124641   2.148   8.379   1.250
 8099SOL    HW224642   1.986   8.359   1.245
 8100SOL     OW24643   3.387   8.447   0.190
 8100SOL    HW124644   3.324   8.371   0.203
 8100SOL    HW224645   3.435   8.465   0.276
 8101SOL     OW24646   3.049   9.240   1.616
 8101SOL    HW124647   3.073   9.300   1.540
 8101SOL    HW224648   3.056   9.145   1.586
 8102SOL     OW24649   2.179   7.699   1.801
 8102SOL    HW124650   2.250   7.770   1.807
 8102SOL    HW224651   2.091   7.738   1.829
 8103SOL     OW24652   3.328   8.865   0.953
 8103SOL    HW124653   3.269   8.871   1.033
 8103SOL    HW224654   3.313   8.777   0.907
 8104SOL     OW24655   2.460   8.177   0.270
 8104SOL    HW124656   2.484   8.246   0.202
 8104SOL    HW224657   2.382   8.210   0.324
 8105SOL     OW24658   3.143   7.793   0.944
 8105SOL    HW124659   3.057   7.743   0.931
 8105SOL    HW224660   3.205   7.739   1.000
 8106SOL     OW24661   2.669   8.053   1.465
 8106SOL    HW124662   2.622   8.050   1.554
 8106SOL    HW224663   2.618   7.998   1.399
 8107SOL     OW24664   3.256   7.917   1.674
 8107SOL    HW124665   3.236   7.960   1.762
 8107SOL    HW224666   3.334   7.855   1.683
 8108SOL     OW24667   2.835   8.338   1.572
 8108SOL    HW124668   2.881   8.254   1.543
 8108SOL    HW224669   2.779   8.372   1.497
 8109SOL     OW24670   2.853   7.858   1.242
 8109SOL    HW124671   2.776   7.892   1.296
 8109SOL    HW224672   2.819   7.807   1.163
 8110SOL     OW24673   2.903   8.149   0.429
 8110SOL    HW124674   2.929   8.145   0.525
 8110SOL    HW224675   2.818   8.098   0.415
 8111SOL     OW24676   1.938   8.259   0.789
 8111SOL    HW124677   2.037   8.247   0.798
 8111SOL    HW224678   1.914   8.354   0.810
 8112SOL     OW24679   2.727   7.796   0.195
 8112SOL    HW124680   2.786   7.859   0.146
 8112SOL    HW224681   2.746   7.702   0.166
 8113SOL     OW24682   3.581   8.033   1.831
 8113SOL    HW124683   3.555   8.122   1.795
 8113SOL    HW224684   3.579   7.965   1.758
 8114SOL     OW24685   3.224   8.592   0.545
 8114SOL    HW124686   3.307   8.563   0.497
 8114SOL    HW224687   3.175   8.659   0.489
 8115SOL     OW24688   2.412   7.644   0.885
 8115SOL    HW124689   2.407   7.639   0.985
 8115SOL    HW224690   2.414   7.740   0.856
 8116SOL     OW24691   2.870   8.904   0.477
 8116SOL    HW124692   2.824   8.976   0.425
 8116SOL    HW224693   2.866   8.924   0.575
 8117SOL     OW24694   3.657   8.514   0.873
 8117SOL    HW124695   3.595   8.499   0.797
 8117SOL    HW224696   3.605   8.525   0.958
 8118SOL     OW24697   3.089   8.998   1.506
 8118SOL    HW124698   3.095   8.921   1.570
 8118SOL    HW224699   3.037   8.972   1.426
 8119SOL     OW24700   2.183   8.391   0.242
 8119SOL    HW124701   2.265   8.430   0.200
 8119SOL    HW224702   2.156   8.309   0.193
 8120SOL     OW24703   3.320   8.183   0.728
 8120SOL    HW124704   3.315   8.118   0.803
 8120SOL    HW224705   3.400   8.242   0.741
 8121SOL     OW24706   2.323   8.714   1.727
 8121SOL    HW124707   2.273   8.715   1.641
 8121SOL    HW224708   2.260   8.696   1.803
 8122SOL     OW24709   2.064   7.733   1.498
 8122SOL    HW124710   1.984   7.793   1.485
 8122SOL    HW224711   2.054   7.684   1.584
 8123SOL     OW24712   3.262   7.555   0.426
 8123SOL    HW124713   3.238   7.518   0.336
 8123SOL    HW224714   3.361   7.571   0.430
 8124SOL     OW24715   2.802   9.146   0.904
 8124SOL    HW124716   2.882   9.089   0.925
 8124SOL    HW224717   2.753   9.106   0.827
 8125SOL     OW24718   2.244   8.148   0.480
 8125SOL    HW124719   2.289   8.058   0.477
 8125SOL    HW224720   2.150   8.137   0.513
 8126SOL     OW24721   3.409   7.670   1.729
 8126SOL    HW124722   3.404   7.707   1.821
 8126SOL    HW224723   3.337   7.601   1.717
 8127SOL     OW24724   2.476   7.570   0.117
 8127SOL    HW124725   2.574   7.548   0.124
 8127SOL    HW224726   2.445   7.553   0.024
 8128SOL     OW24727   2.643   7.712   1.749
 8128SOL    HW124728   2.710   7.651   1.792
 8128SOL    HW224729   2.570   7.731   1.814
 8129SOL     OW24730   2.750   8.962   1.195
 8129SOL    HW124731   2.727   8.937   1.101
 8129SOL    HW224732   2.811   8.893   1.234
 8130SOL     OW24733   3.213   8.038   1.433
 8130SOL    HW124734   3.241   7.995   1.518
 8130SOL    HW224735   3.238   8.134   1.434
 8131SOL     OW24736   2.665   8.850   0.924
 8131SOL    HW124737   2.755   8.864   0.882
 8131SOL    HW224738   2.594   8.852   0.853
 8132SOL     OW24739   2.784   7.951   0.899
 8132SOL    HW124740   2.759   7.942   0.803
 8132SOL    HW224741   2.832   7.869   0.930
 8133SOL     OW24742   2.401   7.512   0.512
 8133SOL    HW124743   2.320   7.513   0.570
 8133SOL    HW224744   2.404   7.595   0.457
 8134SOL     OW24745   3.296   8.636   0.041
 8134SOL    HW124746   3.328   8.560   0.098
 8134SOL    HW224747   3.204   8.663   0.071
 8135SOL     OW24748   2.159   7.483   0.171
 8135SOL    HW124749   2.208   7.567   0.150
 8135SOL    HW224750   2.221   7.418   0.216
 8136SOL     OW24751   2.797   7.684   0.480
 8136SOL    HW124752   2.749   7.725   0.402
 8136SOL    HW224753   2.896   7.682   0.461
 8137SOL     OW24754   2.938   8.131   1.464
 8137SOL    HW124755   2.858   8.070   1.467
 8137SOL    HW224756   3.019   8.078   1.440
 8138SOL     OW24757   3.089   9.018   0.793
 8138SOL    HW124758   3.110   9.092   0.728
 8138SOL    HW224759   3.157   9.018   0.866
 8139SOL     OW24760   2.321   8.600   0.741
 8139SOL    HW124761   2.250   8.573   0.806
 8139SOL    HW224762   2.295   8.572   0.648
 8140SOL     OW24763   2.894   7.997   0.016
 8140SOL    HW124764   2.853   8.079  -0.023
 8140SOL    HW224765   2.958   8.023   0.089
 8141SOL     OW24766   1.940   8.004   1.386
 8141SOL    HW124767   2.032   8.003   1.345
 8141SOL    HW224768   1.934   8.078   1.453
 8142SOL     OW24769   2.423   7.670   1.147
 8142SOL    HW124770   2.461   7.586   1.184
 8142SOL    HW224771   2.335   7.689   1.191
 8143SOL     OW24772   2.728   7.902   0.642
 8143SOL    HW124773   2.696   7.974   0.580
 8143SOL    HW224774   2.752   7.821   0.589
 8144SOL     OW24775   2.879   7.487   0.753
 8144SOL    HW124776   2.807   7.492   0.684
 8144SOL    HW224777   2.855   7.418   0.822
 8145SOL     OW24778   3.291   8.621   0.867
 8145SOL    HW124779   3.236   8.537   0.860
 8145SOL    HW224780   3.317   8.650   0.775
 8146SOL     OW24781   3.328   8.038   0.992
 8146SOL    HW124782   3.298   7.943   0.999
 8146SOL    HW224783   3.401   8.054   1.058
 8147SOL     OW24784   3.719   8.281   0.377
 8147SOL    HW124785   3.761   8.217   0.441
 8147SOL    HW224786   3.681   8.230   0.299
 8148SOL     OW24787   2.350   8.833   0.174
 8148SOL    HW124788   2.263   8.818   0.221
 8148SOL    HW224789   2.333   8.859   0.079
 8149SOL     OW24790   3.252   8.023   0.078
 8149SOL    HW124791   3.198   8.002   0.159
 8149SOL    HW224792   3.343   7.982   0.087
 8150SOL     OW24793   2.389   7.704   0.328
 8150SOL    HW124794   2.416   7.645   0.253
 8150SOL    HW224795   2.389   7.799   0.297
 8151SOL     OW24796   2.926   8.795   1.340
 8151SOL    HW124797   2.846   8.772   1.395
 8151SOL    HW224798   3.009   8.769   1.389
 8152SOL     OW24799   2.973   8.643   1.100
 8152SOL    HW124800   2.933   8.687   1.181
 8152SOL    HW224801   2.932   8.680   1.017
 8153SOL     OW24802   3.500   8.547   1.079
 8153SOL    HW124803   3.505   8.628   1.138
 8153SOL    HW224804   3.414   8.549   1.028
 8154SOL     OW24805   2.777   7.537   1.402
 8154SOL    HW124806   2.802   7.517   1.307
 8154SOL    HW224807   2.849   7.593   1.444
 8155SOL     OW24808   2.842   8.564   1.719
 8155SOL    HW124809   2.743   8.570   1.729
 8155SOL    HW224810   2.865   8.484   1.663
 8156SOL     OW24811   2.567   8.498   0.368
 8156SOL    HW124812   2.553   8.505   0.467
 8156SOL    HW224813   2.651   8.447   0.350
 8157SOL     OW24814   2.272   8.261   1.251
 8157SOL    HW124815   2.358   8.273   1.301
 8157SOL    HW224816   2.230   8.174   1.278
 8158SOL     OW24817   3.136   7.834   1.262
 8158SOL    HW124818   3.157   7.908   1.326
 8158SOL    HW224819   3.047   7.851   1.219
 8159SOL     OW24820   1.926   9.012   1.331
 8159SOL    HW124821   1.880   9.094   1.297
 8159SOL    HW224822   2.024   9.031   1.340
 8160SOL     OW24823   2.229   8.548   0.501
 8160SOL    HW124824   2.222   8.631   0.445
 8160SOL    HW224825   2.233   8.468   0.441
 8161SOL     OW24826   2.428   7.985   0.865
 8161SOL    HW124827   2.440   8.051   0.791
 8161SOL    HW224828   2.474   8.019   0.948
 8162SOL     OW24829   3.114   8.796   0.388
 8162SOL    HW124830   3.164   8.873   0.428
 8162SOL    HW224831   3.019   8.798   0.420
 8163SOL     OW24832   3.134   8.893   1.142
 8163SOL    HW124833   3.181   8.906   1.229
 8163SOL    HW224834   3.068   8.819   1.151
 8164SOL     OW24835   3.444   8.087   0.472
 8164SOL    HW124836   3.413   8.148   0.545
 8164SOL    HW224837   3.494   8.139   0.403
 8165SOL     OW24838   2.216   8.958   1.329
 8165SOL    HW124839   2.195   8.914   1.242
 8165SOL    HW224840   2.313   8.984   1.332
 8166SOL     OW24841   2.264   8.199   1.598
 8166SOL    HW124842   2.332   8.254   1.551
 8166SOL    HW224843   2.304   8.111   1.625
 8167SOL     OW24844   3.449   8.227   1.670
 8167SOL    HW124845   3.357   8.265   1.665
 8167SOL    HW224846   3.509   8.274   1.605
 8168SOL     OW24847   2.875   7.553   1.770
 8168SOL    HW124848   2.881   7.638   1.718
 8168SOL    HW224849   2.907   7.477   1.713
 8169SOL     OW24850   2.366   7.498   1.740
 8169SOL    HW124851   2.324   7.441   1.670
 8169SOL    HW224852   2.300   7.567   1.772
 8170SOL     OW24853   2.435   8.318   1.029
 8170SOL    HW124854   2.479   8.407   1.020
 8170SOL    HW224855   2.372   8.318   1.106
 8171SOL     OW24856   3.222   8.310   1.045
 8171SOL    HW124857   3.147   8.310   0.979
 8171SOL    HW224858   3.259   8.218   1.054
 8172SOL     OW24859   3.071   7.973   0.275
 8172SOL    HW124860   3.084   7.889   0.329
 8172SOL    HW224861   3.042   8.047   0.335
 8173SOL     OW24862   2.169   7.661   1.231
 8173SOL    HW124863   2.146   7.698   1.321
 8173SOL    HW224864   2.139   7.566   1.225
 8174SOL     OW24865   1.899   8.758   1.282
 8174SOL    HW124866   1.952   8.709   1.350
 8174SOL    HW224867   1.921   8.856   1.287
 8175SOL     OW24868   2.594   8.082   1.064
 8175SOL    HW124869   2.653   8.056   0.988
 8175SOL    HW224870   2.566   8.178   1.053
 8176SOL     OW24871   3.590   8.383   1.854
 8176SOL    HW124872   3.544   8.376   1.765
 8176SOL    HW224873   3.528   8.427   1.920
 8177SOL     OW24874   2.169   7.511   0.618
 8177SOL    HW124875   2.158   7.605   0.651
 8177SOL    HW224876   2.164   7.448   0.695
 8178SOL     OW24877   3.484   7.815   0.374
 8178SOL    HW124878   3.486   7.739   0.438
 8178SOL    HW224879   3.436   7.892   0.414
 8179SOL     OW24880   2.885   8.214   0.966
 8179SOL    HW124881   2.900   8.235   1.062
 8179SOL    HW224882   2.855   8.119   0.957
 8180SOL     OW24883   2.842   9.021   1.700
 8180SOL    HW124884   2.822   9.065   1.612
 8180SOL    HW224885   2.881   8.930   1.684
 8181SOL     OW24886   2.212   8.346   1.804
 8181SOL    HW124887   2.288   8.390   1.852
 8181SOL    HW224888   2.247   8.299   1.722
 8182SOL     OW24889   3.402   7.722   0.125
 8182SOL    HW124890   3.341   7.647   0.148
 8182SOL    HW224891   3.424   7.774   0.208
 8183SOL     OW24892   3.165   8.286   0.042
 8183SOL    HW124893   3.199   8.193   0.057
 8183SOL    HW224894   3.183   8.313  -0.053
 8184SOL     OW24895   2.930   8.781   0.849
 8184SOL    HW124896   2.937   8.697   0.794
 8184SOL    HW224897   2.992   8.850   0.813
 8185SOL     OW24898   2.181   8.258   0.949
 8185SOL    HW124899   2.274   8.294   0.954
 8185SOL    HW224900   2.175   8.173   1.001
 8186SOL     OW24901   2.201   7.957   1.006
 8186SOL    HW124902   2.149   7.874   0.989
 8186SOL    HW224903   2.278   7.962   0.942
 8187SOL     OW24904   3.000   7.828   1.678
 8187SOL    HW124905   2.955   7.891   1.742
 8187SOL    HW224906   3.093   7.859   1.661
 8188SOL     OW24907   3.022   7.655   1.477
 8188SOL    HW124908   3.022   7.719   1.554
 8188SOL    HW224909   3.050   7.703   1.394
 8189SOL     OW24910   1.870   8.774   0.200
 8189SOL    HW124911   1.777   8.795   0.169
 8189SOL    HW224912   1.880   8.675   0.213
 8190SOL     OW24913   2.366   9.016   0.910
 8190SOL    HW124914   2.432   9.090   0.919
 8190SOL    HW224915   2.410   8.937   0.868
 8191SOL     OW24916   2.864   8.244   1.238
 8191SOL    HW124917   2.905   8.212   1.324
 8191SOL    HW224918   2.768   8.217   1.235
 8192SOL     OW24919   1.902   7.992   1.114
 8192SOL    HW124920   1.987   7.959   1.073
 8192SOL    HW224921   1.915   8.007   1.212
 8193SOL     OW24922   2.051   7.968   1.722
 8193SOL    HW124923   2.110   7.928   1.652
 8193SOL    HW224924   1.993   8.039   1.681
 8194SOL     OW24925   3.231   8.398   1.660
 8194SOL    HW124926   3.270   8.487   1.680
 8194SOL    HW224927   3.241   8.378   1.563
 8195SOL     OW24928   2.677   8.020   0.325
 8195SOL    HW124929   2.684   7.931   0.279
 8195SOL    HW224930   2.583   8.054   0.317
 8196SOL     OW24931   3.519   8.052   1.206
 8196SOL    HW124932   3.481   7.983   1.268
 8196SOL    HW224933   3.601   8.016   1.162
 8197SOL     OW24934   2.114   9.012   1.744
 8197SOL    HW124935   2.084   9.069   1.820
 8197SOL    HW224936   2.107   8.915   1.770
 8198SOL     OW24937   2.533   7.912   1.269
 8198SOL    HW124938   2.499   7.823   1.239
 8198SOL    HW224939   2.559   7.966   1.189
 8199SOL     OW24940   2.792   9.126   1.465
 8199SOL    HW124941   2.768   9.108   1.370
 8199SOL    HW224942   2.822   9.220   1.475
 8200SOL     OW24943   2.335   7.948   0.191
 8200SOL    HW124944   2.396   8.028   0.195
 8200SOL    HW224945   2.240   7.979   0.198
 8201SOL     OW24946   2.021   8.585   1.466
 8201SOL    HW124947   2.043   8.524   1.542
 8201SOL    HW224948   2.031   8.536   1.380
 8202SOL     OW24949   3.209   8.507   1.234
 8202SOL    HW124950   3.233   8.444   1.160
 8202SOL    HW224951   3.119   8.547   1.216
 8203SOL     OW24952   3.164   8.303   0.309
 8203SOL    HW124953   3.078   8.272   0.351
 8203SOL    HW224954   3.160   8.289   0.210
 8204SOL     OW24955   1.945   8.706   1.022
 8204SOL    HW124956   1.940   8.705   1.122
 8204SOL    HW224957   1.862   8.665   0.984
 8205SOL     OW24958   2.550   9.110   1.716
 8205SOL    HW124959   2.494   9.191   1.725
 8205SOL    HW224960   2.602   9.114   1.630
 8206SOL     OW24961   2.765   7.534   0.133
 8206SOL    HW124962   2.816   7.535   0.047
 8206SOL    HW224963   2.821   7.492   0.204
 8207SOL     OW24964   3.588   7.583   0.523
 8207SOL    HW124965   3.661   7.566   0.456
 8207SOL    HW224966   3.557   7.496   0.561
 8208SOL     OW24967   3.142   8.375   0.672
 8208SOL    HW124968   3.202   8.294   0.674
 8208SOL    HW224969   3.182   8.444   0.612
 8209SOL     OW24970   2.692   8.721   1.422
 8209SOL    HW124971   2.687   8.754   1.517
 8209SOL    HW224972   2.606   8.740   1.376
 8210SOL     OW24973   2.534   9.064   0.154
 8210SOL    HW124974   2.543   9.074   0.055
 8210SOL    HW224975   2.494   8.975   0.175
 8211SOL     OW24976   3.703   7.623   0.963
 8211SOL    HW124977   3.742   7.538   0.927
 8211SOL    HW224978   3.605   7.625   0.944
 8212SOL     OW24979   2.125   7.774   0.720
 8212SOL    HW124980   2.046   7.825   0.686
 8212SOL    HW224981   2.116   7.759   0.818
 8213SOL     OW24982   3.056   9.060   0.031
 8213SOL    HW124983   3.062   8.967   0.068
 8213SOL    HW224984   2.997   9.060  -0.049
 8214SOL     OW24985   2.684   8.450   1.372
 8214SOL    HW124986   2.724   8.449   1.280
 8214SOL    HW224987   2.694   8.542   1.412
 8215SOL     OW24988   2.778   8.358   0.291
 8215SOL    HW124989   2.841   8.396   0.223
 8215SOL    HW224990   2.818   8.275   0.330
 8216SOL     OW24991   3.366   9.055   0.044
 8216SOL    HW124992   3.274   9.092   0.051
 8216SOL    HW224993   3.404   9.075  -0.046
 8217SOL     OW24994   2.234   8.736   1.490
 8217SOL    HW124995   2.221   8.829   1.456
 8217SOL    HW224996   2.150   8.684   1.477
 8218SOL     OW24997   3.476   8.740   1.289
 8218SOL    HW124998   3.536   8.743   1.369
 8218SOL    HW224999   3.401   8.804   1.302
 8219SOL     OW25000   2.901   8.546   0.696
 8219SOL    HW125001   2.831   8.499   0.750
 8219SOL    HW225002   2.960   8.478   0.653
 8220SOL     OW25003   2.876   7.684   0.971
 8220SOL    HW125004   2.868   7.648   0.878
 8220SOL    HW225005   2.874   7.608   1.036
 8221SOL     OW25006   2.452   8.935   0.491
 8221SOL    HW125007   2.494   8.877   0.421
 8221SOL    HW225008   2.408   9.014   0.447
 8222SOL     OW25009   3.571   7.833   1.381
 8222SOL    HW125010   3.644   7.902   1.385
 8222SOL    HW225011   3.599   7.758   1.322
 8223SOL     OW25012   2.117   8.796   0.290
 8223SOL    HW125013   2.021   8.797   0.263
 8223SOL    HW225014   2.129   8.849   0.374
 8224SOL     OW25015   1.967   8.461   1.726
 8224SOL    HW125016   1.890   8.428   1.780
 8224SOL    HW225017   2.052   8.431   1.768
 8225SOL     OW25018   2.534   7.651   1.489
 8225SOL    HW125019   2.624   7.635   1.449
 8225SOL    HW225020   2.542   7.656   1.588
 8226SOL     OW25021   1.937   7.793   0.033
 8226SOL    HW125022   1.845   7.765   0.004
 8226SOL    HW225023   1.968   7.870  -0.023
 8227SOL     OW25024   3.302   8.304   1.398
 8227SOL    HW125025   3.245   8.356   1.335
 8227SOL    HW225026   3.398   8.316   1.374
 8228SOL     OW25027   1.934   7.614   0.318
 8228SOL    HW125028   1.917   7.697   0.264
 8228SOL    HW225029   2.024   7.577   0.296
 8229SOL     OW25030   3.045   8.783   0.119
 8229SOL    HW125031   2.946   8.772   0.121
 8229SOL    HW225032   3.079   8.798   0.212
 8230SOL     OW25033   2.475   8.290   1.431
 8230SOL    HW125034   2.531   8.371   1.414
 8230SOL    HW225035   2.534   8.210   1.434
 8231SOL     OW25036   2.578   8.013   1.708
 8231SOL    HW125037   2.597   8.078   1.782
 8231SOL    HW225038   2.638   7.933   1.717
 8232SOL     OW25039   3.312   8.668   1.633
 8232SOL    HW125040   3.303   8.658   1.732
 8232SOL    HW225041   3.408   8.661   1.607
 8233SOL     OW25042   2.252   9.189   1.560
 8233SOL    HW125043   2.161   9.230   1.558
 8233SOL    HW225044   2.245   9.095   1.592
 8234SOL     OW25045   3.536   8.331   1.254
 8234SOL    HW125046   3.509   8.242   1.217
 8234SOL    HW225047   3.537   8.399   1.181
 8235SOL     OW25048   3.087   7.773   0.449
 8235SOL    HW125049   3.152   7.699   0.438
 8235SOL    HW225050   3.107   7.823   0.533
 8236SOL     OW25051   2.456   8.193   0.652
 8236SOL    HW125052   2.506   8.278   0.633
 8236SOL    HW225053   2.368   8.195   0.604
 8237SOL     OW25054   3.639   7.790   1.642
 8237SOL    HW125055   3.622   7.821   1.548
 8237SOL    HW225056   3.555   7.753   1.680
 8238SOL     OW25057   3.592   8.382   1.517
 8238SOL    HW125058   3.630   8.473   1.532
 8238SOL    HW225059   3.584   8.365   1.418
 8239SOL     OW25060   2.721   8.822   0.016
 8239SOL    HW125061   2.675   8.837   0.104
 8239SOL    HW225062   2.765   8.907  -0.014
 8240SOL     OW25063   2.721   8.404   0.861
 8240SOL    HW125064   2.775   8.335   0.909
 8240SOL    HW225065   2.689   8.473   0.927
 8241SOL     OW25066   2.945   8.432   0.087
 8241SOL    HW125067   2.922   8.485   0.005
 8241SOL    HW225068   3.026   8.376   0.068
 8242SOL     OW25069   2.083   8.762   1.844
 8242SOL    HW125070   2.018   8.689   1.823
 8242SOL    HW225071   2.087   8.776   1.942
 8243SOL     OW25072   1.941   8.688   0.653
 8243SOL    HW125073   1.940   8.641   0.741
 8243SOL    HW225074   2.023   8.660   0.602
 8244SOL     OW25075   2.534   8.839   1.624
 8244SOL    HW125076   2.456   8.789   1.662
 8244SOL    HW225077   2.531   8.934   1.655
 8245SOL     OW25078   3.686   7.640   1.227
 8245SOL    HW125079   3.682   7.550   1.271
 8245SOL    HW225080   3.689   7.629   1.128
 8246SOL     OW25081   2.290   7.872   0.520
 8246SOL    HW125082   2.320   7.800   0.458
 8246SOL    HW225083   2.251   7.832   0.603
 8247SOL     OW25084   3.567   8.935   1.104
 8247SOL    HW125085   3.474   8.910   1.077
 8247SOL    HW225086   3.593   8.885   1.186
 8248SOL     OW25087   2.179   7.995   1.280
 8248SOL    HW125088   2.217   7.936   1.352
 8248SOL    HW225089   2.219   7.969   1.192
 8249SOL     OW25090   2.674   9.034   0.687
 8249SOL    HW125091   2.706   9.044   0.593
 8249SOL    HW225092   2.595   8.972   0.689
 8250SOL     OW25093   3.286   7.662   1.112
 8250SOL    HW125094   3.338   7.597   1.167
 8250SOL    HW225095   3.237   7.725   1.173
 8251SOL     OW25096   2.863   7.482   1.154
 8251SOL    HW125097   2.800   7.410   1.123
 8251SOL    HW225098   2.956   7.446   1.154
 8252SOL     OW25099   2.632   8.778   0.301
 8252SOL    HW125100   2.586   8.691   0.318
 8252SOL    HW225101   2.723   8.775   0.342
 8253SOL     OW25102   2.480   9.015   1.284
 8253SOL    HW125103   2.475   9.097   1.341
 8253SOL    HW225104   2.569   9.012   1.239
 8254SOL     OW25105   3.214   7.500   0.168
 8254SOL    HW125106   3.249   7.459   0.084
 8254SOL    HW225107   3.124   7.462   0.188
 8255SOL     OW25108   3.162   7.901   0.691
 8255SOL    HW125109   3.103   7.981   0.695
 8255SOL    HW225110   3.177   7.866   0.784
 8256SOL     OW25111   3.455   7.669   0.882
 8256SOL    HW125112   3.371   7.668   0.936
 8256SOL    HW225113   3.457   7.752   0.826
 8257SOL     OW25114   1.901   8.525   0.300
 8257SOL    HW125115   2.000   8.514   0.291
 8257SOL    HW225116   1.861   8.439   0.332
 8258SOL     OW25117   2.737   9.094   0.337
 8258SOL    HW125118   2.660   9.059   0.283
 8258SOL    HW225119   2.705   9.165   0.399
 8259SOL     OW25120   2.092   8.076   1.975
 8259SOL    HW125121   1.999   8.074   2.012
 8259SOL    HW225122   2.093   8.037   1.883
 8260SOL     OW25123   2.087   7.723   2.858
 8260SOL    HW125124   2.122   7.706   2.950
 8260SOL    HW225125   1.999   7.678   2.846
 8261SOL     OW25126   1.881   7.816   2.509
 8261SOL    HW125127   1.799   7.859   2.548
 8261SOL    HW225128   1.853   7.743   2.446
 8262SOL     OW25129   2.431   8.723   3.027
 8262SOL    HW125130   2.338   8.716   2.990
 8262SOL    HW225131   2.442   8.812   3.071
 8263SOL     OW25132   2.997   8.151   2.579
 8263SOL    HW125133   3.054   8.229   2.554
 8263SOL    HW225134   2.937   8.177   2.655
 8264SOL     OW25135   3.617   8.055   2.093
 8264SOL    HW125136   3.605   8.042   1.994
 8264SOL    HW225137   3.587   7.974   2.142
 8265SOL     OW25138   2.630   8.592   2.885
 8265SOL    HW125139   2.552   8.609   2.945
 8265SOL    HW225140   2.664   8.679   2.849
 8266SOL     OW25141   2.712   8.246   3.685
 8266SOL    HW125142   2.708   8.322   3.750
 8266SOL    HW225143   2.734   8.282   3.594
 8267SOL     OW25144   2.547   8.460   2.527
 8267SOL    HW125145   2.616   8.444   2.597
 8267SOL    HW225146   2.474   8.517   2.565
 8268SOL     OW25147   2.548   8.609   3.665
 8268SOL    HW125148   2.608   8.688   3.679
 8268SOL    HW225149   2.462   8.640   3.624
 8269SOL     OW25150   2.197   8.883   2.923
 8269SOL    HW125151   2.119   8.852   2.870
 8269SOL    HW225152   2.255   8.941   2.866
 8270SOL     OW25153   2.300   7.840   3.361
 8270SOL    HW125154   2.382   7.784   3.370
 8270SOL    HW225155   2.219   7.782   3.365
 8271SOL     OW25156   3.465   7.895   2.599
 8271SOL    HW125157   3.391   7.941   2.549
 8271SOL    HW225158   3.516   7.963   2.652
 8272SOL     OW25159   2.989   8.789   3.552
 8272SOL    HW125160   3.036   8.789   3.640
 8272SOL    HW225161   2.941   8.702   3.541
 8273SOL     OW25162   2.092   8.882   2.400
 8273SOL    HW125163   2.066   8.978   2.400
 8273SOL    HW225164   2.021   8.828   2.445
 8274SOL     OW25165   2.102   8.539   2.748
 8274SOL    HW125166   2.116   8.455   2.800
 8274SOL    HW225167   2.047   8.603   2.803
 8275SOL     OW25168   2.468   8.412   1.985
 8275SOL    HW125169   2.475   8.496   1.931
 8275SOL    HW225170   2.514   8.425   2.073
 8276SOL     OW25171   3.456   7.562   3.342
 8276SOL    HW125172   3.438   7.629   3.270
 8276SOL    HW225173   3.453   7.608   3.431
 8277SOL     OW25174   1.984   8.091   2.425
 8277SOL    HW125175   1.939   8.003   2.442
 8277SOL    HW225176   1.983   8.145   2.509
 8278SOL     OW25177   1.889   9.044   1.979
 8278SOL    HW125178   1.870   8.948   2.000
 8278SOL    HW225179   1.856   9.102   2.054
 8279SOL     OW25180   3.551   8.370   2.474
 8279SOL    HW125181   3.646   8.341   2.482
 8279SOL    HW225182   3.543   8.435   2.399
 8280SOL     OW25183   3.503   8.556   2.294
 8280SOL    HW125184   3.589   8.558   2.242
 8280SOL    HW225185   3.517   8.603   2.382
 8281SOL     OW25186   1.975   8.185   3.459
 8281SOL    HW125187   2.063   8.172   3.504
 8281SOL    HW225188   1.962   8.282   3.437
 8282SOL     OW25189   2.475   8.813   2.588
 8282SOL    HW125190   2.426   8.726   2.597
 8282SOL    HW225191   2.452   8.856   2.501
 8283SOL     OW25192   3.155   8.676   3.285
 8283SOL    HW125193   3.192   8.603   3.227
 8283SOL    HW225194   3.207   8.681   3.370
 8284SOL     OW25195   2.671   7.452   2.364
 8284SOL    HW125196   2.711   7.543   2.355
 8284SOL    HW225197   2.571   7.460   2.370
 8285SOL     OW25198   2.059   8.424   3.126
 8285SOL    HW125199   2.148   8.379   3.112
 8285SOL    HW225200   1.986   8.359   3.107
 8286SOL     OW25201   3.387   8.447   2.052
 8286SOL    HW125202   3.324   8.371   2.065
 8286SOL    HW225203   3.435   8.465   2.138
 8287SOL     OW25204   3.049   9.240   3.478
 8287SOL    HW125205   3.073   9.300   3.402
 8287SOL    HW225206   3.056   9.145   3.448
 8288SOL     OW25207   2.179   7.699   3.663
 8288SOL    HW125208   2.250   7.770   3.669
 8288SOL    HW225209   2.091   7.738   3.691
 8289SOL     OW25210   3.328   8.865   2.815
 8289SOL    HW125211   3.269   8.871   2.895
 8289SOL    HW225212   3.313   8.777   2.769
 8290SOL     OW25213   2.460   8.177   2.132
 8290SOL    HW125214   2.484   8.246   2.064
 8290SOL    HW225215   2.382   8.210   2.186
 8291SOL     OW25216   3.143   7.793   2.806
 8291SOL    HW125217   3.057   7.743   2.793
 8291SOL    HW225218   3.205   7.739   2.862
 8292SOL     OW25219   2.669   8.053   3.327
 8292SOL    HW125220   2.622   8.050   3.416
 8292SOL    HW225221   2.618   7.998   3.261
 8293SOL     OW25222   3.256   7.917   3.536
 8293SOL    HW125223   3.236   7.960   3.624
 8293SOL    HW225224   3.334   7.855   3.545
 8294SOL     OW25225   2.835   8.338   3.434
 8294SOL    HW125226   2.881   8.254   3.405
 8294SOL    HW225227   2.779   8.372   3.359
 8295SOL     OW25228   2.853   7.858   3.104
 8295SOL    HW125229   2.776   7.892   3.158
 8295SOL    HW225230   2.819   7.807   3.025
 8296SOL     OW25231   2.903   8.149   2.291
 8296SOL    HW125232   2.929   8.145   2.387
 8296SOL    HW225233   2.818   8.098   2.277
 8297SOL     OW25234   1.938   8.259   2.651
 8297SOL    HW125235   2.037   8.247   2.660
 8297SOL    HW225236   1.914   8.354   2.672
 8298SOL     OW25237   2.727   7.796   2.057
 8298SOL    HW125238   2.786   7.859   2.008
 8298SOL    HW225239   2.746   7.702   2.028
 8299SOL     OW25240   3.581   8.033   3.693
 8299SOL    HW125241   3.555   8.122   3.657
 8299SOL    HW225242   3.579   7.965   3.620
 8300SOL     OW25243   3.224   8.592   2.407
 8300SOL    HW125244   3.307   8.563   2.359
 8300SOL    HW225245   3.175   8.659   2.351
 8301SOL     OW25246   2.412   7.644   2.747
 8301SOL    HW125247   2.407   7.639   2.847
 8301SOL    HW225248   2.414   7.740   2.718
 8302SOL     OW25249   2.870   8.904   2.339
 8302SOL    HW125250   2.824   8.976   2.287
 8302SOL    HW225251   2.866   8.924   2.437
 8303SOL     OW25252   3.657   8.514   2.735
 8303SOL    HW125253   3.595   8.499   2.659
 8303SOL    HW225254   3.605   8.525   2.820
 8304SOL     OW25255   3.089   8.998   3.368
 8304SOL    HW125256   3.095   8.921   3.432
 8304SOL    HW225257   3.037   8.972   3.288
 8305SOL     OW25258   2.183   8.391   2.104
 8305SOL    HW125259   2.265   8.430   2.062
 8305SOL    HW225260   2.156   8.309   2.055
 8306SOL     OW25261   3.320   8.183   2.590
 8306SOL    HW125262   3.315   8.118   2.665
 8306SOL    HW225263   3.400   8.242   2.603
 8307SOL     OW25264   2.323   8.714   3.589
 8307SOL    HW125265   2.273   8.715   3.503
 8307SOL    HW225266   2.260   8.696   3.665
 8308SOL     OW25267   2.064   7.733   3.360
 8308SOL    HW125268   1.984   7.793   3.347
 8308SOL    HW225269   2.054   7.684   3.446
 8309SOL     OW25270   3.262   7.555   2.288
 8309SOL    HW125271   3.238   7.518   2.198
 8309SOL    HW225272   3.361   7.571   2.292
 8310SOL     OW25273   2.802   9.146   2.766
 8310SOL    HW125274   2.882   9.089   2.787
 8310SOL    HW225275   2.753   9.106   2.689
 8311SOL     OW25276   2.244   8.148   2.342
 8311SOL    HW125277   2.289   8.058   2.339
 8311SOL    HW225278   2.150   8.137   2.375
 8312SOL     OW25279   3.409   7.670   3.591
 8312SOL    HW125280   3.404   7.707   3.683
 8312SOL    HW225281   3.337   7.601   3.579
 8313SOL     OW25282   2.476   7.570   1.979
 8313SOL    HW125283   2.574   7.548   1.986
 8313SOL    HW225284   2.445   7.553   1.886
 8314SOL     OW25285   2.643   7.712   3.611
 8314SOL    HW125286   2.710   7.651   3.654
 8314SOL    HW225287   2.570   7.731   3.676
 8315SOL     OW25288   2.750   8.962   3.057
 8315SOL    HW125289   2.727   8.937   2.963
 8315SOL    HW225290   2.811   8.893   3.096
 8316SOL     OW25291   3.213   8.038   3.295
 8316SOL    HW125292   3.241   7.995   3.380
 8316SOL    HW225293   3.238   8.134   3.296
 8317SOL     OW25294   2.665   8.850   2.786
 8317SOL    HW125295   2.755   8.864   2.744
 8317SOL    HW225296   2.594   8.852   2.715
 8318SOL     OW25297   2.784   7.951   2.761
 8318SOL    HW125298   2.759   7.942   2.665
 8318SOL    HW225299   2.832   7.869   2.792
 8319SOL     OW25300   2.401   7.512   2.374
 8319SOL    HW125301   2.320   7.513   2.432
 8319SOL    HW225302   2.404   7.595   2.319
 8320SOL     OW25303   3.296   8.636   1.903
 8320SOL    HW125304   3.328   8.560   1.960
 8320SOL    HW225305   3.204   8.663   1.933
 8321SOL     OW25306   2.159   7.483   2.033
 8321SOL    HW125307   2.208   7.567   2.012
 8321SOL    HW225308   2.221   7.418   2.078
 8322SOL     OW25309   2.797   7.684   2.342
 8322SOL    HW125310   2.749   7.725   2.264
 8322SOL    HW225311   2.896   7.682   2.323
 8323SOL     OW25312   2.938   8.131   3.326
 8323SOL    HW125313   2.858   8.070   3.329
 8323SOL    HW225314   3.019   8.078   3.302
 8324SOL     OW25315   3.089   9.018   2.655
 8324SOL    HW125316   3.110   9.092   2.590
 8324SOL    HW225317   3.157   9.018   2.728
 8325SOL     OW25318   2.321   8.600   2.603
 8325SOL    HW125319   2.250   8.573   2.668
 8325SOL    HW225320   2.295   8.572   2.510
 8326SOL     OW25321   2.894   7.997   1.878
 8326SOL    HW125322   2.853   8.079   1.839
 8326SOL    HW225323   2.958   8.023   1.951
 8327SOL     OW25324   1.940   8.004   3.248
 8327SOL    HW125325   2.032   8.003   3.207
 8327SOL    HW225326   1.934   8.078   3.315
 8328SOL     OW25327   2.423   7.670   3.009
 8328SOL    HW125328   2.461   7.586   3.046
 8328SOL    HW225329   2.335   7.689   3.053
 8329SOL     OW25330   2.728   7.902   2.504
 8329SOL    HW125331   2.696   7.974   2.442
 8329SOL    HW225332   2.752   7.821   2.451
 8330SOL     OW25333   2.879   7.487   2.615
 8330SOL    HW125334   2.807   7.492   2.546
 8330SOL    HW225335   2.855   7.418   2.684
 8331SOL     OW25336   3.291   8.621   2.729
 8331SOL    HW125337   3.236   8.537   2.722
 8331SOL    HW225338   3.317   8.650   2.637
 8332SOL     OW25339   3.328   8.038   2.854
 8332SOL    HW125340   3.298   7.943   2.861
 8332SOL    HW225341   3.401   8.054   2.920
 8333SOL     OW25342   3.719   8.281   2.239
 8333SOL    HW125343   3.761   8.217   2.303
 8333SOL    HW225344   3.681   8.230   2.161
 8334SOL     OW25345   2.350   8.833   2.036
 8334SOL    HW125346   2.263   8.818   2.083
 8334SOL    HW225347   2.333   8.859   1.941
 8335SOL     OW25348   3.252   8.023   1.940
 8335SOL    HW125349   3.198   8.002   2.021
 8335SOL    HW225350   3.343   7.982   1.949
 8336SOL     OW25351   2.389   7.704   2.190
 8336SOL    HW125352   2.416   7.645   2.115
 8336SOL    HW225353   2.389   7.799   2.159
 8337SOL     OW25354   2.926   8.795   3.202
 8337SOL    HW125355   2.846   8.772   3.257
 8337SOL    HW225356   3.009   8.769   3.251
 8338SOL     OW25357   2.973   8.643   2.962
 8338SOL    HW125358   2.933   8.687   3.043
 8338SOL    HW225359   2.932   8.680   2.879
 8339SOL     OW25360   3.500   8.547   2.941
 8339SOL    HW125361   3.505   8.628   3.000
 8339SOL    HW225362   3.414   8.549   2.890
 8340SOL     OW25363   2.777   7.537   3.264
 8340SOL    HW125364   2.802   7.517   3.169
 8340SOL    HW225365   2.849   7.593   3.306
 8341SOL     OW25366   2.842   8.564   3.581
 8341SOL    HW125367   2.743   8.570   3.591
 8341SOL    HW225368   2.865   8.484   3.525
 8342SOL     OW25369   2.567   8.498   2.230
 8342SOL    HW125370   2.553   8.505   2.329
 8342SOL    HW225371   2.651   8.447   2.212
 8343SOL     OW25372   2.272   8.261   3.113
 8343SOL    HW125373   2.358   8.273   3.163
 8343SOL    HW225374   2.230   8.174   3.140
 8344SOL     OW25375   3.136   7.834   3.124
 8344SOL    HW125376   3.157   7.908   3.188
 8344SOL    HW225377   3.047   7.851   3.081
 8345SOL     OW25378   1.926   9.012   3.193
 8345SOL    HW125379   1.880   9.094   3.159
 8345SOL    HW225380   2.024   9.031   3.202
 8346SOL     OW25381   2.229   8.548   2.363
 8346SOL    HW125382   2.222   8.631   2.307
 8346SOL    HW225383   2.233   8.468   2.303
 8347SOL     OW25384   2.428   7.985   2.727
 8347SOL    HW125385   2.440   8.051   2.653
 8347SOL    HW225386   2.474   8.019   2.810
 8348SOL     OW25387   3.114   8.796   2.250
 8348SOL    HW125388   3.164   8.873   2.290
 8348SOL    HW225389   3.019   8.798   2.282
 8349SOL     OW25390   3.134   8.893   3.004
 8349SOL    HW125391   3.181   8.906   3.091
 8349SOL    HW225392   3.068   8.819   3.013
 8350SOL     OW25393   3.444   8.087   2.334
 8350SOL    HW125394   3.413   8.148   2.407
 8350SOL    HW225395   3.494   8.139   2.265
 8351SOL     OW25396   2.216   8.958   3.191
 8351SOL    HW125397   2.195   8.914   3.104
 8351SOL    HW225398   2.313   8.984   3.194
 8352SOL     OW25399   2.264   8.199   3.460
 8352SOL    HW125400   2.332   8.254   3.413
 8352SOL    HW225401   2.304   8.111   3.487
 8353SOL     OW25402   3.449   8.227   3.532
 8353SOL    HW125403   3.357   8.265   3.527
 8353SOL    HW225404   3.509   8.274   3.467
 8354SOL     OW25405   2.875   7.553   3.632
 8354SOL    HW125406   2.881   7.638   3.580
 8354SOL    HW225407   2.907   7.477   3.575
 8355SOL     OW25408   2.366   7.498   3.602
 8355SOL    HW125409   2.324   7.441   3.532
 8355SOL    HW225410   2.300   7.567   3.634
 8356SOL     OW25411   2.435   8.318   2.891
 8356SOL    HW125412   2.479   8.407   2.882
 8356SOL    HW225413   2.372   8.318   2.968
 8357SOL     OW25414   3.222   8.310   2.907
 8357SOL    HW125415   3.147   8.310   2.841
 8357SOL    HW225416   3.259   8.218   2.916
 8358SOL     OW25417   3.071   7.973   2.137
 8358SOL    HW125418   3.084   7.889   2.191
 8358SOL    HW225419   3.042   8.047   2.197
 8359SOL     OW25420   2.169   7.661   3.093
 8359SOL    HW125421   2.146   7.698   3.183
 8359SOL    HW225422   2.139   7.566   3.087
 8360SOL     OW25423   1.899   8.758   3.144
 8360SOL    HW125424   1.952   8.709   3.212
 8360SOL    HW225425   1.921   8.856   3.149
 8361SOL     OW25426   2.594   8.082   2.926
 8361SOL    HW125427   2.653   8.056   2.850
 8361SOL    HW225428   2.566   8.178   2.915
 8362SOL     OW25429   3.590   8.383   3.716
 8362SOL    HW125430   3.544   8.376   3.627
 8362SOL    HW225431   3.528   8.427   3.782
 8363SOL     OW25432   2.169   7.511   2.480
 8363SOL    HW125433   2.158   7.605   2.513
 8363SOL    HW225434   2.164   7.448   2.557
 8364SOL     OW25435   3.484   7.815   2.236
 8364SOL    HW125436   3.486   7.739   2.300
 8364SOL    HW225437   3.436   7.892   2.276
 8365SOL     OW25438   2.885   8.214   2.828
 8365SOL    HW125439   2.900   8.235   2.924
 8365SOL    HW225440   2.855   8.119   2.819
 8366SOL     OW25441   2.842   9.021   3.562
 8366SOL    HW125442   2.822   9.065   3.474
 8366SOL    HW225443   2.881   8.930   3.546
 8367SOL     OW25444   2.212   8.346   3.666
 8367SOL    HW125445   2.288   8.390   3.714
 8367SOL    HW225446   2.247   8.299   3.584
 8368SOL     OW25447   3.402   7.722   1.987
 8368SOL    HW125448   3.341   7.647   2.010
 8368SOL    HW225449   3.424   7.774   2.070
 8369SOL     OW25450   3.165   8.286   1.904
 8369SOL    HW125451   3.199   8.193   1.919
 8369SOL    HW225452   3.183   8.313   1.809
 8370SOL     OW25453   2.930   8.781   2.711
 8370SOL    HW125454   2.937   8.697   2.656
 8370SOL    HW225455   2.992   8.850   2.675
 8371SOL     OW25456   2.181   8.258   2.811
 8371SOL    HW125457   2.274   8.294   2.816
 8371SOL    HW225458   2.175   8.173   2.863
 8372SOL     OW25459   2.201   7.957   2.868
 8372SOL    HW125460   2.149   7.874   2.851
 8372SOL    HW225461   2.278   7.962   2.804
 8373SOL     OW25462   3.000   7.828   3.540
 8373SOL    HW125463   2.955   7.891   3.604
 8373SOL    HW225464   3.093   7.859   3.523
 8374SOL     OW25465   3.022   7.655   3.339
 8374SOL    HW125466   3.022   7.719   3.416
 8374SOL    HW225467   3.050   7.703   3.256
 8375SOL     OW25468   1.870   8.774   2.062
 8375SOL    HW125469   1.777   8.795   2.031
 8375SOL    HW225470   1.880   8.675   2.075
 8376SOL     OW25471   2.366   9.016   2.772
 8376SOL    HW125472   2.432   9.090   2.781
 8376SOL    HW225473   2.410   8.937   2.730
 8377SOL     OW25474   2.864   8.244   3.100
 8377SOL    HW125475   2.905   8.212   3.186
 8377SOL    HW225476   2.768   8.217   3.097
 8378SOL     OW25477   1.902   7.992   2.976
 8378SOL    HW125478   1.987   7.959   2.935
 8378SOL    HW225479   1.915   8.007   3.074
 8379SOL     OW25480   2.051   7.968   3.584
 8379SOL    HW125481   2.110   7.928   3.514
 8379SOL    HW225482   1.993   8.039   3.543
 8380SOL     OW25483   3.231   8.398   3.522
 8380SOL    HW125484   3.270   8.487   3.542
 8380SOL    HW225485   3.241   8.378   3.425
 8381SOL     OW25486   2.677   8.020   2.187
 8381SOL    HW125487   2.684   7.931   2.141
 8381SOL    HW225488   2.583   8.054   2.179
 8382SOL     OW25489   3.519   8.052   3.068
 8382SOL    HW125490   3.481   7.983   3.130
 8382SOL    HW225491   3.601   8.016   3.024
 8383SOL     OW25492   2.114   9.012   3.606
 8383SOL    HW125493   2.084   9.069   3.682
 8383SOL    HW225494   2.107   8.915   3.632
 8384SOL     OW25495   2.533   7.912   3.131
 8384SOL    HW125496   2.499   7.823   3.101
 8384SOL    HW225497   2.559   7.966   3.051
 8385SOL     OW25498   2.792   9.126   3.327
 8385SOL    HW125499   2.768   9.108   3.232
 8385SOL    HW225500   2.822   9.220   3.337
 8386SOL     OW25501   2.335   7.948   2.053
 8386SOL    HW125502   2.396   8.028   2.057
 8386SOL    HW225503   2.240   7.979   2.060
 8387SOL     OW25504   2.021   8.585   3.328
 8387SOL    HW125505   2.043   8.524   3.404
 8387SOL    HW225506   2.031   8.536   3.242
 8388SOL     OW25507   3.209   8.507   3.096
 8388SOL    HW125508   3.233   8.444   3.022
 8388SOL    HW225509   3.119   8.547   3.078
 8389SOL     OW25510   3.164   8.303   2.171
 8389SOL    HW125511   3.078   8.272   2.213
 8389SOL    HW225512   3.160   8.289   2.072
 8390SOL     OW25513   1.945   8.706   2.884
 8390SOL    HW125514   1.940   8.705   2.984
 8390SOL    HW225515   1.862   8.665   2.846
 8391SOL     OW25516   2.550   9.110   3.578
 8391SOL    HW125517   2.494   9.191   3.587
 8391SOL    HW225518   2.602   9.114   3.492
 8392SOL     OW25519   3.588   7.583   2.385
 8392SOL    HW125520   3.661   7.566   2.318
 8392SOL    HW225521   3.557   7.496   2.423
 8393SOL     OW25522   3.142   8.375   2.534
 8393SOL    HW125523   3.202   8.294   2.536
 8393SOL    HW225524   3.182   8.444   2.474
 8394SOL     OW25525   2.692   8.721   3.284
 8394SOL    HW125526   2.687   8.754   3.379
 8394SOL    HW225527   2.606   8.740   3.238
 8395SOL     OW25528   2.534   9.064   2.016
 8395SOL    HW125529   2.543   9.074   1.917
 8395SOL    HW225530   2.494   8.975   2.037
 8396SOL     OW25531   3.703   7.623   2.825
 8396SOL    HW125532   3.742   7.538   2.789
 8396SOL    HW225533   3.605   7.625   2.806
 8397SOL     OW25534   2.125   7.774   2.582
 8397SOL    HW125535   2.046   7.825   2.548
 8397SOL    HW225536   2.116   7.759   2.680
 8398SOL     OW25537   3.056   9.060   1.893
 8398SOL    HW125538   3.062   8.967   1.930
 8398SOL    HW225539   2.997   9.060   1.813
 8399SOL     OW25540   2.684   8.450   3.234
 8399SOL    HW125541   2.724   8.449   3.142
 8399SOL    HW225542   2.694   8.542   3.274
 8400SOL     OW25543   2.778   8.358   2.153
 8400SOL    HW125544   2.841   8.396   2.085
 8400SOL    HW225545   2.818   8.275   2.192
 8401SOL     OW25546   2.234   8.736   3.352
 8401SOL    HW125547   2.221   8.829   3.318
 8401SOL    HW225548   2.150   8.684   3.339
 8402SOL     OW25549   3.476   8.740   3.151
 8402SOL    HW125550   3.536   8.743   3.231
 8402SOL    HW225551   3.401   8.804   3.164
 8403SOL     OW25552   2.901   8.546   2.558
 8403SOL    HW125553   2.831   8.499   2.612
 8403SOL    HW225554   2.960   8.478   2.515
 8404SOL     OW25555   2.876   7.684   2.833
 8404SOL    HW125556   2.868   7.648   2.740
 8404SOL    HW225557   2.874   7.608   2.898
 8405SOL     OW25558   2.452   8.935   2.353
 8405SOL    HW125559   2.494   8.877   2.283
 8405SOL    HW225560   2.408   9.014   2.309
 8406SOL     OW25561   3.571   7.833   3.243
 8406SOL    HW125562   3.644   7.902   3.247
 8406SOL    HW225563   3.599   7.758   3.184
 8407SOL     OW25564   2.117   8.796   2.152
 8407SOL    HW125565   2.021   8.797   2.125
 8407SOL    HW225566   2.129   8.849   2.236
 8408SOL     OW25567   1.967   8.461   3.588
 8408SOL    HW125568   1.890   8.428   3.642
 8408SOL    HW225569   2.052   8.431   3.630
 8409SOL     OW25570   2.534   7.651   3.351
 8409SOL    HW125571   2.624   7.635   3.311
 8409SOL    HW225572   2.542   7.656   3.450
 8410SOL     OW25573   1.937   7.793   1.895
 8410SOL    HW125574   1.845   7.765   1.866
 8410SOL    HW225575   1.968   7.870   1.839
 8411SOL     OW25576   3.302   8.304   3.260
 8411SOL    HW125577   3.245   8.356   3.197
 8411SOL    HW225578   3.398   8.316   3.236
 8412SOL     OW25579   1.934   7.614   2.180
 8412SOL    HW125580   1.917   7.697   2.126
 8412SOL    HW225581   2.024   7.577   2.158
 8413SOL     OW25582   3.045   8.783   1.981
 8413SOL    HW125583   2.946   8.772   1.983
 8413SOL    HW225584   3.079   8.798   2.074
 8414SOL     OW25585   2.475   8.290   3.293
 8414SOL    HW125586   2.531   8.371   3.276
 8414SOL    HW225587   2.534   8.210   3.296
 8415SOL     OW25588   2.578   8.013   3.570
 8415SOL    HW125589   2.597   8.078   3.644
 8415SOL    HW225590   2.638   7.933   3.579
 8416SOL     OW25591   3.312   8.668   3.495
 8416SOL    HW125592   3.303   8.658   3.594
 8416SOL    HW225593   3.408   8.661   3.469
 8417SOL     OW25594   2.252   9.189   3.422
 8417SOL    HW125595   2.161   9.230   3.420
 8417SOL    HW225596   2.245   9.095   3.454
 8418SOL     OW25597   3.536   8.331   3.116
 8418SOL    HW125598   3.509   8.242   3.079
 8418SOL    HW225599   3.537   8.399   3.043
 8419SOL     OW25600   3.087   7.773   2.311
 8419SOL    HW125601   3.152   7.699   2.300
 8419SOL    HW225602   3.107   7.823   2.395
 8420SOL     OW25603   2.456   8.193   2.514
 8420SOL    HW125604   2.506   8.278   2.495
 8420SOL    HW225605   2.368   8.195   2.466
 8421SOL     OW25606   3.639   7.790   3.504
 8421SOL    HW125607   3.622   7.821   3.410
 8421SOL    HW225608   3.555   7.753   3.542
 8422SOL     OW25609   3.592   8.382   3.379
 8422SOL    HW125610   3.630   8.473   3.394
 8422SOL    HW225611   3.584   8.365   3.280
 8423SOL     OW25612   2.721   8.822   1.878
 8423SOL    HW125613   2.675   8.837   1.966
 8423SOL    HW225614   2.765   8.907   1.848
 8424SOL     OW25615   2.721   8.404   2.723
 8424SOL    HW125616   2.775   8.335   2.771
 8424SOL    HW225617   2.689   8.473   2.789
 8425SOL     OW25618   2.945   8.432   1.949
 8425SOL    HW125619   2.922   8.485   1.867
 8425SOL    HW225620   3.026   8.376   1.930
 8426SOL     OW25621   2.083   8.762   3.706
 8426SOL    HW125622   2.018   8.689   3.685
 8426SOL    HW225623   2.087   8.776   3.804
 8427SOL     OW25624   1.941   8.688   2.515
 8427SOL    HW125625   1.940   8.641   2.603
 8427SOL    HW225626   2.023   8.660   2.464
 8428SOL     OW25627   2.534   8.839   3.486
 8428SOL    HW125628   2.456   8.789   3.524
 8428SOL    HW225629   2.531   8.934   3.517
 8429SOL     OW25630   3.686   7.640   3.089
 8429SOL    HW125631   3.682   7.550   3.133
 8429SOL    HW225632   3.689   7.629   2.990
 8430SOL     OW25633   2.290   7.872   2.382
 8430SOL    HW125634   2.320   7.800   2.320
 8430SOL    HW225635   2.251   7.832   2.465
 8431SOL     OW25636   3.567   8.935   2.966
 8431SOL    HW125637   3.474   8.910   2.939
 8431SOL    HW225638   3.593   8.885   3.048
 8432SOL     OW25639   2.179   7.995   3.142
 8432SOL    HW125640   2.217   7.936   3.214
 8432SOL    HW225641   2.219   7.969   3.054
 8433SOL     OW25642   2.674   9.034   2.549
 8433SOL    HW125643   2.706   9.044   2.455
 8433SOL    HW225644   2.595   8.972   2.551
 8434SOL     OW25645   3.286   7.662   2.974
 8434SOL    HW125646   3.338   7.597   3.029
 8434SOL    HW225647   3.237   7.725   3.035
 8435SOL     OW25648   2.863   7.482   3.016
 8435SOL    HW125649   2.800   7.410   2.985
 8435SOL    HW225650   2.956   7.446   3.016
 8436SOL     OW25651   2.632   8.778   2.163
 8436SOL    HW125652   2.586   8.691   2.180
 8436SOL    HW225653   2.723   8.775   2.204
 8437SOL     OW25654   2.480   9.015   3.146
 8437SOL    HW125655   2.475   9.097   3.203
 8437SOL    HW225656   2.569   9.012   3.101
 8438SOL     OW25657   3.214   7.500   2.030
 8438SOL    HW125658   3.249   7.459   1.946
 8438SOL    HW225659   3.124   7.462   2.050
 8439SOL     OW25660   3.162   7.901   2.553
 8439SOL    HW125661   3.103   7.981   2.557
 8439SOL    HW225662   3.177   7.866   2.646
 8440SOL     OW25663   3.455   7.669   2.744
 8440SOL    HW125664   3.371   7.668   2.798
 8440SOL    HW225665   3.457   7.752   2.688
 8441SOL     OW25666   1.901   8.525   2.162
 8441SOL    HW125667   2.000   8.514   2.153
 8441SOL    HW225668   1.861   8.439   2.194
 8442SOL     OW25669   2.737   9.094   2.199
 8442SOL    HW125670   2.660   9.059   2.145
 8442SOL    HW225671   2.705   9.165   2.261
 8443SOL     OW25672   2.092   8.076   3.837
 8443SOL    HW125673   1.999   8.074   3.874
 8443SOL    HW225674   2.093   8.037   3.745
 8444SOL     OW25675   2.087   7.723   4.720
 8444SOL    HW125676   2.122   7.706   4.812
 8444SOL    HW225677   1.999   7.678   4.708
 8445SOL     OW25678   1.881   7.816   4.371
 8445SOL    HW125679   1.799   7.859   4.410
 8445SOL    HW225680   1.853   7.743   4.308
 8446SOL     OW25681   2.431   8.723   4.889
 8446SOL    HW125682   2.338   8.716   4.852
 8446SOL    HW225683   2.442   8.812   4.933
 8447SOL     OW25684   2.997   8.151   4.441
 8447SOL    HW125685   3.054   8.229   4.416
 8447SOL    HW225686   2.937   8.177   4.517
 8448SOL     OW25687   3.617   8.055   3.955
 8448SOL    HW125688   3.605   8.042   3.856
 8448SOL    HW225689   3.587   7.974   4.004
 8449SOL     OW25690   2.630   8.592   4.747
 8449SOL    HW125691   2.552   8.609   4.807
 8449SOL    HW225692   2.664   8.679   4.711
 8450SOL     OW25693   2.712   8.246   5.547
 8450SOL    HW125694   2.708   8.322   5.612
 8450SOL    HW225695   2.734   8.282   5.456
 8451SOL     OW25696   2.547   8.460   4.389
 8451SOL    HW125697   2.616   8.444   4.459
 8451SOL    HW225698   2.474   8.517   4.427
 8452SOL     OW25699   2.548   8.609   5.527
 8452SOL    HW125700   2.608   8.688   5.541
 8452SOL    HW225701   2.462   8.640   5.486
 8453SOL     OW25702   2.197   8.883   4.785
 8453SOL    HW125703   2.119   8.852   4.732
 8453SOL    HW225704   2.255   8.941   4.728
 8454SOL     OW25705   2.300   7.840   5.223
 8454SOL    HW125706   2.382   7.784   5.232
 8454SOL    HW225707   2.219   7.782   5.227
 8455SOL     OW25708   3.465   7.895   4.461
 8455SOL    HW125709   3.391   7.941   4.411
 8455SOL    HW225710   3.516   7.963   4.514
 8456SOL     OW25711   2.989   8.789   5.414
 8456SOL    HW125712   3.036   8.789   5.502
 8456SOL    HW225713   2.941   8.702   5.403
 8457SOL     OW25714   2.092   8.882   4.262
 8457SOL    HW125715   2.066   8.978   4.262
 8457SOL    HW225716   2.021   8.828   4.307
 8458SOL     OW25717   2.102   8.539   4.610
 8458SOL    HW125718   2.116   8.455   4.662
 8458SOL    HW225719   2.047   8.603   4.665
 8459SOL     OW25720   2.468   8.412   3.847
 8459SOL    HW125721   2.475   8.496   3.793
 8459SOL    HW225722   2.514   8.425   3.935
 8460SOL     OW25723   3.456   7.562   5.204
 8460SOL    HW125724   3.438   7.629   5.132
 8460SOL    HW225725   3.453   7.608   5.293
 8461SOL     OW25726   1.984   8.091   4.287
 8461SOL    HW125727   1.939   8.003   4.304
 8461SOL    HW225728   1.983   8.145   4.371
 8462SOL     OW25729   1.889   9.044   3.841
 8462SOL    HW125730   1.870   8.948   3.862
 8462SOL    HW225731   1.856   9.102   3.916
 8463SOL     OW25732   3.551   8.370   4.336
 8463SOL    HW125733   3.646   8.341   4.344
 8463SOL    HW225734   3.543   8.435   4.261
 8464SOL     OW25735   3.503   8.556   4.156
 8464SOL    HW125736   3.589   8.558   4.104
 8464SOL    HW225737   3.517   8.603   4.244
 8465SOL     OW25738   1.975   8.185   5.321
 8465SOL    HW125739   2.063   8.172   5.366
 8465SOL    HW225740   1.962   8.282   5.299
 8466SOL     OW25741   2.475   8.813   4.450
 8466SOL    HW125742   2.426   8.726   4.459
 8466SOL    HW225743   2.452   8.856   4.363
 8467SOL     OW25744   3.155   8.676   5.147
 8467SOL    HW125745   3.192   8.603   5.089
 8467SOL    HW225746   3.207   8.681   5.232
 8468SOL     OW25747   2.671   7.452   4.226
 8468SOL    HW125748   2.711   7.543   4.217
 8468SOL    HW225749   2.571   7.460   4.232
 8469SOL     OW25750   2.059   8.424   4.988
 8469SOL    HW125751   2.148   8.379   4.974
 8469SOL    HW225752   1.986   8.359   4.969
 8470SOL     OW25753   3.387   8.447   3.914
 8470SOL    HW125754   3.324   8.371   3.927
 8470SOL    HW225755   3.435   8.465   4.000
 8471SOL     OW25756   3.049   9.240   5.340
 8471SOL    HW125757   3.073   9.300   5.264
 8471SOL    HW225758   3.056   9.145   5.310
 8472SOL     OW25759   2.179   7.699   5.525
 8472SOL    HW125760   2.250   7.770   5.531
 8472SOL    HW225761   2.091   7.738   5.553
 8473SOL     OW25762   3.328   8.865   4.677
 8473SOL    HW125763   3.269   8.871   4.757
 8473SOL    HW225764   3.313   8.777   4.631
 8474SOL     OW25765   2.460   8.177   3.994
 8474SOL    HW125766   2.484   8.246   3.926
 8474SOL    HW225767   2.382   8.210   4.048
 8475SOL     OW25768   3.143   7.793   4.668
 8475SOL    HW125769   3.057   7.743   4.655
 8475SOL    HW225770   3.205   7.739   4.724
 8476SOL     OW25771   2.669   8.053   5.189
 8476SOL    HW125772   2.622   8.050   5.278
 8476SOL    HW225773   2.618   7.998   5.123
 8477SOL     OW25774   3.256   7.917   5.398
 8477SOL    HW125775   3.236   7.960   5.486
 8477SOL    HW225776   3.334   7.855   5.407
 8478SOL     OW25777   2.835   8.338   5.296
 8478SOL    HW125778   2.881   8.254   5.267
 8478SOL    HW225779   2.779   8.372   5.221
 8479SOL     OW25780   2.853   7.858   4.966
 8479SOL    HW125781   2.776   7.892   5.020
 8479SOL    HW225782   2.819   7.807   4.887
 8480SOL     OW25783   2.903   8.149   4.153
 8480SOL    HW125784   2.929   8.145   4.249
 8480SOL    HW225785   2.818   8.098   4.139
 8481SOL     OW25786   1.938   8.259   4.513
 8481SOL    HW125787   2.037   8.247   4.522
 8481SOL    HW225788   1.914   8.354   4.534
 8482SOL     OW25789   2.727   7.796   3.919
 8482SOL    HW125790   2.786   7.859   3.870
 8482SOL    HW225791   2.746   7.702   3.890
 8483SOL     OW25792   3.581   8.033   5.555
 8483SOL    HW125793   3.555   8.122   5.519
 8483SOL    HW225794   3.579   7.965   5.482
 8484SOL     OW25795   3.224   8.592   4.269
 8484SOL    HW125796   3.307   8.563   4.221
 8484SOL    HW225797   3.175   8.659   4.213
 8485SOL     OW25798   2.412   7.644   4.609
 8485SOL    HW125799   2.407   7.639   4.709
 8485SOL    HW225800   2.414   7.740   4.580
 8486SOL     OW25801   2.870   8.904   4.201
 8486SOL    HW125802   2.824   8.976   4.149
 8486SOL    HW225803   2.866   8.924   4.299
 8487SOL     OW25804   3.657   8.514   4.597
 8487SOL    HW125805   3.595   8.499   4.521
 8487SOL    HW225806   3.605   8.525   4.682
 8488SOL     OW25807   3.089   8.998   5.230
 8488SOL    HW125808   3.095   8.921   5.294
 8488SOL    HW225809   3.037   8.972   5.150
 8489SOL     OW25810   2.183   8.391   3.966
 8489SOL    HW125811   2.265   8.430   3.924
 8489SOL    HW225812   2.156   8.309   3.917
 8490SOL     OW25813   3.320   8.183   4.452
 8490SOL    HW125814   3.315   8.118   4.527
 8490SOL    HW225815   3.400   8.242   4.465
 8491SOL     OW25816   2.323   8.714   5.451
 8491SOL    HW125817   2.273   8.715   5.365
 8491SOL    HW225818   2.260   8.696   5.527
 8492SOL     OW25819   2.064   7.733   5.222
 8492SOL    HW125820   1.984   7.793   5.209
 8492SOL    HW225821   2.054   7.684   5.308
 8493SOL     OW25822   3.262   7.555   4.150
 8493SOL    HW125823   3.238   7.518   4.060
 8493SOL    HW225824   3.361   7.571   4.154
 8494SOL     OW25825   2.802   9.146   4.628
 8494SOL    HW125826   2.882   9.089   4.649
 8494SOL    HW225827   2.753   9.106   4.551
 8495SOL     OW25828   2.244   8.148   4.204
 8495SOL    HW125829   2.289   8.058   4.201
 8495SOL    HW225830   2.150   8.137   4.237
 8496SOL     OW25831   3.409   7.670   5.453
 8496SOL    HW125832   3.404   7.707   5.545
 8496SOL    HW225833   3.337   7.601   5.441
 8497SOL     OW25834   2.476   7.570   3.841
 8497SOL    HW125835   2.574   7.548   3.848
 8497SOL    HW225836   2.445   7.553   3.748
 8498SOL     OW25837   2.643   7.712   5.473
 8498SOL    HW125838   2.710   7.651   5.516
 8498SOL    HW225839   2.570   7.731   5.538
 8499SOL     OW25840   2.750   8.962   4.919
 8499SOL    HW125841   2.727   8.937   4.825
 8499SOL    HW225842   2.811   8.893   4.958
 8500SOL     OW25843   3.213   8.038   5.157
 8500SOL    HW125844   3.241   7.995   5.242
 8500SOL    HW225845   3.238   8.134   5.158
 8501SOL     OW25846   2.665   8.850   4.648
 8501SOL    HW125847   2.755   8.864   4.606
 8501SOL    HW225848   2.594   8.852   4.577
 8502SOL     OW25849   2.784   7.951   4.623
 8502SOL    HW125850   2.759   7.942   4.527
 8502SOL    HW225851   2.832   7.869   4.654
 8503SOL     OW25852   2.401   7.512   4.236
 8503SOL    HW125853   2.320   7.513   4.294
 8503SOL    HW225854   2.404   7.595   4.181
 8504SOL     OW25855   3.296   8.636   3.765
 8504SOL    HW125856   3.328   8.560   3.822
 8504SOL    HW225857   3.204   8.663   3.795
 8505SOL     OW25858   2.159   7.483   3.895
 8505SOL    HW125859   2.208   7.567   3.874
 8505SOL    HW225860   2.221   7.418   3.940
 8506SOL     OW25861   2.797   7.684   4.204
 8506SOL    HW125862   2.749   7.725   4.126
 8506SOL    HW225863   2.896   7.682   4.185
 8507SOL     OW25864   2.938   8.131   5.188
 8507SOL    HW125865   2.858   8.070   5.191
 8507SOL    HW225866   3.019   8.078   5.164
 8508SOL     OW25867   3.089   9.018   4.517
 8508SOL    HW125868   3.110   9.092   4.452
 8508SOL    HW225869   3.157   9.018   4.590
 8509SOL     OW25870   2.321   8.600   4.465
 8509SOL    HW125871   2.250   8.573   4.530
 8509SOL    HW225872   2.295   8.572   4.372
 8510SOL     OW25873   2.894   7.997   3.740
 8510SOL    HW125874   2.853   8.079   3.701
 8510SOL    HW225875   2.958   8.023   3.813
 8511SOL     OW25876   1.940   8.004   5.110
 8511SOL    HW125877   2.032   8.003   5.069
 8511SOL    HW225878   1.934   8.078   5.177
 8512SOL     OW25879   2.423   7.670   4.871
 8512SOL    HW125880   2.461   7.586   4.908
 8512SOL    HW225881   2.335   7.689   4.915
 8513SOL     OW25882   2.728   7.902   4.366
 8513SOL    HW125883   2.696   7.974   4.304
 8513SOL    HW225884   2.752   7.821   4.313
 8514SOL     OW25885   2.879   7.487   4.477
 8514SOL    HW125886   2.807   7.492   4.408
 8514SOL    HW225887   2.855   7.418   4.546
 8515SOL     OW25888   3.291   8.621   4.591
 8515SOL    HW125889   3.236   8.537   4.584
 8515SOL    HW225890   3.317   8.650   4.499
 8516SOL     OW25891   3.328   8.038   4.716
 8516SOL    HW125892   3.298   7.943   4.723
 8516SOL    HW225893   3.401   8.054   4.782
 8517SOL     OW25894   3.719   8.281   4.101
 8517SOL    HW125895   3.761   8.217   4.165
 8517SOL    HW225896   3.681   8.230   4.023
 8518SOL     OW25897   2.350   8.833   3.898
 8518SOL    HW125898   2.263   8.818   3.945
 8518SOL    HW225899   2.333   8.859   3.803
 8519SOL     OW25900   3.252   8.023   3.802
 8519SOL    HW125901   3.198   8.002   3.883
 8519SOL    HW225902   3.343   7.982   3.811
 8520SOL     OW25903   2.389   7.704   4.052
 8520SOL    HW125904   2.416   7.645   3.977
 8520SOL    HW225905   2.389   7.799   4.021
 8521SOL     OW25906   2.926   8.795   5.064
 8521SOL    HW125907   2.846   8.772   5.119
 8521SOL    HW225908   3.009   8.769   5.113
 8522SOL     OW25909   2.973   8.643   4.824
 8522SOL    HW125910   2.933   8.687   4.905
 8522SOL    HW225911   2.932   8.680   4.741
 8523SOL     OW25912   3.500   8.547   4.803
 8523SOL    HW125913   3.505   8.628   4.862
 8523SOL    HW225914   3.414   8.549   4.752
 8524SOL     OW25915   2.777   7.537   5.126
 8524SOL    HW125916   2.802   7.517   5.031
 8524SOL    HW225917   2.849   7.593   5.168
 8525SOL     OW25918   2.842   8.564   5.443
 8525SOL    HW125919   2.743   8.570   5.453
 8525SOL    HW225920   2.865   8.484   5.387
 8526SOL     OW25921   2.567   8.498   4.092
 8526SOL    HW125922   2.553   8.505   4.191
 8526SOL    HW225923   2.651   8.447   4.074
 8527SOL     OW25924   2.272   8.261   4.975
 8527SOL    HW125925   2.358   8.273   5.025
 8527SOL    HW225926   2.230   8.174   5.002
 8528SOL     OW25927   3.136   7.834   4.986
 8528SOL    HW125928   3.157   7.908   5.050
 8528SOL    HW225929   3.047   7.851   4.943
 8529SOL     OW25930   1.926   9.012   5.055
 8529SOL    HW125931   1.880   9.094   5.021
 8529SOL    HW225932   2.024   9.031   5.064
 8530SOL     OW25933   2.229   8.548   4.225
 8530SOL    HW125934   2.222   8.631   4.169
 8530SOL    HW225935   2.233   8.468   4.165
 8531SOL     OW25936   2.428   7.985   4.589
 8531SOL    HW125937   2.440   8.051   4.515
 8531SOL    HW225938   2.474   8.019   4.672
 8532SOL     OW25939   3.114   8.796   4.112
 8532SOL    HW125940   3.164   8.873   4.152
 8532SOL    HW225941   3.019   8.798   4.144
 8533SOL     OW25942   3.134   8.893   4.866
 8533SOL    HW125943   3.181   8.906   4.953
 8533SOL    HW225944   3.068   8.819   4.875
 8534SOL     OW25945   3.444   8.087   4.196
 8534SOL    HW125946   3.413   8.148   4.269
 8534SOL    HW225947   3.494   8.139   4.127
 8535SOL     OW25948   2.216   8.958   5.053
 8535SOL    HW125949   2.195   8.914   4.966
 8535SOL    HW225950   2.313   8.984   5.056
 8536SOL     OW25951   2.264   8.199   5.322
 8536SOL    HW125952   2.332   8.254   5.275
 8536SOL    HW225953   2.304   8.111   5.349
 8537SOL     OW25954   3.449   8.227   5.394
 8537SOL    HW125955   3.357   8.265   5.389
 8537SOL    HW225956   3.509   8.274   5.329
 8538SOL     OW25957   2.875   7.553   5.494
 8538SOL    HW125958   2.881   7.638   5.442
 8538SOL    HW225959   2.907   7.477   5.437
 8539SOL     OW25960   2.366   7.498   5.464
 8539SOL    HW125961   2.324   7.441   5.394
 8539SOL    HW225962   2.300   7.567   5.496
 8540SOL     OW25963   2.435   8.318   4.753
 8540SOL    HW125964   2.479   8.407   4.744
 8540SOL    HW225965   2.372   8.318   4.830
 8541SOL     OW25966   3.222   8.310   4.769
 8541SOL    HW125967   3.147   8.310   4.703
 8541SOL    HW225968   3.259   8.218   4.778
 8542SOL     OW25969   3.071   7.973   3.999
 8542SOL    HW125970   3.084   7.889   4.053
 8542SOL    HW225971   3.042   8.047   4.059
 8543SOL     OW25972   2.169   7.661   4.955
 8543SOL    HW125973   2.146   7.698   5.045
 8543SOL    HW225974   2.139   7.566   4.949
 8544SOL     OW25975   1.899   8.758   5.006
 8544SOL    HW125976   1.952   8.709   5.074
 8544SOL    HW225977   1.921   8.856   5.011
 8545SOL     OW25978   2.594   8.082   4.788
 8545SOL    HW125979   2.653   8.056   4.712
 8545SOL    HW225980   2.566   8.178   4.777
 8546SOL     OW25981   3.590   8.383   5.578
 8546SOL    HW125982   3.544   8.376   5.489
 8546SOL    HW225983   3.528   8.427   5.644
 8547SOL     OW25984   2.169   7.511   4.342
 8547SOL    HW125985   2.158   7.605   4.375
 8547SOL    HW225986   2.164   7.448   4.419
 8548SOL     OW25987   3.484   7.815   4.098
 8548SOL    HW125988   3.486   7.739   4.162
 8548SOL    HW225989   3.436   7.892   4.138
 8549SOL     OW25990   2.885   8.214   4.690
 8549SOL    HW125991   2.900   8.235   4.786
 8549SOL    HW225992   2.855   8.119   4.681
 8550SOL     OW25993   2.842   9.021   5.424
 8550SOL    HW125994   2.822   9.065   5.336
 8550SOL    HW225995   2.881   8.930   5.408
 8551SOL     OW25996   2.212   8.346   5.528
 8551SOL    HW125997   2.288   8.390   5.576
 8551SOL    HW225998   2.247   8.299   5.446
 8552SOL     OW25999   3.402   7.722   3.849
 8552SOL    HW126000   3.341   7.647   3.872
 8552SOL    HW226001   3.424   7.774   3.932
 8553SOL     OW26002   3.165   8.286   3.766
 8553SOL    HW126003   3.199   8.193   3.781
 8553SOL    HW226004   3.183   8.313   3.671
 8554SOL     OW26005   2.930   8.781   4.573
 8554SOL    HW126006   2.937   8.697   4.518
 8554SOL    HW226007   2.992   8.850   4.537
 8555SOL     OW26008   2.181   8.258   4.673
 8555SOL    HW126009   2.274   8.294   4.678
 8555SOL    HW226010   2.175   8.173   4.725
 8556SOL     OW26011   2.201   7.957   4.730
 8556SOL    HW126012   2.149   7.874   4.713
 8556SOL    HW226013   2.278   7.962   4.666
 8557SOL     OW26014   3.000   7.828   5.402
 8557SOL    HW126015   2.955   7.891   5.466
 8557SOL    HW226016   3.093   7.859   5.385
 8558SOL     OW26017   3.022   7.655   5.201
 8558SOL    HW126018   3.022   7.719   5.278
 8558SOL    HW226019   3.050   7.703   5.118
 8559SOL     OW26020   1.870   8.774   3.924
 8559SOL    HW126021   1.777   8.795   3.893
 8559SOL    HW226022   1.880   8.675   3.937
 8560SOL     OW26023   2.366   9.016   4.634
 8560SOL    HW126024   2.432   9.090   4.643
 8560SOL    HW226025   2.410   8.937   4.592
 8561SOL     OW26026   2.864   8.244   4.962
 8561SOL    HW126027   2.905   8.212   5.048
 8561SOL    HW226028   2.768   8.217   4.959
 8562SOL     OW26029   1.902   7.992   4.838
 8562SOL    HW126030   1.987   7.959   4.797
 8562SOL    HW226031   1.915   8.007   4.936
 8563SOL     OW26032   2.051   7.968   5.446
 8563SOL    HW126033   2.110   7.928   5.376
 8563SOL    HW226034   1.993   8.039   5.405
 8564SOL     OW26035   3.231   8.398   5.384
 8564SOL    HW126036   3.270   8.487   5.404
 8564SOL    HW226037   3.241   8.378   5.287
 8565SOL     OW26038   2.677   8.020   4.049
 8565SOL    HW126039   2.684   7.931   4.003
 8565SOL    HW226040   2.583   8.054   4.041
 8566SOL     OW26041   3.519   8.052   4.930
 8566SOL    HW126042   3.481   7.983   4.992
 8566SOL    HW226043   3.601   8.016   4.886
 8567SOL     OW26044   2.114   9.012   5.468
 8567SOL    HW126045   2.084   9.069   5.544
 8567SOL    HW226046   2.107   8.915   5.494
 8568SOL     OW26047   2.533   7.912   4.993
 8568SOL    HW126048   2.499   7.823   4.963
 8568SOL    HW226049   2.559   7.966   4.913
 8569SOL     OW26050   2.792   9.126   5.189
 8569SOL    HW126051   2.768   9.108   5.094
 8569SOL    HW226052   2.822   9.220   5.199
 8570SOL     OW26053   2.335   7.948   3.915
 8570SOL    HW126054   2.396   8.028   3.919
 8570SOL    HW226055   2.240   7.979   3.922
 8571SOL     OW26056   2.021   8.585   5.190
 8571SOL    HW126057   2.043   8.524   5.266
 8571SOL    HW226058   2.031   8.536   5.104
 8572SOL     OW26059   3.209   8.507   4.958
 8572SOL    HW126060   3.233   8.444   4.884
 8572SOL    HW226061   3.119   8.547   4.940
 8573SOL     OW26062   3.164   8.303   4.033
 8573SOL    HW126063   3.078   8.272   4.075
 8573SOL    HW226064   3.160   8.289   3.934
 8574SOL     OW26065   1.945   8.706   4.746
 8574SOL    HW126066   1.940   8.705   4.846
 8574SOL    HW226067   1.862   8.665   4.708
 8575SOL     OW26068   2.550   9.110   5.440
 8575SOL    HW126069   2.494   9.191   5.449
 8575SOL    HW226070   2.602   9.114   5.354
 8576SOL     OW26071   3.588   7.583   4.247
 8576SOL    HW126072   3.661   7.566   4.180
 8576SOL    HW226073   3.557   7.496   4.285
 8577SOL     OW26074   3.142   8.375   4.396
 8577SOL    HW126075   3.202   8.294   4.398
 8577SOL    HW226076   3.182   8.444   4.336
 8578SOL     OW26077   2.692   8.721   5.146
 8578SOL    HW126078   2.687   8.754   5.241
 8578SOL    HW226079   2.606   8.740   5.100
 8579SOL     OW26080   2.534   9.064   3.878
 8579SOL    HW126081   2.543   9.074   3.779
 8579SOL    HW226082   2.494   8.975   3.899
 8580SOL     OW26083   2.125   7.774   4.444
 8580SOL    HW126084   2.046   7.825   4.410
 8580SOL    HW226085   2.116   7.759   4.542
 8581SOL     OW26086   3.056   9.060   3.755
 8581SOL    HW126087   3.062   8.967   3.792
 8581SOL    HW226088   2.997   9.060   3.675
 8582SOL     OW26089   2.684   8.450   5.096
 8582SOL    HW126090   2.724   8.449   5.004
 8582SOL    HW226091   2.694   8.542   5.136
 8583SOL     OW26092   2.778   8.358   4.015
 8583SOL    HW126093   2.841   8.396   3.947
 8583SOL    HW226094   2.818   8.275   4.054
 8584SOL     OW26095   2.234   8.736   5.214
 8584SOL    HW126096   2.221   8.829   5.180
 8584SOL    HW226097   2.150   8.684   5.201
 8585SOL     OW26098   3.476   8.740   5.013
 8585SOL    HW126099   3.536   8.743   5.093
 8585SOL    HW226100   3.401   8.804   5.026
 8586SOL     OW26101   2.901   8.546   4.420
 8586SOL    HW126102   2.831   8.499   4.474
 8586SOL    HW226103   2.960   8.478   4.377
 8587SOL     OW26104   2.876   7.684   4.695
 8587SOL    HW126105   2.868   7.648   4.602
 8587SOL    HW226106   2.874   7.608   4.760
 8588SOL     OW26107   2.452   8.935   4.215
 8588SOL    HW126108   2.494   8.877   4.145
 8588SOL    HW226109   2.408   9.014   4.171
 8589SOL     OW26110   3.571   7.833   5.105
 8589SOL    HW126111   3.644   7.902   5.109
 8589SOL    HW226112   3.599   7.758   5.046
 8590SOL     OW26113   2.117   8.796   4.014
 8590SOL    HW126114   2.021   8.797   3.987
 8590SOL    HW226115   2.129   8.849   4.098
 8591SOL     OW26116   1.967   8.461   5.450
 8591SOL    HW126117   1.890   8.428   5.504
 8591SOL    HW226118   2.052   8.431   5.492
 8592SOL     OW26119   2.534   7.651   5.213
 8592SOL    HW126120   2.624   7.635   5.173
 8592SOL    HW226121   2.542   7.656   5.312
 8593SOL     OW26122   1.937   7.793   3.757
 8593SOL    HW126123   1.845   7.765   3.728
 8593SOL    HW226124   1.968   7.870   3.701
 8594SOL     OW26125   3.302   8.304   5.122
 8594SOL    HW126126   3.245   8.356   5.059
 8594SOL    HW226127   3.398   8.316   5.098
 8595SOL     OW26128   1.934   7.614   4.042
 8595SOL    HW126129   1.917   7.697   3.988
 8595SOL    HW226130   2.024   7.577   4.020
 8596SOL     OW26131   3.045   8.783   3.843
 8596SOL    HW126132   2.946   8.772   3.845
 8596SOL    HW226133   3.079   8.798   3.936
 8597SOL     OW26134   2.475   8.290   5.155
 8597SOL    HW126135   2.531   8.371   5.138
 8597SOL    HW226136   2.534   8.210   5.158
 8598SOL     OW26137   2.578   8.013   5.432
 8598SOL    HW126138   2.597   8.078   5.506
 8598SOL    HW226139   2.638   7.933   5.441
 8599SOL     OW26140   3.312   8.668   5.357
 8599SOL    HW126141   3.303   8.658   5.456
 8599SOL    HW226142   3.408   8.661   5.331
 8600SOL     OW26143   2.252   9.189   5.284
 8600SOL    HW126144   2.161   9.230   5.282
 8600SOL    HW226145   2.245   9.095   5.316
 8601SOL     OW26146   3.536   8.331   4.978
 8601SOL    HW126147   3.509   8.242   4.941
 8601SOL    HW226148   3.537   8.399   4.905
 8602SOL     OW26149   3.087   7.773   4.173
 8602SOL    HW126150   3.152   7.699   4.162
 8602SOL    HW226151   3.107   7.823   4.257
 8603SOL     OW26152   2.456   8.193   4.376
 8603SOL    HW126153   2.506   8.278   4.357
 8603SOL    HW226154   2.368   8.195   4.328
 8604SOL     OW26155   3.639   7.790   5.366
 8604SOL    HW126156   3.622   7.821   5.272
 8604SOL    HW226157   3.555   7.753   5.404
 8605SOL     OW26158   3.592   8.382   5.241
 8605SOL    HW126159   3.630   8.473   5.256
 8605SOL    HW226160   3.584   8.365   5.142
 8606SOL     OW26161   2.721   8.822   3.740
 8606SOL    HW126162   2.675   8.837   3.828
 8606SOL    HW226163   2.765   8.907   3.710
 8607SOL     OW26164   2.721   8.404   4.585
 8607SOL    HW126165   2.775   8.335   4.633
 8607SOL    HW226166   2.689   8.473   4.651
 8608SOL     OW26167   2.945   8.432   3.811
 8608SOL    HW126168   2.922   8.485   3.729
 8608SOL    HW226169   3.026   8.376   3.792
 8609SOL     OW26170   2.083   8.762   5.568
 8609SOL    HW126171   2.018   8.689   5.547
 8609SOL    HW226172   2.087   8.776   5.666
 8610SOL     OW26173   1.941   8.688   4.377
 8610SOL    HW126174   1.940   8.641   4.465
 8610SOL    HW226175   2.023   8.660   4.326
 8611SOL     OW26176   2.534   8.839   5.348
 8611SOL    HW126177   2.456   8.789   5.386
 8611SOL    HW226178   2.531   8.934   5.379
 8612SOL     OW26179   3.686   7.640   4.951
 8612SOL    HW126180   3.682   7.550   4.995
 8612SOL    HW226181   3.689   7.629   4.852
 8613SOL     OW26182   2.290   7.872   4.244
 8613SOL    HW126183   2.320   7.800   4.182
 8613SOL    HW226184   2.251   7.832   4.327
 8614SOL     OW26185   3.567   8.935   4.828
 8614SOL    HW126186   3.474   8.910   4.801
 8614SOL    HW226187   3.593   8.885   4.910
 8615SOL     OW26188   2.179   7.995   5.004
 8615SOL    HW126189   2.217   7.936   5.076
 8615SOL    HW226190   2.219   7.969   4.916
 8616SOL     OW26191   2.674   9.034   4.411
 8616SOL    HW126192   2.706   9.044   4.317
 8616SOL    HW226193   2.595   8.972   4.413
 8617SOL     OW26194   3.286   7.662   4.836
 8617SOL    HW126195   3.338   7.597   4.891
 8617SOL    HW226196   3.237   7.725   4.897
 8618SOL     OW26197   2.863   7.482   4.878
 8618SOL    HW126198   2.800   7.410   4.847
 8618SOL    HW226199   2.956   7.446   4.878
 8619SOL     OW26200   2.632   8.778   4.025
 8619SOL    HW126201   2.586   8.691   4.042
 8619SOL    HW226202   2.723   8.775   4.066
 8620SOL     OW26203   2.480   9.015   5.008
 8620SOL    HW126204   2.475   9.097   5.065
 8620SOL    HW226205   2.569   9.012   4.963
 8621SOL     OW26206   3.214   7.500   3.892
 8621SOL    HW126207   3.249   7.459   3.808
 8621SOL    HW226208   3.124   7.462   3.912
 8622SOL     OW26209   3.162   7.901   4.415
 8622SOL    HW126210   3.103   7.981   4.419
 8622SOL    HW226211   3.177   7.866   4.508
 8623SOL     OW26212   3.455   7.669   4.606
 8623SOL    HW126213   3.371   7.668   4.660
 8623SOL    HW226214   3.457   7.752   4.550
 8624SOL     OW26215   1.901   8.525   4.024
 8624SOL    HW126216   2.000   8.514   4.015
 8624SOL    HW226217   1.861   8.439   4.056
 8625SOL     OW26218   2.737   9.094   4.061
 8625SOL    HW126219   2.660   9.059   4.007
 8625SOL    HW226220   2.705   9.165   4.123
 8626SOL     OW26221   2.092   8.076   5.699
 8626SOL    HW126222   1.999   8.074   5.736
 8626SOL    HW226223   2.093   8.037   5.607
 8627SOL     OW26224   2.087   7.723   6.582
 8627SOL    HW126225   2.122   7.706   6.674
 8627SOL    HW226226   1.999   7.678   6.570
 8628SOL     OW26227   1.881   7.816   6.233
 8628SOL    HW126228   1.799   7.859   6.272
 8628SOL    HW226229   1.853   7.743   6.170
 8629SOL     OW26230   2.431   8.723   6.751
 8629SOL    HW126231   2.338   8.716   6.714
 8629SOL    HW226232   2.442   8.812   6.795
 8630SOL     OW26233   2.997   8.151   6.303
 8630SOL    HW126234   3.054   8.229   6.278
 8630SOL    HW226235   2.937   8.177   6.379
 8631SOL     OW26236   3.617   8.055   5.817
 8631SOL    HW126237   3.605   8.042   5.718
 8631SOL    HW226238   3.587   7.974   5.866
 8632SOL     OW26239   2.630   8.592   6.609
 8632SOL    HW126240   2.552   8.609   6.669
 8632SOL    HW226241   2.664   8.679   6.573
 8633SOL     OW26242   2.712   8.246   7.409
 8633SOL    HW126243   2.708   8.322   7.474
 8633SOL    HW226244   2.734   8.282   7.318
 8634SOL     OW26245   2.547   8.460   6.251
 8634SOL    HW126246   2.616   8.444   6.321
 8634SOL    HW226247   2.474   8.517   6.289
 8635SOL     OW26248   2.548   8.609   7.389
 8635SOL    HW126249   2.608   8.688   7.403
 8635SOL    HW226250   2.462   8.640   7.348
 8636SOL     OW26251   2.197   8.883   6.647
 8636SOL    HW126252   2.119   8.852   6.594
 8636SOL    HW226253   2.255   8.941   6.590
 8637SOL     OW26254   2.300   7.840   7.085
 8637SOL    HW126255   2.382   7.784   7.094
 8637SOL    HW226256   2.219   7.782   7.089
 8638SOL     OW26257   3.465   7.895   6.323
 8638SOL    HW126258   3.391   7.941   6.273
 8638SOL    HW226259   3.516   7.963   6.376
 8639SOL     OW26260   2.989   8.789   7.276
 8639SOL    HW126261   3.036   8.789   7.364
 8639SOL    HW226262   2.941   8.702   7.265
 8640SOL     OW26263   2.092   8.882   6.124
 8640SOL    HW126264   2.066   8.978   6.124
 8640SOL    HW226265   2.021   8.828   6.169
 8641SOL     OW26266   2.102   8.539   6.472
 8641SOL    HW126267   2.116   8.455   6.524
 8641SOL    HW226268   2.047   8.603   6.527
 8642SOL     OW26269   2.468   8.412   5.709
 8642SOL    HW126270   2.475   8.496   5.655
 8642SOL    HW226271   2.514   8.425   5.797
 8643SOL     OW26272   3.456   7.562   7.066
 8643SOL    HW126273   3.438   7.629   6.994
 8643SOL    HW226274   3.453   7.608   7.155
 8644SOL     OW26275   1.984   8.091   6.149
 8644SOL    HW126276   1.939   8.003   6.166
 8644SOL    HW226277   1.983   8.145   6.233
 8645SOL     OW26278   1.889   9.044   5.703
 8645SOL    HW126279   1.870   8.948   5.724
 8645SOL    HW226280   1.856   9.102   5.778
 8646SOL     OW26281   3.551   8.370   6.198
 8646SOL    HW126282   3.646   8.341   6.206
 8646SOL    HW226283   3.543   8.435   6.123
 8647SOL     OW26284   3.503   8.556   6.018
 8647SOL    HW126285   3.589   8.558   5.966
 8647SOL    HW226286   3.517   8.603   6.106
 8648SOL     OW26287   1.975   8.185   7.183
 8648SOL    HW126288   2.063   8.172   7.228
 8648SOL    HW226289   1.962   8.282   7.161
 8649SOL     OW26290   2.475   8.813   6.312
 8649SOL    HW126291   2.426   8.726   6.321
 8649SOL    HW226292   2.452   8.856   6.225
 8650SOL     OW26293   3.155   8.676   7.009
 8650SOL    HW126294   3.192   8.603   6.951
 8650SOL    HW226295   3.207   8.681   7.094
 8651SOL     OW26296   2.671   7.452   6.088
 8651SOL    HW126297   2.711   7.543   6.079
 8651SOL    HW226298   2.571   7.460   6.094
 8652SOL     OW26299   2.059   8.424   6.850
 8652SOL    HW126300   2.148   8.379   6.836
 8652SOL    HW226301   1.986   8.359   6.831
 8653SOL     OW26302   3.387   8.447   5.776
 8653SOL    HW126303   3.324   8.371   5.789
 8653SOL    HW226304   3.435   8.465   5.862
 8654SOL     OW26305   3.049   9.240   7.202
 8654SOL    HW126306   3.073   9.300   7.126
 8654SOL    HW226307   3.056   9.145   7.172
 8655SOL     OW26308   2.179   7.699   7.387
 8655SOL    HW126309   2.250   7.770   7.393
 8655SOL    HW226310   2.091   7.738   7.415
 8656SOL     OW26311   3.328   8.865   6.539
 8656SOL    HW126312   3.269   8.871   6.619
 8656SOL    HW226313   3.313   8.777   6.493
 8657SOL     OW26314   2.460   8.177   5.856
 8657SOL    HW126315   2.484   8.246   5.788
 8657SOL    HW226316   2.382   8.210   5.910
 8658SOL     OW26317   3.143   7.793   6.530
 8658SOL    HW126318   3.057   7.743   6.517
 8658SOL    HW226319   3.205   7.739   6.586
 8659SOL     OW26320   2.669   8.053   7.051
 8659SOL    HW126321   2.622   8.050   7.140
 8659SOL    HW226322   2.618   7.998   6.985
 8660SOL     OW26323   3.256   7.917   7.260
 8660SOL    HW126324   3.236   7.960   7.348
 8660SOL    HW226325   3.334   7.855   7.269
 8661SOL     OW26326   2.835   8.338   7.158
 8661SOL    HW126327   2.881   8.254   7.129
 8661SOL    HW226328   2.779   8.372   7.083
 8662SOL     OW26329   2.853   7.858   6.828
 8662SOL    HW126330   2.776   7.892   6.882
 8662SOL    HW226331   2.819   7.807   6.749
 8663SOL     OW26332   2.903   8.149   6.015
 8663SOL    HW126333   2.929   8.145   6.111
 8663SOL    HW226334   2.818   8.098   6.001
 8664SOL     OW26335   1.938   8.259   6.375
 8664SOL    HW126336   2.037   8.247   6.384
 8664SOL    HW226337   1.914   8.354   6.396
 8665SOL     OW26338   2.727   7.796   5.781
 8665SOL    HW126339   2.786   7.859   5.732
 8665SOL    HW226340   2.746   7.702   5.752
 8666SOL     OW26341   3.581   8.033   7.417
 8666SOL    HW126342   3.555   8.122   7.381
 8666SOL    HW226343   3.579   7.965   7.344
 8667SOL     OW26344   3.224   8.592   6.131
 8667SOL    HW126345   3.307   8.563   6.083
 8667SOL    HW226346   3.175   8.659   6.075
 8668SOL     OW26347   2.412   7.644   6.471
 8668SOL    HW126348   2.407   7.639   6.571
 8668SOL    HW226349   2.414   7.740   6.442
 8669SOL     OW26350   2.870   8.904   6.063
 8669SOL    HW126351   2.824   8.976   6.011
 8669SOL    HW226352   2.866   8.924   6.161
 8670SOL     OW26353   3.657   8.514   6.459
 8670SOL    HW126354   3.595   8.499   6.383
 8670SOL    HW226355   3.605   8.525   6.544
 8671SOL     OW26356   3.089   8.998   7.092
 8671SOL    HW126357   3.095   8.921   7.156
 8671SOL    HW226358   3.037   8.972   7.012
 8672SOL     OW26359   2.183   8.391   5.828
 8672SOL    HW126360   2.265   8.430   5.786
 8672SOL    HW226361   2.156   8.309   5.779
 8673SOL     OW26362   3.320   8.183   6.314
 8673SOL    HW126363   3.315   8.118   6.389
 8673SOL    HW226364   3.400   8.242   6.327
 8674SOL     OW26365   2.323   8.714   7.313
 8674SOL    HW126366   2.273   8.715   7.227
 8674SOL    HW226367   2.260   8.696   7.389
 8675SOL     OW26368   2.064   7.733   7.084
 8675SOL    HW126369   1.984   7.793   7.071
 8675SOL    HW226370   2.054   7.684   7.170
 8676SOL     OW26371   3.262   7.555   6.012
 8676SOL    HW126372   3.238   7.518   5.922
 8676SOL    HW226373   3.361   7.571   6.016
 8677SOL     OW26374   2.802   9.146   6.490
 8677SOL    HW126375   2.882   9.089   6.511
 8677SOL    HW226376   2.753   9.106   6.413
 8678SOL     OW26377   2.244   8.148   6.066
 8678SOL    HW126378   2.289   8.058   6.063
 8678SOL    HW226379   2.150   8.137   6.099
 8679SOL     OW26380   3.409   7.670   7.315
 8679SOL    HW126381   3.404   7.707   7.407
 8679SOL    HW226382   3.337   7.601   7.303
 8680SOL     OW26383   2.476   7.570   5.703
 8680SOL    HW126384   2.574   7.548   5.710
 8680SOL    HW226385   2.445   7.553   5.610
 8681SOL     OW26386   2.643   7.712   7.335
 8681SOL    HW126387   2.710   7.651   7.378
 8681SOL    HW226388   2.570   7.731   7.400
 8682SOL     OW26389   2.750   8.962   6.781
 8682SOL    HW126390   2.727   8.937   6.687
 8682SOL    HW226391   2.811   8.893   6.820
 8683SOL     OW26392   3.213   8.038   7.019
 8683SOL    HW126393   3.241   7.995   7.104
 8683SOL    HW226394   3.238   8.134   7.020
 8684SOL     OW26395   2.665   8.850   6.510
 8684SOL    HW126396   2.755   8.864   6.468
 8684SOL    HW226397   2.594   8.852   6.439
 8685SOL     OW26398   2.784   7.951   6.485
 8685SOL    HW126399   2.759   7.942   6.389
 8685SOL    HW226400   2.832   7.869   6.516
 8686SOL     OW26401   2.401   7.512   6.098
 8686SOL    HW126402   2.320   7.513   6.156
 8686SOL    HW226403   2.404   7.595   6.043
 8687SOL     OW26404   3.296   8.636   5.627
 8687SOL    HW126405   3.328   8.560   5.684
 8687SOL    HW226406   3.204   8.663   5.657
 8688SOL     OW26407   2.159   7.483   5.757
 8688SOL    HW126408   2.208   7.567   5.736
 8688SOL    HW226409   2.221   7.418   5.802
 8689SOL     OW26410   2.797   7.684   6.066
 8689SOL    HW126411   2.749   7.725   5.988
 8689SOL    HW226412   2.896   7.682   6.047
 8690SOL     OW26413   2.938   8.131   7.050
 8690SOL    HW126414   2.858   8.070   7.053
 8690SOL    HW226415   3.019   8.078   7.026
 8691SOL     OW26416   3.089   9.018   6.379
 8691SOL    HW126417   3.110   9.092   6.314
 8691SOL    HW226418   3.157   9.018   6.452
 8692SOL     OW26419   2.321   8.600   6.327
 8692SOL    HW126420   2.250   8.573   6.392
 8692SOL    HW226421   2.295   8.572   6.234
 8693SOL     OW26422   2.894   7.997   5.602
 8693SOL    HW126423   2.853   8.079   5.563
 8693SOL    HW226424   2.958   8.023   5.675
 8694SOL     OW26425   1.940   8.004   6.972
 8694SOL    HW126426   2.032   8.003   6.931
 8694SOL    HW226427   1.934   8.078   7.039
 8695SOL     OW26428   2.423   7.670   6.733
 8695SOL    HW126429   2.461   7.586   6.770
 8695SOL    HW226430   2.335   7.689   6.777
 8696SOL     OW26431   2.728   7.902   6.228
 8696SOL    HW126432   2.696   7.974   6.166
 8696SOL    HW226433   2.752   7.821   6.175
 8697SOL     OW26434   2.879   7.487   6.339
 8697SOL    HW126435   2.807   7.492   6.270
 8697SOL    HW226436   2.855   7.418   6.408
 8698SOL     OW26437   3.291   8.621   6.453
 8698SOL    HW126438   3.236   8.537   6.446
 8698SOL    HW226439   3.317   8.650   6.361
 8699SOL     OW26440   3.328   8.038   6.578
 8699SOL    HW126441   3.298   7.943   6.585
 8699SOL    HW226442   3.401   8.054   6.644
 8700SOL     OW26443   3.719   8.281   5.963
 8700SOL    HW126444   3.761   8.217   6.027
 8700SOL    HW226445   3.681   8.230   5.885
 8701SOL     OW26446   2.350   8.833   5.760
 8701SOL    HW126447   2.263   8.818   5.807
 8701SOL    HW226448   2.333   8.859   5.665
 8702SOL     OW26449   3.252   8.023   5.664
 8702SOL    HW126450   3.198   8.002   5.745
 8702SOL    HW226451   3.343   7.982   5.673
 8703SOL     OW26452   2.389   7.704   5.914
 8703SOL    HW126453   2.416   7.645   5.839
 8703SOL    HW226454   2.389   7.799   5.883
 8704SOL     OW26455   2.926   8.795   6.926
 8704SOL    HW126456   2.846   8.772   6.981
 8704SOL    HW226457   3.009   8.769   6.975
 8705SOL     OW26458   2.973   8.643   6.686
 8705SOL    HW126459   2.933   8.687   6.767
 8705SOL    HW226460   2.932   8.680   6.603
 8706SOL     OW26461   3.500   8.547   6.665
 8706SOL    HW126462   3.505   8.628   6.724
 8706SOL    HW226463   3.414   8.549   6.614
 8707SOL     OW26464   2.777   7.537   6.988
 8707SOL    HW126465   2.802   7.517   6.893
 8707SOL    HW226466   2.849   7.593   7.030
 8708SOL     OW26467   2.842   8.564   7.305
 8708SOL    HW126468   2.743   8.570   7.315
 8708SOL    HW226469   2.865   8.484   7.249
 8709SOL     OW26470   2.567   8.498   5.954
 8709SOL    HW126471   2.553   8.505   6.053
 8709SOL    HW226472   2.651   8.447   5.936
 8710SOL     OW26473   2.272   8.261   6.837
 8710SOL    HW126474   2.358   8.273   6.887
 8710SOL    HW226475   2.230   8.174   6.864
 8711SOL     OW26476   3.136   7.834   6.848
 8711SOL    HW126477   3.157   7.908   6.912
 8711SOL    HW226478   3.047   7.851   6.805
 8712SOL     OW26479   1.926   9.012   6.917
 8712SOL    HW126480   1.880   9.094   6.883
 8712SOL    HW226481   2.024   9.031   6.926
 8713SOL     OW26482   2.229   8.548   6.087
 8713SOL    HW126483   2.222   8.631   6.031
 8713SOL    HW226484   2.233   8.468   6.027
 8714SOL     OW26485   2.428   7.985   6.451
 8714SOL    HW126486   2.440   8.051   6.377
 8714SOL    HW226487   2.474   8.019   6.534
 8715SOL     OW26488   3.114   8.796   5.974
 8715SOL    HW126489   3.164   8.873   6.014
 8715SOL    HW226490   3.019   8.798   6.006
 8716SOL     OW26491   3.134   8.893   6.728
 8716SOL    HW126492   3.181   8.906   6.815
 8716SOL    HW226493   3.068   8.819   6.737
 8717SOL     OW26494   3.444   8.087   6.058
 8717SOL    HW126495   3.413   8.148   6.131
 8717SOL    HW226496   3.494   8.139   5.989
 8718SOL     OW26497   2.216   8.958   6.915
 8718SOL    HW126498   2.195   8.914   6.828
 8718SOL    HW226499   2.313   8.984   6.918
 8719SOL     OW26500   2.264   8.199   7.184
 8719SOL    HW126501   2.332   8.254   7.137
 8719SOL    HW226502   2.304   8.111   7.211
 8720SOL     OW26503   3.449   8.227   7.256
 8720SOL    HW126504   3.357   8.265   7.251
 8720SOL    HW226505   3.509   8.274   7.191
 8721SOL     OW26506   2.875   7.553   7.356
 8721SOL    HW126507   2.881   7.638   7.304
 8721SOL    HW226508   2.907   7.477   7.299
 8722SOL     OW26509   2.366   7.498   7.326
 8722SOL    HW126510   2.324   7.441   7.256
 8722SOL    HW226511   2.300   7.567   7.358
 8723SOL     OW26512   2.435   8.318   6.615
 8723SOL    HW126513   2.479   8.407   6.606
 8723SOL    HW226514   2.372   8.318   6.692
 8724SOL     OW26515   3.222   8.310   6.631
 8724SOL    HW126516   3.147   8.310   6.565
 8724SOL    HW226517   3.259   8.218   6.640
 8725SOL     OW26518   3.071   7.973   5.861
 8725SOL    HW126519   3.084   7.889   5.915
 8725SOL    HW226520   3.042   8.047   5.921
 8726SOL     OW26521   2.169   7.661   6.817
 8726SOL    HW126522   2.146   7.698   6.907
 8726SOL    HW226523   2.139   7.566   6.811
 8727SOL     OW26524   1.899   8.758   6.868
 8727SOL    HW126525   1.952   8.709   6.936
 8727SOL    HW226526   1.921   8.856   6.873
 8728SOL     OW26527   2.594   8.082   6.650
 8728SOL    HW126528   2.653   8.056   6.574
 8728SOL    HW226529   2.566   8.178   6.639
 8729SOL     OW26530   3.590   8.383   7.440
 8729SOL    HW126531   3.544   8.376   7.351
 8729SOL    HW226532   3.528   8.427   7.506
 8730SOL     OW26533   2.169   7.511   6.204
 8730SOL    HW126534   2.158   7.605   6.237
 8730SOL    HW226535   2.164   7.448   6.281
 8731SOL     OW26536   3.484   7.815   5.960
 8731SOL    HW126537   3.486   7.739   6.024
 8731SOL    HW226538   3.436   7.892   6.000
 8732SOL     OW26539   2.885   8.214   6.552
 8732SOL    HW126540   2.900   8.235   6.648
 8732SOL    HW226541   2.855   8.119   6.543
 8733SOL     OW26542   2.842   9.021   7.286
 8733SOL    HW126543   2.822   9.065   7.198
 8733SOL    HW226544   2.881   8.930   7.270
 8734SOL     OW26545   2.212   8.346   7.390
 8734SOL    HW126546   2.288   8.390   7.438
 8734SOL    HW226547   2.247   8.299   7.308
 8735SOL     OW26548   3.402   7.722   5.711
 8735SOL    HW126549   3.341   7.647   5.734
 8735SOL    HW226550   3.424   7.774   5.794
 8736SOL     OW26551   3.165   8.286   5.628
 8736SOL    HW126552   3.199   8.193   5.643
 8736SOL    HW226553   3.183   8.313   5.533
 8737SOL     OW26554   2.930   8.781   6.435
 8737SOL    HW126555   2.937   8.697   6.380
 8737SOL    HW226556   2.992   8.850   6.399
 8738SOL     OW26557   2.181   8.258   6.535
 8738SOL    HW126558   2.274   8.294   6.540
 8738SOL    HW226559   2.175   8.173   6.587
 8739SOL     OW26560   2.201   7.957   6.592
 8739SOL    HW126561   2.149   7.874   6.575
 8739SOL    HW226562   2.278   7.962   6.528
 8740SOL     OW26563   3.000   7.828   7.264
 8740SOL    HW126564   2.955   7.891   7.328
 8740SOL    HW226565   3.093   7.859   7.247
 8741SOL     OW26566   3.022   7.655   7.063
 8741SOL    HW126567   3.022   7.719   7.140
 8741SOL    HW226568   3.050   7.703   6.980
 8742SOL     OW26569   1.870   8.774   5.786
 8742SOL    HW126570   1.777   8.795   5.755
 8742SOL    HW226571   1.880   8.675   5.799
 8743SOL     OW26572   2.366   9.016   6.496
 8743SOL    HW126573   2.432   9.090   6.505
 8743SOL    HW226574   2.410   8.937   6.454
 8744SOL     OW26575   2.864   8.244   6.824
 8744SOL    HW126576   2.905   8.212   6.910
 8744SOL    HW226577   2.768   8.217   6.821
 8745SOL     OW26578   1.902   7.992   6.700
 8745SOL    HW126579   1.987   7.959   6.659
 8745SOL    HW226580   1.915   8.007   6.798
 8746SOL     OW26581   2.051   7.968   7.308
 8746SOL    HW126582   2.110   7.928   7.238
 8746SOL    HW226583   1.993   8.039   7.267
 8747SOL     OW26584   3.231   8.398   7.246
 8747SOL    HW126585   3.270   8.487   7.266
 8747SOL    HW226586   3.241   8.378   7.149
 8748SOL     OW26587   2.677   8.020   5.911
 8748SOL    HW126588   2.684   7.931   5.865
 8748SOL    HW226589   2.583   8.054   5.903
 8749SOL     OW26590   3.519   8.052   6.792
 8749SOL    HW126591   3.481   7.983   6.854
 8749SOL    HW226592   3.601   8.016   6.748
 8750SOL     OW26593   2.114   9.012   7.330
 8750SOL    HW126594   2.084   9.069   7.406
 8750SOL    HW226595   2.107   8.915   7.356
 8751SOL     OW26596   2.533   7.912   6.855
 8751SOL    HW126597   2.499   7.823   6.825
 8751SOL    HW226598   2.559   7.966   6.775
 8752SOL     OW26599   2.792   9.126   7.051
 8752SOL    HW126600   2.768   9.108   6.956
 8752SOL    HW226601   2.822   9.220   7.061
 8753SOL     OW26602   2.335   7.948   5.777
 8753SOL    HW126603   2.396   8.028   5.781
 8753SOL    HW226604   2.240   7.979   5.784
 8754SOL     OW26605   2.021   8.585   7.052
 8754SOL    HW126606   2.043   8.524   7.128
 8754SOL    HW226607   2.031   8.536   6.966
 8755SOL     OW26608   3.209   8.507   6.820
 8755SOL    HW126609   3.233   8.444   6.746
 8755SOL    HW226610   3.119   8.547   6.802
 8756SOL     OW26611   3.164   8.303   5.895
 8756SOL    HW126612   3.078   8.272   5.937
 8756SOL    HW226613   3.160   8.289   5.796
 8757SOL     OW26614   1.945   8.706   6.608
 8757SOL    HW126615   1.940   8.705   6.708
 8757SOL    HW226616   1.862   8.665   6.570
 8758SOL     OW26617   2.550   9.110   7.302
 8758SOL    HW126618   2.494   9.191   7.311
 8758SOL    HW226619   2.602   9.114   7.216
 8759SOL     OW26620   3.588   7.583   6.109
 8759SOL    HW126621   3.661   7.566   6.042
 8759SOL    HW226622   3.557   7.496   6.147
 8760SOL     OW26623   3.142   8.375   6.258
 8760SOL    HW126624   3.202   8.294   6.260
 8760SOL    HW226625   3.182   8.444   6.198
 8761SOL     OW26626   2.692   8.721   7.008
 8761SOL    HW126627   2.687   8.754   7.103
 8761SOL    HW226628   2.606   8.740   6.962
 8762SOL     OW26629   2.534   9.064   5.740
 8762SOL    HW126630   2.543   9.074   5.641
 8762SOL    HW226631   2.494   8.975   5.761
 8763SOL     OW26632   3.703   7.623   6.549
 8763SOL    HW126633   3.742   7.538   6.513
 8763SOL    HW226634   3.605   7.625   6.530
 8764SOL     OW26635   2.125   7.774   6.306
 8764SOL    HW126636   2.046   7.825   6.272
 8764SOL    HW226637   2.116   7.759   6.404
 8765SOL     OW26638   3.056   9.060   5.617
 8765SOL    HW126639   3.062   8.967   5.654
 8765SOL    HW226640   2.997   9.060   5.537
 8766SOL     OW26641   2.684   8.450   6.958
 8766SOL    HW126642   2.724   8.449   6.866
 8766SOL    HW226643   2.694   8.542   6.998
 8767SOL     OW26644   2.778   8.358   5.877
 8767SOL    HW126645   2.841   8.396   5.809
 8767SOL    HW226646   2.818   8.275   5.916
 8768SOL     OW26647   2.234   8.736   7.076
 8768SOL    HW126648   2.221   8.829   7.042
 8768SOL    HW226649   2.150   8.684   7.063
 8769SOL     OW26650   3.476   8.740   6.875
 8769SOL    HW126651   3.536   8.743   6.955
 8769SOL    HW226652   3.401   8.804   6.888
 8770SOL     OW26653   2.901   8.546   6.282
 8770SOL    HW126654   2.831   8.499   6.336
 8770SOL    HW226655   2.960   8.478   6.239
 8771SOL     OW26656   2.876   7.684   6.557
 8771SOL    HW126657   2.868   7.648   6.464
 8771SOL    HW226658   2.874   7.608   6.622
 8772SOL     OW26659   2.452   8.935   6.077
 8772SOL    HW126660   2.494   8.877   6.007
 8772SOL    HW226661   2.408   9.014   6.033
 8773SOL     OW26662   3.571   7.833   6.967
 8773SOL    HW126663   3.644   7.902   6.971
 8773SOL    HW226664   3.599   7.758   6.908
 8774SOL     OW26665   2.117   8.796   5.876
 8774SOL    HW126666   2.021   8.797   5.849
 8774SOL    HW226667   2.129   8.849   5.960
 8775SOL     OW26668   1.967   8.461   7.312
 8775SOL    HW126669   1.890   8.428   7.366
 8775SOL    HW226670   2.052   8.431   7.354
 8776SOL     OW26671   2.534   7.651   7.075
 8776SOL    HW126672   2.624   7.635   7.035
 8776SOL    HW226673   2.542   7.656   7.174
 8777SOL     OW26674   1.937   7.793   5.619
 8777SOL    HW126675   1.845   7.765   5.590
 8777SOL    HW226676   1.968   7.870   5.563
 8778SOL     OW26677   3.302   8.304   6.984
 8778SOL    HW126678   3.245   8.356   6.921
 8778SOL    HW226679   3.398   8.316   6.960
 8779SOL     OW26680   1.934   7.614   5.904
 8779SOL    HW126681   1.917   7.697   5.850
 8779SOL    HW226682   2.024   7.577   5.882
 8780SOL     OW26683   3.045   8.783   5.705
 8780SOL    HW126684   2.946   8.772   5.707
 8780SOL    HW226685   3.079   8.798   5.798
 8781SOL     OW26686   2.475   8.290   7.017
 8781SOL    HW126687   2.531   8.371   7.000
 8781SOL    HW226688   2.534   8.210   7.020
 8782SOL     OW26689   2.578   8.013   7.294
 8782SOL    HW126690   2.597   8.078   7.368
 8782SOL    HW226691   2.638   7.933   7.303
 8783SOL     OW26692   3.312   8.668   7.219
 8783SOL    HW126693   3.303   8.658   7.318
 8783SOL    HW226694   3.408   8.661   7.193
 8784SOL     OW26695   2.252   9.189   7.146
 8784SOL    HW126696   2.161   9.230   7.144
 8784SOL    HW226697   2.245   9.095   7.178
 8785SOL     OW26698   3.536   8.331   6.840
 8785SOL    HW126699   3.509   8.242   6.803
 8785SOL    HW226700   3.537   8.399   6.767
 8786SOL     OW26701   3.087   7.773   6.035
 8786SOL    HW126702   3.152   7.699   6.024
 8786SOL    HW226703   3.107   7.823   6.119
 8787SOL     OW26704   2.456   8.193   6.238
 8787SOL    HW126705   2.506   8.278   6.219
 8787SOL    HW226706   2.368   8.195   6.190
 8788SOL     OW26707   3.639   7.790   7.228
 8788SOL    HW126708   3.622   7.821   7.134
 8788SOL    HW226709   3.555   7.753   7.266
 8789SOL     OW26710   3.592   8.382   7.103
 8789SOL    HW126711   3.630   8.473   7.118
 8789SOL    HW226712   3.584   8.365   7.004
 8790SOL     OW26713   2.721   8.822   5.602
 8790SOL    HW126714   2.675   8.837   5.690
 8790SOL    HW226715   2.765   8.907   5.572
 8791SOL     OW26716   2.721   8.404   6.447
 8791SOL    HW126717   2.775   8.335   6.495
 8791SOL    HW226718   2.689   8.473   6.513
 8792SOL     OW26719   2.945   8.432   5.673
 8792SOL    HW126720   2.922   8.485   5.591
 8792SOL    HW226721   3.026   8.376   5.654
 8793SOL     OW26722   2.083   8.762   7.430
 8793SOL    HW126723   2.018   8.689   7.409
 8793SOL    HW226724   2.087   8.776   7.528
 8794SOL     OW26725   1.941   8.688   6.239
 8794SOL    HW126726   1.940   8.641   6.327
 8794SOL    HW226727   2.023   8.660   6.188
 8795SOL     OW26728   2.534   8.839   7.210
 8795SOL    HW126729   2.456   8.789   7.248
 8795SOL    HW226730   2.531   8.934   7.241
 8796SOL     OW26731   3.686   7.640   6.813
 8796SOL    HW126732   3.682   7.550   6.857
 8796SOL    HW226733   3.689   7.629   6.714
 8797SOL     OW26734   2.290   7.872   6.106
 8797SOL    HW126735   2.320   7.800   6.044
 8797SOL    HW226736   2.251   7.832   6.189
 8798SOL     OW26737   3.567   8.935   6.690
 8798SOL    HW126738   3.474   8.910   6.663
 8798SOL    HW226739   3.593   8.885   6.772
 8799SOL     OW26740   2.179   7.995   6.866
 8799SOL    HW126741   2.217   7.936   6.938
 8799SOL    HW226742   2.219   7.969   6.778
 8800SOL     OW26743   2.674   9.034   6.273
 8800SOL    HW126744   2.706   9.044   6.179
 8800SOL    HW226745   2.595   8.972   6.275
 8801SOL     OW26746   3.286   7.662   6.698
 8801SOL    HW126747   3.338   7.597   6.753
 8801SOL    HW226748   3.237   7.725   6.759
 8802SOL     OW26749   2.863   7.482   6.740
 8802SOL    HW126750   2.800   7.410   6.709
 8802SOL    HW226751   2.956   7.446   6.740
 8803SOL     OW26752   2.632   8.778   5.887
 8803SOL    HW126753   2.586   8.691   5.904
 8803SOL    HW226754   2.723   8.775   5.928
 8804SOL     OW26755   2.480   9.015   6.870
 8804SOL    HW126756   2.475   9.097   6.927
 8804SOL    HW226757   2.569   9.012   6.825
 8805SOL     OW26758   3.214   7.500   5.754
 8805SOL    HW126759   3.249   7.459   5.670
 8805SOL    HW226760   3.124   7.462   5.774
 8806SOL     OW26761   3.162   7.901   6.277
 8806SOL    HW126762   3.103   7.981   6.281
 8806SOL    HW226763   3.177   7.866   6.370
 8807SOL     OW26764   3.455   7.669   6.468
 8807SOL    HW126765   3.371   7.668   6.522
 8807SOL    HW226766   3.457   7.752   6.412
 8808SOL     OW26767   1.901   8.525   5.886
 8808SOL    HW126768   2.000   8.514   5.877
 8808SOL    HW226769   1.861   8.439   5.918
 8809SOL     OW26770   2.737   9.094   5.923
 8809SOL    HW126771   2.660   9.059   5.869
 8809SOL    HW226772   2.705   9.165   5.985
 8810SOL     OW26773   2.092   8.076   7.561
 8810SOL    HW126774   1.999   8.074   7.598
 8810SOL    HW226775   2.093   8.037   7.469
 8811SOL     OW26776   3.617   8.055   7.679
 8811SOL    HW126777   3.605   8.042   7.580
 8811SOL    HW226778   3.587   7.974   7.728
 8812SOL     OW26779   2.468   8.412   7.571
 8812SOL    HW126780   2.475   8.496   7.517
 8812SOL    HW226781   2.514   8.425   7.659
 8813SOL     OW26782   1.889   9.044   7.565
 8813SOL    HW126783   1.870   8.948   7.586
 8813SOL    HW226784   1.856   9.102   7.640
 8814SOL     OW26785   3.503   8.556   7.880
 8814SOL    HW126786   3.589   8.558   7.828
 8814SOL    HW226787   3.517   8.603   7.968
 8815SOL     OW26788   2.671   7.452   7.950
 8815SOL    HW126789   2.711   7.543   7.941
 8815SOL    HW226790   2.571   7.460   7.956
 8816SOL     OW26791   3.387   8.447   7.638
 8816SOL    HW126792   3.324   8.371   7.651
 8816SOL    HW226793   3.435   8.465   7.724
 8817SOL     OW26794   2.460   8.177   7.718
 8817SOL    HW126795   2.484   8.246   7.650
 8817SOL    HW226796   2.382   8.210   7.772
 8818SOL     OW26797   2.903   8.149   7.877
 8818SOL    HW126798   2.929   8.145   7.973
 8818SOL    HW226799   2.818   8.098   7.863
 8819SOL     OW26800   2.727   7.796   7.643
 8819SOL    HW126801   2.786   7.859   7.594
 8819SOL    HW226802   2.746   7.702   7.614
 8820SOL     OW26803   3.224   8.592   7.993
 8820SOL    HW126804   3.307   8.563   7.945
 8820SOL    HW226805   3.175   8.659   7.937
 8821SOL     OW26806   2.870   8.904   7.925
 8821SOL    HW126807   2.824   8.976   7.873
 8821SOL    HW226808   2.866   8.924   8.023
 8822SOL     OW26809   2.183   8.391   7.690
 8822SOL    HW126810   2.265   8.430   7.648
 8822SOL    HW226811   2.156   8.309   7.641
 8823SOL     OW26812   3.262   7.555   7.874
 8823SOL    HW126813   3.238   7.518   7.784
 8823SOL    HW226814   3.361   7.571   7.878
 8824SOL     OW26815   2.244   8.148   7.928
 8824SOL    HW126816   2.289   8.058   7.925
 8824SOL    HW226817   2.150   8.137   7.961
 8825SOL     OW26818   2.476   7.570   7.565
 8825SOL    HW126819   2.574   7.548   7.572
 8825SOL    HW226820   2.445   7.553   7.472
 8826SOL     OW26821   2.401   7.512   7.960
 8826SOL    HW126822   2.320   7.513   8.018
 8826SOL    HW226823   2.404   7.595   7.905
 8827SOL     OW26824   3.296   8.636   7.489
 8827SOL    HW126825   3.328   8.560   7.546
 8827SOL    HW226826   3.204   8.663   7.519
 8828SOL     OW26827   2.159   7.483   7.619
 8828SOL    HW126828   2.208   7.567   7.598
 8828SOL    HW226829   2.221   7.418   7.664
 8829SOL     OW26830   2.797   7.684   7.928
 8829SOL    HW126831   2.749   7.725   7.850
 8829SOL    HW226832   2.896   7.682   7.909
 8830SOL     OW26833   2.894   7.997   7.464
 8830SOL    HW126834   2.853   8.079   7.425
 8830SOL    HW226835   2.958   8.023   7.537
 8831SOL     OW26836   3.719   8.281   7.825
 8831SOL    HW126837   3.761   8.217   7.889
 8831SOL    HW226838   3.681   8.230   7.747
 8832SOL     OW26839   2.350   8.833   7.622
 8832SOL    HW126840   2.263   8.818   7.669
 8832SOL    HW226841   2.333   8.859   7.527
 8833SOL     OW26842   3.252   8.023   7.526
 8833SOL    HW126843   3.198   8.002   7.607
 8833SOL    HW226844   3.343   7.982   7.535
 8834SOL     OW26845   2.389   7.704   7.776
 8834SOL    HW126846   2.416   7.645   7.701
 8834SOL    HW226847   2.389   7.799   7.745
 8835SOL     OW26848   2.567   8.498   7.816
 8835SOL    HW126849   2.553   8.505   7.915
 8835SOL    HW226850   2.651   8.447   7.798
 8836SOL     OW26851   2.229   8.548   7.949
 8836SOL    HW126852   2.222   8.631   7.893
 8836SOL    HW226853   2.233   8.468   7.889
 8837SOL     OW26854   3.114   8.796   7.836
 8837SOL    HW126855   3.164   8.873   7.876
 8837SOL    HW226856   3.019   8.798   7.868
 8838SOL     OW26857   3.444   8.087   7.920
 8838SOL    HW126858   3.413   8.148   7.993
 8838SOL    HW226859   3.494   8.139   7.851
 8839SOL     OW26860   3.071   7.973   7.723
 8839SOL    HW126861   3.084   7.889   7.777
 8839SOL    HW226862   3.042   8.047   7.783
 8840SOL     OW26863   3.484   7.815   7.822
 8840SOL    HW126864   3.486   7.739   7.886
 8840SOL    HW226865   3.436   7.892   7.862
 8841SOL     OW26866   3.402   7.722   7.573
 8841SOL    HW126867   3.341   7.647   7.596
 8841SOL    HW226868   3.424   7.774   7.656
 8842SOL     OW26869   3.165   8.286   7.490
 8842SOL    HW126870   3.199   8.193   7.505
 8842SOL    HW226871   3.183   8.313   7.395
 8843SOL     OW26872   1.870   8.774   7.648
 8843SOL    HW126873   1.777   8.795   7.617
 8843SOL    HW226874   1.880   8.675   7.661
 8844SOL     OW26875   2.677   8.020   7.773
 8844SOL    HW126876   2.684   7.931   7.727
 8844SOL    HW226877   2.583   8.054   7.765
 8845SOL     OW26878   2.335   7.948   7.639
 8845SOL    HW126879   2.396   8.028   7.643
 8845SOL    HW226880   2.240   7.979   7.646
 8846SOL     OW26881   3.164   8.303   7.757
 8846SOL    HW126882   3.078   8.272   7.799
 8846SOL    HW226883   3.160   8.289   7.658
 8847SOL     OW26884   3.588   7.583   7.971
 8847SOL    HW126885   3.661   7.566   7.904
 8847SOL    HW226886   3.557   7.496   8.009
 8848SOL     OW26887   2.534   9.064   7.602
 8848SOL    HW126888   2.543   9.074   7.503
 8848SOL    HW226889   2.494   8.975   7.623
 8849SOL     OW26890   3.056   9.060   7.479
 8849SOL    HW126891   3.062   8.967   7.516
 8849SOL    HW226892   2.997   9.060   7.399
 8850SOL     OW26893   2.778   8.358   7.739
 8850SOL    HW126894   2.841   8.396   7.671
 8850SOL    HW226895   2.818   8.275   7.778
 8851SOL     OW26896   2.452   8.935   7.939
 8851SOL    HW126897   2.494   8.877   7.869
 8851SOL    HW226898   2.408   9.014   7.895
 8852SOL     OW26899   2.117   8.796   7.738
 8852SOL    HW126900   2.021   8.797   7.711
 8852SOL    HW226901   2.129   8.849   7.822
 8853SOL     OW26902   1.937   7.793   7.481
 8853SOL    HW126903   1.845   7.765   7.452
 8853SOL    HW226904   1.968   7.870   7.425
 8854SOL     OW26905   1.934   7.614   7.766
 8854SOL    HW126906   1.917   7.697   7.712
 8854SOL    HW226907   2.024   7.577   7.744
 8855SOL     OW26908   3.045   8.783   7.567
 8855SOL    HW126909   2.946   8.772   7.569
 8855SOL    HW226910   3.079   8.798   7.660
 8856SOL     OW26911   3.087   7.773   7.897
 8856SOL    HW126912   3.152   7.699   7.886
 8856SOL    HW226913   3.107   7.823   7.981
 8857SOL     OW26914   2.721   8.822   7.464
 8857SOL    HW126915   2.675   8.837   7.552
 8857SOL    HW226916   2.765   8.907   7.434
 8858SOL     OW26917   2.945   8.432   7.535
 8858SOL    HW126918   2.922   8.485   7.453
 8858SOL    HW226919   3.026   8.376   7.516
 8859SOL     OW26920   2.290   7.872   7.968
 8859SOL    HW126921   2.320   7.800   7.906
 8859SOL    HW226922   2.251   7.832   8.051
 8860SOL     OW26923   2.632   8.778   7.749
 8860SOL    HW126924   2.586   8.691   7.766
 8860SOL    HW226925   2.723   8.775   7.790
 8861SOL     OW26926   3.214   7.500   7.616
 8861SOL    HW126927   3.249   7.459   7.532
 8861SOL    HW226928   3.124   7.462   7.636
 8862SOL     OW26929   1.901   8.525   7.748
 8862SOL    HW126930   2.000   8.514   7.739
 8862SOL    HW226931   1.861   8.439   7.780
 8863SOL     OW26932   2.737   9.094   7.785
 8863SOL    HW126933   2.660   9.059   7.731
 8863SOL    HW226934   2.705   9.165   7.847
 8864SOL     OW26935   3.949   0.275   0.996
 8864SOL    HW126936   3.984   0.258   1.088
 8864SOL    HW226937   3.861   0.230   0.984
 8865SOL     OW26938   3.743   0.368   0.647
 8865SOL    HW126939   3.661   0.411   0.686
 8865SOL    HW226940   3.715   0.295   0.584
 8866SOL     OW26941   4.293   1.275   1.165
 8866SOL    HW126942   4.200   1.268   1.128
 8866SOL    HW226943   4.304   1.364   1.209
 8867SOL     OW26944   5.279   1.511   0.703
 8867SOL    HW126945   5.222   1.495   0.784
 8867SOL    HW226946   5.220   1.521   0.623
 8868SOL     OW26947   4.859   0.703   0.717
 8868SOL    HW126948   4.916   0.781   0.692
 8868SOL    HW226949   4.799   0.729   0.793
 8869SOL     OW26950   5.479   0.607   0.231
 8869SOL    HW126951   5.467   0.594   0.132
 8869SOL    HW226952   5.449   0.526   0.280
 8870SOL     OW26953   4.492   1.144   1.023
 8870SOL    HW126954   4.414   1.161   1.083
 8870SOL    HW226955   4.526   1.231   0.987
 8871SOL     OW26956   4.574   0.798   1.823
 8871SOL    HW126957   4.570   0.874   1.888
 8871SOL    HW226958   4.596   0.834   1.732
 8872SOL     OW26959   4.409   1.012   0.665
 8872SOL    HW126960   4.478   0.996   0.735
 8872SOL    HW226961   4.336   1.069   0.703
 8873SOL     OW26962   4.410   1.161   1.803
 8873SOL    HW126963   4.470   1.240   1.817
 8873SOL    HW226964   4.324   1.192   1.762
 8874SOL     OW26965   4.059   1.435   1.061
 8874SOL    HW126966   3.981   1.404   1.008
 8874SOL    HW226967   4.117   1.493   1.004
 8875SOL     OW26968   5.184   1.505   1.339
 8875SOL    HW126969   5.208   1.599   1.365
 8875SOL    HW226970   5.168   1.451   1.421
 8876SOL     OW26971   4.162   0.392   1.499
 8876SOL    HW126972   4.244   0.336   1.508
 8876SOL    HW226973   4.081   0.334   1.503
 8877SOL     OW26974   5.327   0.447   0.737
 8877SOL    HW126975   5.253   0.493   0.687
 8877SOL    HW226976   5.378   0.515   0.790
 8878SOL     OW26977   3.955   1.713   0.483
 8878SOL    HW126978   3.989   1.790   0.537
 8878SOL    HW226979   3.999   1.713   0.393
 8879SOL     OW26980   4.851   1.341   1.690
 8879SOL    HW126981   4.898   1.341   1.778
 8879SOL    HW226982   4.803   1.254   1.679
 8880SOL     OW26983   3.954   1.434   0.538
 8880SOL    HW126984   3.928   1.530   0.538
 8880SOL    HW226985   3.883   1.380   0.583
 8881SOL     OW26986   3.964   1.091   0.886
 8881SOL    HW126987   3.978   1.007   0.938
 8881SOL    HW226988   3.909   1.155   0.941
 8882SOL     OW26989   4.344   1.786   1.439
 8882SOL    HW126990   4.252   1.769   1.474
 8882SOL    HW226991   4.372   1.878   1.465
 8883SOL     OW26992   5.318   0.114   1.480
 8883SOL    HW126993   5.300   0.181   1.408
 8883SOL    HW226994   5.315   0.160   1.569
 8884SOL     OW26995   3.846   0.643   0.563
 8884SOL    HW126996   3.801   0.555   0.580
 8884SOL    HW226997   3.845   0.697   0.647
 8885SOL     OW26998   5.566   1.767   0.359
 8885SOL    HW126999   5.620   1.738   0.439
 8885SOL    HW227000   5.596   1.857   0.330
 8886SOL     OW27001   5.413   0.922   0.612
 8886SOL    HW127002   5.508   0.893   0.620
 8886SOL    HW227003   5.405   0.987   0.537
 8887SOL     OW27004   3.837   0.737   1.597
 8887SOL    HW127005   3.925   0.724   1.642
 8887SOL    HW227006   3.824   0.834   1.575
 8888SOL     OW27007   4.337   1.365   0.726
 8888SOL    HW127008   4.288   1.278   0.735
 8888SOL    HW227009   4.314   1.408   0.639
 8889SOL     OW27010   5.017   1.228   1.423
 8889SOL    HW127011   5.054   1.155   1.365
 8889SOL    HW227012   5.069   1.233   1.508
 8890SOL     OW27013   4.533   0.004   0.502
 8890SOL    HW127014   4.573   0.095   0.493
 8890SOL    HW227015   4.433   0.012   0.508
 8891SOL     OW27016   3.921   0.976   1.264
 8891SOL    HW127017   4.010   0.931   1.250
 8891SOL    HW227018   3.848   0.911   1.245
 8892SOL     OW27019   4.911   1.792   1.616
 8892SOL    HW127020   4.935   1.852   1.540
 8892SOL    HW227021   4.918   1.697   1.586
 8893SOL     OW27022   4.041   0.251   1.801
 8893SOL    HW127023   4.112   0.322   1.807
 8893SOL    HW227024   3.953   0.290   1.829
 8894SOL     OW27025   5.190   1.417   0.953
 8894SOL    HW127026   5.131   1.423   1.033
 8894SOL    HW227027   5.175   1.329   0.907
 8895SOL     OW27028   5.391   1.714   0.572
 8895SOL    HW127029   5.350   1.691   0.484
 8895SOL    HW227030   5.373   1.640   0.637
 8896SOL     OW27031   5.005   0.345   0.944
 8896SOL    HW127032   4.919   0.295   0.931
 8896SOL    HW227033   5.067   0.291   1.000
 8897SOL     OW27034   4.531   0.605   1.465
 8897SOL    HW127035   4.484   0.602   1.554
 8897SOL    HW227036   4.480   0.550   1.399
 8898SOL     OW27037   5.118   0.469   1.674
 8898SOL    HW127038   5.098   0.512   1.762
 8898SOL    HW227039   5.196   0.407   1.683
 8899SOL     OW27040   4.697   0.890   1.572
 8899SOL    HW127041   4.743   0.806   1.543
 8899SOL    HW227042   4.641   0.924   1.497
 8900SOL     OW27043   4.715   0.410   1.242
 8900SOL    HW127044   4.638   0.444   1.296
 8900SOL    HW227045   4.681   0.359   1.163
 8901SOL     OW27046   4.765   0.701   0.429
 8901SOL    HW127047   4.791   0.697   0.525
 8901SOL    HW227048   4.680   0.650   0.415
 8902SOL     OW27049   3.800   0.811   0.789
 8902SOL    HW127050   3.899   0.799   0.798
 8902SOL    HW227051   3.776   0.906   0.810
 8903SOL     OW27052   3.854   1.821   1.571
 8903SOL    HW127053   3.844   1.806   1.670
 8903SOL    HW227054   3.768   1.857   1.535
 8904SOL     OW27055   5.443   0.585   1.831
 8904SOL    HW127056   5.417   0.674   1.795
 8904SOL    HW227057   5.441   0.517   1.758
 8905SOL     OW27058   5.086   1.144   0.545
 8905SOL    HW127059   5.169   1.115   0.497
 8905SOL    HW227060   5.037   1.211   0.489
 8906SOL     OW27061   4.274   0.196   0.885
 8906SOL    HW127062   4.269   0.191   0.985
 8906SOL    HW227063   4.276   0.292   0.856
 8907SOL     OW27064   4.732   1.456   0.477
 8907SOL    HW127065   4.686   1.528   0.425
 8907SOL    HW227066   4.728   1.476   0.575
 8908SOL     OW27067   4.075   1.801   0.853
 8908SOL    HW127068   4.125   1.715   0.859
 8908SOL    HW227069   4.140   1.878   0.850
 8909SOL     OW27070   5.519   1.066   0.873
 8909SOL    HW127071   5.457   1.051   0.797
 8909SOL    HW227072   5.467   1.077   0.958
 8910SOL     OW27073   4.951   1.550   1.506
 8910SOL    HW127074   4.957   1.473   1.570
 8910SOL    HW227075   4.899   1.524   1.426
 8911SOL     OW27076   5.182   0.735   0.728
 8911SOL    HW127077   5.177   0.670   0.803
 8911SOL    HW227078   5.262   0.794   0.741
 8912SOL     OW27079   4.185   1.266   1.727
 8912SOL    HW127080   4.135   1.267   1.641
 8912SOL    HW227081   4.122   1.248   1.803
 8913SOL     OW27082   3.926   0.285   1.498
 8913SOL    HW127083   3.846   0.345   1.485
 8913SOL    HW227084   3.916   0.236   1.584
 8914SOL     OW27085   5.124   0.107   0.426
 8914SOL    HW127086   5.100   0.070   0.336
 8914SOL    HW227087   5.223   0.123   0.430
 8915SOL     OW27088   3.973   1.785   1.241
 8915SOL    HW127089   4.030   1.720   1.291
 8915SOL    HW227090   3.957   1.752   1.148
 8916SOL     OW27091   4.664   1.698   0.904
 8916SOL    HW127092   4.744   1.641   0.925
 8916SOL    HW227093   4.615   1.658   0.827
 8917SOL     OW27094   4.106   0.700   0.480
 8917SOL    HW127095   4.151   0.610   0.477
 8917SOL    HW227096   4.012   0.689   0.513
 8918SOL     OW27097   5.271   0.222   1.729
 8918SOL    HW127098   5.266   0.259   1.821
 8918SOL    HW227099   5.199   0.153   1.717
 8919SOL     OW27100   4.505   0.264   1.749
 8919SOL    HW127101   4.572   0.203   1.792
 8919SOL    HW227102   4.432   0.283   1.814
 8920SOL     OW27103   4.612   1.514   1.195
 8920SOL    HW127104   4.589   1.489   1.101
 8920SOL    HW227105   4.673   1.445   1.234
 8921SOL     OW27106   5.075   0.590   1.433
 8921SOL    HW127107   5.103   0.547   1.518
 8921SOL    HW227108   5.100   0.686   1.434
 8922SOL     OW27109   4.527   1.402   0.924
 8922SOL    HW127110   4.617   1.416   0.882
 8922SOL    HW227111   4.456   1.404   0.853
 8923SOL     OW27112   4.646   0.503   0.899
 8923SOL    HW127113   4.621   0.494   0.803
 8923SOL    HW227114   4.694   0.421   0.930
 8924SOL     OW27115   4.263   0.064   0.512
 8924SOL    HW127116   4.182   0.065   0.570
 8924SOL    HW227117   4.266   0.147   0.457
 8925SOL     OW27118   4.659   0.236   0.480
 8925SOL    HW127119   4.611   0.277   0.402
 8925SOL    HW227120   4.758   0.234   0.461
 8926SOL     OW27121   4.800   0.683   1.464
 8926SOL    HW127122   4.720   0.622   1.467
 8926SOL    HW227123   4.881   0.630   1.440
 8927SOL     OW27124   4.951   1.570   0.793
 8927SOL    HW127125   4.972   1.644   0.728
 8927SOL    HW227126   5.019   1.570   0.866
 8928SOL     OW27127   4.183   1.152   0.741
 8928SOL    HW127128   4.112   1.125   0.806
 8928SOL    HW227129   4.157   1.124   0.648
 8929SOL     OW27130   4.995   1.797   0.591
 8929SOL    HW127131   5.039   1.861   0.527
 8929SOL    HW227132   4.945   1.849   0.661
 8930SOL     OW27133   4.756   0.549   0.016
 8930SOL    HW127134   4.715   0.631  -0.023
 8930SOL    HW227135   4.820   0.575   0.089
 8931SOL     OW27136   3.802   0.556   1.386
 8931SOL    HW127137   3.894   0.555   1.345
 8931SOL    HW227138   3.796   0.630   1.453
 8932SOL     OW27139   4.285   0.222   1.147
 8932SOL    HW127140   4.323   0.138   1.184
 8932SOL    HW227141   4.197   0.241   1.191
 8933SOL     OW27142   4.590   0.454   0.642
 8933SOL    HW127143   4.558   0.526   0.580
 8933SOL    HW227144   4.614   0.373   0.589
 8934SOL     OW27145   4.741   0.039   0.753
 8934SOL    HW127146   4.669   0.044   0.684
 8934SOL    HW227147   4.717  -0.030   0.822
 8935SOL     OW27148   5.153   1.173   0.867
 8935SOL    HW127149   5.098   1.089   0.860
 8935SOL    HW227150   5.179   1.202   0.775
 8936SOL     OW27151   5.190   0.590   0.992
 8936SOL    HW127152   5.160   0.495   0.999
 8936SOL    HW227153   5.263   0.606   1.058
 8937SOL     OW27154   5.388   1.280   0.657
 8937SOL    HW127155   5.487   1.288   0.671
 8937SOL    HW227156   5.343   1.364   0.688
 8938SOL     OW27157   4.251   0.256   0.328
 8938SOL    HW127158   4.278   0.197   0.253
 8938SOL    HW227159   4.251   0.351   0.297
 8939SOL     OW27160   5.478   1.223   1.588
 8939SOL    HW127161   5.569   1.184   1.575
 8939SOL    HW227162   5.486   1.319   1.612
 8940SOL     OW27163   4.788   1.347   1.340
 8940SOL    HW127164   4.708   1.324   1.395
 8940SOL    HW227165   4.871   1.321   1.389
 8941SOL     OW27166   5.316   1.629   1.625
 8941SOL    HW127167   5.343   1.663   1.535
 8941SOL    HW227168   5.395   1.591   1.671
 8942SOL     OW27169   4.835   1.195   1.100
 8942SOL    HW127170   4.795   1.239   1.181
 8942SOL    HW227171   4.794   1.232   1.017
 8943SOL     OW27172   5.362   1.099   1.079
 8943SOL    HW127173   5.367   1.180   1.138
 8943SOL    HW227174   5.276   1.101   1.028
 8944SOL     OW27175   4.639   0.089   1.402
 8944SOL    HW127176   4.664   0.069   1.307
 8944SOL    HW227177   4.711   0.145   1.444
 8945SOL     OW27178   4.704   1.116   1.719
 8945SOL    HW127179   4.605   1.122   1.729
 8945SOL    HW227180   4.727   1.036   1.663
 8946SOL     OW27181   4.134   0.813   1.251
 8946SOL    HW127182   4.220   0.825   1.301
 8946SOL    HW227183   4.092   0.726   1.278
 8947SOL     OW27184   4.998   0.386   1.262
 8947SOL    HW127185   5.019   0.460   1.326
 8947SOL    HW227186   4.909   0.403   1.219
 8948SOL     OW27187   3.788   1.564   1.331
 8948SOL    HW127188   3.742   1.646   1.297
 8948SOL    HW227189   3.886   1.583   1.340
 8949SOL     OW27190   4.091   1.100   0.501
 8949SOL    HW127191   4.084   1.183   0.445
 8949SOL    HW227192   4.095   1.020   0.441
 8950SOL     OW27193   4.290   0.537   0.865
 8950SOL    HW127194   4.302   0.603   0.791
 8950SOL    HW227195   4.336   0.571   0.948
 8951SOL     OW27196   4.976   1.348   0.388
 8951SOL    HW127197   5.026   1.425   0.428
 8951SOL    HW227198   4.881   1.350   0.420
 8952SOL     OW27199   4.996   1.445   1.142
 8952SOL    HW127200   5.043   1.458   1.229
 8952SOL    HW227201   4.930   1.371   1.151
 8953SOL     OW27202   5.306   0.639   0.472
 8953SOL    HW127203   5.275   0.700   0.545
 8953SOL    HW227204   5.356   0.691   0.403
 8954SOL     OW27205   4.078   1.510   1.329
 8954SOL    HW127206   4.057   1.466   1.242
 8954SOL    HW227207   4.175   1.536   1.332
 8955SOL     OW27208   4.126   0.751   1.598
 8955SOL    HW127209   4.194   0.806   1.551
 8955SOL    HW227210   4.166   0.663   1.625
 8956SOL     OW27211   5.311   0.779   1.670
 8956SOL    HW127212   5.219   0.817   1.665
 8956SOL    HW227213   5.371   0.826   1.605
 8957SOL     OW27214   4.737   0.105   1.770
 8957SOL    HW127215   4.743   0.190   1.718
 8957SOL    HW227216   4.769   0.029   1.713
 8958SOL     OW27217   4.228   0.050   1.740
 8958SOL    HW127218   4.186  -0.007   1.670
 8958SOL    HW227219   4.162   0.119   1.772
 8959SOL     OW27220   4.297   0.870   1.029
 8959SOL    HW127221   4.341   0.959   1.020
 8959SOL    HW227222   4.234   0.870   1.106
 8960SOL     OW27223   5.084   0.862   1.045
 8960SOL    HW127224   5.009   0.862   0.979
 8960SOL    HW227225   5.121   0.770   1.054
 8961SOL     OW27226   4.933   0.525   0.275
 8961SOL    HW127227   4.946   0.441   0.329
 8961SOL    HW227228   4.904   0.599   0.335
 8962SOL     OW27229   4.031   0.213   1.231
 8962SOL    HW127230   4.008   0.250   1.321
 8962SOL    HW227231   4.001   0.118   1.225
 8963SOL     OW27232   3.761   1.310   1.282
 8963SOL    HW127233   3.814   1.261   1.350
 8963SOL    HW227234   3.783   1.408   1.287
 8964SOL     OW27235   4.456   0.634   1.064
 8964SOL    HW127236   4.515   0.608   0.988
 8964SOL    HW227237   4.428   0.730   1.053
 8965SOL     OW27238   5.452   0.935   1.854
 8965SOL    HW127239   5.406   0.928   1.765
 8965SOL    HW227240   5.390   0.979   1.920
 8966SOL     OW27241   4.031   0.063   0.618
 8966SOL    HW127242   4.020   0.157   0.651
 8966SOL    HW227243   4.026   0.000   0.695
 8967SOL     OW27244   4.747   0.766   0.966
 8967SOL    HW127245   4.762   0.787   1.062
 8967SOL    HW227246   4.717   0.671   0.957
 8968SOL     OW27247   4.704   1.573   1.700
 8968SOL    HW127248   4.684   1.617   1.612
 8968SOL    HW227249   4.743   1.482   1.684
 8969SOL     OW27250   5.583   1.518   1.605
 8969SOL    HW127251   5.597   1.545   1.510
 8969SOL    HW227252   5.666   1.540   1.658
 8970SOL     OW27253   4.074   0.898   1.804
 8970SOL    HW127254   4.150   0.942   1.852
 8970SOL    HW227255   4.109   0.851   1.722
 8971SOL     OW27256   4.792   1.333   0.849
 8971SOL    HW127257   4.799   1.249   0.794
 8971SOL    HW227258   4.854   1.402   0.813
 8972SOL     OW27259   4.043   0.810   0.949
 8972SOL    HW127260   4.136   0.846   0.954
 8972SOL    HW227261   4.037   0.725   1.001
 8973SOL     OW27262   4.063   0.509   1.006
 8973SOL    HW127263   4.011   0.426   0.989
 8973SOL    HW227264   4.140   0.514   0.942
 8974SOL     OW27265   4.862   0.380   1.678
 8974SOL    HW127266   4.817   0.443   1.742
 8974SOL    HW227267   4.955   0.411   1.661
 8975SOL     OW27268   4.884   0.207   1.477
 8975SOL    HW127269   4.884   0.271   1.554
 8975SOL    HW227270   4.912   0.255   1.394
 8976SOL     OW27271   3.812   1.801   0.927
 8976SOL    HW127272   3.770   1.715   0.900
 8976SOL    HW227273   3.906   1.804   0.893
 8977SOL     OW27274   4.228   1.568   0.910
 8977SOL    HW127275   4.294   1.642   0.919
 8977SOL    HW227276   4.272   1.489   0.868
 8978SOL     OW27277   4.726   0.796   1.238
 8978SOL    HW127278   4.767   0.764   1.324
 8978SOL    HW227279   4.630   0.769   1.235
 8979SOL     OW27280   3.764   0.544   1.114
 8979SOL    HW127281   3.849   0.511   1.073
 8979SOL    HW227282   3.777   0.559   1.212
 8980SOL     OW27283   3.913   0.520   1.722
 8980SOL    HW127284   3.972   0.480   1.652
 8980SOL    HW227285   3.855   0.591   1.681
 8981SOL     OW27286   5.093   0.950   1.660
 8981SOL    HW127287   5.132   1.039   1.680
 8981SOL    HW227288   5.103   0.930   1.563
 8982SOL     OW27289   5.381   0.604   1.206
 8982SOL    HW127290   5.343   0.535   1.268
 8982SOL    HW227291   5.463   0.568   1.162
 8983SOL     OW27292   3.976   1.564   1.744
 8983SOL    HW127293   3.946   1.621   1.820
 8983SOL    HW227294   3.969   1.467   1.770
 8984SOL     OW27295   4.395   0.464   1.269
 8984SOL    HW127296   4.361   0.375   1.239
 8984SOL    HW227297   4.421   0.518   1.189
 8985SOL     OW27298   4.654   1.678   1.465
 8985SOL    HW127299   4.630   1.660   1.370
 8985SOL    HW227300   4.684   1.772   1.475
 8986SOL     OW27301   3.883   1.137   1.466
 8986SOL    HW127302   3.905   1.076   1.542
 8986SOL    HW227303   3.893   1.088   1.380
 8987SOL     OW27304   5.071   1.059   1.234
 8987SOL    HW127305   5.095   0.996   1.160
 8987SOL    HW227306   4.981   1.099   1.216
 8988SOL     OW27307   5.026   0.855   0.309
 8988SOL    HW127308   4.940   0.824   0.351
 8988SOL    HW227309   5.022   0.841   0.210
 8989SOL     OW27310   5.483   1.747   1.154
 8989SOL    HW127311   5.544   1.777   1.081
 8989SOL    HW227312   5.445   1.658   1.132
 8990SOL     OW27313   4.976   1.731   1.128
 8990SOL    HW127314   5.060   1.736   1.074
 8990SOL    HW227315   4.953   1.635   1.146
 8991SOL     OW27316   3.807   1.258   1.022
 8991SOL    HW127317   3.802   1.257   1.122
 8991SOL    HW227318   3.724   1.217   0.984
 8992SOL     OW27319   4.412   1.662   1.716
 8992SOL    HW127320   4.356   1.743   1.725
 8992SOL    HW227321   4.464   1.666   1.630
 8993SOL     OW27322   5.450   0.135   0.523
 8993SOL    HW127323   5.523   0.118   0.456
 8993SOL    HW227324   5.419   0.048   0.561
 8994SOL     OW27325   5.112   1.573   0.477
 8994SOL    HW127326   5.179   1.585   0.403
 8994SOL    HW227327   5.072   1.662   0.500
 8995SOL     OW27328   3.854   1.794   1.851
 8995SOL    HW127329   3.813   1.720   1.904
 8995SOL    HW227330   3.918   1.845   1.909
 8996SOL     OW27331   5.004   0.927   0.672
 8996SOL    HW127332   5.064   0.846   0.674
 8996SOL    HW227333   5.044   0.996   0.612
 8997SOL     OW27334   4.554   1.273   1.422
 8997SOL    HW127335   4.549   1.306   1.517
 8997SOL    HW227336   4.468   1.292   1.376
 8998SOL     OW27337   5.374   1.720   1.394
 8998SOL    HW127338   5.427   1.730   1.310
 8998SOL    HW227339   5.347   1.810   1.428
 8999SOL     OW27340   5.565   0.175   0.963
 8999SOL    HW127341   5.604   0.090   0.927
 8999SOL    HW227342   5.467   0.177   0.944
 9000SOL     OW27343   3.987   0.326   0.720
 9000SOL    HW127344   3.908   0.377   0.686
 9000SOL    HW227345   3.978   0.311   0.818
 9001SOL     OW27346   4.546   1.002   1.372
 9001SOL    HW127347   4.586   1.001   1.280
 9001SOL    HW227348   4.556   1.094   1.412
 9002SOL     OW27349   4.096   1.288   1.490
 9002SOL    HW127350   4.083   1.381   1.456
 9002SOL    HW227351   4.012   1.236   1.477
 9003SOL     OW27352   5.338   1.292   1.289
 9003SOL    HW127353   5.398   1.295   1.369
 9003SOL    HW227354   5.263   1.356   1.302
 9004SOL     OW27355   4.763   1.098   0.696
 9004SOL    HW127356   4.693   1.051   0.750
 9004SOL    HW227357   4.822   1.030   0.653
 9005SOL     OW27358   4.738   0.236   0.971
 9005SOL    HW127359   4.730   0.200   0.878
 9005SOL    HW227360   4.736   0.160   1.036
 9006SOL     OW27361   4.314   1.487   0.491
 9006SOL    HW127362   4.356   1.429   0.421
 9006SOL    HW227363   4.270   1.566   0.447
 9007SOL     OW27364   5.433   0.385   1.381
 9007SOL    HW127365   5.506   0.454   1.385
 9007SOL    HW227366   5.461   0.310   1.322
 9008SOL     OW27367   3.829   1.013   1.726
 9008SOL    HW127368   3.752   0.980   1.780
 9008SOL    HW227369   3.914   0.983   1.768
 9009SOL     OW27370   4.396   0.203   1.489
 9009SOL    HW127371   4.486   0.187   1.449
 9009SOL    HW227372   4.404   0.208   1.588
 9010SOL     OW27373   5.164   0.856   1.398
 9010SOL    HW127374   5.107   0.908   1.335
 9010SOL    HW227375   5.260   0.868   1.374
 9011SOL     OW27376   4.337   0.842   1.431
 9011SOL    HW127377   4.393   0.923   1.414
 9011SOL    HW227378   4.396   0.762   1.434
 9012SOL     OW27379   5.217   1.767   0.959
 9012SOL    HW127380   5.250   1.831   0.890
 9012SOL    HW227381   5.283   1.761   1.034
 9013SOL     OW27382   4.440   0.565   1.708
 9013SOL    HW127383   4.459   0.630   1.782
 9013SOL    HW227384   4.500   0.485   1.717
 9014SOL     OW27385   5.174   1.220   1.633
 9014SOL    HW127386   5.165   1.210   1.732
 9014SOL    HW227387   5.270   1.213   1.607
 9015SOL     OW27388   4.114   1.741   1.560
 9015SOL    HW127389   4.023   1.782   1.558
 9015SOL    HW227390   4.107   1.647   1.592
 9016SOL     OW27391   5.398   0.883   1.254
 9016SOL    HW127392   5.371   0.794   1.217
 9016SOL    HW227393   5.399   0.951   1.181
 9017SOL     OW27394   4.949   0.325   0.449
 9017SOL    HW127395   5.014   0.251   0.438
 9017SOL    HW227396   4.969   0.375   0.533
 9018SOL     OW27397   4.318   0.745   0.652
 9018SOL    HW127398   4.368   0.830   0.633
 9018SOL    HW227399   4.230   0.747   0.604
 9019SOL     OW27400   5.501   0.342   1.642
 9019SOL    HW127401   5.484   0.373   1.548
 9019SOL    HW227402   5.417   0.305   1.680
 9020SOL     OW27403   5.454   0.934   1.517
 9020SOL    HW127404   5.492   1.025   1.532
 9020SOL    HW227405   5.446   0.917   1.418
 9021SOL     OW27406   4.385   1.790   0.953
 9021SOL    HW127407   4.339   1.878   0.940
 9021SOL    HW227408   4.484   1.802   0.946
 9022SOL     OW27409   4.583   0.956   0.861
 9022SOL    HW127410   4.637   0.887   0.909
 9022SOL    HW227411   4.551   1.025   0.927
 9023SOL     OW27412   5.585   1.569   0.851
 9023SOL    HW127413   5.514   1.557   0.781
 9023SOL    HW227414   5.586   1.490   0.911
 9024SOL     OW27415   3.945   1.314   1.844
 9024SOL    HW127416   3.880   1.241   1.823
 9024SOL    HW227417   3.949   1.328   1.942
 9025SOL     OW27418   3.803   1.240   0.653
 9025SOL    HW127419   3.802   1.193   0.741
 9025SOL    HW227420   3.885   1.212   0.602
 9026SOL     OW27421   4.396   1.391   1.624
 9026SOL    HW127422   4.318   1.341   1.662
 9026SOL    HW227423   4.393   1.486   1.655
 9027SOL     OW27424   5.548   0.192   1.227
 9027SOL    HW127425   5.544   0.102   1.271
 9027SOL    HW227426   5.551   0.181   1.128
 9028SOL     OW27427   4.152   0.424   0.520
 9028SOL    HW127428   4.182   0.352   0.458
 9028SOL    HW227429   4.113   0.384   0.603
 9029SOL     OW27430   5.429   1.487   1.104
 9029SOL    HW127431   5.336   1.462   1.077
 9029SOL    HW227432   5.455   1.437   1.186
 9030SOL     OW27433   4.041   0.547   1.280
 9030SOL    HW127434   4.079   0.488   1.352
 9030SOL    HW227435   4.081   0.521   1.192
 9031SOL     OW27436   4.536   1.586   0.687
 9031SOL    HW127437   4.568   1.596   0.593
 9031SOL    HW227438   4.457   1.524   0.689
 9032SOL     OW27439   5.148   0.214   1.112
 9032SOL    HW127440   5.200   0.149   1.167
 9032SOL    HW227441   5.099   0.277   1.173
 9033SOL     OW27442   4.725   0.034   1.154
 9033SOL    HW127443   4.662  -0.038   1.123
 9033SOL    HW227444   4.818  -0.002   1.154
 9034SOL     OW27445   4.342   1.567   1.284
 9034SOL    HW127446   4.337   1.649   1.341
 9034SOL    HW227447   4.431   1.564   1.239
 9035SOL     OW27448   5.024   0.453   0.691
 9035SOL    HW127449   4.965   0.533   0.695
 9035SOL    HW227450   5.039   0.418   0.784
 9036SOL     OW27451   5.317   0.221   0.882
 9036SOL    HW127452   5.233   0.220   0.936
 9036SOL    HW227453   5.319   0.304   0.826
 9037SOL     OW27454   4.599   1.646   0.337
 9037SOL    HW127455   4.522   1.611   0.283
 9037SOL    HW227456   4.567   1.717   0.399
 9038SOL     OW27457   3.954   0.628   1.975
 9038SOL    HW127458   3.861   0.626   2.012
 9038SOL    HW227459   3.955   0.589   1.883
 9039SOL     OW27460   3.949   0.275   2.858
 9039SOL    HW127461   3.984   0.258   2.950
 9039SOL    HW227462   3.861   0.230   2.846
 9040SOL     OW27463   3.743   0.368   2.509
 9040SOL    HW127464   3.661   0.411   2.548
 9040SOL    HW227465   3.715   0.295   2.446
 9041SOL     OW27466   4.293   1.275   3.027
 9041SOL    HW127467   4.200   1.268   2.990
 9041SOL    HW227468   4.304   1.364   3.071
 9042SOL     OW27469   5.279   1.511   2.565
 9042SOL    HW127470   5.222   1.495   2.646
 9042SOL    HW227471   5.220   1.521   2.485
 9043SOL     OW27472   4.859   0.703   2.579
 9043SOL    HW127473   4.916   0.781   2.554
 9043SOL    HW227474   4.799   0.729   2.655
 9044SOL     OW27475   5.479   0.607   2.093
 9044SOL    HW127476   5.467   0.594   1.994
 9044SOL    HW227477   5.449   0.526   2.142
 9045SOL     OW27478   4.492   1.144   2.885
 9045SOL    HW127479   4.414   1.161   2.945
 9045SOL    HW227480   4.526   1.231   2.849
 9046SOL     OW27481   4.574   0.798   3.685
 9046SOL    HW127482   4.570   0.874   3.750
 9046SOL    HW227483   4.596   0.834   3.594
 9047SOL     OW27484   4.409   1.012   2.527
 9047SOL    HW127485   4.478   0.996   2.597
 9047SOL    HW227486   4.336   1.069   2.565
 9048SOL     OW27487   4.410   1.161   3.665
 9048SOL    HW127488   4.470   1.240   3.679
 9048SOL    HW227489   4.324   1.192   3.624
 9049SOL     OW27490   4.059   1.435   2.923
 9049SOL    HW127491   3.981   1.404   2.870
 9049SOL    HW227492   4.117   1.493   2.866
 9050SOL     OW27493   5.184   1.505   3.201
 9050SOL    HW127494   5.208   1.599   3.227
 9050SOL    HW227495   5.168   1.451   3.283
 9051SOL     OW27496   4.162   0.392   3.361
 9051SOL    HW127497   4.244   0.336   3.370
 9051SOL    HW227498   4.081   0.334   3.365
 9052SOL     OW27499   5.327   0.447   2.599
 9052SOL    HW127500   5.253   0.493   2.549
 9052SOL    HW227501   5.378   0.515   2.652
 9053SOL     OW27502   3.955   1.713   2.345
 9053SOL    HW127503   3.989   1.790   2.399
 9053SOL    HW227504   3.999   1.713   2.255
 9054SOL     OW27505   4.851   1.341   3.552
 9054SOL    HW127506   4.898   1.341   3.640
 9054SOL    HW227507   4.803   1.254   3.541
 9055SOL     OW27508   3.954   1.434   2.400
 9055SOL    HW127509   3.928   1.530   2.400
 9055SOL    HW227510   3.883   1.380   2.445
 9056SOL     OW27511   3.964   1.091   2.748
 9056SOL    HW127512   3.978   1.007   2.800
 9056SOL    HW227513   3.909   1.155   2.803
 9057SOL     OW27514   4.344   1.786   3.301
 9057SOL    HW127515   4.252   1.769   3.336
 9057SOL    HW227516   4.372   1.878   3.327
 9058SOL     OW27517   4.330   0.964   1.985
 9058SOL    HW127518   4.337   1.048   1.931
 9058SOL    HW227519   4.376   0.977   2.073
 9059SOL     OW27520   5.318   0.114   3.342
 9059SOL    HW127521   5.300   0.181   3.270
 9059SOL    HW227522   5.315   0.160   3.431
 9060SOL     OW27523   3.846   0.643   2.425
 9060SOL    HW127524   3.801   0.555   2.442
 9060SOL    HW227525   3.845   0.697   2.509
 9061SOL     OW27526   5.566   1.767   2.221
 9061SOL    HW127527   5.620   1.738   2.301
 9061SOL    HW227528   5.596   1.857   2.192
 9062SOL     OW27529   3.751   1.596   1.979
 9062SOL    HW127530   3.732   1.500   2.000
 9062SOL    HW227531   3.718   1.654   2.054
 9063SOL     OW27532   5.413   0.922   2.474
 9063SOL    HW127533   5.508   0.893   2.482
 9063SOL    HW227534   5.405   0.987   2.399
 9064SOL     OW27535   5.365   1.108   2.294
 9064SOL    HW127536   5.451   1.110   2.242
 9064SOL    HW227537   5.379   1.155   2.382
 9065SOL     OW27538   3.837   0.737   3.459
 9065SOL    HW127539   3.925   0.724   3.504
 9065SOL    HW227540   3.824   0.834   3.437
 9066SOL     OW27541   4.337   1.365   2.588
 9066SOL    HW127542   4.288   1.278   2.597
 9066SOL    HW227543   4.314   1.408   2.501
 9067SOL     OW27544   5.017   1.228   3.285
 9067SOL    HW127545   5.054   1.155   3.227
 9067SOL    HW227546   5.069   1.233   3.370
 9068SOL     OW27547   4.533   0.004   2.364
 9068SOL    HW127548   4.573   0.095   2.355
 9068SOL    HW227549   4.433   0.012   2.370
 9069SOL     OW27550   3.921   0.976   3.126
 9069SOL    HW127551   4.010   0.931   3.112
 9069SOL    HW227552   3.848   0.911   3.107
 9070SOL     OW27553   5.249   0.999   2.052
 9070SOL    HW127554   5.186   0.923   2.065
 9070SOL    HW227555   5.297   1.017   2.138
 9071SOL     OW27556   4.911   1.792   3.478
 9071SOL    HW127557   4.935   1.852   3.402
 9071SOL    HW227558   4.918   1.697   3.448
 9072SOL     OW27559   4.041   0.251   3.663
 9072SOL    HW127560   4.112   0.322   3.669
 9072SOL    HW227561   3.953   0.290   3.691
 9073SOL     OW27562   5.190   1.417   2.815
 9073SOL    HW127563   5.131   1.423   2.895
 9073SOL    HW227564   5.175   1.329   2.769
 9074SOL     OW27565   5.391   1.714   2.434
 9074SOL    HW127566   5.350   1.691   2.346
 9074SOL    HW227567   5.373   1.640   2.499
 9075SOL     OW27568   4.322   0.729   2.132
 9075SOL    HW127569   4.346   0.798   2.064
 9075SOL    HW227570   4.244   0.762   2.186
 9076SOL     OW27571   5.005   0.345   2.806
 9076SOL    HW127572   4.919   0.295   2.793
 9076SOL    HW227573   5.067   0.291   2.862
 9077SOL     OW27574   5.300   1.662   2.169
 9077SOL    HW127575   5.389   1.708   2.172
 9077SOL    HW227576   5.279   1.638   2.074
 9078SOL     OW27577   4.531   0.605   3.327
 9078SOL    HW127578   4.484   0.602   3.416
 9078SOL    HW227579   4.480   0.550   3.261
 9079SOL     OW27580   5.118   0.469   3.536
 9079SOL    HW127581   5.098   0.512   3.624
 9079SOL    HW227582   5.196   0.407   3.545
 9080SOL     OW27583   4.697   0.890   3.434
 9080SOL    HW127584   4.743   0.806   3.405
 9080SOL    HW227585   4.641   0.924   3.359
 9081SOL     OW27586   4.715   0.410   3.104
 9081SOL    HW127587   4.638   0.444   3.158
 9081SOL    HW227588   4.681   0.359   3.025
 9082SOL     OW27589   4.765   0.701   2.291
 9082SOL    HW127590   4.791   0.697   2.387
 9082SOL    HW227591   4.680   0.650   2.277
 9083SOL     OW27592   3.800   0.811   2.651
 9083SOL    HW127593   3.899   0.799   2.660
 9083SOL    HW227594   3.776   0.906   2.672
 9084SOL     OW27595   3.854   1.821   3.433
 9084SOL    HW127596   3.844   1.806   3.532
 9084SOL    HW227597   3.768   1.857   3.397
 9085SOL     OW27598   4.589   0.348   2.057
 9085SOL    HW127599   4.648   0.411   2.008
 9085SOL    HW227600   4.608   0.254   2.028
 9086SOL     OW27601   5.443   0.585   3.693
 9086SOL    HW127602   5.417   0.674   3.657
 9086SOL    HW227603   5.441   0.517   3.620
 9087SOL     OW27604   5.086   1.144   2.407
 9087SOL    HW127605   5.169   1.115   2.359
 9087SOL    HW227606   5.037   1.211   2.351
 9088SOL     OW27607   4.274   0.196   2.747
 9088SOL    HW127608   4.269   0.191   2.847
 9088SOL    HW227609   4.276   0.292   2.718
 9089SOL     OW27610   4.732   1.456   2.339
 9089SOL    HW127611   4.686   1.528   2.287
 9089SOL    HW227612   4.728   1.476   2.437
 9090SOL     OW27613   4.075   1.801   2.715
 9090SOL    HW127614   4.125   1.715   2.721
 9090SOL    HW227615   4.140   1.878   2.712
 9091SOL     OW27616   5.519   1.066   2.735
 9091SOL    HW127617   5.457   1.051   2.659
 9091SOL    HW227618   5.467   1.077   2.820
 9092SOL     OW27619   4.951   1.550   3.368
 9092SOL    HW127620   4.957   1.473   3.432
 9092SOL    HW227621   4.899   1.524   3.288
 9093SOL     OW27622   4.045   0.943   2.104
 9093SOL    HW127623   4.127   0.982   2.062
 9093SOL    HW227624   4.018   0.861   2.055
 9094SOL     OW27625   5.182   0.735   2.590
 9094SOL    HW127626   5.177   0.670   2.665
 9094SOL    HW227627   5.262   0.794   2.603
 9095SOL     OW27628   4.185   1.266   3.589
 9095SOL    HW127629   4.135   1.267   3.503
 9095SOL    HW227630   4.122   1.248   3.665
 9096SOL     OW27631   4.835   1.776   2.099
 9096SOL    HW127632   4.775   1.714   2.149
 9096SOL    HW227633   4.866   1.732   2.014
 9097SOL     OW27634   3.926   0.285   3.360
 9097SOL    HW127635   3.846   0.345   3.347
 9097SOL    HW227636   3.916   0.236   3.446
 9098SOL     OW27637   5.356   1.377   1.943
 9098SOL    HW127638   5.324   1.471   1.933
 9098SOL    HW227639   5.280   1.314   1.931
 9099SOL     OW27640   4.188   1.743   2.185
 9099SOL    HW127641   4.221   1.782   2.271
 9099SOL    HW227642   4.264   1.736   2.120
 9100SOL     OW27643   5.124   0.107   2.288
 9100SOL    HW127644   5.100   0.070   2.198
 9100SOL    HW227645   5.223   0.123   2.292
 9101SOL     OW27646   3.973   1.785   3.103
 9101SOL    HW127647   4.030   1.720   3.153
 9101SOL    HW227648   3.957   1.752   3.010
 9102SOL     OW27649   4.664   1.698   2.766
 9102SOL    HW127650   4.744   1.641   2.787
 9102SOL    HW227651   4.615   1.658   2.689
 9103SOL     OW27652   4.106   0.700   2.342
 9103SOL    HW127653   4.151   0.610   2.339
 9103SOL    HW227654   4.012   0.689   2.375
 9104SOL     OW27655   5.271   0.222   3.591
 9104SOL    HW127656   5.266   0.259   3.683
 9104SOL    HW227657   5.199   0.153   3.579
 9105SOL     OW27658   4.338   0.122   1.979
 9105SOL    HW127659   4.436   0.100   1.986
 9105SOL    HW227660   4.307   0.105   1.886
 9106SOL     OW27661   4.505   0.264   3.611
 9106SOL    HW127662   4.572   0.203   3.654
 9106SOL    HW227663   4.432   0.283   3.676
 9107SOL     OW27664   4.612   1.514   3.057
 9107SOL    HW127665   4.589   1.489   2.963
 9107SOL    HW227666   4.673   1.445   3.096
 9108SOL     OW27667   5.075   0.590   3.295
 9108SOL    HW127668   5.103   0.547   3.380
 9108SOL    HW227669   5.100   0.686   3.296
 9109SOL     OW27670   4.527   1.402   2.786
 9109SOL    HW127671   4.617   1.416   2.744
 9109SOL    HW227672   4.456   1.404   2.715
 9110SOL     OW27673   4.646   0.503   2.761
 9110SOL    HW127674   4.621   0.494   2.665
 9110SOL    HW227675   4.694   0.421   2.792
 9111SOL     OW27676   4.263   0.064   2.374
 9111SOL    HW127677   4.182   0.065   2.432
 9111SOL    HW227678   4.266   0.147   2.319
 9112SOL     OW27679   5.158   1.188   1.903
 9112SOL    HW127680   5.190   1.112   1.960
 9112SOL    HW227681   5.066   1.215   1.933
 9113SOL     OW27682   4.021   0.035   2.033
 9113SOL    HW127683   4.070   0.119   2.012
 9113SOL    HW227684   4.083  -0.030   2.078
 9114SOL     OW27685   4.659   0.236   2.342
 9114SOL    HW127686   4.611   0.277   2.264
 9114SOL    HW227687   4.758   0.234   2.323
 9115SOL     OW27688   4.800   0.683   3.326
 9115SOL    HW127689   4.720   0.622   3.329
 9115SOL    HW227690   4.881   0.630   3.302
 9116SOL     OW27691   4.951   1.570   2.655
 9116SOL    HW127692   4.972   1.644   2.590
 9116SOL    HW227693   5.019   1.570   2.728
 9117SOL     OW27694   4.183   1.152   2.603
 9117SOL    HW127695   4.112   1.125   2.668
 9117SOL    HW227696   4.157   1.124   2.510
 9118SOL     OW27697   4.995   1.797   2.453
 9118SOL    HW127698   5.039   1.861   2.389
 9118SOL    HW227699   4.945   1.849   2.523
 9119SOL     OW27700   4.756   0.549   1.878
 9119SOL    HW127701   4.715   0.631   1.839
 9119SOL    HW227702   4.820   0.575   1.951
 9120SOL     OW27703   3.802   0.556   3.248
 9120SOL    HW127704   3.894   0.555   3.207
 9120SOL    HW227705   3.796   0.630   3.315
 9121SOL     OW27706   4.285   0.222   3.009
 9121SOL    HW127707   4.323   0.138   3.046
 9121SOL    HW227708   4.197   0.241   3.053
 9122SOL     OW27709   4.590   0.454   2.504
 9122SOL    HW127710   4.558   0.526   2.442
 9122SOL    HW227711   4.614   0.373   2.451
 9123SOL     OW27712   4.741   0.039   2.615
 9123SOL    HW127713   4.669   0.044   2.546
 9123SOL    HW227714   4.717  -0.030   2.684
 9124SOL     OW27715   5.153   1.173   2.729
 9124SOL    HW127716   5.098   1.089   2.722
 9124SOL    HW227717   5.179   1.202   2.637
 9125SOL     OW27718   5.190   0.590   2.854
 9125SOL    HW127719   5.160   0.495   2.861
 9125SOL    HW227720   5.263   0.606   2.920
 9126SOL     OW27721   5.581   0.833   2.239
 9126SOL    HW127722   5.623   0.769   2.303
 9126SOL    HW227723   5.543   0.782   2.161
 9127SOL     OW27724   4.212   1.385   2.036
 9127SOL    HW127725   4.125   1.370   2.083
 9127SOL    HW227726   4.195   1.411   1.941
 9128SOL     OW27727   5.388   1.280   2.519
 9128SOL    HW127728   5.487   1.288   2.533
 9128SOL    HW227729   5.343   1.364   2.550
 9129SOL     OW27730   5.114   0.575   1.940
 9129SOL    HW127731   5.060   0.554   2.021
 9129SOL    HW227732   5.205   0.534   1.949
 9130SOL     OW27733   4.251   0.256   2.190
 9130SOL    HW127734   4.278   0.197   2.115
 9130SOL    HW227735   4.251   0.351   2.159
 9131SOL     OW27736   5.478   1.223   3.450
 9131SOL    HW127737   5.569   1.184   3.437
 9131SOL    HW227738   5.486   1.319   3.474
 9132SOL     OW27739   4.788   1.347   3.202
 9132SOL    HW127740   4.708   1.324   3.257
 9132SOL    HW227741   4.871   1.321   3.251
 9133SOL     OW27742   5.316   1.629   3.487
 9133SOL    HW127743   5.343   1.663   3.397
 9133SOL    HW227744   5.395   1.591   3.533
 9134SOL     OW27745   4.835   1.195   2.962
 9134SOL    HW127746   4.795   1.239   3.043
 9134SOL    HW227747   4.794   1.232   2.879
 9135SOL     OW27748   5.362   1.099   2.941
 9135SOL    HW127749   5.367   1.180   3.000
 9135SOL    HW227750   5.276   1.101   2.890
 9136SOL     OW27751   4.639   0.089   3.264
 9136SOL    HW127752   4.664   0.069   3.169
 9136SOL    HW227753   4.711   0.145   3.306
 9137SOL     OW27754   4.704   1.116   3.581
 9137SOL    HW127755   4.605   1.122   3.591
 9137SOL    HW227756   4.727   1.036   3.525
 9138SOL     OW27757   4.429   1.050   2.230
 9138SOL    HW127758   4.415   1.057   2.329
 9138SOL    HW227759   4.513   0.999   2.212
 9139SOL     OW27760   4.134   0.813   3.113
 9139SOL    HW127761   4.220   0.825   3.163
 9139SOL    HW227762   4.092   0.726   3.140
 9140SOL     OW27763   4.998   0.386   3.124
 9140SOL    HW127764   5.019   0.460   3.188
 9140SOL    HW227765   4.909   0.403   3.081
 9141SOL     OW27766   3.788   1.564   3.193
 9141SOL    HW127767   3.742   1.646   3.159
 9141SOL    HW227768   3.886   1.583   3.202
 9142SOL     OW27769   4.091   1.100   2.363
 9142SOL    HW127770   4.084   1.183   2.307
 9142SOL    HW227771   4.095   1.020   2.303
 9143SOL     OW27772   4.290   0.537   2.727
 9143SOL    HW127773   4.302   0.603   2.653
 9143SOL    HW227774   4.336   0.571   2.810
 9144SOL     OW27775   4.976   1.348   2.250
 9144SOL    HW127776   5.026   1.425   2.290
 9144SOL    HW227777   4.881   1.350   2.282
 9145SOL     OW27778   4.996   1.445   3.004
 9145SOL    HW127779   5.043   1.458   3.091
 9145SOL    HW227780   4.930   1.371   3.013
 9146SOL     OW27781   5.306   0.639   2.334
 9146SOL    HW127782   5.275   0.700   2.407
 9146SOL    HW227783   5.356   0.691   2.265
 9147SOL     OW27784   4.078   1.510   3.191
 9147SOL    HW127785   4.057   1.466   3.104
 9147SOL    HW227786   4.175   1.536   3.194
 9148SOL     OW27787   4.126   0.751   3.460
 9148SOL    HW127788   4.194   0.806   3.413
 9148SOL    HW227789   4.166   0.663   3.487
 9149SOL     OW27790   5.311   0.779   3.532
 9149SOL    HW127791   5.219   0.817   3.527
 9149SOL    HW227792   5.371   0.826   3.467
 9150SOL     OW27793   4.737   0.105   3.632
 9150SOL    HW127794   4.743   0.190   3.580
 9150SOL    HW227795   4.769   0.029   3.575
 9151SOL     OW27796   4.228   0.050   3.602
 9151SOL    HW127797   4.186  -0.007   3.532
 9151SOL    HW227798   4.162   0.119   3.634
 9152SOL     OW27799   4.297   0.870   2.891
 9152SOL    HW127800   4.341   0.959   2.882
 9152SOL    HW227801   4.234   0.870   2.968
 9153SOL     OW27802   5.084   0.862   2.907
 9153SOL    HW127803   5.009   0.862   2.841
 9153SOL    HW227804   5.121   0.770   2.916
 9154SOL     OW27805   4.933   0.525   2.137
 9154SOL    HW127806   4.946   0.441   2.191
 9154SOL    HW227807   4.904   0.599   2.197
 9155SOL     OW27808   4.031   0.213   3.093
 9155SOL    HW127809   4.008   0.250   3.183
 9155SOL    HW227810   4.001   0.118   3.087
 9156SOL     OW27811   3.761   1.310   3.144
 9156SOL    HW127812   3.814   1.261   3.212
 9156SOL    HW227813   3.783   1.408   3.149
 9157SOL     OW27814   4.456   0.634   2.926
 9157SOL    HW127815   4.515   0.608   2.850
 9157SOL    HW227816   4.428   0.730   2.915
 9158SOL     OW27817   5.452   0.935   3.716
 9158SOL    HW127818   5.406   0.928   3.627
 9158SOL    HW227819   5.390   0.979   3.782
 9159SOL     OW27820   4.031   0.063   2.480
 9159SOL    HW127821   4.020   0.157   2.513
 9159SOL    HW227822   4.026   0.000   2.557
 9160SOL     OW27823   5.346   0.367   2.236
 9160SOL    HW127824   5.348   0.291   2.300
 9160SOL    HW227825   5.298   0.444   2.276
 9161SOL     OW27826   4.747   0.766   2.828
 9161SOL    HW127827   4.762   0.787   2.924
 9161SOL    HW227828   4.717   0.671   2.819
 9162SOL     OW27829   4.704   1.573   3.562
 9162SOL    HW127830   4.684   1.617   3.474
 9162SOL    HW227831   4.743   1.482   3.546
 9163SOL     OW27832   5.583   1.518   3.467
 9163SOL    HW127833   5.597   1.545   3.372
 9163SOL    HW227834   5.666   1.540   3.520
 9164SOL     OW27835   4.074   0.898   3.666
 9164SOL    HW127836   4.150   0.942   3.714
 9164SOL    HW227837   4.109   0.851   3.584
 9165SOL     OW27838   5.264   0.274   1.987
 9165SOL    HW127839   5.203   0.199   2.010
 9165SOL    HW227840   5.286   0.326   2.070
 9166SOL     OW27841   5.027   0.838   1.904
 9166SOL    HW127842   5.061   0.745   1.919
 9166SOL    HW227843   5.045   0.865   1.809
 9167SOL     OW27844   4.792   1.333   2.711
 9167SOL    HW127845   4.799   1.249   2.656
 9167SOL    HW227846   4.854   1.402   2.675
 9168SOL     OW27847   4.043   0.810   2.811
 9168SOL    HW127848   4.136   0.846   2.816
 9168SOL    HW227849   4.037   0.725   2.863
 9169SOL     OW27850   4.063   0.509   2.868
 9169SOL    HW127851   4.011   0.426   2.851
 9169SOL    HW227852   4.140   0.514   2.804
 9170SOL     OW27853   4.862   0.380   3.540
 9170SOL    HW127854   4.817   0.443   3.604
 9170SOL    HW227855   4.955   0.411   3.523
 9171SOL     OW27856   4.884   0.207   3.339
 9171SOL    HW127857   4.884   0.271   3.416
 9171SOL    HW227858   4.912   0.255   3.256
 9172SOL     OW27859   3.732   1.326   2.062
 9172SOL    HW127860   3.639   1.347   2.031
 9172SOL    HW227861   3.742   1.227   2.075
 9173SOL     OW27862   3.812   1.801   2.789
 9173SOL    HW127863   3.770   1.715   2.762
 9173SOL    HW227864   3.906   1.804   2.755
 9174SOL     OW27865   4.228   1.568   2.772
 9174SOL    HW127866   4.294   1.642   2.781
 9174SOL    HW227867   4.272   1.489   2.730
 9175SOL     OW27868   4.726   0.796   3.100
 9175SOL    HW127869   4.767   0.764   3.186
 9175SOL    HW227870   4.630   0.769   3.097
 9176SOL     OW27871   3.764   0.544   2.976
 9176SOL    HW127872   3.849   0.511   2.935
 9176SOL    HW227873   3.777   0.559   3.074
 9177SOL     OW27874   3.913   0.520   3.584
 9177SOL    HW127875   3.972   0.480   3.514
 9177SOL    HW227876   3.855   0.591   3.543
 9178SOL     OW27877   5.093   0.950   3.522
 9178SOL    HW127878   5.132   1.039   3.542
 9178SOL    HW227879   5.103   0.930   3.425
 9179SOL     OW27880   4.539   0.572   2.187
 9179SOL    HW127881   4.546   0.483   2.141
 9179SOL    HW227882   4.445   0.606   2.179
 9180SOL     OW27883   5.381   0.604   3.068
 9180SOL    HW127884   5.343   0.535   3.130
 9180SOL    HW227885   5.463   0.568   3.024
 9181SOL     OW27886   3.976   1.564   3.606
 9181SOL    HW127887   3.946   1.621   3.682
 9181SOL    HW227888   3.969   1.467   3.632
 9182SOL     OW27889   4.395   0.464   3.131
 9182SOL    HW127890   4.361   0.375   3.101
 9182SOL    HW227891   4.421   0.518   3.051
 9183SOL     OW27892   4.654   1.678   3.327
 9183SOL    HW127893   4.630   1.660   3.232
 9183SOL    HW227894   4.684   1.772   3.337
 9184SOL     OW27895   4.197   0.500   2.053
 9184SOL    HW127896   4.258   0.580   2.057
 9184SOL    HW227897   4.102   0.531   2.060
 9185SOL     OW27898   3.883   1.137   3.328
 9185SOL    HW127899   3.905   1.076   3.404
 9185SOL    HW227900   3.893   1.088   3.242
 9186SOL     OW27901   5.071   1.059   3.096
 9186SOL    HW127902   5.095   0.996   3.022
 9186SOL    HW227903   4.981   1.099   3.078
 9187SOL     OW27904   5.026   0.855   2.171
 9187SOL    HW127905   4.940   0.824   2.213
 9187SOL    HW227906   5.022   0.841   2.072
 9188SOL     OW27907   5.483   1.747   3.016
 9188SOL    HW127908   5.544   1.777   2.943
 9188SOL    HW227909   5.445   1.658   2.994
 9189SOL     OW27910   4.976   1.731   2.990
 9189SOL    HW127911   5.060   1.736   2.936
 9189SOL    HW227912   4.953   1.635   3.008
 9190SOL     OW27913   3.807   1.258   2.884
 9190SOL    HW127914   3.802   1.257   2.984
 9190SOL    HW227915   3.724   1.217   2.846
 9191SOL     OW27916   4.412   1.662   3.578
 9191SOL    HW127917   4.356   1.743   3.587
 9191SOL    HW227918   4.464   1.666   3.492
 9192SOL     OW27919   5.450   0.135   2.385
 9192SOL    HW127920   5.523   0.118   2.318
 9192SOL    HW227921   5.419   0.048   2.423
 9193SOL     OW27922   5.112   1.573   2.339
 9193SOL    HW127923   5.179   1.585   2.265
 9193SOL    HW227924   5.072   1.662   2.362
 9194SOL     OW27925   3.854   1.794   3.713
 9194SOL    HW127926   3.813   1.720   3.766
 9194SOL    HW227927   3.918   1.845   3.771
 9195SOL     OW27928   5.004   0.927   2.534
 9195SOL    HW127929   5.064   0.846   2.536
 9195SOL    HW227930   5.044   0.996   2.474
 9196SOL     OW27931   4.554   1.273   3.284
 9196SOL    HW127932   4.549   1.306   3.379
 9196SOL    HW227933   4.468   1.292   3.238
 9197SOL     OW27934   4.396   1.616   2.016
 9197SOL    HW127935   4.405   1.626   1.917
 9197SOL    HW227936   4.356   1.527   2.037
 9198SOL     OW27937   5.374   1.720   3.256
 9198SOL    HW127938   5.427   1.730   3.172
 9198SOL    HW227939   5.347   1.810   3.290
 9199SOL     OW27940   5.565   0.175   2.825
 9199SOL    HW127941   5.604   0.090   2.789
 9199SOL    HW227942   5.467   0.177   2.806
 9200SOL     OW27943   3.987   0.326   2.582
 9200SOL    HW127944   3.908   0.377   2.548
 9200SOL    HW227945   3.978   0.311   2.680
 9201SOL     OW27946   4.918   1.612   1.893
 9201SOL    HW127947   4.924   1.519   1.930
 9201SOL    HW227948   4.859   1.612   1.813
 9202SOL     OW27949   4.546   1.002   3.234
 9202SOL    HW127950   4.586   1.001   3.142
 9202SOL    HW227951   4.556   1.094   3.274
 9203SOL     OW27952   4.640   0.910   2.153
 9203SOL    HW127953   4.703   0.948   2.085
 9203SOL    HW227954   4.680   0.827   2.192
 9204SOL     OW27955   5.228   1.607   1.906
 9204SOL    HW127956   5.136   1.644   1.913
 9204SOL    HW227957   5.266   1.627   1.816
 9205SOL     OW27958   4.096   1.288   3.352
 9205SOL    HW127959   4.083   1.381   3.318
 9205SOL    HW227960   4.012   1.236   3.339
 9206SOL     OW27961   5.338   1.292   3.151
 9206SOL    HW127962   5.398   1.295   3.231
 9206SOL    HW227963   5.263   1.356   3.164
 9207SOL     OW27964   4.763   1.098   2.558
 9207SOL    HW127965   4.693   1.051   2.612
 9207SOL    HW227966   4.822   1.030   2.515
 9208SOL     OW27967   4.738   0.236   2.833
 9208SOL    HW127968   4.730   0.200   2.740
 9208SOL    HW227969   4.736   0.160   2.898
 9209SOL     OW27970   4.314   1.487   2.353
 9209SOL    HW127971   4.356   1.429   2.283
 9209SOL    HW227972   4.270   1.566   2.309
 9210SOL     OW27973   5.433   0.385   3.243
 9210SOL    HW127974   5.506   0.454   3.247
 9210SOL    HW227975   5.461   0.310   3.184
 9211SOL     OW27976   3.979   1.348   2.152
 9211SOL    HW127977   3.883   1.349   2.125
 9211SOL    HW227978   3.991   1.401   2.236
 9212SOL     OW27979   3.829   1.013   3.588
 9212SOL    HW127980   3.752   0.980   3.642
 9212SOL    HW227981   3.914   0.983   3.630
 9213SOL     OW27982   4.396   0.203   3.351
 9213SOL    HW127983   4.486   0.187   3.311
 9213SOL    HW227984   4.404   0.208   3.450
 9214SOL     OW27985   3.799   0.345   1.895
 9214SOL    HW127986   3.707   0.317   1.866
 9214SOL    HW227987   3.830   0.422   1.839
 9215SOL     OW27988   5.164   0.856   3.260
 9215SOL    HW127989   5.107   0.908   3.197
 9215SOL    HW227990   5.260   0.868   3.236
 9216SOL     OW27991   3.796   0.166   2.180
 9216SOL    HW127992   3.779   0.249   2.126
 9216SOL    HW227993   3.886   0.129   2.158
 9217SOL     OW27994   4.907   1.335   1.981
 9217SOL    HW127995   4.808   1.324   1.983
 9217SOL    HW227996   4.941   1.350   2.074
 9218SOL     OW27997   4.337   0.842   3.293
 9218SOL    HW127998   4.393   0.923   3.276
 9218SOL    HW227999   4.396   0.762   3.296
 9219SOL     OW28000   5.217   1.767   2.821
 9219SOL    HW128001   5.250   1.831   2.752
 9219SOL    HW228002   5.283   1.761   2.896
 9220SOL     OW28003   4.440   0.565   3.570
 9220SOL    HW128004   4.459   0.630   3.644
 9220SOL    HW228005   4.500   0.485   3.579
 9221SOL     OW28006   5.174   1.220   3.495
 9221SOL    HW128007   5.165   1.210   3.594
 9221SOL    HW228008   5.270   1.213   3.469
 9222SOL     OW28009   4.114   1.741   3.422
 9222SOL    HW128010   4.023   1.782   3.420
 9222SOL    HW228011   4.107   1.647   3.454
 9223SOL     OW28012   5.398   0.883   3.116
 9223SOL    HW128013   5.371   0.794   3.079
 9223SOL    HW228014   5.399   0.951   3.043
 9224SOL     OW28015   4.949   0.325   2.311
 9224SOL    HW128016   5.014   0.251   2.300
 9224SOL    HW228017   4.969   0.375   2.395
 9225SOL     OW28018   4.318   0.745   2.514
 9225SOL    HW128019   4.368   0.830   2.495
 9225SOL    HW228020   4.230   0.747   2.466
 9226SOL     OW28021   5.501   0.342   3.504
 9226SOL    HW128022   5.484   0.373   3.410
 9226SOL    HW228023   5.417   0.305   3.542
 9227SOL     OW28024   5.454   0.934   3.379
 9227SOL    HW128025   5.492   1.025   3.394
 9227SOL    HW228026   5.446   0.917   3.280
 9228SOL     OW28027   4.583   1.374   1.878
 9228SOL    HW128028   4.537   1.389   1.966
 9228SOL    HW228029   4.627   1.459   1.848
 9229SOL     OW28030   4.385   1.790   2.815
 9229SOL    HW128031   4.339   1.878   2.802
 9229SOL    HW228032   4.484   1.802   2.808
 9230SOL     OW28033   4.583   0.956   2.723
 9230SOL    HW128034   4.637   0.887   2.771
 9230SOL    HW228035   4.551   1.025   2.789
 9231SOL     OW28036   4.807   0.984   1.949
 9231SOL    HW128037   4.784   1.037   1.867
 9231SOL    HW228038   4.888   0.928   1.930
 9232SOL     OW28039   5.585   1.569   2.713
 9232SOL    HW128040   5.514   1.557   2.643
 9232SOL    HW228041   5.586   1.490   2.773
 9233SOL     OW28042   3.945   1.314   3.706
 9233SOL    HW128043   3.880   1.241   3.685
 9233SOL    HW228044   3.949   1.328   3.804
 9234SOL     OW28045   3.803   1.240   2.515
 9234SOL    HW128046   3.802   1.193   2.603
 9234SOL    HW228047   3.885   1.212   2.464
 9235SOL     OW28048   4.396   1.391   3.486
 9235SOL    HW128049   4.318   1.341   3.524
 9235SOL    HW228050   4.393   1.486   3.517
 9236SOL     OW28051   5.548   0.192   3.089
 9236SOL    HW128052   5.544   0.102   3.133
 9236SOL    HW228053   5.551   0.181   2.990
 9237SOL     OW28054   4.152   0.424   2.382
 9237SOL    HW128055   4.182   0.352   2.320
 9237SOL    HW228056   4.113   0.384   2.465
 9238SOL     OW28057   5.429   1.487   2.966
 9238SOL    HW128058   5.336   1.462   2.939
 9238SOL    HW228059   5.455   1.437   3.048
 9239SOL     OW28060   4.041   0.547   3.142
 9239SOL    HW128061   4.079   0.488   3.214
 9239SOL    HW228062   4.081   0.521   3.054
 9240SOL     OW28063   4.536   1.586   2.549
 9240SOL    HW128064   4.568   1.596   2.455
 9240SOL    HW228065   4.457   1.524   2.551
 9241SOL     OW28066   5.148   0.214   2.974
 9241SOL    HW128067   5.200   0.149   3.029
 9241SOL    HW228068   5.099   0.277   3.035
 9242SOL     OW28069   4.725   0.034   3.016
 9242SOL    HW128070   4.662  -0.038   2.985
 9242SOL    HW228071   4.818  -0.002   3.016
 9243SOL     OW28072   4.494   1.330   2.163
 9243SOL    HW128073   4.448   1.243   2.180
 9243SOL    HW228074   4.585   1.327   2.204
 9244SOL     OW28075   4.342   1.567   3.146
 9244SOL    HW128076   4.337   1.649   3.203
 9244SOL    HW228077   4.431   1.564   3.101
 9245SOL     OW28078   5.076   0.052   2.030
 9245SOL    HW128079   5.111   0.011   1.946
 9245SOL    HW228080   4.986   0.014   2.050
 9246SOL     OW28081   5.024   0.453   2.553
 9246SOL    HW128082   4.965   0.533   2.557
 9246SOL    HW228083   5.039   0.418   2.646
 9247SOL     OW28084   5.317   0.221   2.744
 9247SOL    HW128085   5.233   0.220   2.798
 9247SOL    HW228086   5.319   0.304   2.688
 9248SOL     OW28087   3.763   1.077   2.162
 9248SOL    HW128088   3.862   1.066   2.153
 9248SOL    HW228089   3.723   0.991   2.194
 9249SOL     OW28090   4.599   1.646   2.199
 9249SOL    HW128091   4.522   1.611   2.145
 9249SOL    HW228092   4.567   1.717   2.261
 9250SOL     OW28093   3.954   0.628   3.837
 9250SOL    HW128094   3.861   0.626   3.874
 9250SOL    HW228095   3.955   0.589   3.745
 9251SOL     OW28096   3.949   0.275   4.720
 9251SOL    HW128097   3.984   0.258   4.812
 9251SOL    HW228098   3.861   0.230   4.708
 9252SOL     OW28099   3.743   0.368   4.371
 9252SOL    HW128100   3.661   0.411   4.410
 9252SOL    HW228101   3.715   0.295   4.308
 9253SOL     OW28102   4.293   1.275   4.889
 9253SOL    HW128103   4.200   1.268   4.852
 9253SOL    HW228104   4.304   1.364   4.933
 9254SOL     OW28105   5.279   1.511   4.427
 9254SOL    HW128106   5.222   1.495   4.508
 9254SOL    HW228107   5.220   1.521   4.347
 9255SOL     OW28108   4.859   0.703   4.441
 9255SOL    HW128109   4.916   0.781   4.416
 9255SOL    HW228110   4.799   0.729   4.517
 9256SOL     OW28111   5.479   0.607   3.955
 9256SOL    HW128112   5.467   0.594   3.856
 9256SOL    HW228113   5.449   0.526   4.004
 9257SOL     OW28114   4.492   1.144   4.747
 9257SOL    HW128115   4.414   1.161   4.807
 9257SOL    HW228116   4.526   1.231   4.711
 9258SOL     OW28117   4.574   0.798   5.547
 9258SOL    HW128118   4.570   0.874   5.612
 9258SOL    HW228119   4.596   0.834   5.456
 9259SOL     OW28120   4.409   1.012   4.389
 9259SOL    HW128121   4.478   0.996   4.459
 9259SOL    HW228122   4.336   1.069   4.427
 9260SOL     OW28123   4.410   1.161   5.527
 9260SOL    HW128124   4.470   1.240   5.541
 9260SOL    HW228125   4.324   1.192   5.486
 9261SOL     OW28126   4.059   1.435   4.785
 9261SOL    HW128127   3.981   1.404   4.732
 9261SOL    HW228128   4.117   1.493   4.728
 9262SOL     OW28129   5.184   1.505   5.063
 9262SOL    HW128130   5.208   1.599   5.089
 9262SOL    HW228131   5.168   1.451   5.145
 9263SOL     OW28132   4.162   0.392   5.223
 9263SOL    HW128133   4.244   0.336   5.232
 9263SOL    HW228134   4.081   0.334   5.227
 9264SOL     OW28135   5.327   0.447   4.461
 9264SOL    HW128136   5.253   0.493   4.411
 9264SOL    HW228137   5.378   0.515   4.514
 9265SOL     OW28138   3.955   1.713   4.207
 9265SOL    HW128139   3.989   1.790   4.261
 9265SOL    HW228140   3.999   1.713   4.117
 9266SOL     OW28141   4.851   1.341   5.414
 9266SOL    HW128142   4.898   1.341   5.502
 9266SOL    HW228143   4.803   1.254   5.403
 9267SOL     OW28144   3.954   1.434   4.262
 9267SOL    HW128145   3.928   1.530   4.262
 9267SOL    HW228146   3.883   1.380   4.307
 9268SOL     OW28147   3.964   1.091   4.610
 9268SOL    HW128148   3.978   1.007   4.662
 9268SOL    HW228149   3.909   1.155   4.665
 9269SOL     OW28150   4.344   1.786   5.163
 9269SOL    HW128151   4.252   1.769   5.198
 9269SOL    HW228152   4.372   1.878   5.189
 9270SOL     OW28153   4.330   0.964   3.847
 9270SOL    HW128154   4.337   1.048   3.793
 9270SOL    HW228155   4.376   0.977   3.935
 9271SOL     OW28156   5.318   0.114   5.204
 9271SOL    HW128157   5.300   0.181   5.132
 9271SOL    HW228158   5.315   0.160   5.293
 9272SOL     OW28159   3.846   0.643   4.287
 9272SOL    HW128160   3.801   0.555   4.304
 9272SOL    HW228161   3.845   0.697   4.371
 9273SOL     OW28162   5.566   1.767   4.083
 9273SOL    HW128163   5.620   1.738   4.163
 9273SOL    HW228164   5.596   1.857   4.054
 9274SOL     OW28165   3.751   1.596   3.841
 9274SOL    HW128166   3.732   1.500   3.862
 9274SOL    HW228167   3.718   1.654   3.916
 9275SOL     OW28168   5.413   0.922   4.336
 9275SOL    HW128169   5.508   0.893   4.344
 9275SOL    HW228170   5.405   0.987   4.261
 9276SOL     OW28171   5.365   1.108   4.156
 9276SOL    HW128172   5.451   1.110   4.104
 9276SOL    HW228173   5.379   1.155   4.244
 9277SOL     OW28174   3.837   0.737   5.321
 9277SOL    HW128175   3.925   0.724   5.366
 9277SOL    HW228176   3.824   0.834   5.299
 9278SOL     OW28177   4.337   1.365   4.450
 9278SOL    HW128178   4.288   1.278   4.459
 9278SOL    HW228179   4.314   1.408   4.363
 9279SOL     OW28180   5.017   1.228   5.147
 9279SOL    HW128181   5.054   1.155   5.089
 9279SOL    HW228182   5.069   1.233   5.232
 9280SOL     OW28183   4.533   0.004   4.226
 9280SOL    HW128184   4.573   0.095   4.217
 9280SOL    HW228185   4.433   0.012   4.232
 9281SOL     OW28186   3.921   0.976   4.988
 9281SOL    HW128187   4.010   0.931   4.974
 9281SOL    HW228188   3.848   0.911   4.969
 9282SOL     OW28189   5.249   0.999   3.914
 9282SOL    HW128190   5.186   0.923   3.927
 9282SOL    HW228191   5.297   1.017   4.000
 9283SOL     OW28192   4.911   1.792   5.340
 9283SOL    HW128193   4.935   1.852   5.264
 9283SOL    HW228194   4.918   1.697   5.310
 9284SOL     OW28195   4.041   0.251   5.525
 9284SOL    HW128196   4.112   0.322   5.531
 9284SOL    HW228197   3.953   0.290   5.553
 9285SOL     OW28198   5.190   1.417   4.677
 9285SOL    HW128199   5.131   1.423   4.757
 9285SOL    HW228200   5.175   1.329   4.631
 9286SOL     OW28201   5.391   1.714   4.296
 9286SOL    HW128202   5.350   1.691   4.208
 9286SOL    HW228203   5.373   1.640   4.361
 9287SOL     OW28204   4.322   0.729   3.994
 9287SOL    HW128205   4.346   0.798   3.926
 9287SOL    HW228206   4.244   0.762   4.048
 9288SOL     OW28207   5.005   0.345   4.668
 9288SOL    HW128208   4.919   0.295   4.655
 9288SOL    HW228209   5.067   0.291   4.724
 9289SOL     OW28210   5.300   1.662   4.031
 9289SOL    HW128211   5.389   1.708   4.034
 9289SOL    HW228212   5.279   1.638   3.936
 9290SOL     OW28213   4.531   0.605   5.189
 9290SOL    HW128214   4.484   0.602   5.278
 9290SOL    HW228215   4.480   0.550   5.123
 9291SOL     OW28216   5.118   0.469   5.398
 9291SOL    HW128217   5.098   0.512   5.486
 9291SOL    HW228218   5.196   0.407   5.407
 9292SOL     OW28219   4.697   0.890   5.296
 9292SOL    HW128220   4.743   0.806   5.267
 9292SOL    HW228221   4.641   0.924   5.221
 9293SOL     OW28222   4.715   0.410   4.966
 9293SOL    HW128223   4.638   0.444   5.020
 9293SOL    HW228224   4.681   0.359   4.887
 9294SOL     OW28225   4.765   0.701   4.153
 9294SOL    HW128226   4.791   0.697   4.249
 9294SOL    HW228227   4.680   0.650   4.139
 9295SOL     OW28228   3.800   0.811   4.513
 9295SOL    HW128229   3.899   0.799   4.522
 9295SOL    HW228230   3.776   0.906   4.534
 9296SOL     OW28231   3.854   1.821   5.295
 9296SOL    HW128232   3.844   1.806   5.394
 9296SOL    HW228233   3.768   1.857   5.259
 9297SOL     OW28234   4.589   0.348   3.919
 9297SOL    HW128235   4.648   0.411   3.870
 9297SOL    HW228236   4.608   0.254   3.890
 9298SOL     OW28237   5.443   0.585   5.555
 9298SOL    HW128238   5.417   0.674   5.519
 9298SOL    HW228239   5.441   0.517   5.482
 9299SOL     OW28240   5.086   1.144   4.269
 9299SOL    HW128241   5.169   1.115   4.221
 9299SOL    HW228242   5.037   1.211   4.213
 9300SOL     OW28243   4.274   0.196   4.609
 9300SOL    HW128244   4.269   0.191   4.709
 9300SOL    HW228245   4.276   0.292   4.580
 9301SOL     OW28246   4.732   1.456   4.201
 9301SOL    HW128247   4.686   1.528   4.149
 9301SOL    HW228248   4.728   1.476   4.299
 9302SOL     OW28249   4.075   1.801   4.577
 9302SOL    HW128250   4.125   1.715   4.583
 9302SOL    HW228251   4.140   1.878   4.574
 9303SOL     OW28252   5.519   1.066   4.597
 9303SOL    HW128253   5.457   1.051   4.521
 9303SOL    HW228254   5.467   1.077   4.682
 9304SOL     OW28255   4.951   1.550   5.230
 9304SOL    HW128256   4.957   1.473   5.294
 9304SOL    HW228257   4.899   1.524   5.150
 9305SOL     OW28258   4.045   0.943   3.966
 9305SOL    HW128259   4.127   0.982   3.924
 9305SOL    HW228260   4.018   0.861   3.917
 9306SOL     OW28261   5.182   0.735   4.452
 9306SOL    HW128262   5.177   0.670   4.527
 9306SOL    HW228263   5.262   0.794   4.465
 9307SOL     OW28264   4.185   1.266   5.451
 9307SOL    HW128265   4.135   1.267   5.365
 9307SOL    HW228266   4.122   1.248   5.527
 9308SOL     OW28267   4.835   1.776   3.961
 9308SOL    HW128268   4.775   1.714   4.011
 9308SOL    HW228269   4.866   1.732   3.876
 9309SOL     OW28270   3.926   0.285   5.222
 9309SOL    HW128271   3.846   0.345   5.209
 9309SOL    HW228272   3.916   0.236   5.308
 9310SOL     OW28273   5.356   1.377   3.805
 9310SOL    HW128274   5.324   1.471   3.795
 9310SOL    HW228275   5.280   1.314   3.793
 9311SOL     OW28276   4.188   1.743   4.047
 9311SOL    HW128277   4.221   1.782   4.133
 9311SOL    HW228278   4.264   1.736   3.982
 9312SOL     OW28279   5.124   0.107   4.150
 9312SOL    HW128280   5.100   0.070   4.060
 9312SOL    HW228281   5.223   0.123   4.154
 9313SOL     OW28282   3.973   1.785   4.965
 9313SOL    HW128283   4.030   1.720   5.015
 9313SOL    HW228284   3.957   1.752   4.872
 9314SOL     OW28285   4.664   1.698   4.628
 9314SOL    HW128286   4.744   1.641   4.649
 9314SOL    HW228287   4.615   1.658   4.551
 9315SOL     OW28288   4.106   0.700   4.204
 9315SOL    HW128289   4.151   0.610   4.201
 9315SOL    HW228290   4.012   0.689   4.237
 9316SOL     OW28291   5.271   0.222   5.453
 9316SOL    HW128292   5.266   0.259   5.545
 9316SOL    HW228293   5.199   0.153   5.441
 9317SOL     OW28294   4.338   0.122   3.841
 9317SOL    HW128295   4.436   0.100   3.848
 9317SOL    HW228296   4.307   0.105   3.748
 9318SOL     OW28297   4.505   0.264   5.473
 9318SOL    HW128298   4.572   0.203   5.516
 9318SOL    HW228299   4.432   0.283   5.538
 9319SOL     OW28300   4.612   1.514   4.919
 9319SOL    HW128301   4.589   1.489   4.825
 9319SOL    HW228302   4.673   1.445   4.958
 9320SOL     OW28303   5.075   0.590   5.157
 9320SOL    HW128304   5.103   0.547   5.242
 9320SOL    HW228305   5.100   0.686   5.158
 9321SOL     OW28306   4.527   1.402   4.648
 9321SOL    HW128307   4.617   1.416   4.606
 9321SOL    HW228308   4.456   1.404   4.577
 9322SOL     OW28309   4.646   0.503   4.623
 9322SOL    HW128310   4.621   0.494   4.527
 9322SOL    HW228311   4.694   0.421   4.654
 9323SOL     OW28312   4.263   0.064   4.236
 9323SOL    HW128313   4.182   0.065   4.294
 9323SOL    HW228314   4.266   0.147   4.181
 9324SOL     OW28315   5.158   1.188   3.765
 9324SOL    HW128316   5.190   1.112   3.822
 9324SOL    HW228317   5.066   1.215   3.795
 9325SOL     OW28318   4.021   0.035   3.895
 9325SOL    HW128319   4.070   0.119   3.874
 9325SOL    HW228320   4.083  -0.030   3.940
 9326SOL     OW28321   4.659   0.236   4.204
 9326SOL    HW128322   4.611   0.277   4.126
 9326SOL    HW228323   4.758   0.234   4.185
 9327SOL     OW28324   4.800   0.683   5.188
 9327SOL    HW128325   4.720   0.622   5.191
 9327SOL    HW228326   4.881   0.630   5.164
 9328SOL     OW28327   4.951   1.570   4.517
 9328SOL    HW128328   4.972   1.644   4.452
 9328SOL    HW228329   5.019   1.570   4.590
 9329SOL     OW28330   4.183   1.152   4.465
 9329SOL    HW128331   4.112   1.125   4.530
 9329SOL    HW228332   4.157   1.124   4.372
 9330SOL     OW28333   4.995   1.797   4.315
 9330SOL    HW128334   5.039   1.861   4.251
 9330SOL    HW228335   4.945   1.849   4.385
 9331SOL     OW28336   4.756   0.549   3.740
 9331SOL    HW128337   4.715   0.631   3.701
 9331SOL    HW228338   4.820   0.575   3.813
 9332SOL     OW28339   3.802   0.556   5.110
 9332SOL    HW128340   3.894   0.555   5.069
 9332SOL    HW228341   3.796   0.630   5.177
 9333SOL     OW28342   4.285   0.222   4.871
 9333SOL    HW128343   4.323   0.138   4.908
 9333SOL    HW228344   4.197   0.241   4.915
 9334SOL     OW28345   4.590   0.454   4.366
 9334SOL    HW128346   4.558   0.526   4.304
 9334SOL    HW228347   4.614   0.373   4.313
 9335SOL     OW28348   4.741   0.039   4.477
 9335SOL    HW128349   4.669   0.044   4.408
 9335SOL    HW228350   4.717  -0.030   4.546
 9336SOL     OW28351   5.153   1.173   4.591
 9336SOL    HW128352   5.098   1.089   4.584
 9336SOL    HW228353   5.179   1.202   4.499
 9337SOL     OW28354   5.190   0.590   4.716
 9337SOL    HW128355   5.160   0.495   4.723
 9337SOL    HW228356   5.263   0.606   4.782
 9338SOL     OW28357   5.581   0.833   4.101
 9338SOL    HW128358   5.623   0.769   4.165
 9338SOL    HW228359   5.543   0.782   4.023
 9339SOL     OW28360   4.212   1.385   3.898
 9339SOL    HW128361   4.125   1.370   3.945
 9339SOL    HW228362   4.195   1.411   3.803
 9340SOL     OW28363   5.388   1.280   4.381
 9340SOL    HW128364   5.487   1.288   4.395
 9340SOL    HW228365   5.343   1.364   4.412
 9341SOL     OW28366   5.114   0.575   3.802
 9341SOL    HW128367   5.060   0.554   3.883
 9341SOL    HW228368   5.205   0.534   3.811
 9342SOL     OW28369   4.251   0.256   4.052
 9342SOL    HW128370   4.278   0.197   3.977
 9342SOL    HW228371   4.251   0.351   4.021
 9343SOL     OW28372   5.478   1.223   5.312
 9343SOL    HW128373   5.569   1.184   5.299
 9343SOL    HW228374   5.486   1.319   5.336
 9344SOL     OW28375   4.788   1.347   5.064
 9344SOL    HW128376   4.708   1.324   5.119
 9344SOL    HW228377   4.871   1.321   5.113
 9345SOL     OW28378   5.316   1.629   5.349
 9345SOL    HW128379   5.343   1.663   5.259
 9345SOL    HW228380   5.395   1.591   5.395
 9346SOL     OW28381   4.835   1.195   4.824
 9346SOL    HW128382   4.795   1.239   4.905
 9346SOL    HW228383   4.794   1.232   4.741
 9347SOL     OW28384   5.362   1.099   4.803
 9347SOL    HW128385   5.367   1.180   4.862
 9347SOL    HW228386   5.276   1.101   4.752
 9348SOL     OW28387   4.639   0.089   5.126
 9348SOL    HW128388   4.664   0.069   5.031
 9348SOL    HW228389   4.711   0.145   5.168
 9349SOL     OW28390   4.704   1.116   5.443
 9349SOL    HW128391   4.605   1.122   5.453
 9349SOL    HW228392   4.727   1.036   5.387
 9350SOL     OW28393   4.429   1.050   4.092
 9350SOL    HW128394   4.415   1.057   4.191
 9350SOL    HW228395   4.513   0.999   4.074
 9351SOL     OW28396   4.134   0.813   4.975
 9351SOL    HW128397   4.220   0.825   5.025
 9351SOL    HW228398   4.092   0.726   5.002
 9352SOL     OW28399   4.998   0.386   4.986
 9352SOL    HW128400   5.019   0.460   5.050
 9352SOL    HW228401   4.909   0.403   4.943
 9353SOL     OW28402   3.788   1.564   5.055
 9353SOL    HW128403   3.742   1.646   5.021
 9353SOL    HW228404   3.886   1.583   5.064
 9354SOL     OW28405   4.091   1.100   4.225
 9354SOL    HW128406   4.084   1.183   4.169
 9354SOL    HW228407   4.095   1.020   4.165
 9355SOL     OW28408   4.290   0.537   4.589
 9355SOL    HW128409   4.302   0.603   4.515
 9355SOL    HW228410   4.336   0.571   4.672
 9356SOL     OW28411   4.976   1.348   4.112
 9356SOL    HW128412   5.026   1.425   4.152
 9356SOL    HW228413   4.881   1.350   4.144
 9357SOL     OW28414   4.996   1.445   4.866
 9357SOL    HW128415   5.043   1.458   4.953
 9357SOL    HW228416   4.930   1.371   4.875
 9358SOL     OW28417   5.306   0.639   4.196
 9358SOL    HW128418   5.275   0.700   4.269
 9358SOL    HW228419   5.356   0.691   4.127
 9359SOL     OW28420   4.078   1.510   5.053
 9359SOL    HW128421   4.057   1.466   4.966
 9359SOL    HW228422   4.175   1.536   5.056
 9360SOL     OW28423   4.126   0.751   5.322
 9360SOL    HW128424   4.194   0.806   5.275
 9360SOL    HW228425   4.166   0.663   5.349
 9361SOL     OW28426   5.311   0.779   5.394
 9361SOL    HW128427   5.219   0.817   5.389
 9361SOL    HW228428   5.371   0.826   5.329
 9362SOL     OW28429   4.737   0.105   5.494
 9362SOL    HW128430   4.743   0.190   5.442
 9362SOL    HW228431   4.769   0.029   5.437
 9363SOL     OW28432   4.228   0.050   5.464
 9363SOL    HW128433   4.186  -0.007   5.394
 9363SOL    HW228434   4.162   0.119   5.496
 9364SOL     OW28435   4.297   0.870   4.753
 9364SOL    HW128436   4.341   0.959   4.744
 9364SOL    HW228437   4.234   0.870   4.830
 9365SOL     OW28438   5.084   0.862   4.769
 9365SOL    HW128439   5.009   0.862   4.703
 9365SOL    HW228440   5.121   0.770   4.778
 9366SOL     OW28441   4.933   0.525   3.999
 9366SOL    HW128442   4.946   0.441   4.053
 9366SOL    HW228443   4.904   0.599   4.059
 9367SOL     OW28444   4.031   0.213   4.955
 9367SOL    HW128445   4.008   0.250   5.045
 9367SOL    HW228446   4.001   0.118   4.949
 9368SOL     OW28447   3.761   1.310   5.006
 9368SOL    HW128448   3.814   1.261   5.074
 9368SOL    HW228449   3.783   1.408   5.011
 9369SOL     OW28450   4.456   0.634   4.788
 9369SOL    HW128451   4.515   0.608   4.712
 9369SOL    HW228452   4.428   0.730   4.777
 9370SOL     OW28453   5.452   0.935   5.578
 9370SOL    HW128454   5.406   0.928   5.489
 9370SOL    HW228455   5.390   0.979   5.644
 9371SOL     OW28456   4.031   0.063   4.342
 9371SOL    HW128457   4.020   0.157   4.375
 9371SOL    HW228458   4.026   0.000   4.419
 9372SOL     OW28459   5.346   0.367   4.098
 9372SOL    HW128460   5.348   0.291   4.162
 9372SOL    HW228461   5.298   0.444   4.138
 9373SOL     OW28462   4.747   0.766   4.690
 9373SOL    HW128463   4.762   0.787   4.786
 9373SOL    HW228464   4.717   0.671   4.681
 9374SOL     OW28465   4.704   1.573   5.424
 9374SOL    HW128466   4.684   1.617   5.336
 9374SOL    HW228467   4.743   1.482   5.408
 9375SOL     OW28468   5.583   1.518   5.329
 9375SOL    HW128469   5.597   1.545   5.234
 9375SOL    HW228470   5.666   1.540   5.382
 9376SOL     OW28471   4.074   0.898   5.528
 9376SOL    HW128472   4.150   0.942   5.576
 9376SOL    HW228473   4.109   0.851   5.446
 9377SOL     OW28474   5.264   0.274   3.849
 9377SOL    HW128475   5.203   0.199   3.872
 9377SOL    HW228476   5.286   0.326   3.932
 9378SOL     OW28477   5.027   0.838   3.766
 9378SOL    HW128478   5.061   0.745   3.781
 9378SOL    HW228479   5.045   0.865   3.671
 9379SOL     OW28480   4.792   1.333   4.573
 9379SOL    HW128481   4.799   1.249   4.518
 9379SOL    HW228482   4.854   1.402   4.537
 9380SOL     OW28483   4.043   0.810   4.673
 9380SOL    HW128484   4.136   0.846   4.678
 9380SOL    HW228485   4.037   0.725   4.725
 9381SOL     OW28486   4.063   0.509   4.730
 9381SOL    HW128487   4.011   0.426   4.713
 9381SOL    HW228488   4.140   0.514   4.666
 9382SOL     OW28489   4.862   0.380   5.402
 9382SOL    HW128490   4.817   0.443   5.466
 9382SOL    HW228491   4.955   0.411   5.385
 9383SOL     OW28492   4.884   0.207   5.201
 9383SOL    HW128493   4.884   0.271   5.278
 9383SOL    HW228494   4.912   0.255   5.118
 9384SOL     OW28495   3.732   1.326   3.924
 9384SOL    HW128496   3.639   1.347   3.893
 9384SOL    HW228497   3.742   1.227   3.937
 9385SOL     OW28498   3.812   1.801   4.651
 9385SOL    HW128499   3.770   1.715   4.624
 9385SOL    HW228500   3.906   1.804   4.617
 9386SOL     OW28501   4.228   1.568   4.634
 9386SOL    HW128502   4.294   1.642   4.643
 9386SOL    HW228503   4.272   1.489   4.592
 9387SOL     OW28504   4.726   0.796   4.962
 9387SOL    HW128505   4.767   0.764   5.048
 9387SOL    HW228506   4.630   0.769   4.959
 9388SOL     OW28507   3.764   0.544   4.838
 9388SOL    HW128508   3.849   0.511   4.797
 9388SOL    HW228509   3.777   0.559   4.936
 9389SOL     OW28510   3.913   0.520   5.446
 9389SOL    HW128511   3.972   0.480   5.376
 9389SOL    HW228512   3.855   0.591   5.405
 9390SOL     OW28513   5.093   0.950   5.384
 9390SOL    HW128514   5.132   1.039   5.404
 9390SOL    HW228515   5.103   0.930   5.287
 9391SOL     OW28516   4.539   0.572   4.049
 9391SOL    HW128517   4.546   0.483   4.003
 9391SOL    HW228518   4.445   0.606   4.041
 9392SOL     OW28519   5.381   0.604   4.930
 9392SOL    HW128520   5.343   0.535   4.992
 9392SOL    HW228521   5.463   0.568   4.886
 9393SOL     OW28522   3.976   1.564   5.468
 9393SOL    HW128523   3.946   1.621   5.544
 9393SOL    HW228524   3.969   1.467   5.494
 9394SOL     OW28525   4.395   0.464   4.993
 9394SOL    HW128526   4.361   0.375   4.963
 9394SOL    HW228527   4.421   0.518   4.913
 9395SOL     OW28528   4.654   1.678   5.189
 9395SOL    HW128529   4.630   1.660   5.094
 9395SOL    HW228530   4.684   1.772   5.199
 9396SOL     OW28531   4.197   0.500   3.915
 9396SOL    HW128532   4.258   0.580   3.919
 9396SOL    HW228533   4.102   0.531   3.922
 9397SOL     OW28534   3.883   1.137   5.190
 9397SOL    HW128535   3.905   1.076   5.266
 9397SOL    HW228536   3.893   1.088   5.104
 9398SOL     OW28537   5.071   1.059   4.958
 9398SOL    HW128538   5.095   0.996   4.884
 9398SOL    HW228539   4.981   1.099   4.940
 9399SOL     OW28540   5.026   0.855   4.033
 9399SOL    HW128541   4.940   0.824   4.075
 9399SOL    HW228542   5.022   0.841   3.934
 9400SOL     OW28543   5.483   1.747   4.878
 9400SOL    HW128544   5.544   1.777   4.805
 9400SOL    HW228545   5.445   1.658   4.856
 9401SOL     OW28546   4.976   1.731   4.852
 9401SOL    HW128547   5.060   1.736   4.798
 9401SOL    HW228548   4.953   1.635   4.870
 9402SOL     OW28549   3.807   1.258   4.746
 9402SOL    HW128550   3.802   1.257   4.846
 9402SOL    HW228551   3.724   1.217   4.708
 9403SOL     OW28552   4.412   1.662   5.440
 9403SOL    HW128553   4.356   1.743   5.449
 9403SOL    HW228554   4.464   1.666   5.354
 9404SOL     OW28555   5.450   0.135   4.247
 9404SOL    HW128556   5.523   0.118   4.180
 9404SOL    HW228557   5.419   0.048   4.285
 9405SOL     OW28558   5.112   1.573   4.201
 9405SOL    HW128559   5.179   1.585   4.127
 9405SOL    HW228560   5.072   1.662   4.224
 9406SOL     OW28561   3.854   1.794   5.575
 9406SOL    HW128562   3.813   1.720   5.628
 9406SOL    HW228563   3.918   1.845   5.633
 9407SOL     OW28564   5.004   0.927   4.396
 9407SOL    HW128565   5.064   0.846   4.398
 9407SOL    HW228566   5.044   0.996   4.336
 9408SOL     OW28567   4.554   1.273   5.146
 9408SOL    HW128568   4.549   1.306   5.241
 9408SOL    HW228569   4.468   1.292   5.100
 9409SOL     OW28570   4.396   1.616   3.878
 9409SOL    HW128571   4.405   1.626   3.779
 9409SOL    HW228572   4.356   1.527   3.899
 9410SOL     OW28573   5.374   1.720   5.118
 9410SOL    HW128574   5.427   1.730   5.034
 9410SOL    HW228575   5.347   1.810   5.152
 9411SOL     OW28576   5.565   0.175   4.687
 9411SOL    HW128577   5.604   0.090   4.651
 9411SOL    HW228578   5.467   0.177   4.668
 9412SOL     OW28579   3.987   0.326   4.444
 9412SOL    HW128580   3.908   0.377   4.410
 9412SOL    HW228581   3.978   0.311   4.542
 9413SOL     OW28582   4.918   1.612   3.755
 9413SOL    HW128583   4.924   1.519   3.792
 9413SOL    HW228584   4.859   1.612   3.675
 9414SOL     OW28585   4.546   1.002   5.096
 9414SOL    HW128586   4.586   1.001   5.004
 9414SOL    HW228587   4.556   1.094   5.136
 9415SOL     OW28588   4.640   0.910   4.015
 9415SOL    HW128589   4.703   0.948   3.947
 9415SOL    HW228590   4.680   0.827   4.054
 9416SOL     OW28591   5.228   1.607   3.768
 9416SOL    HW128592   5.136   1.644   3.775
 9416SOL    HW228593   5.266   1.627   3.678
 9417SOL     OW28594   4.096   1.288   5.214
 9417SOL    HW128595   4.083   1.381   5.180
 9417SOL    HW228596   4.012   1.236   5.201
 9418SOL     OW28597   5.338   1.292   5.013
 9418SOL    HW128598   5.398   1.295   5.093
 9418SOL    HW228599   5.263   1.356   5.026
 9419SOL     OW28600   4.763   1.098   4.420
 9419SOL    HW128601   4.693   1.051   4.474
 9419SOL    HW228602   4.822   1.030   4.377
 9420SOL     OW28603   4.738   0.236   4.695
 9420SOL    HW128604   4.730   0.200   4.602
 9420SOL    HW228605   4.736   0.160   4.760
 9421SOL     OW28606   4.314   1.487   4.215
 9421SOL    HW128607   4.356   1.429   4.145
 9421SOL    HW228608   4.270   1.566   4.171
 9422SOL     OW28609   5.433   0.385   5.105
 9422SOL    HW128610   5.506   0.454   5.109
 9422SOL    HW228611   5.461   0.310   5.046
 9423SOL     OW28612   3.979   1.348   4.014
 9423SOL    HW128613   3.883   1.349   3.987
 9423SOL    HW228614   3.991   1.401   4.098
 9424SOL     OW28615   3.829   1.013   5.450
 9424SOL    HW128616   3.752   0.980   5.504
 9424SOL    HW228617   3.914   0.983   5.492
 9425SOL     OW28618   4.396   0.203   5.213
 9425SOL    HW128619   4.486   0.187   5.173
 9425SOL    HW228620   4.404   0.208   5.312
 9426SOL     OW28621   3.799   0.345   3.757
 9426SOL    HW128622   3.707   0.317   3.728
 9426SOL    HW228623   3.830   0.422   3.701
 9427SOL     OW28624   5.164   0.856   5.122
 9427SOL    HW128625   5.107   0.908   5.059
 9427SOL    HW228626   5.260   0.868   5.098
 9428SOL     OW28627   3.796   0.166   4.042
 9428SOL    HW128628   3.779   0.249   3.988
 9428SOL    HW228629   3.886   0.129   4.020
 9429SOL     OW28630   4.907   1.335   3.843
 9429SOL    HW128631   4.808   1.324   3.845
 9429SOL    HW228632   4.941   1.350   3.936
 9430SOL     OW28633   4.337   0.842   5.155
 9430SOL    HW128634   4.393   0.923   5.138
 9430SOL    HW228635   4.396   0.762   5.158
 9431SOL     OW28636   5.217   1.767   4.683
 9431SOL    HW128637   5.250   1.831   4.614
 9431SOL    HW228638   5.283   1.761   4.758
 9432SOL     OW28639   4.440   0.565   5.432
 9432SOL    HW128640   4.459   0.630   5.506
 9432SOL    HW228641   4.500   0.485   5.441
 9433SOL     OW28642   5.174   1.220   5.357
 9433SOL    HW128643   5.165   1.210   5.456
 9433SOL    HW228644   5.270   1.213   5.331
 9434SOL     OW28645   4.114   1.741   5.284
 9434SOL    HW128646   4.023   1.782   5.282
 9434SOL    HW228647   4.107   1.647   5.316
 9435SOL     OW28648   5.398   0.883   4.978
 9435SOL    HW128649   5.371   0.794   4.941
 9435SOL    HW228650   5.399   0.951   4.905
 9436SOL     OW28651   4.949   0.325   4.173
 9436SOL    HW128652   5.014   0.251   4.162
 9436SOL    HW228653   4.969   0.375   4.257
 9437SOL     OW28654   4.318   0.745   4.376
 9437SOL    HW128655   4.368   0.830   4.357
 9437SOL    HW228656   4.230   0.747   4.328
 9438SOL     OW28657   5.501   0.342   5.366
 9438SOL    HW128658   5.484   0.373   5.272
 9438SOL    HW228659   5.417   0.305   5.404
 9439SOL     OW28660   5.454   0.934   5.241
 9439SOL    HW128661   5.492   1.025   5.256
 9439SOL    HW228662   5.446   0.917   5.142
 9440SOL     OW28663   4.583   1.374   3.740
 9440SOL    HW128664   4.537   1.389   3.828
 9440SOL    HW228665   4.627   1.459   3.710
 9441SOL     OW28666   4.385   1.790   4.677
 9441SOL    HW128667   4.339   1.878   4.664
 9441SOL    HW228668   4.484   1.802   4.670
 9442SOL     OW28669   4.583   0.956   4.585
 9442SOL    HW128670   4.637   0.887   4.633
 9442SOL    HW228671   4.551   1.025   4.651
 9443SOL     OW28672   4.807   0.984   3.811
 9443SOL    HW128673   4.784   1.037   3.729
 9443SOL    HW228674   4.888   0.928   3.792
 9444SOL     OW28675   5.585   1.569   4.575
 9444SOL    HW128676   5.514   1.557   4.505
 9444SOL    HW228677   5.586   1.490   4.635
 9445SOL     OW28678   3.945   1.314   5.568
 9445SOL    HW128679   3.880   1.241   5.547
 9445SOL    HW228680   3.949   1.328   5.666
 9446SOL     OW28681   3.803   1.240   4.377
 9446SOL    HW128682   3.802   1.193   4.465
 9446SOL    HW228683   3.885   1.212   4.326
 9447SOL     OW28684   4.396   1.391   5.348
 9447SOL    HW128685   4.318   1.341   5.386
 9447SOL    HW228686   4.393   1.486   5.379
 9448SOL     OW28687   5.548   0.192   4.951
 9448SOL    HW128688   5.544   0.102   4.995
 9448SOL    HW228689   5.551   0.181   4.852
 9449SOL     OW28690   4.152   0.424   4.244
 9449SOL    HW128691   4.182   0.352   4.182
 9449SOL    HW228692   4.113   0.384   4.327
 9450SOL     OW28693   5.429   1.487   4.828
 9450SOL    HW128694   5.336   1.462   4.801
 9450SOL    HW228695   5.455   1.437   4.910
 9451SOL     OW28696   4.041   0.547   5.004
 9451SOL    HW128697   4.079   0.488   5.076
 9451SOL    HW228698   4.081   0.521   4.916
 9452SOL     OW28699   4.536   1.586   4.411
 9452SOL    HW128700   4.568   1.596   4.317
 9452SOL    HW228701   4.457   1.524   4.413
 9453SOL     OW28702   5.148   0.214   4.836
 9453SOL    HW128703   5.200   0.149   4.891
 9453SOL    HW228704   5.099   0.277   4.897
 9454SOL     OW28705   4.725   0.034   4.878
 9454SOL    HW128706   4.662  -0.038   4.847
 9454SOL    HW228707   4.818  -0.002   4.878
 9455SOL     OW28708   4.494   1.330   4.025
 9455SOL    HW128709   4.448   1.243   4.042
 9455SOL    HW228710   4.585   1.327   4.066
 9456SOL     OW28711   4.342   1.567   5.008
 9456SOL    HW128712   4.337   1.649   5.065
 9456SOL    HW228713   4.431   1.564   4.963
 9457SOL     OW28714   5.076   0.052   3.892
 9457SOL    HW128715   5.111   0.011   3.808
 9457SOL    HW228716   4.986   0.014   3.912
 9458SOL     OW28717   5.024   0.453   4.415
 9458SOL    HW128718   4.965   0.533   4.419
 9458SOL    HW228719   5.039   0.418   4.508
 9459SOL     OW28720   5.317   0.221   4.606
 9459SOL    HW128721   5.233   0.220   4.660
 9459SOL    HW228722   5.319   0.304   4.550
 9460SOL     OW28723   3.763   1.077   4.024
 9460SOL    HW128724   3.862   1.066   4.015
 9460SOL    HW228725   3.723   0.991   4.056
 9461SOL     OW28726   4.599   1.646   4.061
 9461SOL    HW128727   4.522   1.611   4.007
 9461SOL    HW228728   4.567   1.717   4.123
 9462SOL     OW28729   3.954   0.628   5.699
 9462SOL    HW128730   3.861   0.626   5.736
 9462SOL    HW228731   3.955   0.589   5.607
 9463SOL     OW28732   3.949   0.275   6.582
 9463SOL    HW128733   3.984   0.258   6.674
 9463SOL    HW228734   3.861   0.230   6.570
 9464SOL     OW28735   3.743   0.368   6.233
 9464SOL    HW128736   3.661   0.411   6.272
 9464SOL    HW228737   3.715   0.295   6.170
 9465SOL     OW28738   4.293   1.275   6.751
 9465SOL    HW128739   4.200   1.268   6.714
 9465SOL    HW228740   4.304   1.364   6.795
 9466SOL     OW28741   5.279   1.511   6.289
 9466SOL    HW128742   5.222   1.495   6.370
 9466SOL    HW228743   5.220   1.521   6.209
 9467SOL     OW28744   4.859   0.703   6.303
 9467SOL    HW128745   4.916   0.781   6.278
 9467SOL    HW228746   4.799   0.729   6.379
 9468SOL     OW28747   5.479   0.607   5.817
 9468SOL    HW128748   5.467   0.594   5.718
 9468SOL    HW228749   5.449   0.526   5.866
 9469SOL     OW28750   4.492   1.144   6.609
 9469SOL    HW128751   4.414   1.161   6.669
 9469SOL    HW228752   4.526   1.231   6.573
 9470SOL     OW28753   4.574   0.798   7.409
 9470SOL    HW128754   4.570   0.874   7.474
 9470SOL    HW228755   4.596   0.834   7.318
 9471SOL     OW28756   4.409   1.012   6.251
 9471SOL    HW128757   4.478   0.996   6.321
 9471SOL    HW228758   4.336   1.069   6.289
 9472SOL     OW28759   4.410   1.161   7.389
 9472SOL    HW128760   4.470   1.240   7.403
 9472SOL    HW228761   4.324   1.192   7.348
 9473SOL     OW28762   4.059   1.435   6.647
 9473SOL    HW128763   3.981   1.404   6.594
 9473SOL    HW228764   4.117   1.493   6.590
 9474SOL     OW28765   5.184   1.505   6.925
 9474SOL    HW128766   5.208   1.599   6.951
 9474SOL    HW228767   5.168   1.451   7.007
 9475SOL     OW28768   4.162   0.392   7.085
 9475SOL    HW128769   4.244   0.336   7.094
 9475SOL    HW228770   4.081   0.334   7.089
 9476SOL     OW28771   5.327   0.447   6.323
 9476SOL    HW128772   5.253   0.493   6.273
 9476SOL    HW228773   5.378   0.515   6.376
 9477SOL     OW28774   3.955   1.713   6.069
 9477SOL    HW128775   3.989   1.790   6.123
 9477SOL    HW228776   3.999   1.713   5.979
 9478SOL     OW28777   4.851   1.341   7.276
 9478SOL    HW128778   4.898   1.341   7.364
 9478SOL    HW228779   4.803   1.254   7.265
 9479SOL     OW28780   3.954   1.434   6.124
 9479SOL    HW128781   3.928   1.530   6.124
 9479SOL    HW228782   3.883   1.380   6.169
 9480SOL     OW28783   3.964   1.091   6.472
 9480SOL    HW128784   3.978   1.007   6.524
 9480SOL    HW228785   3.909   1.155   6.527
 9481SOL     OW28786   4.344   1.786   7.025
 9481SOL    HW128787   4.252   1.769   7.060
 9481SOL    HW228788   4.372   1.878   7.051
 9482SOL     OW28789   4.330   0.964   5.709
 9482SOL    HW128790   4.337   1.048   5.655
 9482SOL    HW228791   4.376   0.977   5.797
 9483SOL     OW28792   5.318   0.114   7.066
 9483SOL    HW128793   5.300   0.181   6.994
 9483SOL    HW228794   5.315   0.160   7.155
 9484SOL     OW28795   3.846   0.643   6.149
 9484SOL    HW128796   3.801   0.555   6.166
 9484SOL    HW228797   3.845   0.697   6.233
 9485SOL     OW28798   5.566   1.767   5.945
 9485SOL    HW128799   5.620   1.738   6.025
 9485SOL    HW228800   5.596   1.857   5.916
 9486SOL     OW28801   3.751   1.596   5.703
 9486SOL    HW128802   3.732   1.500   5.724
 9486SOL    HW228803   3.718   1.654   5.778
 9487SOL     OW28804   5.413   0.922   6.198
 9487SOL    HW128805   5.508   0.893   6.206
 9487SOL    HW228806   5.405   0.987   6.123
 9488SOL     OW28807   5.365   1.108   6.018
 9488SOL    HW128808   5.451   1.110   5.966
 9488SOL    HW228809   5.379   1.155   6.106
 9489SOL     OW28810   3.837   0.737   7.183
 9489SOL    HW128811   3.925   0.724   7.228
 9489SOL    HW228812   3.824   0.834   7.161
 9490SOL     OW28813   4.337   1.365   6.312
 9490SOL    HW128814   4.288   1.278   6.321
 9490SOL    HW228815   4.314   1.408   6.225
 9491SOL     OW28816   5.017   1.228   7.009
 9491SOL    HW128817   5.054   1.155   6.951
 9491SOL    HW228818   5.069   1.233   7.094
 9492SOL     OW28819   4.533   0.004   6.088
 9492SOL    HW128820   4.573   0.095   6.079
 9492SOL    HW228821   4.433   0.012   6.094
 9493SOL     OW28822   3.921   0.976   6.850
 9493SOL    HW128823   4.010   0.931   6.836
 9493SOL    HW228824   3.848   0.911   6.831
 9494SOL     OW28825   5.249   0.999   5.776
 9494SOL    HW128826   5.186   0.923   5.789
 9494SOL    HW228827   5.297   1.017   5.862
 9495SOL     OW28828   4.911   1.792   7.202
 9495SOL    HW128829   4.935   1.852   7.126
 9495SOL    HW228830   4.918   1.697   7.172
 9496SOL     OW28831   4.041   0.251   7.387
 9496SOL    HW128832   4.112   0.322   7.393
 9496SOL    HW228833   3.953   0.290   7.415
 9497SOL     OW28834   5.190   1.417   6.539
 9497SOL    HW128835   5.131   1.423   6.619
 9497SOL    HW228836   5.175   1.329   6.493
 9498SOL     OW28837   5.391   1.714   6.158
 9498SOL    HW128838   5.350   1.691   6.070
 9498SOL    HW228839   5.373   1.640   6.223
 9499SOL     OW28840   4.322   0.729   5.856
 9499SOL    HW128841   4.346   0.798   5.788
 9499SOL    HW228842   4.244   0.762   5.910
 9500SOL     OW28843   5.005   0.345   6.530
 9500SOL    HW128844   4.919   0.295   6.517
 9500SOL    HW228845   5.067   0.291   6.586
 9501SOL     OW28846   5.300   1.662   5.893
 9501SOL    HW128847   5.389   1.708   5.896
 9501SOL    HW228848   5.279   1.638   5.798
 9502SOL     OW28849   4.531   0.605   7.051
 9502SOL    HW128850   4.484   0.602   7.140
 9502SOL    HW228851   4.480   0.550   6.985
 9503SOL     OW28852   5.118   0.469   7.260
 9503SOL    HW128853   5.098   0.512   7.348
 9503SOL    HW228854   5.196   0.407   7.269
 9504SOL     OW28855   4.697   0.890   7.158
 9504SOL    HW128856   4.743   0.806   7.129
 9504SOL    HW228857   4.641   0.924   7.083
 9505SOL     OW28858   4.715   0.410   6.828
 9505SOL    HW128859   4.638   0.444   6.882
 9505SOL    HW228860   4.681   0.359   6.749
 9506SOL     OW28861   4.765   0.701   6.015
 9506SOL    HW128862   4.791   0.697   6.111
 9506SOL    HW228863   4.680   0.650   6.001
 9507SOL     OW28864   3.800   0.811   6.375
 9507SOL    HW128865   3.899   0.799   6.384
 9507SOL    HW228866   3.776   0.906   6.396
 9508SOL     OW28867   3.854   1.821   7.157
 9508SOL    HW128868   3.844   1.806   7.256
 9508SOL    HW228869   3.768   1.857   7.121
 9509SOL     OW28870   4.589   0.348   5.781
 9509SOL    HW128871   4.648   0.411   5.732
 9509SOL    HW228872   4.608   0.254   5.752
 9510SOL     OW28873   5.443   0.585   7.417
 9510SOL    HW128874   5.417   0.674   7.381
 9510SOL    HW228875   5.441   0.517   7.344
 9511SOL     OW28876   5.086   1.144   6.131
 9511SOL    HW128877   5.169   1.115   6.083
 9511SOL    HW228878   5.037   1.211   6.075
 9512SOL     OW28879   4.274   0.196   6.471
 9512SOL    HW128880   4.269   0.191   6.571
 9512SOL    HW228881   4.276   0.292   6.442
 9513SOL     OW28882   4.732   1.456   6.063
 9513SOL    HW128883   4.686   1.528   6.011
 9513SOL    HW228884   4.728   1.476   6.161
 9514SOL     OW28885   4.075   1.801   6.439
 9514SOL    HW128886   4.125   1.715   6.445
 9514SOL    HW228887   4.140   1.878   6.436
 9515SOL     OW28888   5.519   1.066   6.459
 9515SOL    HW128889   5.457   1.051   6.383
 9515SOL    HW228890   5.467   1.077   6.544
 9516SOL     OW28891   4.951   1.550   7.092
 9516SOL    HW128892   4.957   1.473   7.156
 9516SOL    HW228893   4.899   1.524   7.012
 9517SOL     OW28894   4.045   0.943   5.828
 9517SOL    HW128895   4.127   0.982   5.786
 9517SOL    HW228896   4.018   0.861   5.779
 9518SOL     OW28897   5.182   0.735   6.314
 9518SOL    HW128898   5.177   0.670   6.389
 9518SOL    HW228899   5.262   0.794   6.327
 9519SOL     OW28900   4.185   1.266   7.313
 9519SOL    HW128901   4.135   1.267   7.227
 9519SOL    HW228902   4.122   1.248   7.389
 9520SOL     OW28903   4.835   1.776   5.823
 9520SOL    HW128904   4.775   1.714   5.873
 9520SOL    HW228905   4.866   1.732   5.738
 9521SOL     OW28906   3.926   0.285   7.084
 9521SOL    HW128907   3.846   0.345   7.071
 9521SOL    HW228908   3.916   0.236   7.170
 9522SOL     OW28909   5.356   1.377   5.667
 9522SOL    HW128910   5.324   1.471   5.657
 9522SOL    HW228911   5.280   1.314   5.655
 9523SOL     OW28912   4.188   1.743   5.909
 9523SOL    HW128913   4.221   1.782   5.995
 9523SOL    HW228914   4.264   1.736   5.844
 9524SOL     OW28915   5.124   0.107   6.012
 9524SOL    HW128916   5.100   0.070   5.922
 9524SOL    HW228917   5.223   0.123   6.016
 9525SOL     OW28918   3.973   1.785   6.827
 9525SOL    HW128919   4.030   1.720   6.877
 9525SOL    HW228920   3.957   1.752   6.734
 9526SOL     OW28921   4.664   1.698   6.490
 9526SOL    HW128922   4.744   1.641   6.511
 9526SOL    HW228923   4.615   1.658   6.413
 9527SOL     OW28924   4.106   0.700   6.066
 9527SOL    HW128925   4.151   0.610   6.063
 9527SOL    HW228926   4.012   0.689   6.099
 9528SOL     OW28927   5.271   0.222   7.315
 9528SOL    HW128928   5.266   0.259   7.407
 9528SOL    HW228929   5.199   0.153   7.303
 9529SOL     OW28930   4.338   0.122   5.703
 9529SOL    HW128931   4.436   0.100   5.710
 9529SOL    HW228932   4.307   0.105   5.610
 9530SOL     OW28933   4.505   0.264   7.335
 9530SOL    HW128934   4.572   0.203   7.378
 9530SOL    HW228935   4.432   0.283   7.400
 9531SOL     OW28936   4.612   1.514   6.781
 9531SOL    HW128937   4.589   1.489   6.687
 9531SOL    HW228938   4.673   1.445   6.820
 9532SOL     OW28939   5.075   0.590   7.019
 9532SOL    HW128940   5.103   0.547   7.104
 9532SOL    HW228941   5.100   0.686   7.020
 9533SOL     OW28942   4.527   1.402   6.510
 9533SOL    HW128943   4.617   1.416   6.468
 9533SOL    HW228944   4.456   1.404   6.439
 9534SOL     OW28945   4.646   0.503   6.485
 9534SOL    HW128946   4.621   0.494   6.389
 9534SOL    HW228947   4.694   0.421   6.516
 9535SOL     OW28948   4.263   0.064   6.098
 9535SOL    HW128949   4.182   0.065   6.156
 9535SOL    HW228950   4.266   0.147   6.043
 9536SOL     OW28951   5.158   1.188   5.627
 9536SOL    HW128952   5.190   1.112   5.684
 9536SOL    HW228953   5.066   1.215   5.657
 9537SOL     OW28954   4.021   0.035   5.757
 9537SOL    HW128955   4.070   0.119   5.736
 9537SOL    HW228956   4.083  -0.030   5.802
 9538SOL     OW28957   4.659   0.236   6.066
 9538SOL    HW128958   4.611   0.277   5.988
 9538SOL    HW228959   4.758   0.234   6.047
 9539SOL     OW28960   4.800   0.683   7.050
 9539SOL    HW128961   4.720   0.622   7.053
 9539SOL    HW228962   4.881   0.630   7.026
 9540SOL     OW28963   4.951   1.570   6.379
 9540SOL    HW128964   4.972   1.644   6.314
 9540SOL    HW228965   5.019   1.570   6.452
 9541SOL     OW28966   4.183   1.152   6.327
 9541SOL    HW128967   4.112   1.125   6.392
 9541SOL    HW228968   4.157   1.124   6.234
 9542SOL     OW28969   4.995   1.797   6.177
 9542SOL    HW128970   5.039   1.861   6.113
 9542SOL    HW228971   4.945   1.849   6.247
 9543SOL     OW28972   4.756   0.549   5.602
 9543SOL    HW128973   4.715   0.631   5.563
 9543SOL    HW228974   4.820   0.575   5.675
 9544SOL     OW28975   3.802   0.556   6.972
 9544SOL    HW128976   3.894   0.555   6.931
 9544SOL    HW228977   3.796   0.630   7.039
 9545SOL     OW28978   4.285   0.222   6.733
 9545SOL    HW128979   4.323   0.138   6.770
 9545SOL    HW228980   4.197   0.241   6.777
 9546SOL     OW28981   4.590   0.454   6.228
 9546SOL    HW128982   4.558   0.526   6.166
 9546SOL    HW228983   4.614   0.373   6.175
 9547SOL     OW28984   4.741   0.039   6.339
 9547SOL    HW128985   4.669   0.044   6.270
 9547SOL    HW228986   4.717  -0.030   6.408
 9548SOL     OW28987   5.153   1.173   6.453
 9548SOL    HW128988   5.098   1.089   6.446
 9548SOL    HW228989   5.179   1.202   6.361
 9549SOL     OW28990   5.190   0.590   6.578
 9549SOL    HW128991   5.160   0.495   6.585
 9549SOL    HW228992   5.263   0.606   6.644
 9550SOL     OW28993   5.581   0.833   5.963
 9550SOL    HW128994   5.623   0.769   6.027
 9550SOL    HW228995   5.543   0.782   5.885
 9551SOL     OW28996   4.212   1.385   5.760
 9551SOL    HW128997   4.125   1.370   5.807
 9551SOL    HW228998   4.195   1.411   5.665
 9552SOL     OW28999   5.388   1.280   6.243
 9552SOL    HW129000   5.487   1.288   6.257
 9552SOL    HW229001   5.343   1.364   6.274
 9553SOL     OW29002   5.114   0.575   5.664
 9553SOL    HW129003   5.060   0.554   5.745
 9553SOL    HW229004   5.205   0.534   5.673
 9554SOL     OW29005   4.251   0.256   5.914
 9554SOL    HW129006   4.278   0.197   5.839
 9554SOL    HW229007   4.251   0.351   5.883
 9555SOL     OW29008   5.478   1.223   7.174
 9555SOL    HW129009   5.569   1.184   7.161
 9555SOL    HW229010   5.486   1.319   7.198
 9556SOL     OW29011   4.788   1.347   6.926
 9556SOL    HW129012   4.708   1.324   6.981
 9556SOL    HW229013   4.871   1.321   6.975
 9557SOL     OW29014   5.316   1.629   7.211
 9557SOL    HW129015   5.343   1.663   7.121
 9557SOL    HW229016   5.395   1.591   7.257
 9558SOL     OW29017   4.835   1.195   6.686
 9558SOL    HW129018   4.795   1.239   6.767
 9558SOL    HW229019   4.794   1.232   6.603
 9559SOL     OW29020   5.362   1.099   6.665
 9559SOL    HW129021   5.367   1.180   6.724
 9559SOL    HW229022   5.276   1.101   6.614
 9560SOL     OW29023   4.639   0.089   6.988
 9560SOL    HW129024   4.664   0.069   6.893
 9560SOL    HW229025   4.711   0.145   7.030
 9561SOL     OW29026   4.704   1.116   7.305
 9561SOL    HW129027   4.605   1.122   7.315
 9561SOL    HW229028   4.727   1.036   7.249
 9562SOL     OW29029   4.429   1.050   5.954
 9562SOL    HW129030   4.415   1.057   6.053
 9562SOL    HW229031   4.513   0.999   5.936
 9563SOL     OW29032   4.134   0.813   6.837
 9563SOL    HW129033   4.220   0.825   6.887
 9563SOL    HW229034   4.092   0.726   6.864
 9564SOL     OW29035   4.998   0.386   6.848
 9564SOL    HW129036   5.019   0.460   6.912
 9564SOL    HW229037   4.909   0.403   6.805
 9565SOL     OW29038   3.788   1.564   6.917
 9565SOL    HW129039   3.742   1.646   6.883
 9565SOL    HW229040   3.886   1.583   6.926
 9566SOL     OW29041   4.091   1.100   6.087
 9566SOL    HW129042   4.084   1.183   6.031
 9566SOL    HW229043   4.095   1.020   6.027
 9567SOL     OW29044   4.290   0.537   6.451
 9567SOL    HW129045   4.302   0.603   6.377
 9567SOL    HW229046   4.336   0.571   6.534
 9568SOL     OW29047   4.976   1.348   5.974
 9568SOL    HW129048   5.026   1.425   6.014
 9568SOL    HW229049   4.881   1.350   6.006
 9569SOL     OW29050   4.996   1.445   6.728
 9569SOL    HW129051   5.043   1.458   6.815
 9569SOL    HW229052   4.930   1.371   6.737
 9570SOL     OW29053   5.306   0.639   6.058
 9570SOL    HW129054   5.275   0.700   6.131
 9570SOL    HW229055   5.356   0.691   5.989
 9571SOL     OW29056   4.078   1.510   6.915
 9571SOL    HW129057   4.057   1.466   6.828
 9571SOL    HW229058   4.175   1.536   6.918
 9572SOL     OW29059   4.126   0.751   7.184
 9572SOL    HW129060   4.194   0.806   7.137
 9572SOL    HW229061   4.166   0.663   7.211
 9573SOL     OW29062   5.311   0.779   7.256
 9573SOL    HW129063   5.219   0.817   7.251
 9573SOL    HW229064   5.371   0.826   7.191
 9574SOL     OW29065   4.737   0.105   7.356
 9574SOL    HW129066   4.743   0.190   7.304
 9574SOL    HW229067   4.769   0.029   7.299
 9575SOL     OW29068   4.228   0.050   7.326
 9575SOL    HW129069   4.186  -0.007   7.256
 9575SOL    HW229070   4.162   0.119   7.358
 9576SOL     OW29071   4.297   0.870   6.615
 9576SOL    HW129072   4.341   0.959   6.606
 9576SOL    HW229073   4.234   0.870   6.692
 9577SOL     OW29074   5.084   0.862   6.631
 9577SOL    HW129075   5.009   0.862   6.565
 9577SOL    HW229076   5.121   0.770   6.640
 9578SOL     OW29077   4.933   0.525   5.861
 9578SOL    HW129078   4.946   0.441   5.915
 9578SOL    HW229079   4.904   0.599   5.921
 9579SOL     OW29080   4.031   0.213   6.817
 9579SOL    HW129081   4.008   0.250   6.907
 9579SOL    HW229082   4.001   0.118   6.811
 9580SOL     OW29083   3.761   1.310   6.868
 9580SOL    HW129084   3.814   1.261   6.936
 9580SOL    HW229085   3.783   1.408   6.873
 9581SOL     OW29086   4.456   0.634   6.650
 9581SOL    HW129087   4.515   0.608   6.574
 9581SOL    HW229088   4.428   0.730   6.639
 9582SOL     OW29089   5.452   0.935   7.440
 9582SOL    HW129090   5.406   0.928   7.351
 9582SOL    HW229091   5.390   0.979   7.506
 9583SOL     OW29092   4.031   0.063   6.204
 9583SOL    HW129093   4.020   0.157   6.237
 9583SOL    HW229094   4.026   0.000   6.281
 9584SOL     OW29095   5.346   0.367   5.960
 9584SOL    HW129096   5.348   0.291   6.024
 9584SOL    HW229097   5.298   0.444   6.000
 9585SOL     OW29098   4.747   0.766   6.552
 9585SOL    HW129099   4.762   0.787   6.648
 9585SOL    HW229100   4.717   0.671   6.543
 9586SOL     OW29101   4.704   1.573   7.286
 9586SOL    HW129102   4.684   1.617   7.198
 9586SOL    HW229103   4.743   1.482   7.270
 9587SOL     OW29104   5.583   1.518   7.191
 9587SOL    HW129105   5.597   1.545   7.096
 9587SOL    HW229106   5.666   1.540   7.244
 9588SOL     OW29107   4.074   0.898   7.390
 9588SOL    HW129108   4.150   0.942   7.438
 9588SOL    HW229109   4.109   0.851   7.308
 9589SOL     OW29110   5.264   0.274   5.711
 9589SOL    HW129111   5.203   0.199   5.734
 9589SOL    HW229112   5.286   0.326   5.794
 9590SOL     OW29113   5.027   0.838   5.628
 9590SOL    HW129114   5.061   0.745   5.643
 9590SOL    HW229115   5.045   0.865   5.533
 9591SOL     OW29116   4.792   1.333   6.435
 9591SOL    HW129117   4.799   1.249   6.380
 9591SOL    HW229118   4.854   1.402   6.399
 9592SOL     OW29119   4.043   0.810   6.535
 9592SOL    HW129120   4.136   0.846   6.540
 9592SOL    HW229121   4.037   0.725   6.587
 9593SOL     OW29122   4.063   0.509   6.592
 9593SOL    HW129123   4.011   0.426   6.575
 9593SOL    HW229124   4.140   0.514   6.528
 9594SOL     OW29125   4.862   0.380   7.264
 9594SOL    HW129126   4.817   0.443   7.328
 9594SOL    HW229127   4.955   0.411   7.247
 9595SOL     OW29128   4.884   0.207   7.063
 9595SOL    HW129129   4.884   0.271   7.140
 9595SOL    HW229130   4.912   0.255   6.980
 9596SOL     OW29131   3.732   1.326   5.786
 9596SOL    HW129132   3.639   1.347   5.755
 9596SOL    HW229133   3.742   1.227   5.799
 9597SOL     OW29134   3.812   1.801   6.513
 9597SOL    HW129135   3.770   1.715   6.486
 9597SOL    HW229136   3.906   1.804   6.479
 9598SOL     OW29137   4.228   1.568   6.496
 9598SOL    HW129138   4.294   1.642   6.505
 9598SOL    HW229139   4.272   1.489   6.454
 9599SOL     OW29140   4.726   0.796   6.824
 9599SOL    HW129141   4.767   0.764   6.910
 9599SOL    HW229142   4.630   0.769   6.821
 9600SOL     OW29143   3.764   0.544   6.700
 9600SOL    HW129144   3.849   0.511   6.659
 9600SOL    HW229145   3.777   0.559   6.798
 9601SOL     OW29146   3.913   0.520   7.308
 9601SOL    HW129147   3.972   0.480   7.238
 9601SOL    HW229148   3.855   0.591   7.267
 9602SOL     OW29149   5.093   0.950   7.246
 9602SOL    HW129150   5.132   1.039   7.266
 9602SOL    HW229151   5.103   0.930   7.149
 9603SOL     OW29152   4.539   0.572   5.911
 9603SOL    HW129153   4.546   0.483   5.865
 9603SOL    HW229154   4.445   0.606   5.903
 9604SOL     OW29155   5.381   0.604   6.792
 9604SOL    HW129156   5.343   0.535   6.854
 9604SOL    HW229157   5.463   0.568   6.748
 9605SOL     OW29158   3.976   1.564   7.330
 9605SOL    HW129159   3.946   1.621   7.406
 9605SOL    HW229160   3.969   1.467   7.356
 9606SOL     OW29161   4.395   0.464   6.855
 9606SOL    HW129162   4.361   0.375   6.825
 9606SOL    HW229163   4.421   0.518   6.775
 9607SOL     OW29164   4.654   1.678   7.051
 9607SOL    HW129165   4.630   1.660   6.956
 9607SOL    HW229166   4.684   1.772   7.061
 9608SOL     OW29167   4.197   0.500   5.777
 9608SOL    HW129168   4.258   0.580   5.781
 9608SOL    HW229169   4.102   0.531   5.784
 9609SOL     OW29170   3.883   1.137   7.052
 9609SOL    HW129171   3.905   1.076   7.128
 9609SOL    HW229172   3.893   1.088   6.966
 9610SOL     OW29173   5.071   1.059   6.820
 9610SOL    HW129174   5.095   0.996   6.746
 9610SOL    HW229175   4.981   1.099   6.802
 9611SOL     OW29176   5.026   0.855   5.895
 9611SOL    HW129177   4.940   0.824   5.937
 9611SOL    HW229178   5.022   0.841   5.796
 9612SOL     OW29179   5.483   1.747   6.740
 9612SOL    HW129180   5.544   1.777   6.667
 9612SOL    HW229181   5.445   1.658   6.718
 9613SOL     OW29182   4.976   1.731   6.714
 9613SOL    HW129183   5.060   1.736   6.660
 9613SOL    HW229184   4.953   1.635   6.732
 9614SOL     OW29185   3.807   1.258   6.608
 9614SOL    HW129186   3.802   1.257   6.708
 9614SOL    HW229187   3.724   1.217   6.570
 9615SOL     OW29188   4.412   1.662   7.302
 9615SOL    HW129189   4.356   1.743   7.311
 9615SOL    HW229190   4.464   1.666   7.216
 9616SOL     OW29191   5.450   0.135   6.109
 9616SOL    HW129192   5.523   0.118   6.042
 9616SOL    HW229193   5.419   0.048   6.147
 9617SOL     OW29194   5.112   1.573   6.063
 9617SOL    HW129195   5.179   1.585   5.989
 9617SOL    HW229196   5.072   1.662   6.086
 9618SOL     OW29197   3.854   1.794   7.437
 9618SOL    HW129198   3.813   1.720   7.490
 9618SOL    HW229199   3.918   1.845   7.495
 9619SOL     OW29200   5.004   0.927   6.258
 9619SOL    HW129201   5.064   0.846   6.260
 9619SOL    HW229202   5.044   0.996   6.198
 9620SOL     OW29203   4.554   1.273   7.008
 9620SOL    HW129204   4.549   1.306   7.103
 9620SOL    HW229205   4.468   1.292   6.962
 9621SOL     OW29206   4.396   1.616   5.740
 9621SOL    HW129207   4.405   1.626   5.641
 9621SOL    HW229208   4.356   1.527   5.761
 9622SOL     OW29209   5.374   1.720   6.980
 9622SOL    HW129210   5.427   1.730   6.896
 9622SOL    HW229211   5.347   1.810   7.014
 9623SOL     OW29212   5.565   0.175   6.549
 9623SOL    HW129213   5.604   0.090   6.513
 9623SOL    HW229214   5.467   0.177   6.530
 9624SOL     OW29215   3.987   0.326   6.306
 9624SOL    HW129216   3.908   0.377   6.272
 9624SOL    HW229217   3.978   0.311   6.404
 9625SOL     OW29218   4.918   1.612   5.617
 9625SOL    HW129219   4.924   1.519   5.654
 9625SOL    HW229220   4.859   1.612   5.537
 9626SOL     OW29221   4.546   1.002   6.958
 9626SOL    HW129222   4.586   1.001   6.866
 9626SOL    HW229223   4.556   1.094   6.998
 9627SOL     OW29224   4.640   0.910   5.877
 9627SOL    HW129225   4.703   0.948   5.809
 9627SOL    HW229226   4.680   0.827   5.916
 9628SOL     OW29227   5.228   1.607   5.630
 9628SOL    HW129228   5.136   1.644   5.637
 9628SOL    HW229229   5.266   1.627   5.540
 9629SOL     OW29230   4.096   1.288   7.076
 9629SOL    HW129231   4.083   1.381   7.042
 9629SOL    HW229232   4.012   1.236   7.063
 9630SOL     OW29233   5.338   1.292   6.875
 9630SOL    HW129234   5.398   1.295   6.955
 9630SOL    HW229235   5.263   1.356   6.888
 9631SOL     OW29236   4.763   1.098   6.282
 9631SOL    HW129237   4.693   1.051   6.336
 9631SOL    HW229238   4.822   1.030   6.239
 9632SOL     OW29239   4.738   0.236   6.557
 9632SOL    HW129240   4.730   0.200   6.464
 9632SOL    HW229241   4.736   0.160   6.622
 9633SOL     OW29242   4.314   1.487   6.077
 9633SOL    HW129243   4.356   1.429   6.007
 9633SOL    HW229244   4.270   1.566   6.033
 9634SOL     OW29245   5.433   0.385   6.967
 9634SOL    HW129246   5.506   0.454   6.971
 9634SOL    HW229247   5.461   0.310   6.908
 9635SOL     OW29248   3.979   1.348   5.876
 9635SOL    HW129249   3.883   1.349   5.849
 9635SOL    HW229250   3.991   1.401   5.960
 9636SOL     OW29251   3.829   1.013   7.312
 9636SOL    HW129252   3.752   0.980   7.366
 9636SOL    HW229253   3.914   0.983   7.354
 9637SOL     OW29254   4.396   0.203   7.075
 9637SOL    HW129255   4.486   0.187   7.035
 9637SOL    HW229256   4.404   0.208   7.174
 9638SOL     OW29257   3.799   0.345   5.619
 9638SOL    HW129258   3.707   0.317   5.590
 9638SOL    HW229259   3.830   0.422   5.563
 9639SOL     OW29260   5.164   0.856   6.984
 9639SOL    HW129261   5.107   0.908   6.921
 9639SOL    HW229262   5.260   0.868   6.960
 9640SOL     OW29263   3.796   0.166   5.904
 9640SOL    HW129264   3.779   0.249   5.850
 9640SOL    HW229265   3.886   0.129   5.882
 9641SOL     OW29266   4.907   1.335   5.705
 9641SOL    HW129267   4.808   1.324   5.707
 9641SOL    HW229268   4.941   1.350   5.798
 9642SOL     OW29269   4.337   0.842   7.017
 9642SOL    HW129270   4.393   0.923   7.000
 9642SOL    HW229271   4.396   0.762   7.020
 9643SOL     OW29272   5.217   1.767   6.545
 9643SOL    HW129273   5.250   1.831   6.476
 9643SOL    HW229274   5.283   1.761   6.620
 9644SOL     OW29275   4.440   0.565   7.294
 9644SOL    HW129276   4.459   0.630   7.368
 9644SOL    HW229277   4.500   0.485   7.303
 9645SOL     OW29278   5.174   1.220   7.219
 9645SOL    HW129279   5.165   1.210   7.318
 9645SOL    HW229280   5.270   1.213   7.193
 9646SOL     OW29281   4.114   1.741   7.146
 9646SOL    HW129282   4.023   1.782   7.144
 9646SOL    HW229283   4.107   1.647   7.178
 9647SOL     OW29284   5.398   0.883   6.840
 9647SOL    HW129285   5.371   0.794   6.803
 9647SOL    HW229286   5.399   0.951   6.767
 9648SOL     OW29287   4.949   0.325   6.035
 9648SOL    HW129288   5.014   0.251   6.024
 9648SOL    HW229289   4.969   0.375   6.119
 9649SOL     OW29290   4.318   0.745   6.238
 9649SOL    HW129291   4.368   0.830   6.219
 9649SOL    HW229292   4.230   0.747   6.190
 9650SOL     OW29293   5.501   0.342   7.228
 9650SOL    HW129294   5.484   0.373   7.134
 9650SOL    HW229295   5.417   0.305   7.266
 9651SOL     OW29296   5.454   0.934   7.103
 9651SOL    HW129297   5.492   1.025   7.118
 9651SOL    HW229298   5.446   0.917   7.004
 9652SOL     OW29299   4.583   1.374   5.602
 9652SOL    HW129300   4.537   1.389   5.690
 9652SOL    HW229301   4.627   1.459   5.572
 9653SOL     OW29302   4.385   1.790   6.539
 9653SOL    HW129303   4.339   1.878   6.526
 9653SOL    HW229304   4.484   1.802   6.532
 9654SOL     OW29305   4.583   0.956   6.447
 9654SOL    HW129306   4.637   0.887   6.495
 9654SOL    HW229307   4.551   1.025   6.513
 9655SOL     OW29308   4.807   0.984   5.673
 9655SOL    HW129309   4.784   1.037   5.591
 9655SOL    HW229310   4.888   0.928   5.654
 9656SOL     OW29311   5.585   1.569   6.437
 9656SOL    HW129312   5.514   1.557   6.367
 9656SOL    HW229313   5.586   1.490   6.497
 9657SOL     OW29314   3.945   1.314   7.430
 9657SOL    HW129315   3.880   1.241   7.409
 9657SOL    HW229316   3.949   1.328   7.528
 9658SOL     OW29317   3.803   1.240   6.239
 9658SOL    HW129318   3.802   1.193   6.327
 9658SOL    HW229319   3.885   1.212   6.188
 9659SOL     OW29320   4.396   1.391   7.210
 9659SOL    HW129321   4.318   1.341   7.248
 9659SOL    HW229322   4.393   1.486   7.241
 9660SOL     OW29323   5.548   0.192   6.813
 9660SOL    HW129324   5.544   0.102   6.857
 9660SOL    HW229325   5.551   0.181   6.714
 9661SOL     OW29326   4.152   0.424   6.106
 9661SOL    HW129327   4.182   0.352   6.044
 9661SOL    HW229328   4.113   0.384   6.189
 9662SOL     OW29329   5.429   1.487   6.690
 9662SOL    HW129330   5.336   1.462   6.663
 9662SOL    HW229331   5.455   1.437   6.772
 9663SOL     OW29332   4.041   0.547   6.866
 9663SOL    HW129333   4.079   0.488   6.938
 9663SOL    HW229334   4.081   0.521   6.778
 9664SOL     OW29335   4.536   1.586   6.273
 9664SOL    HW129336   4.568   1.596   6.179
 9664SOL    HW229337   4.457   1.524   6.275
 9665SOL     OW29338   5.148   0.214   6.698
 9665SOL    HW129339   5.200   0.149   6.753
 9665SOL    HW229340   5.099   0.277   6.759
 9666SOL     OW29341   4.725   0.034   6.740
 9666SOL    HW129342   4.662  -0.038   6.709
 9666SOL    HW229343   4.818  -0.002   6.740
 9667SOL     OW29344   4.494   1.330   5.887
 9667SOL    HW129345   4.448   1.243   5.904
 9667SOL    HW229346   4.585   1.327   5.928
 9668SOL     OW29347   4.342   1.567   6.870
 9668SOL    HW129348   4.337   1.649   6.927
 9668SOL    HW229349   4.431   1.564   6.825
 9669SOL     OW29350   5.076   0.052   5.754
 9669SOL    HW129351   5.111   0.011   5.670
 9669SOL    HW229352   4.986   0.014   5.774
 9670SOL     OW29353   5.024   0.453   6.277
 9670SOL    HW129354   4.965   0.533   6.281
 9670SOL    HW229355   5.039   0.418   6.370
 9671SOL     OW29356   5.317   0.221   6.468
 9671SOL    HW129357   5.233   0.220   6.522
 9671SOL    HW229358   5.319   0.304   6.412
 9672SOL     OW29359   3.763   1.077   5.886
 9672SOL    HW129360   3.862   1.066   5.877
 9672SOL    HW229361   3.723   0.991   5.918
 9673SOL     OW29362   4.599   1.646   5.923
 9673SOL    HW129363   4.522   1.611   5.869
 9673SOL    HW229364   4.567   1.717   5.985
 9674SOL     OW29365   3.751   1.596   7.565
 9674SOL    HW129366   3.732   1.500   7.586
 9674SOL    HW229367   3.718   1.654   7.640
 9675SOL     OW29368   5.249   0.999   7.638
 9675SOL    HW129369   5.186   0.923   7.651
 9675SOL    HW229370   5.297   1.017   7.724
 9676SOL     OW29371   4.045   0.943   7.690
 9676SOL    HW129372   4.127   0.982   7.648
 9676SOL    HW229373   4.018   0.861   7.641
 9677SOL     OW29374   4.835   1.776   7.685
 9677SOL    HW129375   4.775   1.714   7.735
 9677SOL    HW229376   4.866   1.732   7.600
 9678SOL     OW29377   5.356   1.377   7.529
 9678SOL    HW129378   5.324   1.471   7.519
 9678SOL    HW229379   5.280   1.314   7.517
 9679SOL     OW29380   5.158   1.188   7.489
 9679SOL    HW129381   5.190   1.112   7.546
 9679SOL    HW229382   5.066   1.215   7.519
 9680SOL     OW29383   4.756   0.549   7.464
 9680SOL    HW129384   4.715   0.631   7.425
 9680SOL    HW229385   4.820   0.575   7.537
 9681SOL     OW29386   4.212   1.385   7.622
 9681SOL    HW129387   4.125   1.370   7.669
 9681SOL    HW229388   4.195   1.411   7.527
 9682SOL     OW29389   5.114   0.575   7.526
 9682SOL    HW129390   5.060   0.554   7.607
 9682SOL    HW229391   5.205   0.534   7.535
 9683SOL     OW29392   5.264   0.274   7.573
 9683SOL    HW129393   5.203   0.199   7.596
 9683SOL    HW229394   5.286   0.326   7.656
 9684SOL     OW29395   5.027   0.838   7.490
 9684SOL    HW129396   5.061   0.745   7.505
 9684SOL    HW229397   5.045   0.865   7.395
 9685SOL     OW29398   4.197   0.500   7.639
 9685SOL    HW129399   4.258   0.580   7.643
 9685SOL    HW229400   4.102   0.531   7.646
 9686SOL     OW29401   5.112   1.573   7.925
 9686SOL    HW129402   5.179   1.585   7.851
 9686SOL    HW229403   5.072   1.662   7.948
 9687SOL     OW29404   4.396   1.616   7.602
 9687SOL    HW129405   4.405   1.626   7.503
 9687SOL    HW229406   4.356   1.527   7.623
 9688SOL     OW29407   4.918   1.612   7.479
 9688SOL    HW129408   4.924   1.519   7.516
 9688SOL    HW229409   4.859   1.612   7.399
 9689SOL     OW29410   5.228   1.607   7.492
 9689SOL    HW129411   5.136   1.644   7.499
 9689SOL    HW229412   5.266   1.627   7.402
 9690SOL     OW29413   3.799   0.345   7.481
 9690SOL    HW129414   3.707   0.317   7.452
 9690SOL    HW229415   3.830   0.422   7.425
 9691SOL     OW29416   4.583   1.374   7.464
 9691SOL    HW129417   4.537   1.389   7.552
 9691SOL    HW229418   4.627   1.459   7.434
 9692SOL     OW29419   4.807   0.984   7.535
 9692SOL    HW129420   4.784   1.037   7.453
 9692SOL    HW229421   4.888   0.928   7.516
 9693SOL     OW29422   5.076   0.052   7.616
 9693SOL    HW129423   5.111   0.011   7.532
 9693SOL    HW229424   4.986   0.014   7.636
 9694SOL     OW29425   3.763   1.077   7.748
 9694SOL    HW129426   3.862   1.066   7.739
 9694SOL    HW229427   3.723   0.991   7.780
 9695SOL     OW29428   3.949   2.137   0.996
 9695SOL    HW129429   3.984   2.120   1.088
 9695SOL    HW229430   3.861   2.092   0.984
 9696SOL     OW29431   3.743   2.230   0.647
 9696SOL    HW129432   3.661   2.273   0.686
 9696SOL    HW229433   3.715   2.157   0.584
 9697SOL     OW29434   4.293   3.137   1.165
 9697SOL    HW129435   4.200   3.130   1.128
 9697SOL    HW229436   4.304   3.226   1.209
 9698SOL     OW29437   5.279   3.373   0.703
 9698SOL    HW129438   5.222   3.357   0.784
 9698SOL    HW229439   5.220   3.383   0.623
 9699SOL     OW29440   4.859   2.565   0.717
 9699SOL    HW129441   4.916   2.643   0.692
 9699SOL    HW229442   4.799   2.591   0.793
 9700SOL     OW29443   5.479   2.469   0.231
 9700SOL    HW129444   5.467   2.456   0.132
 9700SOL    HW229445   5.449   2.388   0.280
 9701SOL     OW29446   4.492   3.006   1.023
 9701SOL    HW129447   4.414   3.023   1.083
 9701SOL    HW229448   4.526   3.093   0.987
 9702SOL     OW29449   4.574   2.660   1.823
 9702SOL    HW129450   4.570   2.736   1.888
 9702SOL    HW229451   4.596   2.696   1.732
 9703SOL     OW29452   4.409   2.874   0.665
 9703SOL    HW129453   4.478   2.858   0.735
 9703SOL    HW229454   4.336   2.931   0.703
 9704SOL     OW29455   4.410   3.023   1.803
 9704SOL    HW129456   4.470   3.102   1.817
 9704SOL    HW229457   4.324   3.054   1.762
 9705SOL     OW29458   4.059   3.297   1.061
 9705SOL    HW129459   3.981   3.266   1.008
 9705SOL    HW229460   4.117   3.355   1.004
 9706SOL     OW29461   5.184   3.367   1.339
 9706SOL    HW129462   5.208   3.461   1.365
 9706SOL    HW229463   5.168   3.313   1.421
 9707SOL     OW29464   4.162   2.254   1.499
 9707SOL    HW129465   4.244   2.198   1.508
 9707SOL    HW229466   4.081   2.196   1.503
 9708SOL     OW29467   5.327   2.309   0.737
 9708SOL    HW129468   5.253   2.355   0.687
 9708SOL    HW229469   5.378   2.377   0.790
 9709SOL     OW29470   3.955   3.575   0.483
 9709SOL    HW129471   3.989   3.652   0.537
 9709SOL    HW229472   3.999   3.575   0.393
 9710SOL     OW29473   4.851   3.203   1.690
 9710SOL    HW129474   4.898   3.203   1.778
 9710SOL    HW229475   4.803   3.116   1.679
 9711SOL     OW29476   3.954   3.296   0.538
 9711SOL    HW129477   3.928   3.392   0.538
 9711SOL    HW229478   3.883   3.242   0.583
 9712SOL     OW29479   3.964   2.953   0.886
 9712SOL    HW129480   3.978   2.869   0.938
 9712SOL    HW229481   3.909   3.017   0.941
 9713SOL     OW29482   4.344   3.648   1.439
 9713SOL    HW129483   4.252   3.631   1.474
 9713SOL    HW229484   4.372   3.740   1.465
 9714SOL     OW29485   5.318   1.976   1.480
 9714SOL    HW129486   5.300   2.043   1.408
 9714SOL    HW229487   5.315   2.022   1.569
 9715SOL     OW29488   3.846   2.505   0.563
 9715SOL    HW129489   3.801   2.417   0.580
 9715SOL    HW229490   3.845   2.559   0.647
 9716SOL     OW29491   5.566   3.629   0.359
 9716SOL    HW129492   5.620   3.600   0.439
 9716SOL    HW229493   5.596   3.719   0.330
 9717SOL     OW29494   5.413   2.784   0.612
 9717SOL    HW129495   5.508   2.755   0.620
 9717SOL    HW229496   5.405   2.849   0.537
 9718SOL     OW29497   3.837   2.599   1.597
 9718SOL    HW129498   3.925   2.586   1.642
 9718SOL    HW229499   3.824   2.696   1.575
 9719SOL     OW29500   4.337   3.227   0.726
 9719SOL    HW129501   4.288   3.140   0.735
 9719SOL    HW229502   4.314   3.270   0.639
 9720SOL     OW29503   5.017   3.090   1.423
 9720SOL    HW129504   5.054   3.017   1.365
 9720SOL    HW229505   5.069   3.095   1.508
 9721SOL     OW29506   4.533   1.866   0.502
 9721SOL    HW129507   4.573   1.957   0.493
 9721SOL    HW229508   4.433   1.874   0.508
 9722SOL     OW29509   3.921   2.838   1.264
 9722SOL    HW129510   4.010   2.793   1.250
 9722SOL    HW229511   3.848   2.773   1.245
 9723SOL     OW29512   4.911   3.654   1.616
 9723SOL    HW129513   4.935   3.714   1.540
 9723SOL    HW229514   4.918   3.559   1.586
 9724SOL     OW29515   4.041   2.113   1.801
 9724SOL    HW129516   4.112   2.184   1.807
 9724SOL    HW229517   3.953   2.152   1.829
 9725SOL     OW29518   5.190   3.279   0.953
 9725SOL    HW129519   5.131   3.285   1.033
 9725SOL    HW229520   5.175   3.191   0.907
 9726SOL     OW29521   5.391   3.576   0.572
 9726SOL    HW129522   5.350   3.553   0.484
 9726SOL    HW229523   5.373   3.502   0.637
 9727SOL     OW29524   5.005   2.207   0.944
 9727SOL    HW129525   4.919   2.157   0.931
 9727SOL    HW229526   5.067   2.153   1.000
 9728SOL     OW29527   4.531   2.467   1.465
 9728SOL    HW129528   4.484   2.464   1.554
 9728SOL    HW229529   4.480   2.412   1.399
 9729SOL     OW29530   5.118   2.331   1.674
 9729SOL    HW129531   5.098   2.374   1.762
 9729SOL    HW229532   5.196   2.269   1.683
 9730SOL     OW29533   4.697   2.752   1.572
 9730SOL    HW129534   4.743   2.668   1.543
 9730SOL    HW229535   4.641   2.786   1.497
 9731SOL     OW29536   4.715   2.272   1.242
 9731SOL    HW129537   4.638   2.306   1.296
 9731SOL    HW229538   4.681   2.221   1.163
 9732SOL     OW29539   4.765   2.563   0.429
 9732SOL    HW129540   4.791   2.559   0.525
 9732SOL    HW229541   4.680   2.512   0.415
 9733SOL     OW29542   3.800   2.673   0.789
 9733SOL    HW129543   3.899   2.661   0.798
 9733SOL    HW229544   3.776   2.768   0.810
 9734SOL     OW29545   3.854   3.683   1.571
 9734SOL    HW129546   3.844   3.668   1.670
 9734SOL    HW229547   3.768   3.719   1.535
 9735SOL     OW29548   5.443   2.447   1.831
 9735SOL    HW129549   5.417   2.536   1.795
 9735SOL    HW229550   5.441   2.379   1.758
 9736SOL     OW29551   5.086   3.006   0.545
 9736SOL    HW129552   5.169   2.977   0.497
 9736SOL    HW229553   5.037   3.073   0.489
 9737SOL     OW29554   4.274   2.058   0.885
 9737SOL    HW129555   4.269   2.053   0.985
 9737SOL    HW229556   4.276   2.154   0.856
 9738SOL     OW29557   4.732   3.318   0.477
 9738SOL    HW129558   4.686   3.390   0.425
 9738SOL    HW229559   4.728   3.338   0.575
 9739SOL     OW29560   4.075   3.663   0.853
 9739SOL    HW129561   4.125   3.577   0.859
 9739SOL    HW229562   4.140   3.740   0.850
 9740SOL     OW29563   5.519   2.928   0.873
 9740SOL    HW129564   5.457   2.913   0.797
 9740SOL    HW229565   5.467   2.939   0.958
 9741SOL     OW29566   4.951   3.412   1.506
 9741SOL    HW129567   4.957   3.335   1.570
 9741SOL    HW229568   4.899   3.386   1.426
 9742SOL     OW29569   5.182   2.597   0.728
 9742SOL    HW129570   5.177   2.532   0.803
 9742SOL    HW229571   5.262   2.656   0.741
 9743SOL     OW29572   4.185   3.128   1.727
 9743SOL    HW129573   4.135   3.129   1.641
 9743SOL    HW229574   4.122   3.110   1.803
 9744SOL     OW29575   3.926   2.147   1.498
 9744SOL    HW129576   3.846   2.207   1.485
 9744SOL    HW229577   3.916   2.098   1.584
 9745SOL     OW29578   5.124   1.969   0.426
 9745SOL    HW129579   5.100   1.932   0.336
 9745SOL    HW229580   5.223   1.985   0.430
 9746SOL     OW29581   3.973   3.647   1.241
 9746SOL    HW129582   4.030   3.582   1.291
 9746SOL    HW229583   3.957   3.614   1.148
 9747SOL     OW29584   4.664   3.560   0.904
 9747SOL    HW129585   4.744   3.503   0.925
 9747SOL    HW229586   4.615   3.520   0.827
 9748SOL     OW29587   4.106   2.562   0.480
 9748SOL    HW129588   4.151   2.472   0.477
 9748SOL    HW229589   4.012   2.551   0.513
 9749SOL     OW29590   5.271   2.084   1.729
 9749SOL    HW129591   5.266   2.121   1.821
 9749SOL    HW229592   5.199   2.015   1.717
 9750SOL     OW29593   4.505   2.126   1.749
 9750SOL    HW129594   4.572   2.065   1.792
 9750SOL    HW229595   4.432   2.145   1.814
 9751SOL     OW29596   4.612   3.376   1.195
 9751SOL    HW129597   4.589   3.351   1.101
 9751SOL    HW229598   4.673   3.307   1.234
 9752SOL     OW29599   5.075   2.452   1.433
 9752SOL    HW129600   5.103   2.409   1.518
 9752SOL    HW229601   5.100   2.548   1.434
 9753SOL     OW29602   4.527   3.264   0.924
 9753SOL    HW129603   4.617   3.278   0.882
 9753SOL    HW229604   4.456   3.266   0.853
 9754SOL     OW29605   4.646   2.365   0.899
 9754SOL    HW129606   4.621   2.356   0.803
 9754SOL    HW229607   4.694   2.283   0.930
 9755SOL     OW29608   4.263   1.926   0.512
 9755SOL    HW129609   4.182   1.927   0.570
 9755SOL    HW229610   4.266   2.009   0.457
 9756SOL     OW29611   4.659   2.098   0.480
 9756SOL    HW129612   4.611   2.139   0.402
 9756SOL    HW229613   4.758   2.096   0.461
 9757SOL     OW29614   4.800   2.545   1.464
 9757SOL    HW129615   4.720   2.484   1.467
 9757SOL    HW229616   4.881   2.492   1.440
 9758SOL     OW29617   4.951   3.432   0.793
 9758SOL    HW129618   4.972   3.506   0.728
 9758SOL    HW229619   5.019   3.432   0.866
 9759SOL     OW29620   4.183   3.014   0.741
 9759SOL    HW129621   4.112   2.987   0.806
 9759SOL    HW229622   4.157   2.986   0.648
 9760SOL     OW29623   4.995   3.659   0.591
 9760SOL    HW129624   5.039   3.723   0.527
 9760SOL    HW229625   4.945   3.711   0.661
 9761SOL     OW29626   4.756   2.411   0.016
 9761SOL    HW129627   4.715   2.493  -0.023
 9761SOL    HW229628   4.820   2.437   0.089
 9762SOL     OW29629   3.802   2.418   1.386
 9762SOL    HW129630   3.894   2.417   1.345
 9762SOL    HW229631   3.796   2.492   1.453
 9763SOL     OW29632   4.285   2.084   1.147
 9763SOL    HW129633   4.323   2.000   1.184
 9763SOL    HW229634   4.197   2.103   1.191
 9764SOL     OW29635   4.590   2.316   0.642
 9764SOL    HW129636   4.558   2.388   0.580
 9764SOL    HW229637   4.614   2.235   0.589
 9765SOL     OW29638   4.741   1.901   0.753
 9765SOL    HW129639   4.669   1.906   0.684
 9765SOL    HW229640   4.717   1.832   0.822
 9766SOL     OW29641   5.153   3.035   0.867
 9766SOL    HW129642   5.098   2.951   0.860
 9766SOL    HW229643   5.179   3.064   0.775
 9767SOL     OW29644   5.190   2.452   0.992
 9767SOL    HW129645   5.160   2.357   0.999
 9767SOL    HW229646   5.263   2.468   1.058
 9768SOL     OW29647   5.388   3.142   0.657
 9768SOL    HW129648   5.487   3.150   0.671
 9768SOL    HW229649   5.343   3.226   0.688
 9769SOL     OW29650   4.251   2.118   0.328
 9769SOL    HW129651   4.278   2.059   0.253
 9769SOL    HW229652   4.251   2.213   0.297
 9770SOL     OW29653   5.478   3.085   1.588
 9770SOL    HW129654   5.569   3.046   1.575
 9770SOL    HW229655   5.486   3.181   1.612
 9771SOL     OW29656   4.788   3.209   1.340
 9771SOL    HW129657   4.708   3.186   1.395
 9771SOL    HW229658   4.871   3.183   1.389
 9772SOL     OW29659   5.316   3.491   1.625
 9772SOL    HW129660   5.343   3.525   1.535
 9772SOL    HW229661   5.395   3.453   1.671
 9773SOL     OW29662   4.835   3.057   1.100
 9773SOL    HW129663   4.795   3.101   1.181
 9773SOL    HW229664   4.794   3.094   1.017
 9774SOL     OW29665   5.362   2.961   1.079
 9774SOL    HW129666   5.367   3.042   1.138
 9774SOL    HW229667   5.276   2.963   1.028
 9775SOL     OW29668   4.639   1.951   1.402
 9775SOL    HW129669   4.664   1.931   1.307
 9775SOL    HW229670   4.711   2.007   1.444
 9776SOL     OW29671   4.704   2.978   1.719
 9776SOL    HW129672   4.605   2.984   1.729
 9776SOL    HW229673   4.727   2.898   1.663
 9777SOL     OW29674   4.134   2.675   1.251
 9777SOL    HW129675   4.220   2.687   1.301
 9777SOL    HW229676   4.092   2.588   1.278
 9778SOL     OW29677   4.998   2.248   1.262
 9778SOL    HW129678   5.019   2.322   1.326
 9778SOL    HW229679   4.909   2.265   1.219
 9779SOL     OW29680   3.788   3.426   1.331
 9779SOL    HW129681   3.742   3.508   1.297
 9779SOL    HW229682   3.886   3.445   1.340
 9780SOL     OW29683   4.091   2.962   0.501
 9780SOL    HW129684   4.084   3.045   0.445
 9780SOL    HW229685   4.095   2.882   0.441
 9781SOL     OW29686   4.290   2.399   0.865
 9781SOL    HW129687   4.302   2.465   0.791
 9781SOL    HW229688   4.336   2.433   0.948
 9782SOL     OW29689   4.976   3.210   0.388
 9782SOL    HW129690   5.026   3.287   0.428
 9782SOL    HW229691   4.881   3.212   0.420
 9783SOL     OW29692   4.996   3.307   1.142
 9783SOL    HW129693   5.043   3.320   1.229
 9783SOL    HW229694   4.930   3.233   1.151
 9784SOL     OW29695   5.306   2.501   0.472
 9784SOL    HW129696   5.275   2.562   0.545
 9784SOL    HW229697   5.356   2.553   0.403
 9785SOL     OW29698   4.078   3.372   1.329
 9785SOL    HW129699   4.057   3.328   1.242
 9785SOL    HW229700   4.175   3.398   1.332
 9786SOL     OW29701   4.126   2.613   1.598
 9786SOL    HW129702   4.194   2.668   1.551
 9786SOL    HW229703   4.166   2.525   1.625
 9787SOL     OW29704   5.311   2.641   1.670
 9787SOL    HW129705   5.219   2.679   1.665
 9787SOL    HW229706   5.371   2.688   1.605
 9788SOL     OW29707   4.737   1.967   1.770
 9788SOL    HW129708   4.743   2.052   1.718
 9788SOL    HW229709   4.769   1.891   1.713
 9789SOL     OW29710   4.228   1.912   1.740
 9789SOL    HW129711   4.186   1.855   1.670
 9789SOL    HW229712   4.162   1.981   1.772
 9790SOL     OW29713   4.297   2.732   1.029
 9790SOL    HW129714   4.341   2.821   1.020
 9790SOL    HW229715   4.234   2.732   1.106
 9791SOL     OW29716   5.084   2.724   1.045
 9791SOL    HW129717   5.009   2.724   0.979
 9791SOL    HW229718   5.121   2.632   1.054
 9792SOL     OW29719   4.933   2.387   0.275
 9792SOL    HW129720   4.946   2.303   0.329
 9792SOL    HW229721   4.904   2.461   0.335
 9793SOL     OW29722   4.031   2.075   1.231
 9793SOL    HW129723   4.008   2.112   1.321
 9793SOL    HW229724   4.001   1.980   1.225
 9794SOL     OW29725   3.761   3.172   1.282
 9794SOL    HW129726   3.814   3.123   1.350
 9794SOL    HW229727   3.783   3.270   1.287
 9795SOL     OW29728   4.456   2.496   1.064
 9795SOL    HW129729   4.515   2.470   0.988
 9795SOL    HW229730   4.428   2.592   1.053
 9796SOL     OW29731   5.452   2.797   1.854
 9796SOL    HW129732   5.406   2.790   1.765
 9796SOL    HW229733   5.390   2.841   1.920
 9797SOL     OW29734   4.031   1.925   0.618
 9797SOL    HW129735   4.020   2.019   0.651
 9797SOL    HW229736   4.026   1.862   0.695
 9798SOL     OW29737   4.747   2.628   0.966
 9798SOL    HW129738   4.762   2.649   1.062
 9798SOL    HW229739   4.717   2.533   0.957
 9799SOL     OW29740   4.704   3.435   1.700
 9799SOL    HW129741   4.684   3.479   1.612
 9799SOL    HW229742   4.743   3.344   1.684
 9800SOL     OW29743   5.583   3.380   1.605
 9800SOL    HW129744   5.597   3.407   1.510
 9800SOL    HW229745   5.666   3.402   1.658
 9801SOL     OW29746   4.074   2.760   1.804
 9801SOL    HW129747   4.150   2.804   1.852
 9801SOL    HW229748   4.109   2.713   1.722
 9802SOL     OW29749   4.792   3.195   0.849
 9802SOL    HW129750   4.799   3.111   0.794
 9802SOL    HW229751   4.854   3.264   0.813
 9803SOL     OW29752   4.043   2.672   0.949
 9803SOL    HW129753   4.136   2.708   0.954
 9803SOL    HW229754   4.037   2.587   1.001
 9804SOL     OW29755   4.063   2.371   1.006
 9804SOL    HW129756   4.011   2.288   0.989
 9804SOL    HW229757   4.140   2.376   0.942
 9805SOL     OW29758   4.862   2.242   1.678
 9805SOL    HW129759   4.817   2.305   1.742
 9805SOL    HW229760   4.955   2.273   1.661
 9806SOL     OW29761   4.884   2.069   1.477
 9806SOL    HW129762   4.884   2.133   1.554
 9806SOL    HW229763   4.912   2.117   1.394
 9807SOL     OW29764   3.812   3.663   0.927
 9807SOL    HW129765   3.770   3.577   0.900
 9807SOL    HW229766   3.906   3.666   0.893
 9808SOL     OW29767   4.228   3.430   0.910
 9808SOL    HW129768   4.294   3.504   0.919
 9808SOL    HW229769   4.272   3.351   0.868
 9809SOL     OW29770   4.726   2.658   1.238
 9809SOL    HW129771   4.767   2.626   1.324
 9809SOL    HW229772   4.630   2.631   1.235
 9810SOL     OW29773   3.764   2.406   1.114
 9810SOL    HW129774   3.849   2.373   1.073
 9810SOL    HW229775   3.777   2.421   1.212
 9811SOL     OW29776   3.913   2.382   1.722
 9811SOL    HW129777   3.972   2.342   1.652
 9811SOL    HW229778   3.855   2.453   1.681
 9812SOL     OW29779   5.093   2.812   1.660
 9812SOL    HW129780   5.132   2.901   1.680
 9812SOL    HW229781   5.103   2.792   1.563
 9813SOL     OW29782   5.381   2.466   1.206
 9813SOL    HW129783   5.343   2.397   1.268
 9813SOL    HW229784   5.463   2.430   1.162
 9814SOL     OW29785   3.976   3.426   1.744
 9814SOL    HW129786   3.946   3.483   1.820
 9814SOL    HW229787   3.969   3.329   1.770
 9815SOL     OW29788   4.395   2.326   1.269
 9815SOL    HW129789   4.361   2.237   1.239
 9815SOL    HW229790   4.421   2.380   1.189
 9816SOL     OW29791   4.654   3.540   1.465
 9816SOL    HW129792   4.630   3.522   1.370
 9816SOL    HW229793   4.684   3.634   1.475
 9817SOL     OW29794   3.883   2.999   1.466
 9817SOL    HW129795   3.905   2.938   1.542
 9817SOL    HW229796   3.893   2.950   1.380
 9818SOL     OW29797   5.071   2.921   1.234
 9818SOL    HW129798   5.095   2.858   1.160
 9818SOL    HW229799   4.981   2.961   1.216
 9819SOL     OW29800   5.026   2.717   0.309
 9819SOL    HW129801   4.940   2.686   0.351
 9819SOL    HW229802   5.022   2.703   0.210
 9820SOL     OW29803   5.483   3.609   1.154
 9820SOL    HW129804   5.544   3.639   1.081
 9820SOL    HW229805   5.445   3.520   1.132
 9821SOL     OW29806   4.976   3.593   1.128
 9821SOL    HW129807   5.060   3.598   1.074
 9821SOL    HW229808   4.953   3.497   1.146
 9822SOL     OW29809   3.807   3.120   1.022
 9822SOL    HW129810   3.802   3.119   1.122
 9822SOL    HW229811   3.724   3.079   0.984
 9823SOL     OW29812   4.412   3.524   1.716
 9823SOL    HW129813   4.356   3.605   1.725
 9823SOL    HW229814   4.464   3.528   1.630
 9824SOL     OW29815   5.450   1.997   0.523
 9824SOL    HW129816   5.523   1.980   0.456
 9824SOL    HW229817   5.419   1.910   0.561
 9825SOL     OW29818   5.112   3.435   0.477
 9825SOL    HW129819   5.179   3.447   0.403
 9825SOL    HW229820   5.072   3.524   0.500
 9826SOL     OW29821   3.854   3.656   1.851
 9826SOL    HW129822   3.813   3.582   1.904
 9826SOL    HW229823   3.918   3.707   1.909
 9827SOL     OW29824   5.004   2.789   0.672
 9827SOL    HW129825   5.064   2.708   0.674
 9827SOL    HW229826   5.044   2.858   0.612
 9828SOL     OW29827   4.554   3.135   1.422
 9828SOL    HW129828   4.549   3.168   1.517
 9828SOL    HW229829   4.468   3.154   1.376
 9829SOL     OW29830   5.374   3.582   1.394
 9829SOL    HW129831   5.427   3.592   1.310
 9829SOL    HW229832   5.347   3.672   1.428
 9830SOL     OW29833   5.565   2.037   0.963
 9830SOL    HW129834   5.604   1.952   0.927
 9830SOL    HW229835   5.467   2.039   0.944
 9831SOL     OW29836   3.987   2.188   0.720
 9831SOL    HW129837   3.908   2.239   0.686
 9831SOL    HW229838   3.978   2.173   0.818
 9832SOL     OW29839   4.546   2.864   1.372
 9832SOL    HW129840   4.586   2.863   1.280
 9832SOL    HW229841   4.556   2.956   1.412
 9833SOL     OW29842   4.096   3.150   1.490
 9833SOL    HW129843   4.083   3.243   1.456
 9833SOL    HW229844   4.012   3.098   1.477
 9834SOL     OW29845   5.338   3.154   1.289
 9834SOL    HW129846   5.398   3.157   1.369
 9834SOL    HW229847   5.263   3.218   1.302
 9835SOL     OW29848   4.763   2.960   0.696
 9835SOL    HW129849   4.693   2.913   0.750
 9835SOL    HW229850   4.822   2.892   0.653
 9836SOL     OW29851   4.738   2.098   0.971
 9836SOL    HW129852   4.730   2.062   0.878
 9836SOL    HW229853   4.736   2.022   1.036
 9837SOL     OW29854   4.314   3.349   0.491
 9837SOL    HW129855   4.356   3.291   0.421
 9837SOL    HW229856   4.270   3.428   0.447
 9838SOL     OW29857   5.433   2.247   1.381
 9838SOL    HW129858   5.506   2.316   1.385
 9838SOL    HW229859   5.461   2.172   1.322
 9839SOL     OW29860   3.829   2.875   1.726
 9839SOL    HW129861   3.752   2.842   1.780
 9839SOL    HW229862   3.914   2.845   1.768
 9840SOL     OW29863   4.396   2.065   1.489
 9840SOL    HW129864   4.486   2.049   1.449
 9840SOL    HW229865   4.404   2.070   1.588
 9841SOL     OW29866   5.164   2.718   1.398
 9841SOL    HW129867   5.107   2.770   1.335
 9841SOL    HW229868   5.260   2.730   1.374
 9842SOL     OW29869   4.337   2.704   1.431
 9842SOL    HW129870   4.393   2.785   1.414
 9842SOL    HW229871   4.396   2.624   1.434
 9843SOL     OW29872   5.217   3.629   0.959
 9843SOL    HW129873   5.250   3.693   0.890
 9843SOL    HW229874   5.283   3.623   1.034
 9844SOL     OW29875   4.440   2.427   1.708
 9844SOL    HW129876   4.459   2.492   1.782
 9844SOL    HW229877   4.500   2.347   1.717
 9845SOL     OW29878   5.174   3.082   1.633
 9845SOL    HW129879   5.165   3.072   1.732
 9845SOL    HW229880   5.270   3.075   1.607
 9846SOL     OW29881   4.114   3.603   1.560
 9846SOL    HW129882   4.023   3.644   1.558
 9846SOL    HW229883   4.107   3.509   1.592
 9847SOL     OW29884   5.398   2.745   1.254
 9847SOL    HW129885   5.371   2.656   1.217
 9847SOL    HW229886   5.399   2.813   1.181
 9848SOL     OW29887   4.949   2.187   0.449
 9848SOL    HW129888   5.014   2.113   0.438
 9848SOL    HW229889   4.969   2.237   0.533
 9849SOL     OW29890   4.318   2.607   0.652
 9849SOL    HW129891   4.368   2.692   0.633
 9849SOL    HW229892   4.230   2.609   0.604
 9850SOL     OW29893   5.501   2.204   1.642
 9850SOL    HW129894   5.484   2.235   1.548
 9850SOL    HW229895   5.417   2.167   1.680
 9851SOL     OW29896   5.454   2.796   1.517
 9851SOL    HW129897   5.492   2.887   1.532
 9851SOL    HW229898   5.446   2.779   1.418
 9852SOL     OW29899   4.385   3.652   0.953
 9852SOL    HW129900   4.339   3.740   0.940
 9852SOL    HW229901   4.484   3.664   0.946
 9853SOL     OW29902   4.583   2.818   0.861
 9853SOL    HW129903   4.637   2.749   0.909
 9853SOL    HW229904   4.551   2.887   0.927
 9854SOL     OW29905   5.585   3.431   0.851
 9854SOL    HW129906   5.514   3.419   0.781
 9854SOL    HW229907   5.586   3.352   0.911
 9855SOL     OW29908   3.945   3.176   1.844
 9855SOL    HW129909   3.880   3.103   1.823
 9855SOL    HW229910   3.949   3.190   1.942
 9856SOL     OW29911   3.803   3.102   0.653
 9856SOL    HW129912   3.802   3.055   0.741
 9856SOL    HW229913   3.885   3.074   0.602
 9857SOL     OW29914   4.396   3.253   1.624
 9857SOL    HW129915   4.318   3.203   1.662
 9857SOL    HW229916   4.393   3.348   1.655
 9858SOL     OW29917   5.548   2.054   1.227
 9858SOL    HW129918   5.544   1.964   1.271
 9858SOL    HW229919   5.551   2.043   1.128
 9859SOL     OW29920   4.152   2.286   0.520
 9859SOL    HW129921   4.182   2.214   0.458
 9859SOL    HW229922   4.113   2.246   0.603
 9860SOL     OW29923   5.429   3.349   1.104
 9860SOL    HW129924   5.336   3.324   1.077
 9860SOL    HW229925   5.455   3.299   1.186
 9861SOL     OW29926   4.041   2.409   1.280
 9861SOL    HW129927   4.079   2.350   1.352
 9861SOL    HW229928   4.081   2.383   1.192
 9862SOL     OW29929   4.536   3.448   0.687
 9862SOL    HW129930   4.568   3.458   0.593
 9862SOL    HW229931   4.457   3.386   0.689
 9863SOL     OW29932   5.148   2.076   1.112
 9863SOL    HW129933   5.200   2.011   1.167
 9863SOL    HW229934   5.099   2.139   1.173
 9864SOL     OW29935   4.725   1.896   1.154
 9864SOL    HW129936   4.662   1.824   1.123
 9864SOL    HW229937   4.818   1.860   1.154
 9865SOL     OW29938   4.342   3.429   1.284
 9865SOL    HW129939   4.337   3.511   1.341
 9865SOL    HW229940   4.431   3.426   1.239
 9866SOL     OW29941   5.024   2.315   0.691
 9866SOL    HW129942   4.965   2.395   0.695
 9866SOL    HW229943   5.039   2.280   0.784
 9867SOL     OW29944   5.317   2.083   0.882
 9867SOL    HW129945   5.233   2.082   0.936
 9867SOL    HW229946   5.319   2.166   0.826
 9868SOL     OW29947   4.599   3.508   0.337
 9868SOL    HW129948   4.522   3.473   0.283
 9868SOL    HW229949   4.567   3.579   0.399
 9869SOL     OW29950   3.954   2.490   1.975
 9869SOL    HW129951   3.861   2.488   2.012
 9869SOL    HW229952   3.955   2.451   1.883
 9870SOL     OW29953   3.949   2.137   2.858
 9870SOL    HW129954   3.984   2.120   2.950
 9870SOL    HW229955   3.861   2.092   2.846
 9871SOL     OW29956   3.743   2.230   2.509
 9871SOL    HW129957   3.661   2.273   2.548
 9871SOL    HW229958   3.715   2.157   2.446
 9872SOL     OW29959   4.293   3.137   3.027
 9872SOL    HW129960   4.200   3.130   2.990
 9872SOL    HW229961   4.304   3.226   3.071
 9873SOL     OW29962   5.279   3.373   2.565
 9873SOL    HW129963   5.222   3.357   2.646
 9873SOL    HW229964   5.220   3.383   2.485
 9874SOL     OW29965   4.859   2.565   2.579
 9874SOL    HW129966   4.916   2.643   2.554
 9874SOL    HW229967   4.799   2.591   2.655
 9875SOL     OW29968   5.479   2.469   2.093
 9875SOL    HW129969   5.467   2.456   1.994
 9875SOL    HW229970   5.449   2.388   2.142
 9876SOL     OW29971   4.492   3.006   2.885
 9876SOL    HW129972   4.414   3.023   2.945
 9876SOL    HW229973   4.526   3.093   2.849
 9877SOL     OW29974   4.574   2.660   3.685
 9877SOL    HW129975   4.570   2.736   3.750
 9877SOL    HW229976   4.596   2.696   3.594
 9878SOL     OW29977   4.409   2.874   2.527
 9878SOL    HW129978   4.478   2.858   2.597
 9878SOL    HW229979   4.336   2.931   2.565
 9879SOL     OW29980   4.410   3.023   3.665
 9879SOL    HW129981   4.470   3.102   3.679
 9879SOL    HW229982   4.324   3.054   3.624
 9880SOL     OW29983   4.059   3.297   2.923
 9880SOL    HW129984   3.981   3.266   2.870
 9880SOL    HW229985   4.117   3.355   2.866
 9881SOL     OW29986   5.184   3.367   3.201
 9881SOL    HW129987   5.208   3.461   3.227
 9881SOL    HW229988   5.168   3.313   3.283
 9882SOL     OW29989   4.162   2.254   3.361
 9882SOL    HW129990   4.244   2.198   3.370
 9882SOL    HW229991   4.081   2.196   3.365
 9883SOL     OW29992   5.327   2.309   2.599
 9883SOL    HW129993   5.253   2.355   2.549
 9883SOL    HW229994   5.378   2.377   2.652
 9884SOL     OW29995   3.955   3.575   2.345
 9884SOL    HW129996   3.989   3.652   2.399
 9884SOL    HW229997   3.999   3.575   2.255
 9885SOL     OW29998   4.851   3.203   3.552
 9885SOL    HW129999   4.898   3.203   3.640
 9885SOL    HW230000   4.803   3.116   3.541
 9886SOL     OW30001   3.954   3.296   2.400
 9886SOL    HW130002   3.928   3.392   2.400
 9886SOL    HW230003   3.883   3.242   2.445
 9887SOL     OW30004   3.964   2.953   2.748
 9887SOL    HW130005   3.978   2.869   2.800
 9887SOL    HW230006   3.909   3.017   2.803
 9888SOL     OW30007   4.344   3.648   3.301
 9888SOL    HW130008   4.252   3.631   3.336
 9888SOL    HW230009   4.372   3.740   3.327
 9889SOL     OW30010   4.330   2.826   1.985
 9889SOL    HW130011   4.337   2.910   1.931
 9889SOL    HW230012   4.376   2.839   2.073
 9890SOL     OW30013   5.318   1.976   3.342
 9890SOL    HW130014   5.300   2.043   3.270
 9890SOL    HW230015   5.315   2.022   3.431
 9891SOL     OW30016   3.846   2.505   2.425
 9891SOL    HW130017   3.801   2.417   2.442
 9891SOL    HW230018   3.845   2.559   2.509
 9892SOL     OW30019   5.566   3.629   2.221
 9892SOL    HW130020   5.620   3.600   2.301
 9892SOL    HW230021   5.596   3.719   2.192
 9893SOL     OW30022   3.751   3.458   1.979
 9893SOL    HW130023   3.732   3.362   2.000
 9893SOL    HW230024   3.718   3.516   2.054
 9894SOL     OW30025   5.413   2.784   2.474
 9894SOL    HW130026   5.508   2.755   2.482
 9894SOL    HW230027   5.405   2.849   2.399
 9895SOL     OW30028   5.365   2.970   2.294
 9895SOL    HW130029   5.451   2.972   2.242
 9895SOL    HW230030   5.379   3.017   2.382
 9896SOL     OW30031   3.837   2.599   3.459
 9896SOL    HW130032   3.925   2.586   3.504
 9896SOL    HW230033   3.824   2.696   3.437
 9897SOL     OW30034   4.337   3.227   2.588
 9897SOL    HW130035   4.288   3.140   2.597
 9897SOL    HW230036   4.314   3.270   2.501
 9898SOL     OW30037   5.017   3.090   3.285
 9898SOL    HW130038   5.054   3.017   3.227
 9898SOL    HW230039   5.069   3.095   3.370
 9899SOL     OW30040   4.533   1.866   2.364
 9899SOL    HW130041   4.573   1.957   2.355
 9899SOL    HW230042   4.433   1.874   2.370
 9900SOL     OW30043   3.921   2.838   3.126
 9900SOL    HW130044   4.010   2.793   3.112
 9900SOL    HW230045   3.848   2.773   3.107
 9901SOL     OW30046   5.249   2.861   2.052
 9901SOL    HW130047   5.186   2.785   2.065
 9901SOL    HW230048   5.297   2.879   2.138
 9902SOL     OW30049   4.911   3.654   3.478
 9902SOL    HW130050   4.935   3.714   3.402
 9902SOL    HW230051   4.918   3.559   3.448
 9903SOL     OW30052   4.041   2.113   3.663
 9903SOL    HW130053   4.112   2.184   3.669
 9903SOL    HW230054   3.953   2.152   3.691
 9904SOL     OW30055   5.190   3.279   2.815
 9904SOL    HW130056   5.131   3.285   2.895
 9904SOL    HW230057   5.175   3.191   2.769
 9905SOL     OW30058   5.391   3.576   2.434
 9905SOL    HW130059   5.350   3.553   2.346
 9905SOL    HW230060   5.373   3.502   2.499
 9906SOL     OW30061   4.322   2.591   2.132
 9906SOL    HW130062   4.346   2.660   2.064
 9906SOL    HW230063   4.244   2.624   2.186
 9907SOL     OW30064   5.005   2.207   2.806
 9907SOL    HW130065   4.919   2.157   2.793
 9907SOL    HW230066   5.067   2.153   2.862
 9908SOL     OW30067   5.300   3.524   2.169
 9908SOL    HW130068   5.389   3.570   2.172
 9908SOL    HW230069   5.279   3.500   2.074
 9909SOL     OW30070   4.531   2.467   3.327
 9909SOL    HW130071   4.484   2.464   3.416
 9909SOL    HW230072   4.480   2.412   3.261
 9910SOL     OW30073   5.118   2.331   3.536
 9910SOL    HW130074   5.098   2.374   3.624
 9910SOL    HW230075   5.196   2.269   3.545
 9911SOL     OW30076   4.697   2.752   3.434
 9911SOL    HW130077   4.743   2.668   3.405
 9911SOL    HW230078   4.641   2.786   3.359
 9912SOL     OW30079   4.715   2.272   3.104
 9912SOL    HW130080   4.638   2.306   3.158
 9912SOL    HW230081   4.681   2.221   3.025
 9913SOL     OW30082   4.765   2.563   2.291
 9913SOL    HW130083   4.791   2.559   2.387
 9913SOL    HW230084   4.680   2.512   2.277
 9914SOL     OW30085   3.800   2.673   2.651
 9914SOL    HW130086   3.899   2.661   2.660
 9914SOL    HW230087   3.776   2.768   2.672
 9915SOL     OW30088   3.854   3.683   3.433
 9915SOL    HW130089   3.844   3.668   3.532
 9915SOL    HW230090   3.768   3.719   3.397
 9916SOL     OW30091   4.589   2.210   2.057
 9916SOL    HW130092   4.648   2.273   2.008
 9916SOL    HW230093   4.608   2.116   2.028
 9917SOL     OW30094   5.443   2.447   3.693
 9917SOL    HW130095   5.417   2.536   3.657
 9917SOL    HW230096   5.441   2.379   3.620
 9918SOL     OW30097   5.086   3.006   2.407
 9918SOL    HW130098   5.169   2.977   2.359
 9918SOL    HW230099   5.037   3.073   2.351
 9919SOL     OW30100   4.274   2.058   2.747
 9919SOL    HW130101   4.269   2.053   2.847
 9919SOL    HW230102   4.276   2.154   2.718
 9920SOL     OW30103   4.732   3.318   2.339
 9920SOL    HW130104   4.686   3.390   2.287
 9920SOL    HW230105   4.728   3.338   2.437
 9921SOL     OW30106   4.075   3.663   2.715
 9921SOL    HW130107   4.125   3.577   2.721
 9921SOL    HW230108   4.140   3.740   2.712
 9922SOL     OW30109   5.519   2.928   2.735
 9922SOL    HW130110   5.457   2.913   2.659
 9922SOL    HW230111   5.467   2.939   2.820
 9923SOL     OW30112   4.951   3.412   3.368
 9923SOL    HW130113   4.957   3.335   3.432
 9923SOL    HW230114   4.899   3.386   3.288
 9924SOL     OW30115   4.045   2.805   2.104
 9924SOL    HW130116   4.127   2.844   2.062
 9924SOL    HW230117   4.018   2.723   2.055
 9925SOL     OW30118   5.182   2.597   2.590
 9925SOL    HW130119   5.177   2.532   2.665
 9925SOL    HW230120   5.262   2.656   2.603
 9926SOL     OW30121   4.185   3.128   3.589
 9926SOL    HW130122   4.135   3.129   3.503
 9926SOL    HW230123   4.122   3.110   3.665
 9927SOL     OW30124   4.835   3.638   2.099
 9927SOL    HW130125   4.775   3.576   2.149
 9927SOL    HW230126   4.866   3.594   2.014
 9928SOL     OW30127   3.926   2.147   3.360
 9928SOL    HW130128   3.846   2.207   3.347
 9928SOL    HW230129   3.916   2.098   3.446
 9929SOL     OW30130   5.356   3.239   1.943
 9929SOL    HW130131   5.324   3.333   1.933
 9929SOL    HW230132   5.280   3.176   1.931
 9930SOL     OW30133   4.188   3.605   2.185
 9930SOL    HW130134   4.221   3.644   2.271
 9930SOL    HW230135   4.264   3.598   2.120
 9931SOL     OW30136   5.124   1.969   2.288
 9931SOL    HW130137   5.100   1.932   2.198
 9931SOL    HW230138   5.223   1.985   2.292
 9932SOL     OW30139   3.973   3.647   3.103
 9932SOL    HW130140   4.030   3.582   3.153
 9932SOL    HW230141   3.957   3.614   3.010
 9933SOL     OW30142   4.664   3.560   2.766
 9933SOL    HW130143   4.744   3.503   2.787
 9933SOL    HW230144   4.615   3.520   2.689
 9934SOL     OW30145   4.106   2.562   2.342
 9934SOL    HW130146   4.151   2.472   2.339
 9934SOL    HW230147   4.012   2.551   2.375
 9935SOL     OW30148   5.271   2.084   3.591
 9935SOL    HW130149   5.266   2.121   3.683
 9935SOL    HW230150   5.199   2.015   3.579
 9936SOL     OW30151   4.338   1.984   1.979
 9936SOL    HW130152   4.436   1.962   1.986
 9936SOL    HW230153   4.307   1.967   1.886
 9937SOL     OW30154   4.505   2.126   3.611
 9937SOL    HW130155   4.572   2.065   3.654
 9937SOL    HW230156   4.432   2.145   3.676
 9938SOL     OW30157   4.612   3.376   3.057
 9938SOL    HW130158   4.589   3.351   2.963
 9938SOL    HW230159   4.673   3.307   3.096
 9939SOL     OW30160   5.075   2.452   3.295
 9939SOL    HW130161   5.103   2.409   3.380
 9939SOL    HW230162   5.100   2.548   3.296
 9940SOL     OW30163   4.527   3.264   2.786
 9940SOL    HW130164   4.617   3.278   2.744
 9940SOL    HW230165   4.456   3.266   2.715
 9941SOL     OW30166   4.646   2.365   2.761
 9941SOL    HW130167   4.621   2.356   2.665
 9941SOL    HW230168   4.694   2.283   2.792
 9942SOL     OW30169   4.263   1.926   2.374
 9942SOL    HW130170   4.182   1.927   2.432
 9942SOL    HW230171   4.266   2.009   2.319
 9943SOL     OW30172   5.158   3.050   1.903
 9943SOL    HW130173   5.190   2.974   1.960
 9943SOL    HW230174   5.066   3.077   1.933
 9944SOL     OW30175   4.021   1.897   2.033
 9944SOL    HW130176   4.070   1.981   2.012
 9944SOL    HW230177   4.083   1.832   2.078
 9945SOL     OW30178   4.659   2.098   2.342
 9945SOL    HW130179   4.611   2.139   2.264
 9945SOL    HW230180   4.758   2.096   2.323
 9946SOL     OW30181   4.800   2.545   3.326
 9946SOL    HW130182   4.720   2.484   3.329
 9946SOL    HW230183   4.881   2.492   3.302
 9947SOL     OW30184   4.951   3.432   2.655
 9947SOL    HW130185   4.972   3.506   2.590
 9947SOL    HW230186   5.019   3.432   2.728
 9948SOL     OW30187   4.183   3.014   2.603
 9948SOL    HW130188   4.112   2.987   2.668
 9948SOL    HW230189   4.157   2.986   2.510
 9949SOL     OW30190   4.995   3.659   2.453
 9949SOL    HW130191   5.039   3.723   2.389
 9949SOL    HW230192   4.945   3.711   2.523
 9950SOL     OW30193   4.756   2.411   1.878
 9950SOL    HW130194   4.715   2.493   1.839
 9950SOL    HW230195   4.820   2.437   1.951
 9951SOL     OW30196   3.802   2.418   3.248
 9951SOL    HW130197   3.894   2.417   3.207
 9951SOL    HW230198   3.796   2.492   3.315
 9952SOL     OW30199   4.285   2.084   3.009
 9952SOL    HW130200   4.323   2.000   3.046
 9952SOL    HW230201   4.197   2.103   3.053
 9953SOL     OW30202   4.590   2.316   2.504
 9953SOL    HW130203   4.558   2.388   2.442
 9953SOL    HW230204   4.614   2.235   2.451
 9954SOL     OW30205   4.741   1.901   2.615
 9954SOL    HW130206   4.669   1.906   2.546
 9954SOL    HW230207   4.717   1.832   2.684
 9955SOL     OW30208   5.153   3.035   2.729
 9955SOL    HW130209   5.098   2.951   2.722
 9955SOL    HW230210   5.179   3.064   2.637
 9956SOL     OW30211   5.190   2.452   2.854
 9956SOL    HW130212   5.160   2.357   2.861
 9956SOL    HW230213   5.263   2.468   2.920
 9957SOL     OW30214   5.581   2.695   2.239
 9957SOL    HW130215   5.623   2.631   2.303
 9957SOL    HW230216   5.543   2.644   2.161
 9958SOL     OW30217   4.212   3.247   2.036
 9958SOL    HW130218   4.125   3.232   2.083
 9958SOL    HW230219   4.195   3.273   1.941
 9959SOL     OW30220   5.388   3.142   2.519
 9959SOL    HW130221   5.487   3.150   2.533
 9959SOL    HW230222   5.343   3.226   2.550
 9960SOL     OW30223   5.114   2.437   1.940
 9960SOL    HW130224   5.060   2.416   2.021
 9960SOL    HW230225   5.205   2.396   1.949
 9961SOL     OW30226   4.251   2.118   2.190
 9961SOL    HW130227   4.278   2.059   2.115
 9961SOL    HW230228   4.251   2.213   2.159
 9962SOL     OW30229   5.478   3.085   3.450
 9962SOL    HW130230   5.569   3.046   3.437
 9962SOL    HW230231   5.486   3.181   3.474
 9963SOL     OW30232   4.788   3.209   3.202
 9963SOL    HW130233   4.708   3.186   3.257
 9963SOL    HW230234   4.871   3.183   3.251
 9964SOL     OW30235   5.316   3.491   3.487
 9964SOL    HW130236   5.343   3.525   3.397
 9964SOL    HW230237   5.395   3.453   3.533
 9965SOL     OW30238   4.835   3.057   2.962
 9965SOL    HW130239   4.795   3.101   3.043
 9965SOL    HW230240   4.794   3.094   2.879
 9966SOL     OW30241   5.362   2.961   2.941
 9966SOL    HW130242   5.367   3.042   3.000
 9966SOL    HW230243   5.276   2.963   2.890
 9967SOL     OW30244   4.639   1.951   3.264
 9967SOL    HW130245   4.664   1.931   3.169
 9967SOL    HW230246   4.711   2.007   3.306
 9968SOL     OW30247   4.704   2.978   3.581
 9968SOL    HW130248   4.605   2.984   3.591
 9968SOL    HW230249   4.727   2.898   3.525
 9969SOL     OW30250   4.429   2.912   2.230
 9969SOL    HW130251   4.415   2.919   2.329
 9969SOL    HW230252   4.513   2.861   2.212
 9970SOL     OW30253   4.134   2.675   3.113
 9970SOL    HW130254   4.220   2.687   3.163
 9970SOL    HW230255   4.092   2.588   3.140
 9971SOL     OW30256   4.998   2.248   3.124
 9971SOL    HW130257   5.019   2.322   3.188
 9971SOL    HW230258   4.909   2.265   3.081
 9972SOL     OW30259   3.788   3.426   3.193
 9972SOL    HW130260   3.742   3.508   3.159
 9972SOL    HW230261   3.886   3.445   3.202
 9973SOL     OW30262   4.091   2.962   2.363
 9973SOL    HW130263   4.084   3.045   2.307
 9973SOL    HW230264   4.095   2.882   2.303
 9974SOL     OW30265   4.290   2.399   2.727
 9974SOL    HW130266   4.302   2.465   2.653
 9974SOL    HW230267   4.336   2.433   2.810
 9975SOL     OW30268   4.976   3.210   2.250
 9975SOL    HW130269   5.026   3.287   2.290
 9975SOL    HW230270   4.881   3.212   2.282
 9976SOL     OW30271   4.996   3.307   3.004
 9976SOL    HW130272   5.043   3.320   3.091
 9976SOL    HW230273   4.930   3.233   3.013
 9977SOL     OW30274   5.306   2.501   2.334
 9977SOL    HW130275   5.275   2.562   2.407
 9977SOL    HW230276   5.356   2.553   2.265
 9978SOL     OW30277   4.078   3.372   3.191
 9978SOL    HW130278   4.057   3.328   3.104
 9978SOL    HW230279   4.175   3.398   3.194
 9979SOL     OW30280   4.126   2.613   3.460
 9979SOL    HW130281   4.194   2.668   3.413
 9979SOL    HW230282   4.166   2.525   3.487
 9980SOL     OW30283   5.311   2.641   3.532
 9980SOL    HW130284   5.219   2.679   3.527
 9980SOL    HW230285   5.371   2.688   3.467
 9981SOL     OW30286   4.737   1.967   3.632
 9981SOL    HW130287   4.743   2.052   3.580
 9981SOL    HW230288   4.769   1.891   3.575
 9982SOL     OW30289   4.228   1.912   3.602
 9982SOL    HW130290   4.186   1.855   3.532
 9982SOL    HW230291   4.162   1.981   3.634
 9983SOL     OW30292   4.297   2.732   2.891
 9983SOL    HW130293   4.341   2.821   2.882
 9983SOL    HW230294   4.234   2.732   2.968
 9984SOL     OW30295   5.084   2.724   2.907
 9984SOL    HW130296   5.009   2.724   2.841
 9984SOL    HW230297   5.121   2.632   2.916
 9985SOL     OW30298   4.933   2.387   2.137
 9985SOL    HW130299   4.946   2.303   2.191
 9985SOL    HW230300   4.904   2.461   2.197
 9986SOL     OW30301   4.031   2.075   3.093
 9986SOL    HW130302   4.008   2.112   3.183
 9986SOL    HW230303   4.001   1.980   3.087
 9987SOL     OW30304   3.761   3.172   3.144
 9987SOL    HW130305   3.814   3.123   3.212
 9987SOL    HW230306   3.783   3.270   3.149
 9988SOL     OW30307   4.456   2.496   2.926
 9988SOL    HW130308   4.515   2.470   2.850
 9988SOL    HW230309   4.428   2.592   2.915
 9989SOL     OW30310   5.452   2.797   3.716
 9989SOL    HW130311   5.406   2.790   3.627
 9989SOL    HW230312   5.390   2.841   3.782
 9990SOL     OW30313   4.031   1.925   2.480
 9990SOL    HW130314   4.020   2.019   2.513
 9990SOL    HW230315   4.026   1.862   2.557
 9991SOL     OW30316   5.346   2.229   2.236
 9991SOL    HW130317   5.348   2.153   2.300
 9991SOL    HW230318   5.298   2.306   2.276
 9992SOL     OW30319   4.747   2.628   2.828
 9992SOL    HW130320   4.762   2.649   2.924
 9992SOL    HW230321   4.717   2.533   2.819
 9993SOL     OW30322   4.704   3.435   3.562
 9993SOL    HW130323   4.684   3.479   3.474
 9993SOL    HW230324   4.743   3.344   3.546
 9994SOL     OW30325   5.583   3.380   3.467
 9994SOL    HW130326   5.597   3.407   3.372
 9994SOL    HW230327   5.666   3.402   3.520
 9995SOL     OW30328   4.074   2.760   3.666
 9995SOL    HW130329   4.150   2.804   3.714
 9995SOL    HW230330   4.109   2.713   3.584
 9996SOL     OW30331   5.264   2.136   1.987
 9996SOL    HW130332   5.203   2.061   2.010
 9996SOL    HW230333   5.286   2.188   2.070
 9997SOL     OW30334   5.027   2.700   1.904
 9997SOL    HW130335   5.061   2.607   1.919
 9997SOL    HW230336   5.045   2.727   1.809
 9998SOL     OW30337   4.792   3.195   2.711
 9998SOL    HW130338   4.799   3.111   2.656
 9998SOL    HW230339   4.854   3.264   2.675
 9999SOL     OW30340   4.043   2.672   2.811
 9999SOL    HW130341   4.136   2.708   2.816
 9999SOL    HW230342   4.037   2.587   2.863
10000SOL     OW30343   4.063   2.371   2.868
10000SOL    HW130344   4.011   2.288   2.851
10000SOL    HW230345   4.140   2.376   2.804
10001SOL     OW30346   4.862   2.242   3.540
10001SOL    HW130347   4.817   2.305   3.604
10001SOL    HW230348   4.955   2.273   3.523
10002SOL     OW30349   4.884   2.069   3.339
10002SOL    HW130350   4.884   2.133   3.416
10002SOL    HW230351   4.912   2.117   3.256
10003SOL     OW30352   3.732   3.188   2.062
10003SOL    HW130353   3.639   3.209   2.031
10003SOL    HW230354   3.742   3.089   2.075
10004SOL     OW30355   3.812   3.663   2.789
10004SOL    HW130356   3.770   3.577   2.762
10004SOL    HW230357   3.906   3.666   2.755
10005SOL     OW30358   4.228   3.430   2.772
10005SOL    HW130359   4.294   3.504   2.781
10005SOL    HW230360   4.272   3.351   2.730
10006SOL     OW30361   4.726   2.658   3.100
10006SOL    HW130362   4.767   2.626   3.186
10006SOL    HW230363   4.630   2.631   3.097
10007SOL     OW30364   3.764   2.406   2.976
10007SOL    HW130365   3.849   2.373   2.935
10007SOL    HW230366   3.777   2.421   3.074
10008SOL     OW30367   3.913   2.382   3.584
10008SOL    HW130368   3.972   2.342   3.514
10008SOL    HW230369   3.855   2.453   3.543
10009SOL     OW30370   5.093   2.812   3.522
10009SOL    HW130371   5.132   2.901   3.542
10009SOL    HW230372   5.103   2.792   3.425
10010SOL     OW30373   4.539   2.434   2.187
10010SOL    HW130374   4.546   2.345   2.141
10010SOL    HW230375   4.445   2.468   2.179
10011SOL     OW30376   5.381   2.466   3.068
10011SOL    HW130377   5.343   2.397   3.130
10011SOL    HW230378   5.463   2.430   3.024
10012SOL     OW30379   3.976   3.426   3.606
10012SOL    HW130380   3.946   3.483   3.682
10012SOL    HW230381   3.969   3.329   3.632
10013SOL     OW30382   4.395   2.326   3.131
10013SOL    HW130383   4.361   2.237   3.101
10013SOL    HW230384   4.421   2.380   3.051
10014SOL     OW30385   4.654   3.540   3.327
10014SOL    HW130386   4.630   3.522   3.232
10014SOL    HW230387   4.684   3.634   3.337
10015SOL     OW30388   4.197   2.362   2.053
10015SOL    HW130389   4.258   2.442   2.057
10015SOL    HW230390   4.102   2.393   2.060
10016SOL     OW30391   3.883   2.999   3.328
10016SOL    HW130392   3.905   2.938   3.404
10016SOL    HW230393   3.893   2.950   3.242
10017SOL     OW30394   5.071   2.921   3.096
10017SOL    HW130395   5.095   2.858   3.022
10017SOL    HW230396   4.981   2.961   3.078
10018SOL     OW30397   5.026   2.717   2.171
10018SOL    HW130398   4.940   2.686   2.213
10018SOL    HW230399   5.022   2.703   2.072
10019SOL     OW30400   5.483   3.609   3.016
10019SOL    HW130401   5.544   3.639   2.943
10019SOL    HW230402   5.445   3.520   2.994
10020SOL     OW30403   4.976   3.593   2.990
10020SOL    HW130404   5.060   3.598   2.936
10020SOL    HW230405   4.953   3.497   3.008
10021SOL     OW30406   3.807   3.120   2.884
10021SOL    HW130407   3.802   3.119   2.984
10021SOL    HW230408   3.724   3.079   2.846
10022SOL     OW30409   4.412   3.524   3.578
10022SOL    HW130410   4.356   3.605   3.587
10022SOL    HW230411   4.464   3.528   3.492
10023SOL     OW30412   5.450   1.997   2.385
10023SOL    HW130413   5.523   1.980   2.318
10023SOL    HW230414   5.419   1.910   2.423
10024SOL     OW30415   5.112   3.435   2.339
10024SOL    HW130416   5.179   3.447   2.265
10024SOL    HW230417   5.072   3.524   2.362
10025SOL     OW30418   3.854   3.656   3.713
10025SOL    HW130419   3.813   3.582   3.766
10025SOL    HW230420   3.918   3.707   3.771
10026SOL     OW30421   5.004   2.789   2.534
10026SOL    HW130422   5.064   2.708   2.536
10026SOL    HW230423   5.044   2.858   2.474
10027SOL     OW30424   4.554   3.135   3.284
10027SOL    HW130425   4.549   3.168   3.379
10027SOL    HW230426   4.468   3.154   3.238
10028SOL     OW30427   4.396   3.478   2.016
10028SOL    HW130428   4.405   3.488   1.917
10028SOL    HW230429   4.356   3.389   2.037
10029SOL     OW30430   5.374   3.582   3.256
10029SOL    HW130431   5.427   3.592   3.172
10029SOL    HW230432   5.347   3.672   3.290
10030SOL     OW30433   5.565   2.037   2.825
10030SOL    HW130434   5.604   1.952   2.789
10030SOL    HW230435   5.467   2.039   2.806
10031SOL     OW30436   3.987   2.188   2.582
10031SOL    HW130437   3.908   2.239   2.548
10031SOL    HW230438   3.978   2.173   2.680
10032SOL     OW30439   4.918   3.474   1.893
10032SOL    HW130440   4.924   3.381   1.930
10032SOL    HW230441   4.859   3.474   1.813
10033SOL     OW30442   4.546   2.864   3.234
10033SOL    HW130443   4.586   2.863   3.142
10033SOL    HW230444   4.556   2.956   3.274
10034SOL     OW30445   4.640   2.772   2.153
10034SOL    HW130446   4.703   2.810   2.085
10034SOL    HW230447   4.680   2.689   2.192
10035SOL     OW30448   5.228   3.469   1.906
10035SOL    HW130449   5.136   3.506   1.913
10035SOL    HW230450   5.266   3.489   1.816
10036SOL     OW30451   4.096   3.150   3.352
10036SOL    HW130452   4.083   3.243   3.318
10036SOL    HW230453   4.012   3.098   3.339
10037SOL     OW30454   5.338   3.154   3.151
10037SOL    HW130455   5.398   3.157   3.231
10037SOL    HW230456   5.263   3.218   3.164
10038SOL     OW30457   4.763   2.960   2.558
10038SOL    HW130458   4.693   2.913   2.612
10038SOL    HW230459   4.822   2.892   2.515
10039SOL     OW30460   4.738   2.098   2.833
10039SOL    HW130461   4.730   2.062   2.740
10039SOL    HW230462   4.736   2.022   2.898
10040SOL     OW30463   4.314   3.349   2.353
10040SOL    HW130464   4.356   3.291   2.283
10040SOL    HW230465   4.270   3.428   2.309
10041SOL     OW30466   5.433   2.247   3.243
10041SOL    HW130467   5.506   2.316   3.247
10041SOL    HW230468   5.461   2.172   3.184
10042SOL     OW30469   3.979   3.210   2.152
10042SOL    HW130470   3.883   3.211   2.125
10042SOL    HW230471   3.991   3.263   2.236
10043SOL     OW30472   3.829   2.875   3.588
10043SOL    HW130473   3.752   2.842   3.642
10043SOL    HW230474   3.914   2.845   3.630
10044SOL     OW30475   4.396   2.065   3.351
10044SOL    HW130476   4.486   2.049   3.311
10044SOL    HW230477   4.404   2.070   3.450
10045SOL     OW30478   3.799   2.207   1.895
10045SOL    HW130479   3.707   2.179   1.866
10045SOL    HW230480   3.830   2.284   1.839
10046SOL     OW30481   5.164   2.718   3.260
10046SOL    HW130482   5.107   2.770   3.197
10046SOL    HW230483   5.260   2.730   3.236
10047SOL     OW30484   3.796   2.028   2.180
10047SOL    HW130485   3.779   2.111   2.126
10047SOL    HW230486   3.886   1.991   2.158
10048SOL     OW30487   4.907   3.197   1.981
10048SOL    HW130488   4.808   3.186   1.983
10048SOL    HW230489   4.941   3.212   2.074
10049SOL     OW30490   4.337   2.704   3.293
10049SOL    HW130491   4.393   2.785   3.276
10049SOL    HW230492   4.396   2.624   3.296
10050SOL     OW30493   5.217   3.629   2.821
10050SOL    HW130494   5.250   3.693   2.752
10050SOL    HW230495   5.283   3.623   2.896
10051SOL     OW30496   4.440   2.427   3.570
10051SOL    HW130497   4.459   2.492   3.644
10051SOL    HW230498   4.500   2.347   3.579
10052SOL     OW30499   5.174   3.082   3.495
10052SOL    HW130500   5.165   3.072   3.594
10052SOL    HW230501   5.270   3.075   3.469
10053SOL     OW30502   4.114   3.603   3.422
10053SOL    HW130503   4.023   3.644   3.420
10053SOL    HW230504   4.107   3.509   3.454
10054SOL     OW30505   5.398   2.745   3.116
10054SOL    HW130506   5.371   2.656   3.079
10054SOL    HW230507   5.399   2.813   3.043
10055SOL     OW30508   4.949   2.187   2.311
10055SOL    HW130509   5.014   2.113   2.300
10055SOL    HW230510   4.969   2.237   2.395
10056SOL     OW30511   4.318   2.607   2.514
10056SOL    HW130512   4.368   2.692   2.495
10056SOL    HW230513   4.230   2.609   2.466
10057SOL     OW30514   5.501   2.204   3.504
10057SOL    HW130515   5.484   2.235   3.410
10057SOL    HW230516   5.417   2.167   3.542
10058SOL     OW30517   5.454   2.796   3.379
10058SOL    HW130518   5.492   2.887   3.394
10058SOL    HW230519   5.446   2.779   3.280
10059SOL     OW30520   4.583   3.236   1.878
10059SOL    HW130521   4.537   3.251   1.966
10059SOL    HW230522   4.627   3.321   1.848
10060SOL     OW30523   4.385   3.652   2.815
10060SOL    HW130524   4.339   3.740   2.802
10060SOL    HW230525   4.484   3.664   2.808
10061SOL     OW30526   4.583   2.818   2.723
10061SOL    HW130527   4.637   2.749   2.771
10061SOL    HW230528   4.551   2.887   2.789
10062SOL     OW30529   4.807   2.846   1.949
10062SOL    HW130530   4.784   2.899   1.867
10062SOL    HW230531   4.888   2.790   1.930
10063SOL     OW30532   5.585   3.431   2.713
10063SOL    HW130533   5.514   3.419   2.643
10063SOL    HW230534   5.586   3.352   2.773
10064SOL     OW30535   3.945   3.176   3.706
10064SOL    HW130536   3.880   3.103   3.685
10064SOL    HW230537   3.949   3.190   3.804
10065SOL     OW30538   3.803   3.102   2.515
10065SOL    HW130539   3.802   3.055   2.603
10065SOL    HW230540   3.885   3.074   2.464
10066SOL     OW30541   4.396   3.253   3.486
10066SOL    HW130542   4.318   3.203   3.524
10066SOL    HW230543   4.393   3.348   3.517
10067SOL     OW30544   5.548   2.054   3.089
10067SOL    HW130545   5.544   1.964   3.133
10067SOL    HW230546   5.551   2.043   2.990
10068SOL     OW30547   4.152   2.286   2.382
10068SOL    HW130548   4.182   2.214   2.320
10068SOL    HW230549   4.113   2.246   2.465
10069SOL     OW30550   5.429   3.349   2.966
10069SOL    HW130551   5.336   3.324   2.939
10069SOL    HW230552   5.455   3.299   3.048
10070SOL     OW30553   4.041   2.409   3.142
10070SOL    HW130554   4.079   2.350   3.214
10070SOL    HW230555   4.081   2.383   3.054
10071SOL     OW30556   4.536   3.448   2.549
10071SOL    HW130557   4.568   3.458   2.455
10071SOL    HW230558   4.457   3.386   2.551
10072SOL     OW30559   5.148   2.076   2.974
10072SOL    HW130560   5.200   2.011   3.029
10072SOL    HW230561   5.099   2.139   3.035
10073SOL     OW30562   4.725   1.896   3.016
10073SOL    HW130563   4.662   1.824   2.985
10073SOL    HW230564   4.818   1.860   3.016
10074SOL     OW30565   4.494   3.192   2.163
10074SOL    HW130566   4.448   3.105   2.180
10074SOL    HW230567   4.585   3.189   2.204
10075SOL     OW30568   4.342   3.429   3.146
10075SOL    HW130569   4.337   3.511   3.203
10075SOL    HW230570   4.431   3.426   3.101
10076SOL     OW30571   5.076   1.914   2.030
10076SOL    HW130572   5.111   1.873   1.946
10076SOL    HW230573   4.986   1.876   2.050
10077SOL     OW30574   5.024   2.315   2.553
10077SOL    HW130575   4.965   2.395   2.557
10077SOL    HW230576   5.039   2.280   2.646
10078SOL     OW30577   5.317   2.083   2.744
10078SOL    HW130578   5.233   2.082   2.798
10078SOL    HW230579   5.319   2.166   2.688
10079SOL     OW30580   3.763   2.939   2.162
10079SOL    HW130581   3.862   2.928   2.153
10079SOL    HW230582   3.723   2.853   2.194
10080SOL     OW30583   4.599   3.508   2.199
10080SOL    HW130584   4.522   3.473   2.145
10080SOL    HW230585   4.567   3.579   2.261
10081SOL     OW30586   3.954   2.490   3.837
10081SOL    HW130587   3.861   2.488   3.874
10081SOL    HW230588   3.955   2.451   3.745
10082SOL     OW30589   3.949   2.137   4.720
10082SOL    HW130590   3.984   2.120   4.812
10082SOL    HW230591   3.861   2.092   4.708
10083SOL     OW30592   3.743   2.230   4.371
10083SOL    HW130593   3.661   2.273   4.410
10083SOL    HW230594   3.715   2.157   4.308
10084SOL     OW30595   4.293   3.137   4.889
10084SOL    HW130596   4.200   3.130   4.852
10084SOL    HW230597   4.304   3.226   4.933
10085SOL     OW30598   5.279   3.373   4.427
10085SOL    HW130599   5.222   3.357   4.508
10085SOL    HW230600   5.220   3.383   4.347
10086SOL     OW30601   4.859   2.565   4.441
10086SOL    HW130602   4.916   2.643   4.416
10086SOL    HW230603   4.799   2.591   4.517
10087SOL     OW30604   5.479   2.469   3.955
10087SOL    HW130605   5.467   2.456   3.856
10087SOL    HW230606   5.449   2.388   4.004
10088SOL     OW30607   4.492   3.006   4.747
10088SOL    HW130608   4.414   3.023   4.807
10088SOL    HW230609   4.526   3.093   4.711
10089SOL     OW30610   4.574   2.660   5.547
10089SOL    HW130611   4.570   2.736   5.612
10089SOL    HW230612   4.596   2.696   5.456
10090SOL     OW30613   4.409   2.874   4.389
10090SOL    HW130614   4.478   2.858   4.459
10090SOL    HW230615   4.336   2.931   4.427
10091SOL     OW30616   4.410   3.023   5.527
10091SOL    HW130617   4.470   3.102   5.541
10091SOL    HW230618   4.324   3.054   5.486
10092SOL     OW30619   4.059   3.297   4.785
10092SOL    HW130620   3.981   3.266   4.732
10092SOL    HW230621   4.117   3.355   4.728
10093SOL     OW30622   5.184   3.367   5.063
10093SOL    HW130623   5.208   3.461   5.089
10093SOL    HW230624   5.168   3.313   5.145
10094SOL     OW30625   4.162   2.254   5.223
10094SOL    HW130626   4.244   2.198   5.232
10094SOL    HW230627   4.081   2.196   5.227
10095SOL     OW30628   5.327   2.309   4.461
10095SOL    HW130629   5.253   2.355   4.411
10095SOL    HW230630   5.378   2.377   4.514
10096SOL     OW30631   3.955   3.575   4.207
10096SOL    HW130632   3.989   3.652   4.261
10096SOL    HW230633   3.999   3.575   4.117
10097SOL     OW30634   4.851   3.203   5.414
10097SOL    HW130635   4.898   3.203   5.502
10097SOL    HW230636   4.803   3.116   5.403
10098SOL     OW30637   3.954   3.296   4.262
10098SOL    HW130638   3.928   3.392   4.262
10098SOL    HW230639   3.883   3.242   4.307
10099SOL     OW30640   3.964   2.953   4.610
10099SOL    HW130641   3.978   2.869   4.662
10099SOL    HW230642   3.909   3.017   4.665
10100SOL     OW30643   4.344   3.648   5.163
10100SOL    HW130644   4.252   3.631   5.198
10100SOL    HW230645   4.372   3.740   5.189
10101SOL     OW30646   4.330   2.826   3.847
10101SOL    HW130647   4.337   2.910   3.793
10101SOL    HW230648   4.376   2.839   3.935
10102SOL     OW30649   5.318   1.976   5.204
10102SOL    HW130650   5.300   2.043   5.132
10102SOL    HW230651   5.315   2.022   5.293
10103SOL     OW30652   3.846   2.505   4.287
10103SOL    HW130653   3.801   2.417   4.304
10103SOL    HW230654   3.845   2.559   4.371
10104SOL     OW30655   5.566   3.629   4.083
10104SOL    HW130656   5.620   3.600   4.163
10104SOL    HW230657   5.596   3.719   4.054
10105SOL     OW30658   3.751   3.458   3.841
10105SOL    HW130659   3.732   3.362   3.862
10105SOL    HW230660   3.718   3.516   3.916
10106SOL     OW30661   5.413   2.784   4.336
10106SOL    HW130662   5.508   2.755   4.344
10106SOL    HW230663   5.405   2.849   4.261
10107SOL     OW30664   5.365   2.970   4.156
10107SOL    HW130665   5.451   2.972   4.104
10107SOL    HW230666   5.379   3.017   4.244
10108SOL     OW30667   3.837   2.599   5.321
10108SOL    HW130668   3.925   2.586   5.366
10108SOL    HW230669   3.824   2.696   5.299
10109SOL     OW30670   4.337   3.227   4.450
10109SOL    HW130671   4.288   3.140   4.459
10109SOL    HW230672   4.314   3.270   4.363
10110SOL     OW30673   5.017   3.090   5.147
10110SOL    HW130674   5.054   3.017   5.089
10110SOL    HW230675   5.069   3.095   5.232
10111SOL     OW30676   4.533   1.866   4.226
10111SOL    HW130677   4.573   1.957   4.217
10111SOL    HW230678   4.433   1.874   4.232
10112SOL     OW30679   3.921   2.838   4.988
10112SOL    HW130680   4.010   2.793   4.974
10112SOL    HW230681   3.848   2.773   4.969
10113SOL     OW30682   5.249   2.861   3.914
10113SOL    HW130683   5.186   2.785   3.927
10113SOL    HW230684   5.297   2.879   4.000
10114SOL     OW30685   4.911   3.654   5.340
10114SOL    HW130686   4.935   3.714   5.264
10114SOL    HW230687   4.918   3.559   5.310
10115SOL     OW30688   4.041   2.113   5.525
10115SOL    HW130689   4.112   2.184   5.531
10115SOL    HW230690   3.953   2.152   5.553
10116SOL     OW30691   5.190   3.279   4.677
10116SOL    HW130692   5.131   3.285   4.757
10116SOL    HW230693   5.175   3.191   4.631
10117SOL     OW30694   5.391   3.576   4.296
10117SOL    HW130695   5.350   3.553   4.208
10117SOL    HW230696   5.373   3.502   4.361
10118SOL     OW30697   4.322   2.591   3.994
10118SOL    HW130698   4.346   2.660   3.926
10118SOL    HW230699   4.244   2.624   4.048
10119SOL     OW30700   5.005   2.207   4.668
10119SOL    HW130701   4.919   2.157   4.655
10119SOL    HW230702   5.067   2.153   4.724
10120SOL     OW30703   5.300   3.524   4.031
10120SOL    HW130704   5.389   3.570   4.034
10120SOL    HW230705   5.279   3.500   3.936
10121SOL     OW30706   4.531   2.467   5.189
10121SOL    HW130707   4.484   2.464   5.278
10121SOL    HW230708   4.480   2.412   5.123
10122SOL     OW30709   5.118   2.331   5.398
10122SOL    HW130710   5.098   2.374   5.486
10122SOL    HW230711   5.196   2.269   5.407
10123SOL     OW30712   4.697   2.752   5.296
10123SOL    HW130713   4.743   2.668   5.267
10123SOL    HW230714   4.641   2.786   5.221
10124SOL     OW30715   4.715   2.272   4.966
10124SOL    HW130716   4.638   2.306   5.020
10124SOL    HW230717   4.681   2.221   4.887
10125SOL     OW30718   4.765   2.563   4.153
10125SOL    HW130719   4.791   2.559   4.249
10125SOL    HW230720   4.680   2.512   4.139
10126SOL     OW30721   3.800   2.673   4.513
10126SOL    HW130722   3.899   2.661   4.522
10126SOL    HW230723   3.776   2.768   4.534
10127SOL     OW30724   3.854   3.683   5.295
10127SOL    HW130725   3.844   3.668   5.394
10127SOL    HW230726   3.768   3.719   5.259
10128SOL     OW30727   4.589   2.210   3.919
10128SOL    HW130728   4.648   2.273   3.870
10128SOL    HW230729   4.608   2.116   3.890
10129SOL     OW30730   5.443   2.447   5.555
10129SOL    HW130731   5.417   2.536   5.519
10129SOL    HW230732   5.441   2.379   5.482
10130SOL     OW30733   5.086   3.006   4.269
10130SOL    HW130734   5.169   2.977   4.221
10130SOL    HW230735   5.037   3.073   4.213
10131SOL     OW30736   4.274   2.058   4.609
10131SOL    HW130737   4.269   2.053   4.709
10131SOL    HW230738   4.276   2.154   4.580
10132SOL     OW30739   4.732   3.318   4.201
10132SOL    HW130740   4.686   3.390   4.149
10132SOL    HW230741   4.728   3.338   4.299
10133SOL     OW30742   4.075   3.663   4.577
10133SOL    HW130743   4.125   3.577   4.583
10133SOL    HW230744   4.140   3.740   4.574
10134SOL     OW30745   5.519   2.928   4.597
10134SOL    HW130746   5.457   2.913   4.521
10134SOL    HW230747   5.467   2.939   4.682
10135SOL     OW30748   4.951   3.412   5.230
10135SOL    HW130749   4.957   3.335   5.294
10135SOL    HW230750   4.899   3.386   5.150
10136SOL     OW30751   4.045   2.805   3.966
10136SOL    HW130752   4.127   2.844   3.924
10136SOL    HW230753   4.018   2.723   3.917
10137SOL     OW30754   5.182   2.597   4.452
10137SOL    HW130755   5.177   2.532   4.527
10137SOL    HW230756   5.262   2.656   4.465
10138SOL     OW30757   4.185   3.128   5.451
10138SOL    HW130758   4.135   3.129   5.365
10138SOL    HW230759   4.122   3.110   5.527
10139SOL     OW30760   4.835   3.638   3.961
10139SOL    HW130761   4.775   3.576   4.011
10139SOL    HW230762   4.866   3.594   3.876
10140SOL     OW30763   3.926   2.147   5.222
10140SOL    HW130764   3.846   2.207   5.209
10140SOL    HW230765   3.916   2.098   5.308
10141SOL     OW30766   5.356   3.239   3.805
10141SOL    HW130767   5.324   3.333   3.795
10141SOL    HW230768   5.280   3.176   3.793
10142SOL     OW30769   4.188   3.605   4.047
10142SOL    HW130770   4.221   3.644   4.133
10142SOL    HW230771   4.264   3.598   3.982
10143SOL     OW30772   5.124   1.969   4.150
10143SOL    HW130773   5.100   1.932   4.060
10143SOL    HW230774   5.223   1.985   4.154
10144SOL     OW30775   3.973   3.647   4.965
10144SOL    HW130776   4.030   3.582   5.015
10144SOL    HW230777   3.957   3.614   4.872
10145SOL     OW30778   4.664   3.560   4.628
10145SOL    HW130779   4.744   3.503   4.649
10145SOL    HW230780   4.615   3.520   4.551
10146SOL     OW30781   4.106   2.562   4.204
10146SOL    HW130782   4.151   2.472   4.201
10146SOL    HW230783   4.012   2.551   4.237
10147SOL     OW30784   5.271   2.084   5.453
10147SOL    HW130785   5.266   2.121   5.545
10147SOL    HW230786   5.199   2.015   5.441
10148SOL     OW30787   4.338   1.984   3.841
10148SOL    HW130788   4.436   1.962   3.848
10148SOL    HW230789   4.307   1.967   3.748
10149SOL     OW30790   4.505   2.126   5.473
10149SOL    HW130791   4.572   2.065   5.516
10149SOL    HW230792   4.432   2.145   5.538
10150SOL     OW30793   4.612   3.376   4.919
10150SOL    HW130794   4.589   3.351   4.825
10150SOL    HW230795   4.673   3.307   4.958
10151SOL     OW30796   5.075   2.452   5.157
10151SOL    HW130797   5.103   2.409   5.242
10151SOL    HW230798   5.100   2.548   5.158
10152SOL     OW30799   4.527   3.264   4.648
10152SOL    HW130800   4.617   3.278   4.606
10152SOL    HW230801   4.456   3.266   4.577
10153SOL     OW30802   4.646   2.365   4.623
10153SOL    HW130803   4.621   2.356   4.527
10153SOL    HW230804   4.694   2.283   4.654
10154SOL     OW30805   4.263   1.926   4.236
10154SOL    HW130806   4.182   1.927   4.294
10154SOL    HW230807   4.266   2.009   4.181
10155SOL     OW30808   5.158   3.050   3.765
10155SOL    HW130809   5.190   2.974   3.822
10155SOL    HW230810   5.066   3.077   3.795
10156SOL     OW30811   4.021   1.897   3.895
10156SOL    HW130812   4.070   1.981   3.874
10156SOL    HW230813   4.083   1.832   3.940
10157SOL     OW30814   4.659   2.098   4.204
10157SOL    HW130815   4.611   2.139   4.126
10157SOL    HW230816   4.758   2.096   4.185
10158SOL     OW30817   4.800   2.545   5.188
10158SOL    HW130818   4.720   2.484   5.191
10158SOL    HW230819   4.881   2.492   5.164
10159SOL     OW30820   4.951   3.432   4.517
10159SOL    HW130821   4.972   3.506   4.452
10159SOL    HW230822   5.019   3.432   4.590
10160SOL     OW30823   4.183   3.014   4.465
10160SOL    HW130824   4.112   2.987   4.530
10160SOL    HW230825   4.157   2.986   4.372
10161SOL     OW30826   4.995   3.659   4.315
10161SOL    HW130827   5.039   3.723   4.251
10161SOL    HW230828   4.945   3.711   4.385
10162SOL     OW30829   4.756   2.411   3.740
10162SOL    HW130830   4.715   2.493   3.701
10162SOL    HW230831   4.820   2.437   3.813
10163SOL     OW30832   3.802   2.418   5.110
10163SOL    HW130833   3.894   2.417   5.069
10163SOL    HW230834   3.796   2.492   5.177
10164SOL     OW30835   4.285   2.084   4.871
10164SOL    HW130836   4.323   2.000   4.908
10164SOL    HW230837   4.197   2.103   4.915
10165SOL     OW30838   4.590   2.316   4.366
10165SOL    HW130839   4.558   2.388   4.304
10165SOL    HW230840   4.614   2.235   4.313
10166SOL     OW30841   4.741   1.901   4.477
10166SOL    HW130842   4.669   1.906   4.408
10166SOL    HW230843   4.717   1.832   4.546
10167SOL     OW30844   5.153   3.035   4.591
10167SOL    HW130845   5.098   2.951   4.584
10167SOL    HW230846   5.179   3.064   4.499
10168SOL     OW30847   5.190   2.452   4.716
10168SOL    HW130848   5.160   2.357   4.723
10168SOL    HW230849   5.263   2.468   4.782
10169SOL     OW30850   5.581   2.695   4.101
10169SOL    HW130851   5.623   2.631   4.165
10169SOL    HW230852   5.543   2.644   4.023
10170SOL     OW30853   4.212   3.247   3.898
10170SOL    HW130854   4.125   3.232   3.945
10170SOL    HW230855   4.195   3.273   3.803
10171SOL     OW30856   5.388   3.142   4.381
10171SOL    HW130857   5.487   3.150   4.395
10171SOL    HW230858   5.343   3.226   4.412
10172SOL     OW30859   5.114   2.437   3.802
10172SOL    HW130860   5.060   2.416   3.883
10172SOL    HW230861   5.205   2.396   3.811
10173SOL     OW30862   4.251   2.118   4.052
10173SOL    HW130863   4.278   2.059   3.977
10173SOL    HW230864   4.251   2.213   4.021
10174SOL     OW30865   5.478   3.085   5.312
10174SOL    HW130866   5.569   3.046   5.299
10174SOL    HW230867   5.486   3.181   5.336
10175SOL     OW30868   4.788   3.209   5.064
10175SOL    HW130869   4.708   3.186   5.119
10175SOL    HW230870   4.871   3.183   5.113
10176SOL     OW30871   5.316   3.491   5.349
10176SOL    HW130872   5.343   3.525   5.259
10176SOL    HW230873   5.395   3.453   5.395
10177SOL     OW30874   4.835   3.057   4.824
10177SOL    HW130875   4.795   3.101   4.905
10177SOL    HW230876   4.794   3.094   4.741
10178SOL     OW30877   5.362   2.961   4.803
10178SOL    HW130878   5.367   3.042   4.862
10178SOL    HW230879   5.276   2.963   4.752
10179SOL     OW30880   4.639   1.951   5.126
10179SOL    HW130881   4.664   1.931   5.031
10179SOL    HW230882   4.711   2.007   5.168
10180SOL     OW30883   4.704   2.978   5.443
10180SOL    HW130884   4.605   2.984   5.453
10180SOL    HW230885   4.727   2.898   5.387
10181SOL     OW30886   4.429   2.912   4.092
10181SOL    HW130887   4.415   2.919   4.191
10181SOL    HW230888   4.513   2.861   4.074
10182SOL     OW30889   4.134   2.675   4.975
10182SOL    HW130890   4.220   2.687   5.025
10182SOL    HW230891   4.092   2.588   5.002
10183SOL     OW30892   4.998   2.248   4.986
10183SOL    HW130893   5.019   2.322   5.050
10183SOL    HW230894   4.909   2.265   4.943
10184SOL     OW30895   3.788   3.426   5.055
10184SOL    HW130896   3.742   3.508   5.021
10184SOL    HW230897   3.886   3.445   5.064
10185SOL     OW30898   4.091   2.962   4.225
10185SOL    HW130899   4.084   3.045   4.169
10185SOL    HW230900   4.095   2.882   4.165
10186SOL     OW30901   4.290   2.399   4.589
10186SOL    HW130902   4.302   2.465   4.515
10186SOL    HW230903   4.336   2.433   4.672
10187SOL     OW30904   4.976   3.210   4.112
10187SOL    HW130905   5.026   3.287   4.152
10187SOL    HW230906   4.881   3.212   4.144
10188SOL     OW30907   4.996   3.307   4.866
10188SOL    HW130908   5.043   3.320   4.953
10188SOL    HW230909   4.930   3.233   4.875
10189SOL     OW30910   5.306   2.501   4.196
10189SOL    HW130911   5.275   2.562   4.269
10189SOL    HW230912   5.356   2.553   4.127
10190SOL     OW30913   4.078   3.372   5.053
10190SOL    HW130914   4.057   3.328   4.966
10190SOL    HW230915   4.175   3.398   5.056
10191SOL     OW30916   4.126   2.613   5.322
10191SOL    HW130917   4.194   2.668   5.275
10191SOL    HW230918   4.166   2.525   5.349
10192SOL     OW30919   5.311   2.641   5.394
10192SOL    HW130920   5.219   2.679   5.389
10192SOL    HW230921   5.371   2.688   5.329
10193SOL     OW30922   4.737   1.967   5.494
10193SOL    HW130923   4.743   2.052   5.442
10193SOL    HW230924   4.769   1.891   5.437
10194SOL     OW30925   4.228   1.912   5.464
10194SOL    HW130926   4.186   1.855   5.394
10194SOL    HW230927   4.162   1.981   5.496
10195SOL     OW30928   4.297   2.732   4.753
10195SOL    HW130929   4.341   2.821   4.744
10195SOL    HW230930   4.234   2.732   4.830
10196SOL     OW30931   5.084   2.724   4.769
10196SOL    HW130932   5.009   2.724   4.703
10196SOL    HW230933   5.121   2.632   4.778
10197SOL     OW30934   4.933   2.387   3.999
10197SOL    HW130935   4.946   2.303   4.053
10197SOL    HW230936   4.904   2.461   4.059
10198SOL     OW30937   4.031   2.075   4.955
10198SOL    HW130938   4.008   2.112   5.045
10198SOL    HW230939   4.001   1.980   4.949
10199SOL     OW30940   3.761   3.172   5.006
10199SOL    HW130941   3.814   3.123   5.074
10199SOL    HW230942   3.783   3.270   5.011
10200SOL     OW30943   4.456   2.496   4.788
10200SOL    HW130944   4.515   2.470   4.712
10200SOL    HW230945   4.428   2.592   4.777
10201SOL     OW30946   5.452   2.797   5.578
10201SOL    HW130947   5.406   2.790   5.489
10201SOL    HW230948   5.390   2.841   5.644
10202SOL     OW30949   4.031   1.925   4.342
10202SOL    HW130950   4.020   2.019   4.375
10202SOL    HW230951   4.026   1.862   4.419
10203SOL     OW30952   5.346   2.229   4.098
10203SOL    HW130953   5.348   2.153   4.162
10203SOL    HW230954   5.298   2.306   4.138
10204SOL     OW30955   4.747   2.628   4.690
10204SOL    HW130956   4.762   2.649   4.786
10204SOL    HW230957   4.717   2.533   4.681
10205SOL     OW30958   4.704   3.435   5.424
10205SOL    HW130959   4.684   3.479   5.336
10205SOL    HW230960   4.743   3.344   5.408
10206SOL     OW30961   5.583   3.380   5.329
10206SOL    HW130962   5.597   3.407   5.234
10206SOL    HW230963   5.666   3.402   5.382
10207SOL     OW30964   4.074   2.760   5.528
10207SOL    HW130965   4.150   2.804   5.576
10207SOL    HW230966   4.109   2.713   5.446
10208SOL     OW30967   5.264   2.136   3.849
10208SOL    HW130968   5.203   2.061   3.872
10208SOL    HW230969   5.286   2.188   3.932
10209SOL     OW30970   5.027   2.700   3.766
10209SOL    HW130971   5.061   2.607   3.781
10209SOL    HW230972   5.045   2.727   3.671
10210SOL     OW30973   4.792   3.195   4.573
10210SOL    HW130974   4.799   3.111   4.518
10210SOL    HW230975   4.854   3.264   4.537
10211SOL     OW30976   4.043   2.672   4.673
10211SOL    HW130977   4.136   2.708   4.678
10211SOL    HW230978   4.037   2.587   4.725
10212SOL     OW30979   4.063   2.371   4.730
10212SOL    HW130980   4.011   2.288   4.713
10212SOL    HW230981   4.140   2.376   4.666
10213SOL     OW30982   4.862   2.242   5.402
10213SOL    HW130983   4.817   2.305   5.466
10213SOL    HW230984   4.955   2.273   5.385
10214SOL     OW30985   4.884   2.069   5.201
10214SOL    HW130986   4.884   2.133   5.278
10214SOL    HW230987   4.912   2.117   5.118
10215SOL     OW30988   3.732   3.188   3.924
10215SOL    HW130989   3.639   3.209   3.893
10215SOL    HW230990   3.742   3.089   3.937
10216SOL     OW30991   3.812   3.663   4.651
10216SOL    HW130992   3.770   3.577   4.624
10216SOL    HW230993   3.906   3.666   4.617
10217SOL     OW30994   4.228   3.430   4.634
10217SOL    HW130995   4.294   3.504   4.643
10217SOL    HW230996   4.272   3.351   4.592
10218SOL     OW30997   4.726   2.658   4.962
10218SOL    HW130998   4.767   2.626   5.048
10218SOL    HW230999   4.630   2.631   4.959
10219SOL     OW31000   3.764   2.406   4.838
10219SOL    HW131001   3.849   2.373   4.797
10219SOL    HW231002   3.777   2.421   4.936
10220SOL     OW31003   3.913   2.382   5.446
10220SOL    HW131004   3.972   2.342   5.376
10220SOL    HW231005   3.855   2.453   5.405
10221SOL     OW31006   5.093   2.812   5.384
10221SOL    HW131007   5.132   2.901   5.404
10221SOL    HW231008   5.103   2.792   5.287
10222SOL     OW31009   4.539   2.434   4.049
10222SOL    HW131010   4.546   2.345   4.003
10222SOL    HW231011   4.445   2.468   4.041
10223SOL     OW31012   5.381   2.466   4.930
10223SOL    HW131013   5.343   2.397   4.992
10223SOL    HW231014   5.463   2.430   4.886
10224SOL     OW31015   3.976   3.426   5.468
10224SOL    HW131016   3.946   3.483   5.544
10224SOL    HW231017   3.969   3.329   5.494
10225SOL     OW31018   4.395   2.326   4.993
10225SOL    HW131019   4.361   2.237   4.963
10225SOL    HW231020   4.421   2.380   4.913
10226SOL     OW31021   4.654   3.540   5.189
10226SOL    HW131022   4.630   3.522   5.094
10226SOL    HW231023   4.684   3.634   5.199
10227SOL     OW31024   4.197   2.362   3.915
10227SOL    HW131025   4.258   2.442   3.919
10227SOL    HW231026   4.102   2.393   3.922
10228SOL     OW31027   3.883   2.999   5.190
10228SOL    HW131028   3.905   2.938   5.266
10228SOL    HW231029   3.893   2.950   5.104
10229SOL     OW31030   5.071   2.921   4.958
10229SOL    HW131031   5.095   2.858   4.884
10229SOL    HW231032   4.981   2.961   4.940
10230SOL     OW31033   5.026   2.717   4.033
10230SOL    HW131034   4.940   2.686   4.075
10230SOL    HW231035   5.022   2.703   3.934
10231SOL     OW31036   5.483   3.609   4.878
10231SOL    HW131037   5.544   3.639   4.805
10231SOL    HW231038   5.445   3.520   4.856
10232SOL     OW31039   4.976   3.593   4.852
10232SOL    HW131040   5.060   3.598   4.798
10232SOL    HW231041   4.953   3.497   4.870
10233SOL     OW31042   3.807   3.120   4.746
10233SOL    HW131043   3.802   3.119   4.846
10233SOL    HW231044   3.724   3.079   4.708
10234SOL     OW31045   4.412   3.524   5.440
10234SOL    HW131046   4.356   3.605   5.449
10234SOL    HW231047   4.464   3.528   5.354
10235SOL     OW31048   5.450   1.997   4.247
10235SOL    HW131049   5.523   1.980   4.180
10235SOL    HW231050   5.419   1.910   4.285
10236SOL     OW31051   5.112   3.435   4.201
10236SOL    HW131052   5.179   3.447   4.127
10236SOL    HW231053   5.072   3.524   4.224
10237SOL     OW31054   3.854   3.656   5.575
10237SOL    HW131055   3.813   3.582   5.628
10237SOL    HW231056   3.918   3.707   5.633
10238SOL     OW31057   5.004   2.789   4.396
10238SOL    HW131058   5.064   2.708   4.398
10238SOL    HW231059   5.044   2.858   4.336
10239SOL     OW31060   4.554   3.135   5.146
10239SOL    HW131061   4.549   3.168   5.241
10239SOL    HW231062   4.468   3.154   5.100
10240SOL     OW31063   4.396   3.478   3.878
10240SOL    HW131064   4.405   3.488   3.779
10240SOL    HW231065   4.356   3.389   3.899
10241SOL     OW31066   5.374   3.582   5.118
10241SOL    HW131067   5.427   3.592   5.034
10241SOL    HW231068   5.347   3.672   5.152
10242SOL     OW31069   5.565   2.037   4.687
10242SOL    HW131070   5.604   1.952   4.651
10242SOL    HW231071   5.467   2.039   4.668
10243SOL     OW31072   3.987   2.188   4.444
10243SOL    HW131073   3.908   2.239   4.410
10243SOL    HW231074   3.978   2.173   4.542
10244SOL     OW31075   4.918   3.474   3.755
10244SOL    HW131076   4.924   3.381   3.792
10244SOL    HW231077   4.859   3.474   3.675
10245SOL     OW31078   4.546   2.864   5.096
10245SOL    HW131079   4.586   2.863   5.004
10245SOL    HW231080   4.556   2.956   5.136
10246SOL     OW31081   4.640   2.772   4.015
10246SOL    HW131082   4.703   2.810   3.947
10246SOL    HW231083   4.680   2.689   4.054
10247SOL     OW31084   5.228   3.469   3.768
10247SOL    HW131085   5.136   3.506   3.775
10247SOL    HW231086   5.266   3.489   3.678
10248SOL     OW31087   4.096   3.150   5.214
10248SOL    HW131088   4.083   3.243   5.180
10248SOL    HW231089   4.012   3.098   5.201
10249SOL     OW31090   5.338   3.154   5.013
10249SOL    HW131091   5.398   3.157   5.093
10249SOL    HW231092   5.263   3.218   5.026
10250SOL     OW31093   4.763   2.960   4.420
10250SOL    HW131094   4.693   2.913   4.474
10250SOL    HW231095   4.822   2.892   4.377
10251SOL     OW31096   4.738   2.098   4.695
10251SOL    HW131097   4.730   2.062   4.602
10251SOL    HW231098   4.736   2.022   4.760
10252SOL     OW31099   4.314   3.349   4.215
10252SOL    HW131100   4.356   3.291   4.145
10252SOL    HW231101   4.270   3.428   4.171
10253SOL     OW31102   5.433   2.247   5.105
10253SOL    HW131103   5.506   2.316   5.109
10253SOL    HW231104   5.461   2.172   5.046
10254SOL     OW31105   3.979   3.210   4.014
10254SOL    HW131106   3.883   3.211   3.987
10254SOL    HW231107   3.991   3.263   4.098
10255SOL     OW31108   3.829   2.875   5.450
10255SOL    HW131109   3.752   2.842   5.504
10255SOL    HW231110   3.914   2.845   5.492
10256SOL     OW31111   4.396   2.065   5.213
10256SOL    HW131112   4.486   2.049   5.173
10256SOL    HW231113   4.404   2.070   5.312
10257SOL     OW31114   3.799   2.207   3.757
10257SOL    HW131115   3.707   2.179   3.728
10257SOL    HW231116   3.830   2.284   3.701
10258SOL     OW31117   5.164   2.718   5.122
10258SOL    HW131118   5.107   2.770   5.059
10258SOL    HW231119   5.260   2.730   5.098
10259SOL     OW31120   3.796   2.028   4.042
10259SOL    HW131121   3.779   2.111   3.988
10259SOL    HW231122   3.886   1.991   4.020
10260SOL     OW31123   4.907   3.197   3.843
10260SOL    HW131124   4.808   3.186   3.845
10260SOL    HW231125   4.941   3.212   3.936
10261SOL     OW31126   4.337   2.704   5.155
10261SOL    HW131127   4.393   2.785   5.138
10261SOL    HW231128   4.396   2.624   5.158
10262SOL     OW31129   5.217   3.629   4.683
10262SOL    HW131130   5.250   3.693   4.614
10262SOL    HW231131   5.283   3.623   4.758
10263SOL     OW31132   4.440   2.427   5.432
10263SOL    HW131133   4.459   2.492   5.506
10263SOL    HW231134   4.500   2.347   5.441
10264SOL     OW31135   5.174   3.082   5.357
10264SOL    HW131136   5.165   3.072   5.456
10264SOL    HW231137   5.270   3.075   5.331
10265SOL     OW31138   4.114   3.603   5.284
10265SOL    HW131139   4.023   3.644   5.282
10265SOL    HW231140   4.107   3.509   5.316
10266SOL     OW31141   5.398   2.745   4.978
10266SOL    HW131142   5.371   2.656   4.941
10266SOL    HW231143   5.399   2.813   4.905
10267SOL     OW31144   4.949   2.187   4.173
10267SOL    HW131145   5.014   2.113   4.162
10267SOL    HW231146   4.969   2.237   4.257
10268SOL     OW31147   4.318   2.607   4.376
10268SOL    HW131148   4.368   2.692   4.357
10268SOL    HW231149   4.230   2.609   4.328
10269SOL     OW31150   5.501   2.204   5.366
10269SOL    HW131151   5.484   2.235   5.272
10269SOL    HW231152   5.417   2.167   5.404
10270SOL     OW31153   5.454   2.796   5.241
10270SOL    HW131154   5.492   2.887   5.256
10270SOL    HW231155   5.446   2.779   5.142
10271SOL     OW31156   4.583   3.236   3.740
10271SOL    HW131157   4.537   3.251   3.828
10271SOL    HW231158   4.627   3.321   3.710
10272SOL     OW31159   4.385   3.652   4.677
10272SOL    HW131160   4.339   3.740   4.664
10272SOL    HW231161   4.484   3.664   4.670
10273SOL     OW31162   4.583   2.818   4.585
10273SOL    HW131163   4.637   2.749   4.633
10273SOL    HW231164   4.551   2.887   4.651
10274SOL     OW31165   4.807   2.846   3.811
10274SOL    HW131166   4.784   2.899   3.729
10274SOL    HW231167   4.888   2.790   3.792
10275SOL     OW31168   5.585   3.431   4.575
10275SOL    HW131169   5.514   3.419   4.505
10275SOL    HW231170   5.586   3.352   4.635
10276SOL     OW31171   3.945   3.176   5.568
10276SOL    HW131172   3.880   3.103   5.547
10276SOL    HW231173   3.949   3.190   5.666
10277SOL     OW31174   3.803   3.102   4.377
10277SOL    HW131175   3.802   3.055   4.465
10277SOL    HW231176   3.885   3.074   4.326
10278SOL     OW31177   4.396   3.253   5.348
10278SOL    HW131178   4.318   3.203   5.386
10278SOL    HW231179   4.393   3.348   5.379
10279SOL     OW31180   5.548   2.054   4.951
10279SOL    HW131181   5.544   1.964   4.995
10279SOL    HW231182   5.551   2.043   4.852
10280SOL     OW31183   4.152   2.286   4.244
10280SOL    HW131184   4.182   2.214   4.182
10280SOL    HW231185   4.113   2.246   4.327
10281SOL     OW31186   5.429   3.349   4.828
10281SOL    HW131187   5.336   3.324   4.801
10281SOL    HW231188   5.455   3.299   4.910
10282SOL     OW31189   4.041   2.409   5.004
10282SOL    HW131190   4.079   2.350   5.076
10282SOL    HW231191   4.081   2.383   4.916
10283SOL     OW31192   4.536   3.448   4.411
10283SOL    HW131193   4.568   3.458   4.317
10283SOL    HW231194   4.457   3.386   4.413
10284SOL     OW31195   5.148   2.076   4.836
10284SOL    HW131196   5.200   2.011   4.891
10284SOL    HW231197   5.099   2.139   4.897
10285SOL     OW31198   4.725   1.896   4.878
10285SOL    HW131199   4.662   1.824   4.847
10285SOL    HW231200   4.818   1.860   4.878
10286SOL     OW31201   4.494   3.192   4.025
10286SOL    HW131202   4.448   3.105   4.042
10286SOL    HW231203   4.585   3.189   4.066
10287SOL     OW31204   4.342   3.429   5.008
10287SOL    HW131205   4.337   3.511   5.065
10287SOL    HW231206   4.431   3.426   4.963
10288SOL     OW31207   5.076   1.914   3.892
10288SOL    HW131208   5.111   1.873   3.808
10288SOL    HW231209   4.986   1.876   3.912
10289SOL     OW31210   5.024   2.315   4.415
10289SOL    HW131211   4.965   2.395   4.419
10289SOL    HW231212   5.039   2.280   4.508
10290SOL     OW31213   5.317   2.083   4.606
10290SOL    HW131214   5.233   2.082   4.660
10290SOL    HW231215   5.319   2.166   4.550
10291SOL     OW31216   3.763   2.939   4.024
10291SOL    HW131217   3.862   2.928   4.015
10291SOL    HW231218   3.723   2.853   4.056
10292SOL     OW31219   4.599   3.508   4.061
10292SOL    HW131220   4.522   3.473   4.007
10292SOL    HW231221   4.567   3.579   4.123
10293SOL     OW31222   3.954   2.490   5.699
10293SOL    HW131223   3.861   2.488   5.736
10293SOL    HW231224   3.955   2.451   5.607
10294SOL     OW31225   3.949   2.137   6.582
10294SOL    HW131226   3.984   2.120   6.674
10294SOL    HW231227   3.861   2.092   6.570
10295SOL     OW31228   3.743   2.230   6.233
10295SOL    HW131229   3.661   2.273   6.272
10295SOL    HW231230   3.715   2.157   6.170
10296SOL     OW31231   4.293   3.137   6.751
10296SOL    HW131232   4.200   3.130   6.714
10296SOL    HW231233   4.304   3.226   6.795
10297SOL     OW31234   5.279   3.373   6.289
10297SOL    HW131235   5.222   3.357   6.370
10297SOL    HW231236   5.220   3.383   6.209
10298SOL     OW31237   4.859   2.565   6.303
10298SOL    HW131238   4.916   2.643   6.278
10298SOL    HW231239   4.799   2.591   6.379
10299SOL     OW31240   5.479   2.469   5.817
10299SOL    HW131241   5.467   2.456   5.718
10299SOL    HW231242   5.449   2.388   5.866
10300SOL     OW31243   4.492   3.006   6.609
10300SOL    HW131244   4.414   3.023   6.669
10300SOL    HW231245   4.526   3.093   6.573
10301SOL     OW31246   4.574   2.660   7.409
10301SOL    HW131247   4.570   2.736   7.474
10301SOL    HW231248   4.596   2.696   7.318
10302SOL     OW31249   4.409   2.874   6.251
10302SOL    HW131250   4.478   2.858   6.321
10302SOL    HW231251   4.336   2.931   6.289
10303SOL     OW31252   4.410   3.023   7.389
10303SOL    HW131253   4.470   3.102   7.403
10303SOL    HW231254   4.324   3.054   7.348
10304SOL     OW31255   4.059   3.297   6.647
10304SOL    HW131256   3.981   3.266   6.594
10304SOL    HW231257   4.117   3.355   6.590
10305SOL     OW31258   5.184   3.367   6.925
10305SOL    HW131259   5.208   3.461   6.951
10305SOL    HW231260   5.168   3.313   7.007
10306SOL     OW31261   4.162   2.254   7.085
10306SOL    HW131262   4.244   2.198   7.094
10306SOL    HW231263   4.081   2.196   7.089
10307SOL     OW31264   5.327   2.309   6.323
10307SOL    HW131265   5.253   2.355   6.273
10307SOL    HW231266   5.378   2.377   6.376
10308SOL     OW31267   3.955   3.575   6.069
10308SOL    HW131268   3.989   3.652   6.123
10308SOL    HW231269   3.999   3.575   5.979
10309SOL     OW31270   4.851   3.203   7.276
10309SOL    HW131271   4.898   3.203   7.364
10309SOL    HW231272   4.803   3.116   7.265
10310SOL     OW31273   3.954   3.296   6.124
10310SOL    HW131274   3.928   3.392   6.124
10310SOL    HW231275   3.883   3.242   6.169
10311SOL     OW31276   3.964   2.953   6.472
10311SOL    HW131277   3.978   2.869   6.524
10311SOL    HW231278   3.909   3.017   6.527
10312SOL     OW31279   4.344   3.648   7.025
10312SOL    HW131280   4.252   3.631   7.060
10312SOL    HW231281   4.372   3.740   7.051
10313SOL     OW31282   4.330   2.826   5.709
10313SOL    HW131283   4.337   2.910   5.655
10313SOL    HW231284   4.376   2.839   5.797
10314SOL     OW31285   5.318   1.976   7.066
10314SOL    HW131286   5.300   2.043   6.994
10314SOL    HW231287   5.315   2.022   7.155
10315SOL     OW31288   3.846   2.505   6.149
10315SOL    HW131289   3.801   2.417   6.166
10315SOL    HW231290   3.845   2.559   6.233
10316SOL     OW31291   5.566   3.629   5.945
10316SOL    HW131292   5.620   3.600   6.025
10316SOL    HW231293   5.596   3.719   5.916
10317SOL     OW31294   3.751   3.458   5.703
10317SOL    HW131295   3.732   3.362   5.724
10317SOL    HW231296   3.718   3.516   5.778
10318SOL     OW31297   5.413   2.784   6.198
10318SOL    HW131298   5.508   2.755   6.206
10318SOL    HW231299   5.405   2.849   6.123
10319SOL     OW31300   5.365   2.970   6.018
10319SOL    HW131301   5.451   2.972   5.966
10319SOL    HW231302   5.379   3.017   6.106
10320SOL     OW31303   3.837   2.599   7.183
10320SOL    HW131304   3.925   2.586   7.228
10320SOL    HW231305   3.824   2.696   7.161
10321SOL     OW31306   4.337   3.227   6.312
10321SOL    HW131307   4.288   3.140   6.321
10321SOL    HW231308   4.314   3.270   6.225
10322SOL     OW31309   5.017   3.090   7.009
10322SOL    HW131310   5.054   3.017   6.951
10322SOL    HW231311   5.069   3.095   7.094
10323SOL     OW31312   4.533   1.866   6.088
10323SOL    HW131313   4.573   1.957   6.079
10323SOL    HW231314   4.433   1.874   6.094
10324SOL     OW31315   3.921   2.838   6.850
10324SOL    HW131316   4.010   2.793   6.836
10324SOL    HW231317   3.848   2.773   6.831
10325SOL     OW31318   5.249   2.861   5.776
10325SOL    HW131319   5.186   2.785   5.789
10325SOL    HW231320   5.297   2.879   5.862
10326SOL     OW31321   4.911   3.654   7.202
10326SOL    HW131322   4.935   3.714   7.126
10326SOL    HW231323   4.918   3.559   7.172
10327SOL     OW31324   4.041   2.113   7.387
10327SOL    HW131325   4.112   2.184   7.393
10327SOL    HW231326   3.953   2.152   7.415
10328SOL     OW31327   5.190   3.279   6.539
10328SOL    HW131328   5.131   3.285   6.619
10328SOL    HW231329   5.175   3.191   6.493
10329SOL     OW31330   5.391   3.576   6.158
10329SOL    HW131331   5.350   3.553   6.070
10329SOL    HW231332   5.373   3.502   6.223
10330SOL     OW31333   4.322   2.591   5.856
10330SOL    HW131334   4.346   2.660   5.788
10330SOL    HW231335   4.244   2.624   5.910
10331SOL     OW31336   5.005   2.207   6.530
10331SOL    HW131337   4.919   2.157   6.517
10331SOL    HW231338   5.067   2.153   6.586
10332SOL     OW31339   5.300   3.524   5.893
10332SOL    HW131340   5.389   3.570   5.896
10332SOL    HW231341   5.279   3.500   5.798
10333SOL     OW31342   4.531   2.467   7.051
10333SOL    HW131343   4.484   2.464   7.140
10333SOL    HW231344   4.480   2.412   6.985
10334SOL     OW31345   5.118   2.331   7.260
10334SOL    HW131346   5.098   2.374   7.348
10334SOL    HW231347   5.196   2.269   7.269
10335SOL     OW31348   4.697   2.752   7.158
10335SOL    HW131349   4.743   2.668   7.129
10335SOL    HW231350   4.641   2.786   7.083
10336SOL     OW31351   4.715   2.272   6.828
10336SOL    HW131352   4.638   2.306   6.882
10336SOL    HW231353   4.681   2.221   6.749
10337SOL     OW31354   4.765   2.563   6.015
10337SOL    HW131355   4.791   2.559   6.111
10337SOL    HW231356   4.680   2.512   6.001
10338SOL     OW31357   3.800   2.673   6.375
10338SOL    HW131358   3.899   2.661   6.384
10338SOL    HW231359   3.776   2.768   6.396
10339SOL     OW31360   3.854   3.683   7.157
10339SOL    HW131361   3.844   3.668   7.256
10339SOL    HW231362   3.768   3.719   7.121
10340SOL     OW31363   4.589   2.210   5.781
10340SOL    HW131364   4.648   2.273   5.732
10340SOL    HW231365   4.608   2.116   5.752
10341SOL     OW31366   5.443   2.447   7.417
10341SOL    HW131367   5.417   2.536   7.381
10341SOL    HW231368   5.441   2.379   7.344
10342SOL     OW31369   5.086   3.006   6.131
10342SOL    HW131370   5.169   2.977   6.083
10342SOL    HW231371   5.037   3.073   6.075
10343SOL     OW31372   4.274   2.058   6.471
10343SOL    HW131373   4.269   2.053   6.571
10343SOL    HW231374   4.276   2.154   6.442
10344SOL     OW31375   4.732   3.318   6.063
10344SOL    HW131376   4.686   3.390   6.011
10344SOL    HW231377   4.728   3.338   6.161
10345SOL     OW31378   4.075   3.663   6.439
10345SOL    HW131379   4.125   3.577   6.445
10345SOL    HW231380   4.140   3.740   6.436
10346SOL     OW31381   5.519   2.928   6.459
10346SOL    HW131382   5.457   2.913   6.383
10346SOL    HW231383   5.467   2.939   6.544
10347SOL     OW31384   4.951   3.412   7.092
10347SOL    HW131385   4.957   3.335   7.156
10347SOL    HW231386   4.899   3.386   7.012
10348SOL     OW31387   4.045   2.805   5.828
10348SOL    HW131388   4.127   2.844   5.786
10348SOL    HW231389   4.018   2.723   5.779
10349SOL     OW31390   5.182   2.597   6.314
10349SOL    HW131391   5.177   2.532   6.389
10349SOL    HW231392   5.262   2.656   6.327
10350SOL     OW31393   4.185   3.128   7.313
10350SOL    HW131394   4.135   3.129   7.227
10350SOL    HW231395   4.122   3.110   7.389
10351SOL     OW31396   4.835   3.638   5.823
10351SOL    HW131397   4.775   3.576   5.873
10351SOL    HW231398   4.866   3.594   5.738
10352SOL     OW31399   3.926   2.147   7.084
10352SOL    HW131400   3.846   2.207   7.071
10352SOL    HW231401   3.916   2.098   7.170
10353SOL     OW31402   5.356   3.239   5.667
10353SOL    HW131403   5.324   3.333   5.657
10353SOL    HW231404   5.280   3.176   5.655
10354SOL     OW31405   4.188   3.605   5.909
10354SOL    HW131406   4.221   3.644   5.995
10354SOL    HW231407   4.264   3.598   5.844
10355SOL     OW31408   5.124   1.969   6.012
10355SOL    HW131409   5.100   1.932   5.922
10355SOL    HW231410   5.223   1.985   6.016
10356SOL     OW31411   3.973   3.647   6.827
10356SOL    HW131412   4.030   3.582   6.877
10356SOL    HW231413   3.957   3.614   6.734
10357SOL     OW31414   4.664   3.560   6.490
10357SOL    HW131415   4.744   3.503   6.511
10357SOL    HW231416   4.615   3.520   6.413
10358SOL     OW31417   4.106   2.562   6.066
10358SOL    HW131418   4.151   2.472   6.063
10358SOL    HW231419   4.012   2.551   6.099
10359SOL     OW31420   5.271   2.084   7.315
10359SOL    HW131421   5.266   2.121   7.407
10359SOL    HW231422   5.199   2.015   7.303
10360SOL     OW31423   4.338   1.984   5.703
10360SOL    HW131424   4.436   1.962   5.710
10360SOL    HW231425   4.307   1.967   5.610
10361SOL     OW31426   4.505   2.126   7.335
10361SOL    HW131427   4.572   2.065   7.378
10361SOL    HW231428   4.432   2.145   7.400
10362SOL     OW31429   4.612   3.376   6.781
10362SOL    HW131430   4.589   3.351   6.687
10362SOL    HW231431   4.673   3.307   6.820
10363SOL     OW31432   5.075   2.452   7.019
10363SOL    HW131433   5.103   2.409   7.104
10363SOL    HW231434   5.100   2.548   7.020
10364SOL     OW31435   4.527   3.264   6.510
10364SOL    HW131436   4.617   3.278   6.468
10364SOL    HW231437   4.456   3.266   6.439
10365SOL     OW31438   4.646   2.365   6.485
10365SOL    HW131439   4.621   2.356   6.389
10365SOL    HW231440   4.694   2.283   6.516
10366SOL     OW31441   4.263   1.926   6.098
10366SOL    HW131442   4.182   1.927   6.156
10366SOL    HW231443   4.266   2.009   6.043
10367SOL     OW31444   5.158   3.050   5.627
10367SOL    HW131445   5.190   2.974   5.684
10367SOL    HW231446   5.066   3.077   5.657
10368SOL     OW31447   4.021   1.897   5.757
10368SOL    HW131448   4.070   1.981   5.736
10368SOL    HW231449   4.083   1.832   5.802
10369SOL     OW31450   4.659   2.098   6.066
10369SOL    HW131451   4.611   2.139   5.988
10369SOL    HW231452   4.758   2.096   6.047
10370SOL     OW31453   4.800   2.545   7.050
10370SOL    HW131454   4.720   2.484   7.053
10370SOL    HW231455   4.881   2.492   7.026
10371SOL     OW31456   4.951   3.432   6.379
10371SOL    HW131457   4.972   3.506   6.314
10371SOL    HW231458   5.019   3.432   6.452
10372SOL     OW31459   4.183   3.014   6.327
10372SOL    HW131460   4.112   2.987   6.392
10372SOL    HW231461   4.157   2.986   6.234
10373SOL     OW31462   4.995   3.659   6.177
10373SOL    HW131463   5.039   3.723   6.113
10373SOL    HW231464   4.945   3.711   6.247
10374SOL     OW31465   4.756   2.411   5.602
10374SOL    HW131466   4.715   2.493   5.563
10374SOL    HW231467   4.820   2.437   5.675
10375SOL     OW31468   3.802   2.418   6.972
10375SOL    HW131469   3.894   2.417   6.931
10375SOL    HW231470   3.796   2.492   7.039
10376SOL     OW31471   4.285   2.084   6.733
10376SOL    HW131472   4.323   2.000   6.770
10376SOL    HW231473   4.197   2.103   6.777
10377SOL     OW31474   4.590   2.316   6.228
10377SOL    HW131475   4.558   2.388   6.166
10377SOL    HW231476   4.614   2.235   6.175
10378SOL     OW31477   4.741   1.901   6.339
10378SOL    HW131478   4.669   1.906   6.270
10378SOL    HW231479   4.717   1.832   6.408
10379SOL     OW31480   5.153   3.035   6.453
10379SOL    HW131481   5.098   2.951   6.446
10379SOL    HW231482   5.179   3.064   6.361
10380SOL     OW31483   5.190   2.452   6.578
10380SOL    HW131484   5.160   2.357   6.585
10380SOL    HW231485   5.263   2.468   6.644
10381SOL     OW31486   5.581   2.695   5.963
10381SOL    HW131487   5.623   2.631   6.027
10381SOL    HW231488   5.543   2.644   5.885
10382SOL     OW31489   4.212   3.247   5.760
10382SOL    HW131490   4.125   3.232   5.807
10382SOL    HW231491   4.195   3.273   5.665
10383SOL     OW31492   5.388   3.142   6.243
10383SOL    HW131493   5.487   3.150   6.257
10383SOL    HW231494   5.343   3.226   6.274
10384SOL     OW31495   5.114   2.437   5.664
10384SOL    HW131496   5.060   2.416   5.745
10384SOL    HW231497   5.205   2.396   5.673
10385SOL     OW31498   4.251   2.118   5.914
10385SOL    HW131499   4.278   2.059   5.839
10385SOL    HW231500   4.251   2.213   5.883
10386SOL     OW31501   5.478   3.085   7.174
10386SOL    HW131502   5.569   3.046   7.161
10386SOL    HW231503   5.486   3.181   7.198
10387SOL     OW31504   4.788   3.209   6.926
10387SOL    HW131505   4.708   3.186   6.981
10387SOL    HW231506   4.871   3.183   6.975
10388SOL     OW31507   5.316   3.491   7.211
10388SOL    HW131508   5.343   3.525   7.121
10388SOL    HW231509   5.395   3.453   7.257
10389SOL     OW31510   4.835   3.057   6.686
10389SOL    HW131511   4.795   3.101   6.767
10389SOL    HW231512   4.794   3.094   6.603
10390SOL     OW31513   5.362   2.961   6.665
10390SOL    HW131514   5.367   3.042   6.724
10390SOL    HW231515   5.276   2.963   6.614
10391SOL     OW31516   4.639   1.951   6.988
10391SOL    HW131517   4.664   1.931   6.893
10391SOL    HW231518   4.711   2.007   7.030
10392SOL     OW31519   4.704   2.978   7.305
10392SOL    HW131520   4.605   2.984   7.315
10392SOL    HW231521   4.727   2.898   7.249
10393SOL     OW31522   4.429   2.912   5.954
10393SOL    HW131523   4.415   2.919   6.053
10393SOL    HW231524   4.513   2.861   5.936
10394SOL     OW31525   4.134   2.675   6.837
10394SOL    HW131526   4.220   2.687   6.887
10394SOL    HW231527   4.092   2.588   6.864
10395SOL     OW31528   4.998   2.248   6.848
10395SOL    HW131529   5.019   2.322   6.912
10395SOL    HW231530   4.909   2.265   6.805
10396SOL     OW31531   3.788   3.426   6.917
10396SOL    HW131532   3.742   3.508   6.883
10396SOL    HW231533   3.886   3.445   6.926
10397SOL     OW31534   4.091   2.962   6.087
10397SOL    HW131535   4.084   3.045   6.031
10397SOL    HW231536   4.095   2.882   6.027
10398SOL     OW31537   4.290   2.399   6.451
10398SOL    HW131538   4.302   2.465   6.377
10398SOL    HW231539   4.336   2.433   6.534
10399SOL     OW31540   4.976   3.210   5.974
10399SOL    HW131541   5.026   3.287   6.014
10399SOL    HW231542   4.881   3.212   6.006
10400SOL     OW31543   4.996   3.307   6.728
10400SOL    HW131544   5.043   3.320   6.815
10400SOL    HW231545   4.930   3.233   6.737
10401SOL     OW31546   5.306   2.501   6.058
10401SOL    HW131547   5.275   2.562   6.131
10401SOL    HW231548   5.356   2.553   5.989
10402SOL     OW31549   4.078   3.372   6.915
10402SOL    HW131550   4.057   3.328   6.828
10402SOL    HW231551   4.175   3.398   6.918
10403SOL     OW31552   4.126   2.613   7.184
10403SOL    HW131553   4.194   2.668   7.137
10403SOL    HW231554   4.166   2.525   7.211
10404SOL     OW31555   5.311   2.641   7.256
10404SOL    HW131556   5.219   2.679   7.251
10404SOL    HW231557   5.371   2.688   7.191
10405SOL     OW31558   4.737   1.967   7.356
10405SOL    HW131559   4.743   2.052   7.304
10405SOL    HW231560   4.769   1.891   7.299
10406SOL     OW31561   4.228   1.912   7.326
10406SOL    HW131562   4.186   1.855   7.256
10406SOL    HW231563   4.162   1.981   7.358
10407SOL     OW31564   4.297   2.732   6.615
10407SOL    HW131565   4.341   2.821   6.606
10407SOL    HW231566   4.234   2.732   6.692
10408SOL     OW31567   5.084   2.724   6.631
10408SOL    HW131568   5.009   2.724   6.565
10408SOL    HW231569   5.121   2.632   6.640
10409SOL     OW31570   4.933   2.387   5.861
10409SOL    HW131571   4.946   2.303   5.915
10409SOL    HW231572   4.904   2.461   5.921
10410SOL     OW31573   4.031   2.075   6.817
10410SOL    HW131574   4.008   2.112   6.907
10410SOL    HW231575   4.001   1.980   6.811
10411SOL     OW31576   3.761   3.172   6.868
10411SOL    HW131577   3.814   3.123   6.936
10411SOL    HW231578   3.783   3.270   6.873
10412SOL     OW31579   4.456   2.496   6.650
10412SOL    HW131580   4.515   2.470   6.574
10412SOL    HW231581   4.428   2.592   6.639
10413SOL     OW31582   5.452   2.797   7.440
10413SOL    HW131583   5.406   2.790   7.351
10413SOL    HW231584   5.390   2.841   7.506
10414SOL     OW31585   4.031   1.925   6.204
10414SOL    HW131586   4.020   2.019   6.237
10414SOL    HW231587   4.026   1.862   6.281
10415SOL     OW31588   5.346   2.229   5.960
10415SOL    HW131589   5.348   2.153   6.024
10415SOL    HW231590   5.298   2.306   6.000
10416SOL     OW31591   4.747   2.628   6.552
10416SOL    HW131592   4.762   2.649   6.648
10416SOL    HW231593   4.717   2.533   6.543
10417SOL     OW31594   4.704   3.435   7.286
10417SOL    HW131595   4.684   3.479   7.198
10417SOL    HW231596   4.743   3.344   7.270
10418SOL     OW31597   5.583   3.380   7.191
10418SOL    HW131598   5.597   3.407   7.096
10418SOL    HW231599   5.666   3.402   7.244
10419SOL     OW31600   4.074   2.760   7.390
10419SOL    HW131601   4.150   2.804   7.438
10419SOL    HW231602   4.109   2.713   7.308
10420SOL     OW31603   5.264   2.136   5.711
10420SOL    HW131604   5.203   2.061   5.734
10420SOL    HW231605   5.286   2.188   5.794
10421SOL     OW31606   5.027   2.700   5.628
10421SOL    HW131607   5.061   2.607   5.643
10421SOL    HW231608   5.045   2.727   5.533
10422SOL     OW31609   4.792   3.195   6.435
10422SOL    HW131610   4.799   3.111   6.380
10422SOL    HW231611   4.854   3.264   6.399
10423SOL     OW31612   4.043   2.672   6.535
10423SOL    HW131613   4.136   2.708   6.540
10423SOL    HW231614   4.037   2.587   6.587
10424SOL     OW31615   4.063   2.371   6.592
10424SOL    HW131616   4.011   2.288   6.575
10424SOL    HW231617   4.140   2.376   6.528
10425SOL     OW31618   4.862   2.242   7.264
10425SOL    HW131619   4.817   2.305   7.328
10425SOL    HW231620   4.955   2.273   7.247
10426SOL     OW31621   4.884   2.069   7.063
10426SOL    HW131622   4.884   2.133   7.140
10426SOL    HW231623   4.912   2.117   6.980
10427SOL     OW31624   3.732   3.188   5.786
10427SOL    HW131625   3.639   3.209   5.755
10427SOL    HW231626   3.742   3.089   5.799
10428SOL     OW31627   3.812   3.663   6.513
10428SOL    HW131628   3.770   3.577   6.486
10428SOL    HW231629   3.906   3.666   6.479
10429SOL     OW31630   4.228   3.430   6.496
10429SOL    HW131631   4.294   3.504   6.505
10429SOL    HW231632   4.272   3.351   6.454
10430SOL     OW31633   4.726   2.658   6.824
10430SOL    HW131634   4.767   2.626   6.910
10430SOL    HW231635   4.630   2.631   6.821
10431SOL     OW31636   3.764   2.406   6.700
10431SOL    HW131637   3.849   2.373   6.659
10431SOL    HW231638   3.777   2.421   6.798
10432SOL     OW31639   3.913   2.382   7.308
10432SOL    HW131640   3.972   2.342   7.238
10432SOL    HW231641   3.855   2.453   7.267
10433SOL     OW31642   5.093   2.812   7.246
10433SOL    HW131643   5.132   2.901   7.266
10433SOL    HW231644   5.103   2.792   7.149
10434SOL     OW31645   4.539   2.434   5.911
10434SOL    HW131646   4.546   2.345   5.865
10434SOL    HW231647   4.445   2.468   5.903
10435SOL     OW31648   5.381   2.466   6.792
10435SOL    HW131649   5.343   2.397   6.854
10435SOL    HW231650   5.463   2.430   6.748
10436SOL     OW31651   3.976   3.426   7.330
10436SOL    HW131652   3.946   3.483   7.406
10436SOL    HW231653   3.969   3.329   7.356
10437SOL     OW31654   4.395   2.326   6.855
10437SOL    HW131655   4.361   2.237   6.825
10437SOL    HW231656   4.421   2.380   6.775
10438SOL     OW31657   4.654   3.540   7.051
10438SOL    HW131658   4.630   3.522   6.956
10438SOL    HW231659   4.684   3.634   7.061
10439SOL     OW31660   4.197   2.362   5.777
10439SOL    HW131661   4.258   2.442   5.781
10439SOL    HW231662   4.102   2.393   5.784
10440SOL     OW31663   3.883   2.999   7.052
10440SOL    HW131664   3.905   2.938   7.128
10440SOL    HW231665   3.893   2.950   6.966
10441SOL     OW31666   5.071   2.921   6.820
10441SOL    HW131667   5.095   2.858   6.746
10441SOL    HW231668   4.981   2.961   6.802
10442SOL     OW31669   5.026   2.717   5.895
10442SOL    HW131670   4.940   2.686   5.937
10442SOL    HW231671   5.022   2.703   5.796
10443SOL     OW31672   5.483   3.609   6.740
10443SOL    HW131673   5.544   3.639   6.667
10443SOL    HW231674   5.445   3.520   6.718
10444SOL     OW31675   4.976   3.593   6.714
10444SOL    HW131676   5.060   3.598   6.660
10444SOL    HW231677   4.953   3.497   6.732
10445SOL     OW31678   3.807   3.120   6.608
10445SOL    HW131679   3.802   3.119   6.708
10445SOL    HW231680   3.724   3.079   6.570
10446SOL     OW31681   4.412   3.524   7.302
10446SOL    HW131682   4.356   3.605   7.311
10446SOL    HW231683   4.464   3.528   7.216
10447SOL     OW31684   5.450   1.997   6.109
10447SOL    HW131685   5.523   1.980   6.042
10447SOL    HW231686   5.419   1.910   6.147
10448SOL     OW31687   5.112   3.435   6.063
10448SOL    HW131688   5.179   3.447   5.989
10448SOL    HW231689   5.072   3.524   6.086
10449SOL     OW31690   3.854   3.656   7.437
10449SOL    HW131691   3.813   3.582   7.490
10449SOL    HW231692   3.918   3.707   7.495
10450SOL     OW31693   5.004   2.789   6.258
10450SOL    HW131694   5.064   2.708   6.260
10450SOL    HW231695   5.044   2.858   6.198
10451SOL     OW31696   4.554   3.135   7.008
10451SOL    HW131697   4.549   3.168   7.103
10451SOL    HW231698   4.468   3.154   6.962
10452SOL     OW31699   4.396   3.478   5.740
10452SOL    HW131700   4.405   3.488   5.641
10452SOL    HW231701   4.356   3.389   5.761
10453SOL     OW31702   5.374   3.582   6.980
10453SOL    HW131703   5.427   3.592   6.896
10453SOL    HW231704   5.347   3.672   7.014
10454SOL     OW31705   5.565   2.037   6.549
10454SOL    HW131706   5.604   1.952   6.513
10454SOL    HW231707   5.467   2.039   6.530
10455SOL     OW31708   3.987   2.188   6.306
10455SOL    HW131709   3.908   2.239   6.272
10455SOL    HW231710   3.978   2.173   6.404
10456SOL     OW31711   4.918   3.474   5.617
10456SOL    HW131712   4.924   3.381   5.654
10456SOL    HW231713   4.859   3.474   5.537
10457SOL     OW31714   4.546   2.864   6.958
10457SOL    HW131715   4.586   2.863   6.866
10457SOL    HW231716   4.556   2.956   6.998
10458SOL     OW31717   4.640   2.772   5.877
10458SOL    HW131718   4.703   2.810   5.809
10458SOL    HW231719   4.680   2.689   5.916
10459SOL     OW31720   5.228   3.469   5.630
10459SOL    HW131721   5.136   3.506   5.637
10459SOL    HW231722   5.266   3.489   5.540
10460SOL     OW31723   4.096   3.150   7.076
10460SOL    HW131724   4.083   3.243   7.042
10460SOL    HW231725   4.012   3.098   7.063
10461SOL     OW31726   5.338   3.154   6.875
10461SOL    HW131727   5.398   3.157   6.955
10461SOL    HW231728   5.263   3.218   6.888
10462SOL     OW31729   4.763   2.960   6.282
10462SOL    HW131730   4.693   2.913   6.336
10462SOL    HW231731   4.822   2.892   6.239
10463SOL     OW31732   4.738   2.098   6.557
10463SOL    HW131733   4.730   2.062   6.464
10463SOL    HW231734   4.736   2.022   6.622
10464SOL     OW31735   4.314   3.349   6.077
10464SOL    HW131736   4.356   3.291   6.007
10464SOL    HW231737   4.270   3.428   6.033
10465SOL     OW31738   5.433   2.247   6.967
10465SOL    HW131739   5.506   2.316   6.971
10465SOL    HW231740   5.461   2.172   6.908
10466SOL     OW31741   3.979   3.210   5.876
10466SOL    HW131742   3.883   3.211   5.849
10466SOL    HW231743   3.991   3.263   5.960
10467SOL     OW31744   3.829   2.875   7.312
10467SOL    HW131745   3.752   2.842   7.366
10467SOL    HW231746   3.914   2.845   7.354
10468SOL     OW31747   4.396   2.065   7.075
10468SOL    HW131748   4.486   2.049   7.035
10468SOL    HW231749   4.404   2.070   7.174
10469SOL     OW31750   3.799   2.207   5.619
10469SOL    HW131751   3.707   2.179   5.590
10469SOL    HW231752   3.830   2.284   5.563
10470SOL     OW31753   5.164   2.718   6.984
10470SOL    HW131754   5.107   2.770   6.921
10470SOL    HW231755   5.260   2.730   6.960
10471SOL     OW31756   3.796   2.028   5.904
10471SOL    HW131757   3.779   2.111   5.850
10471SOL    HW231758   3.886   1.991   5.882
10472SOL     OW31759   4.907   3.197   5.705
10472SOL    HW131760   4.808   3.186   5.707
10472SOL    HW231761   4.941   3.212   5.798
10473SOL     OW31762   4.337   2.704   7.017
10473SOL    HW131763   4.393   2.785   7.000
10473SOL    HW231764   4.396   2.624   7.020
10474SOL     OW31765   5.217   3.629   6.545
10474SOL    HW131766   5.250   3.693   6.476
10474SOL    HW231767   5.283   3.623   6.620
10475SOL     OW31768   4.440   2.427   7.294
10475SOL    HW131769   4.459   2.492   7.368
10475SOL    HW231770   4.500   2.347   7.303
10476SOL     OW31771   5.174   3.082   7.219
10476SOL    HW131772   5.165   3.072   7.318
10476SOL    HW231773   5.270   3.075   7.193
10477SOL     OW31774   4.114   3.603   7.146
10477SOL    HW131775   4.023   3.644   7.144
10477SOL    HW231776   4.107   3.509   7.178
10478SOL     OW31777   5.398   2.745   6.840
10478SOL    HW131778   5.371   2.656   6.803
10478SOL    HW231779   5.399   2.813   6.767
10479SOL     OW31780   4.949   2.187   6.035
10479SOL    HW131781   5.014   2.113   6.024
10479SOL    HW231782   4.969   2.237   6.119
10480SOL     OW31783   4.318   2.607   6.238
10480SOL    HW131784   4.368   2.692   6.219
10480SOL    HW231785   4.230   2.609   6.190
10481SOL     OW31786   5.501   2.204   7.228
10481SOL    HW131787   5.484   2.235   7.134
10481SOL    HW231788   5.417   2.167   7.266
10482SOL     OW31789   5.454   2.796   7.103
10482SOL    HW131790   5.492   2.887   7.118
10482SOL    HW231791   5.446   2.779   7.004
10483SOL     OW31792   4.583   3.236   5.602
10483SOL    HW131793   4.537   3.251   5.690
10483SOL    HW231794   4.627   3.321   5.572
10484SOL     OW31795   4.385   3.652   6.539
10484SOL    HW131796   4.339   3.740   6.526
10484SOL    HW231797   4.484   3.664   6.532
10485SOL     OW31798   4.583   2.818   6.447
10485SOL    HW131799   4.637   2.749   6.495
10485SOL    HW231800   4.551   2.887   6.513
10486SOL     OW31801   4.807   2.846   5.673
10486SOL    HW131802   4.784   2.899   5.591
10486SOL    HW231803   4.888   2.790   5.654
10487SOL     OW31804   5.585   3.431   6.437
10487SOL    HW131805   5.514   3.419   6.367
10487SOL    HW231806   5.586   3.352   6.497
10488SOL     OW31807   3.945   3.176   7.430
10488SOL    HW131808   3.880   3.103   7.409
10488SOL    HW231809   3.949   3.190   7.528
10489SOL     OW31810   3.803   3.102   6.239
10489SOL    HW131811   3.802   3.055   6.327
10489SOL    HW231812   3.885   3.074   6.188
10490SOL     OW31813   4.396   3.253   7.210
10490SOL    HW131814   4.318   3.203   7.248
10490SOL    HW231815   4.393   3.348   7.241
10491SOL     OW31816   5.548   2.054   6.813
10491SOL    HW131817   5.544   1.964   6.857
10491SOL    HW231818   5.551   2.043   6.714
10492SOL     OW31819   4.152   2.286   6.106
10492SOL    HW131820   4.182   2.214   6.044
10492SOL    HW231821   4.113   2.246   6.189
10493SOL     OW31822   5.429   3.349   6.690
10493SOL    HW131823   5.336   3.324   6.663
10493SOL    HW231824   5.455   3.299   6.772
10494SOL     OW31825   4.041   2.409   6.866
10494SOL    HW131826   4.079   2.350   6.938
10494SOL    HW231827   4.081   2.383   6.778
10495SOL     OW31828   4.536   3.448   6.273
10495SOL    HW131829   4.568   3.458   6.179
10495SOL    HW231830   4.457   3.386   6.275
10496SOL     OW31831   5.148   2.076   6.698
10496SOL    HW131832   5.200   2.011   6.753
10496SOL    HW231833   5.099   2.139   6.759
10497SOL     OW31834   4.725   1.896   6.740
10497SOL    HW131835   4.662   1.824   6.709
10497SOL    HW231836   4.818   1.860   6.740
10498SOL     OW31837   4.494   3.192   5.887
10498SOL    HW131838   4.448   3.105   5.904
10498SOL    HW231839   4.585   3.189   5.928
10499SOL     OW31840   4.342   3.429   6.870
10499SOL    HW131841   4.337   3.511   6.927
10499SOL    HW231842   4.431   3.426   6.825
10500SOL     OW31843   5.076   1.914   5.754
10500SOL    HW131844   5.111   1.873   5.670
10500SOL    HW231845   4.986   1.876   5.774
10501SOL     OW31846   5.024   2.315   6.277
10501SOL    HW131847   4.965   2.395   6.281
10501SOL    HW231848   5.039   2.280   6.370
10502SOL     OW31849   5.317   2.083   6.468
10502SOL    HW131850   5.233   2.082   6.522
10502SOL    HW231851   5.319   2.166   6.412
10503SOL     OW31852   3.763   2.939   5.886
10503SOL    HW131853   3.862   2.928   5.877
10503SOL    HW231854   3.723   2.853   5.918
10504SOL     OW31855   4.599   3.508   5.923
10504SOL    HW131856   4.522   3.473   5.869
10504SOL    HW231857   4.567   3.579   5.985
10505SOL     OW31858   3.751   3.458   7.565
10505SOL    HW131859   3.732   3.362   7.586
10505SOL    HW231860   3.718   3.516   7.640
10506SOL     OW31861   5.249   2.861   7.638
10506SOL    HW131862   5.186   2.785   7.651
10506SOL    HW231863   5.297   2.879   7.724
10507SOL     OW31864   4.045   2.805   7.690
10507SOL    HW131865   4.127   2.844   7.648
10507SOL    HW231866   4.018   2.723   7.641
10508SOL     OW31867   4.835   3.638   7.685
10508SOL    HW131868   4.775   3.576   7.735
10508SOL    HW231869   4.866   3.594   7.600
10509SOL     OW31870   5.356   3.239   7.529
10509SOL    HW131871   5.324   3.333   7.519
10509SOL    HW231872   5.280   3.176   7.517
10510SOL     OW31873   5.158   3.050   7.489
10510SOL    HW131874   5.190   2.974   7.546
10510SOL    HW231875   5.066   3.077   7.519
10511SOL     OW31876   4.756   2.411   7.464
10511SOL    HW131877   4.715   2.493   7.425
10511SOL    HW231878   4.820   2.437   7.537
10512SOL     OW31879   4.212   3.247   7.622
10512SOL    HW131880   4.125   3.232   7.669
10512SOL    HW231881   4.195   3.273   7.527
10513SOL     OW31882   5.114   2.437   7.526
10513SOL    HW131883   5.060   2.416   7.607
10513SOL    HW231884   5.205   2.396   7.535
10514SOL     OW31885   5.264   2.136   7.573
10514SOL    HW131886   5.203   2.061   7.596
10514SOL    HW231887   5.286   2.188   7.656
10515SOL     OW31888   5.027   2.700   7.490
10515SOL    HW131889   5.061   2.607   7.505
10515SOL    HW231890   5.045   2.727   7.395
10516SOL     OW31891   4.197   2.362   7.639
10516SOL    HW131892   4.258   2.442   7.643
10516SOL    HW231893   4.102   2.393   7.646
10517SOL     OW31894   5.112   3.435   7.925
10517SOL    HW131895   5.179   3.447   7.851
10517SOL    HW231896   5.072   3.524   7.948
10518SOL     OW31897   4.396   3.478   7.602
10518SOL    HW131898   4.405   3.488   7.503
10518SOL    HW231899   4.356   3.389   7.623
10519SOL     OW31900   4.918   3.474   7.479
10519SOL    HW131901   4.924   3.381   7.516
10519SOL    HW231902   4.859   3.474   7.399
10520SOL     OW31903   5.228   3.469   7.492
10520SOL    HW131904   5.136   3.506   7.499
10520SOL    HW231905   5.266   3.489   7.402
10521SOL     OW31906   3.799   2.207   7.481
10521SOL    HW131907   3.707   2.179   7.452
10521SOL    HW231908   3.830   2.284   7.425
10522SOL     OW31909   4.583   3.236   7.464
10522SOL    HW131910   4.537   3.251   7.552
10522SOL    HW231911   4.627   3.321   7.434
10523SOL     OW31912   4.807   2.846   7.535
10523SOL    HW131913   4.784   2.899   7.453
10523SOL    HW231914   4.888   2.790   7.516
10524SOL     OW31915   5.076   1.914   7.616
10524SOL    HW131916   5.111   1.873   7.532
10524SOL    HW231917   4.986   1.876   7.636
10525SOL     OW31918   3.763   2.939   7.748
10525SOL    HW131919   3.862   2.928   7.739
10525SOL    HW231920   3.723   2.853   7.780
10526SOL     OW31921   3.949   3.999   0.996
10526SOL    HW131922   3.984   3.982   1.088
10526SOL    HW231923   3.861   3.954   0.984
10527SOL     OW31924   3.743   4.092   0.647
10527SOL    HW131925   3.661   4.135   0.686
10527SOL    HW231926   3.715   4.019   0.584
10528SOL     OW31927   4.293   4.999   1.165
10528SOL    HW131928   4.200   4.992   1.128
10528SOL    HW231929   4.304   5.088   1.209
10529SOL     OW31930   5.279   5.235   0.703
10529SOL    HW131931   5.222   5.219   0.784
10529SOL    HW231932   5.220   5.245   0.623
10530SOL     OW31933   4.859   4.427   0.717
10530SOL    HW131934   4.916   4.505   0.692
10530SOL    HW231935   4.799   4.453   0.793
10531SOL     OW31936   5.479   4.331   0.231
10531SOL    HW131937   5.467   4.318   0.132
10531SOL    HW231938   5.449   4.250   0.280
10532SOL     OW31939   4.492   4.868   1.023
10532SOL    HW131940   4.414   4.885   1.083
10532SOL    HW231941   4.526   4.955   0.987
10533SOL     OW31942   4.574   4.522   1.823
10533SOL    HW131943   4.570   4.598   1.888
10533SOL    HW231944   4.596   4.558   1.732
10534SOL     OW31945   4.409   4.736   0.665
10534SOL    HW131946   4.478   4.720   0.735
10534SOL    HW231947   4.336   4.793   0.703
10535SOL     OW31948   4.410   4.885   1.803
10535SOL    HW131949   4.470   4.964   1.817
10535SOL    HW231950   4.324   4.916   1.762
10536SOL     OW31951   4.059   5.159   1.061
10536SOL    HW131952   3.981   5.128   1.008
10536SOL    HW231953   4.117   5.217   1.004
10537SOL     OW31954   5.184   5.229   1.339
10537SOL    HW131955   5.208   5.323   1.365
10537SOL    HW231956   5.168   5.175   1.421
10538SOL     OW31957   4.162   4.116   1.499
10538SOL    HW131958   4.244   4.060   1.508
10538SOL    HW231959   4.081   4.058   1.503
10539SOL     OW31960   5.327   4.171   0.737
10539SOL    HW131961   5.253   4.217   0.687
10539SOL    HW231962   5.378   4.239   0.790
10540SOL     OW31963   3.955   5.437   0.483
10540SOL    HW131964   3.989   5.514   0.537
10540SOL    HW231965   3.999   5.437   0.393
10541SOL     OW31966   4.851   5.065   1.690
10541SOL    HW131967   4.898   5.065   1.778
10541SOL    HW231968   4.803   4.978   1.679
10542SOL     OW31969   3.954   5.158   0.538
10542SOL    HW131970   3.928   5.254   0.538
10542SOL    HW231971   3.883   5.104   0.583
10543SOL     OW31972   3.964   4.815   0.886
10543SOL    HW131973   3.978   4.731   0.938
10543SOL    HW231974   3.909   4.879   0.941
10544SOL     OW31975   4.344   5.510   1.439
10544SOL    HW131976   4.252   5.493   1.474
10544SOL    HW231977   4.372   5.602   1.465
10545SOL     OW31978   5.318   3.838   1.480
10545SOL    HW131979   5.300   3.905   1.408
10545SOL    HW231980   5.315   3.884   1.569
10546SOL     OW31981   3.846   4.367   0.563
10546SOL    HW131982   3.801   4.279   0.580
10546SOL    HW231983   3.845   4.421   0.647
10547SOL     OW31984   5.566   5.491   0.359
10547SOL    HW131985   5.620   5.462   0.439
10547SOL    HW231986   5.596   5.581   0.330
10548SOL     OW31987   3.751   5.320   0.117
10548SOL    HW131988   3.732   5.224   0.138
10548SOL    HW231989   3.718   5.378   0.192
10549SOL     OW31990   5.413   4.646   0.612
10549SOL    HW131991   5.508   4.617   0.620
10549SOL    HW231992   5.405   4.711   0.537
10550SOL     OW31993   5.365   4.832   0.432
10550SOL    HW131994   5.451   4.834   0.380
10550SOL    HW231995   5.379   4.879   0.520
10551SOL     OW31996   3.837   4.461   1.597
10551SOL    HW131997   3.925   4.448   1.642
10551SOL    HW231998   3.824   4.558   1.575
10552SOL     OW31999   4.337   5.089   0.726
10552SOL    HW132000   4.288   5.002   0.735
10552SOL    HW232001   4.314   5.132   0.639
10553SOL     OW32002   5.017   4.952   1.423
10553SOL    HW132003   5.054   4.879   1.365
10553SOL    HW232004   5.069   4.957   1.508
10554SOL     OW32005   4.533   3.728   0.502
10554SOL    HW132006   4.573   3.819   0.493
10554SOL    HW232007   4.433   3.736   0.508
10555SOL     OW32008   3.921   4.700   1.264
10555SOL    HW132009   4.010   4.655   1.250
10555SOL    HW232010   3.848   4.635   1.245
10556SOL     OW32011   5.249   4.723   0.190
10556SOL    HW132012   5.186   4.647   0.203
10556SOL    HW232013   5.297   4.741   0.276
10557SOL     OW32014   4.911   5.516   1.616
10557SOL    HW132015   4.935   5.576   1.540
10557SOL    HW232016   4.918   5.421   1.586
10558SOL     OW32017   4.041   3.975   1.801
10558SOL    HW132018   4.112   4.046   1.807
10558SOL    HW232019   3.953   4.014   1.829
10559SOL     OW32020   5.190   5.141   0.953
10559SOL    HW132021   5.131   5.147   1.033
10559SOL    HW232022   5.175   5.053   0.907
10560SOL     OW32023   5.391   5.438   0.572
10560SOL    HW132024   5.350   5.415   0.484
10560SOL    HW232025   5.373   5.364   0.637
10561SOL     OW32026   5.005   4.069   0.944
10561SOL    HW132027   4.919   4.019   0.931
10561SOL    HW232028   5.067   4.015   1.000
10562SOL     OW32029   5.300   5.386   0.307
10562SOL    HW132030   5.389   5.432   0.310
10562SOL    HW232031   5.279   5.362   0.212
10563SOL     OW32032   4.531   4.329   1.465
10563SOL    HW132033   4.484   4.326   1.554
10563SOL    HW232034   4.480   4.274   1.399
10564SOL     OW32035   5.118   4.193   1.674
10564SOL    HW132036   5.098   4.236   1.762
10564SOL    HW232037   5.196   4.131   1.683
10565SOL     OW32038   4.697   4.614   1.572
10565SOL    HW132039   4.743   4.530   1.543
10565SOL    HW232040   4.641   4.648   1.497
10566SOL     OW32041   4.715   4.134   1.242
10566SOL    HW132042   4.638   4.168   1.296
10566SOL    HW232043   4.681   4.083   1.163
10567SOL     OW32044   4.765   4.425   0.429
10567SOL    HW132045   4.791   4.421   0.525
10567SOL    HW232046   4.680   4.374   0.415
10568SOL     OW32047   3.800   4.535   0.789
10568SOL    HW132048   3.899   4.523   0.798
10568SOL    HW232049   3.776   4.630   0.810
10569SOL     OW32050   3.854   5.545   1.571
10569SOL    HW132051   3.844   5.530   1.670
10569SOL    HW232052   3.768   5.581   1.535
10570SOL     OW32053   5.443   4.309   1.831
10570SOL    HW132054   5.417   4.398   1.795
10570SOL    HW232055   5.441   4.241   1.758
10571SOL     OW32056   5.086   4.868   0.545
10571SOL    HW132057   5.169   4.839   0.497
10571SOL    HW232058   5.037   4.935   0.489
10572SOL     OW32059   4.274   3.920   0.885
10572SOL    HW132060   4.269   3.915   0.985
10572SOL    HW232061   4.276   4.016   0.856
10573SOL     OW32062   4.732   5.180   0.477
10573SOL    HW132063   4.686   5.252   0.425
10573SOL    HW232064   4.728   5.200   0.575
10574SOL     OW32065   4.075   5.525   0.853
10574SOL    HW132066   4.125   5.439   0.859
10574SOL    HW232067   4.140   5.602   0.850
10575SOL     OW32068   5.519   4.790   0.873
10575SOL    HW132069   5.457   4.775   0.797
10575SOL    HW232070   5.467   4.801   0.958
10576SOL     OW32071   4.951   5.274   1.506
10576SOL    HW132072   4.957   5.197   1.570
10576SOL    HW232073   4.899   5.248   1.426
10577SOL     OW32074   5.182   4.459   0.728
10577SOL    HW132075   5.177   4.394   0.803
10577SOL    HW232076   5.262   4.518   0.741
10578SOL     OW32077   4.185   4.990   1.727
10578SOL    HW132078   4.135   4.991   1.641
10578SOL    HW232079   4.122   4.972   1.803
10579SOL     OW32080   4.835   5.500   0.237
10579SOL    HW132081   4.775   5.438   0.287
10579SOL    HW232082   4.866   5.456   0.152
10580SOL     OW32083   3.926   4.009   1.498
10580SOL    HW132084   3.846   4.069   1.485
10580SOL    HW232085   3.916   3.960   1.584
10581SOL     OW32086   5.356   5.101   0.081
10581SOL    HW132087   5.324   5.195   0.071
10581SOL    HW232088   5.280   5.038   0.069
10582SOL     OW32089   4.188   5.467   0.323
10582SOL    HW132090   4.221   5.506   0.409
10582SOL    HW232091   4.264   5.460   0.258
10583SOL     OW32092   5.124   3.831   0.426
10583SOL    HW132093   5.100   3.794   0.336
10583SOL    HW232094   5.223   3.847   0.430
10584SOL     OW32095   3.973   5.509   1.241
10584SOL    HW132096   4.030   5.444   1.291
10584SOL    HW232097   3.957   5.476   1.148
10585SOL     OW32098   4.664   5.422   0.904
10585SOL    HW132099   4.744   5.365   0.925
10585SOL    HW232100   4.615   5.382   0.827
10586SOL     OW32101   4.106   4.424   0.480
10586SOL    HW132102   4.151   4.334   0.477
10586SOL    HW232103   4.012   4.413   0.513
10587SOL     OW32104   5.271   3.946   1.729
10587SOL    HW132105   5.266   3.983   1.821
10587SOL    HW232106   5.199   3.877   1.717
10588SOL     OW32107   4.505   3.988   1.749
10588SOL    HW132108   4.572   3.927   1.792
10588SOL    HW232109   4.432   4.007   1.814
10589SOL     OW32110   4.612   5.238   1.195
10589SOL    HW132111   4.589   5.213   1.101
10589SOL    HW232112   4.673   5.169   1.234
10590SOL     OW32113   5.075   4.314   1.433
10590SOL    HW132114   5.103   4.271   1.518
10590SOL    HW232115   5.100   4.410   1.434
10591SOL     OW32116   4.527   5.126   0.924
10591SOL    HW132117   4.617   5.140   0.882
10591SOL    HW232118   4.456   5.128   0.853
10592SOL     OW32119   4.646   4.227   0.899
10592SOL    HW132120   4.621   4.218   0.803
10592SOL    HW232121   4.694   4.145   0.930
10593SOL     OW32122   4.263   3.788   0.512
10593SOL    HW132123   4.182   3.789   0.570
10593SOL    HW232124   4.266   3.871   0.457
10594SOL     OW32125   5.158   4.912   0.041
10594SOL    HW132126   5.190   4.836   0.098
10594SOL    HW232127   5.066   4.939   0.071
10595SOL     OW32128   4.659   3.960   0.480
10595SOL    HW132129   4.611   4.001   0.402
10595SOL    HW232130   4.758   3.958   0.461
10596SOL     OW32131   4.800   4.407   1.464
10596SOL    HW132132   4.720   4.346   1.467
10596SOL    HW232133   4.881   4.354   1.440
10597SOL     OW32134   4.951   5.294   0.793
10597SOL    HW132135   4.972   5.368   0.728
10597SOL    HW232136   5.019   5.294   0.866
10598SOL     OW32137   4.183   4.876   0.741
10598SOL    HW132138   4.112   4.849   0.806
10598SOL    HW232139   4.157   4.848   0.648
10599SOL     OW32140   4.995   5.521   0.591
10599SOL    HW132141   5.039   5.585   0.527
10599SOL    HW232142   4.945   5.573   0.661
10600SOL     OW32143   4.756   4.273   0.016
10600SOL    HW132144   4.715   4.355  -0.023
10600SOL    HW232145   4.820   4.299   0.089
10601SOL     OW32146   3.802   4.280   1.386
10601SOL    HW132147   3.894   4.279   1.345
10601SOL    HW232148   3.796   4.354   1.453
10602SOL     OW32149   4.285   3.946   1.147
10602SOL    HW132150   4.323   3.862   1.184
10602SOL    HW232151   4.197   3.965   1.191
10603SOL     OW32152   4.590   4.178   0.642
10603SOL    HW132153   4.558   4.250   0.580
10603SOL    HW232154   4.614   4.097   0.589
10604SOL     OW32155   4.741   3.763   0.753
10604SOL    HW132156   4.669   3.768   0.684
10604SOL    HW232157   4.717   3.694   0.822
10605SOL     OW32158   5.153   4.897   0.867
10605SOL    HW132159   5.098   4.813   0.860
10605SOL    HW232160   5.179   4.926   0.775
10606SOL     OW32161   5.190   4.314   0.992
10606SOL    HW132162   5.160   4.219   0.999
10606SOL    HW232163   5.263   4.330   1.058
10607SOL     OW32164   4.212   5.109   0.174
10607SOL    HW132165   4.125   5.094   0.221
10607SOL    HW232166   4.195   5.135   0.079
10608SOL     OW32167   5.388   5.004   0.657
10608SOL    HW132168   5.487   5.012   0.671
10608SOL    HW232169   5.343   5.088   0.688
10609SOL     OW32170   4.251   3.980   0.328
10609SOL    HW132171   4.278   3.921   0.253
10609SOL    HW232172   4.251   4.075   0.297
10610SOL     OW32173   5.478   4.947   1.588
10610SOL    HW132174   5.569   4.908   1.575
10610SOL    HW232175   5.486   5.043   1.612
10611SOL     OW32176   4.788   5.071   1.340
10611SOL    HW132177   4.708   5.048   1.395
10611SOL    HW232178   4.871   5.045   1.389
10612SOL     OW32179   5.316   5.353   1.625
10612SOL    HW132180   5.343   5.387   1.535
10612SOL    HW232181   5.395   5.315   1.671
10613SOL     OW32182   4.835   4.919   1.100
10613SOL    HW132183   4.795   4.963   1.181
10613SOL    HW232184   4.794   4.956   1.017
10614SOL     OW32185   5.362   4.823   1.079
10614SOL    HW132186   5.367   4.904   1.138
10614SOL    HW232187   5.276   4.825   1.028
10615SOL     OW32188   4.639   3.813   1.402
10615SOL    HW132189   4.664   3.793   1.307
10615SOL    HW232190   4.711   3.869   1.444
10616SOL     OW32191   4.704   4.840   1.719
10616SOL    HW132192   4.605   4.846   1.729
10616SOL    HW232193   4.727   4.760   1.663
10617SOL     OW32194   4.134   4.537   1.251
10617SOL    HW132195   4.220   4.549   1.301
10617SOL    HW232196   4.092   4.450   1.278
10618SOL     OW32197   4.998   4.110   1.262
10618SOL    HW132198   5.019   4.184   1.326
10618SOL    HW232199   4.909   4.127   1.219
10619SOL     OW32200   3.788   5.288   1.331
10619SOL    HW132201   3.742   5.370   1.297
10619SOL    HW232202   3.886   5.307   1.340
10620SOL     OW32203   4.091   4.824   0.501
10620SOL    HW132204   4.084   4.907   0.445
10620SOL    HW232205   4.095   4.744   0.441
10621SOL     OW32206   4.290   4.261   0.865
10621SOL    HW132207   4.302   4.327   0.791
10621SOL    HW232208   4.336   4.295   0.948
10622SOL     OW32209   4.976   5.072   0.388
10622SOL    HW132210   5.026   5.149   0.428
10622SOL    HW232211   4.881   5.074   0.420
10623SOL     OW32212   4.996   5.169   1.142
10623SOL    HW132213   5.043   5.182   1.229
10623SOL    HW232214   4.930   5.095   1.151
10624SOL     OW32215   5.306   4.363   0.472
10624SOL    HW132216   5.275   4.424   0.545
10624SOL    HW232217   5.356   4.415   0.403
10625SOL     OW32218   4.078   5.234   1.329
10625SOL    HW132219   4.057   5.190   1.242
10625SOL    HW232220   4.175   5.260   1.332
10626SOL     OW32221   4.126   4.475   1.598
10626SOL    HW132222   4.194   4.530   1.551
10626SOL    HW232223   4.166   4.387   1.625
10627SOL     OW32224   5.311   4.503   1.670
10627SOL    HW132225   5.219   4.541   1.665
10627SOL    HW232226   5.371   4.550   1.605
10628SOL     OW32227   4.737   3.829   1.770
10628SOL    HW132228   4.743   3.914   1.718
10628SOL    HW232229   4.769   3.753   1.713
10629SOL     OW32230   4.228   3.774   1.740
10629SOL    HW132231   4.186   3.717   1.670
10629SOL    HW232232   4.162   3.843   1.772
10630SOL     OW32233   4.297   4.594   1.029
10630SOL    HW132234   4.341   4.683   1.020
10630SOL    HW232235   4.234   4.594   1.106
10631SOL     OW32236   5.084   4.586   1.045
10631SOL    HW132237   5.009   4.586   0.979
10631SOL    HW232238   5.121   4.494   1.054
10632SOL     OW32239   4.933   4.249   0.275
10632SOL    HW132240   4.946   4.165   0.329
10632SOL    HW232241   4.904   4.323   0.335
10633SOL     OW32242   4.031   3.937   1.231
10633SOL    HW132243   4.008   3.974   1.321
10633SOL    HW232244   4.001   3.842   1.225
10634SOL     OW32245   3.761   5.034   1.282
10634SOL    HW132246   3.814   4.985   1.350
10634SOL    HW232247   3.783   5.132   1.287
10635SOL     OW32248   4.456   4.358   1.064
10635SOL    HW132249   4.515   4.332   0.988
10635SOL    HW232250   4.428   4.454   1.053
10636SOL     OW32251   5.452   4.659   1.854
10636SOL    HW132252   5.406   4.652   1.765
10636SOL    HW232253   5.390   4.703   1.920
10637SOL     OW32254   4.031   3.787   0.618
10637SOL    HW132255   4.020   3.881   0.651
10637SOL    HW232256   4.026   3.724   0.695
10638SOL     OW32257   4.747   4.490   0.966
10638SOL    HW132258   4.762   4.511   1.062
10638SOL    HW232259   4.717   4.395   0.957
10639SOL     OW32260   4.704   5.297   1.700
10639SOL    HW132261   4.684   5.341   1.612
10639SOL    HW232262   4.743   5.206   1.684
10640SOL     OW32263   5.583   5.242   1.605
10640SOL    HW132264   5.597   5.269   1.510
10640SOL    HW232265   5.666   5.264   1.658
10641SOL     OW32266   4.074   4.622   1.804
10641SOL    HW132267   4.150   4.666   1.852
10641SOL    HW232268   4.109   4.575   1.722
10642SOL     OW32269   4.792   5.057   0.849
10642SOL    HW132270   4.799   4.973   0.794
10642SOL    HW232271   4.854   5.126   0.813
10643SOL     OW32272   4.043   4.534   0.949
10643SOL    HW132273   4.136   4.570   0.954
10643SOL    HW232274   4.037   4.449   1.001
10644SOL     OW32275   4.063   4.233   1.006
10644SOL    HW132276   4.011   4.150   0.989
10644SOL    HW232277   4.140   4.238   0.942
10645SOL     OW32278   4.862   4.104   1.678
10645SOL    HW132279   4.817   4.167   1.742
10645SOL    HW232280   4.955   4.135   1.661
10646SOL     OW32281   4.884   3.931   1.477
10646SOL    HW132282   4.884   3.995   1.554
10646SOL    HW232283   4.912   3.979   1.394
10647SOL     OW32284   3.732   5.050   0.200
10647SOL    HW132285   3.639   5.071   0.169
10647SOL    HW232286   3.742   4.951   0.213
10648SOL     OW32287   3.812   5.525   0.927
10648SOL    HW132288   3.770   5.439   0.900
10648SOL    HW232289   3.906   5.528   0.893
10649SOL     OW32290   4.228   5.292   0.910
10649SOL    HW132291   4.294   5.366   0.919
10649SOL    HW232292   4.272   5.213   0.868
10650SOL     OW32293   4.726   4.520   1.238
10650SOL    HW132294   4.767   4.488   1.324
10650SOL    HW232295   4.630   4.493   1.235
10651SOL     OW32296   3.764   4.268   1.114
10651SOL    HW132297   3.849   4.235   1.073
10651SOL    HW232298   3.777   4.283   1.212
10652SOL     OW32299   3.913   4.244   1.722
10652SOL    HW132300   3.972   4.204   1.652
10652SOL    HW232301   3.855   4.315   1.681
10653SOL     OW32302   5.093   4.674   1.660
10653SOL    HW132303   5.132   4.763   1.680
10653SOL    HW232304   5.103   4.654   1.563
10654SOL     OW32305   5.381   4.328   1.206
10654SOL    HW132306   5.343   4.259   1.268
10654SOL    HW232307   5.463   4.292   1.162
10655SOL     OW32308   3.976   5.288   1.744
10655SOL    HW132309   3.946   5.345   1.820
10655SOL    HW232310   3.969   5.191   1.770
10656SOL     OW32311   4.395   4.188   1.269
10656SOL    HW132312   4.361   4.099   1.239
10656SOL    HW232313   4.421   4.242   1.189
10657SOL     OW32314   4.654   5.402   1.465
10657SOL    HW132315   4.630   5.384   1.370
10657SOL    HW232316   4.684   5.496   1.475
10658SOL     OW32317   3.883   4.861   1.466
10658SOL    HW132318   3.905   4.800   1.542
10658SOL    HW232319   3.893   4.812   1.380
10659SOL     OW32320   5.071   4.783   1.234
10659SOL    HW132321   5.095   4.720   1.160
10659SOL    HW232322   4.981   4.823   1.216
10660SOL     OW32323   5.026   4.579   0.309
10660SOL    HW132324   4.940   4.548   0.351
10660SOL    HW232325   5.022   4.565   0.210
10661SOL     OW32326   5.483   5.471   1.154
10661SOL    HW132327   5.544   5.501   1.081
10661SOL    HW232328   5.445   5.382   1.132
10662SOL     OW32329   4.976   5.455   1.128
10662SOL    HW132330   5.060   5.460   1.074
10662SOL    HW232331   4.953   5.359   1.146
10663SOL     OW32332   3.807   4.982   1.022
10663SOL    HW132333   3.802   4.981   1.122
10663SOL    HW232334   3.724   4.941   0.984
10664SOL     OW32335   4.412   5.386   1.716
10664SOL    HW132336   4.356   5.467   1.725
10664SOL    HW232337   4.464   5.390   1.630
10665SOL     OW32338   5.450   3.859   0.523
10665SOL    HW132339   5.523   3.842   0.456
10665SOL    HW232340   5.419   3.772   0.561
10666SOL     OW32341   5.112   5.297   0.477
10666SOL    HW132342   5.179   5.309   0.403
10666SOL    HW232343   5.072   5.386   0.500
10667SOL     OW32344   3.854   5.518   1.851
10667SOL    HW132345   3.813   5.444   1.904
10667SOL    HW232346   3.918   5.569   1.909
10668SOL     OW32347   5.004   4.651   0.672
10668SOL    HW132348   5.064   4.570   0.674
10668SOL    HW232349   5.044   4.720   0.612
10669SOL     OW32350   4.554   4.997   1.422
10669SOL    HW132351   4.549   5.030   1.517
10669SOL    HW232352   4.468   5.016   1.376
10670SOL     OW32353   4.396   5.340   0.154
10670SOL    HW132354   4.405   5.350   0.055
10670SOL    HW232355   4.356   5.251   0.175
10671SOL     OW32356   5.374   5.444   1.394
10671SOL    HW132357   5.427   5.454   1.310
10671SOL    HW232358   5.347   5.534   1.428
10672SOL     OW32359   5.565   3.899   0.963
10672SOL    HW132360   5.604   3.814   0.927
10672SOL    HW232361   5.467   3.901   0.944
10673SOL     OW32362   3.987   4.050   0.720
10673SOL    HW132363   3.908   4.101   0.686
10673SOL    HW232364   3.978   4.035   0.818
10674SOL     OW32365   4.918   5.336   0.031
10674SOL    HW132366   4.924   5.243   0.068
10674SOL    HW232367   4.859   5.336  -0.049
10675SOL     OW32368   4.546   4.726   1.372
10675SOL    HW132369   4.586   4.725   1.280
10675SOL    HW232370   4.556   4.818   1.412
10676SOL     OW32371   5.228   5.331   0.044
10676SOL    HW132372   5.136   5.368   0.051
10676SOL    HW232373   5.266   5.351  -0.046
10677SOL     OW32374   4.096   5.012   1.490
10677SOL    HW132375   4.083   5.105   1.456
10677SOL    HW232376   4.012   4.960   1.477
10678SOL     OW32377   5.338   5.016   1.289
10678SOL    HW132378   5.398   5.019   1.369
10678SOL    HW232379   5.263   5.080   1.302
10679SOL     OW32380   4.763   4.822   0.696
10679SOL    HW132381   4.693   4.775   0.750
10679SOL    HW232382   4.822   4.754   0.653
10680SOL     OW32383   4.738   3.960   0.971
10680SOL    HW132384   4.730   3.924   0.878
10680SOL    HW232385   4.736   3.884   1.036
10681SOL     OW32386   4.314   5.211   0.491
10681SOL    HW132387   4.356   5.153   0.421
10681SOL    HW232388   4.270   5.290   0.447
10682SOL     OW32389   5.433   4.109   1.381
10682SOL    HW132390   5.506   4.178   1.385
10682SOL    HW232391   5.461   4.034   1.322
10683SOL     OW32392   3.979   5.072   0.290
10683SOL    HW132393   3.883   5.073   0.263
10683SOL    HW232394   3.991   5.125   0.374
10684SOL     OW32395   3.829   4.737   1.726
10684SOL    HW132396   3.752   4.704   1.780
10684SOL    HW232397   3.914   4.707   1.768
10685SOL     OW32398   4.396   3.927   1.489
10685SOL    HW132399   4.486   3.911   1.449
10685SOL    HW232400   4.404   3.932   1.588
10686SOL     OW32401   5.164   4.580   1.398
10686SOL    HW132402   5.107   4.632   1.335
10686SOL    HW232403   5.260   4.592   1.374
10687SOL     OW32404   4.907   5.059   0.119
10687SOL    HW132405   4.808   5.048   0.121
10687SOL    HW232406   4.941   5.074   0.212
10688SOL     OW32407   4.337   4.566   1.431
10688SOL    HW132408   4.393   4.647   1.414
10688SOL    HW232409   4.396   4.486   1.434
10689SOL     OW32410   5.217   5.491   0.959
10689SOL    HW132411   5.250   5.555   0.890
10689SOL    HW232412   5.283   5.485   1.034
10690SOL     OW32413   4.440   4.289   1.708
10690SOL    HW132414   4.459   4.354   1.782
10690SOL    HW232415   4.500   4.209   1.717
10691SOL     OW32416   5.174   4.944   1.633
10691SOL    HW132417   5.165   4.934   1.732
10691SOL    HW232418   5.270   4.937   1.607
10692SOL     OW32419   4.114   5.465   1.560
10692SOL    HW132420   4.023   5.506   1.558
10692SOL    HW232421   4.107   5.371   1.592
10693SOL     OW32422   5.398   4.607   1.254
10693SOL    HW132423   5.371   4.518   1.217
10693SOL    HW232424   5.399   4.675   1.181
10694SOL     OW32425   4.949   4.049   0.449
10694SOL    HW132426   5.014   3.975   0.438
10694SOL    HW232427   4.969   4.099   0.533
10695SOL     OW32428   4.318   4.469   0.652
10695SOL    HW132429   4.368   4.554   0.633
10695SOL    HW232430   4.230   4.471   0.604
10696SOL     OW32431   5.501   4.066   1.642
10696SOL    HW132432   5.484   4.097   1.548
10696SOL    HW232433   5.417   4.029   1.680
10697SOL     OW32434   5.454   4.658   1.517
10697SOL    HW132435   5.492   4.749   1.532
10697SOL    HW232436   5.446   4.641   1.418
10698SOL     OW32437   4.583   5.098   0.016
10698SOL    HW132438   4.537   5.113   0.104
10698SOL    HW232439   4.627   5.183  -0.014
10699SOL     OW32440   4.385   5.514   0.953
10699SOL    HW132441   4.339   5.602   0.940
10699SOL    HW232442   4.484   5.526   0.946
10700SOL     OW32443   4.583   4.680   0.861
10700SOL    HW132444   4.637   4.611   0.909
10700SOL    HW232445   4.551   4.749   0.927
10701SOL     OW32446   5.585   5.293   0.851
10701SOL    HW132447   5.514   5.281   0.781
10701SOL    HW232448   5.586   5.214   0.911
10702SOL     OW32449   3.945   5.038   1.844
10702SOL    HW132450   3.880   4.965   1.823
10702SOL    HW232451   3.949   5.052   1.942
10703SOL     OW32452   3.803   4.964   0.653
10703SOL    HW132453   3.802   4.917   0.741
10703SOL    HW232454   3.885   4.936   0.602
10704SOL     OW32455   4.396   5.115   1.624
10704SOL    HW132456   4.318   5.065   1.662
10704SOL    HW232457   4.393   5.210   1.655
10705SOL     OW32458   5.548   3.916   1.227
10705SOL    HW132459   5.544   3.826   1.271
10705SOL    HW232460   5.551   3.905   1.128
10706SOL     OW32461   4.152   4.148   0.520
10706SOL    HW132462   4.182   4.076   0.458
10706SOL    HW232463   4.113   4.108   0.603
10707SOL     OW32464   5.429   5.211   1.104
10707SOL    HW132465   5.336   5.186   1.077
10707SOL    HW232466   5.455   5.161   1.186
10708SOL     OW32467   4.041   4.271   1.280
10708SOL    HW132468   4.079   4.212   1.352
10708SOL    HW232469   4.081   4.245   1.192
10709SOL     OW32470   4.536   5.310   0.687
10709SOL    HW132471   4.568   5.320   0.593
10709SOL    HW232472   4.457   5.248   0.689
10710SOL     OW32473   5.148   3.938   1.112
10710SOL    HW132474   5.200   3.873   1.167
10710SOL    HW232475   5.099   4.001   1.173
10711SOL     OW32476   4.725   3.758   1.154
10711SOL    HW132477   4.662   3.686   1.123
10711SOL    HW232478   4.818   3.722   1.154
10712SOL     OW32479   4.494   5.054   0.301
10712SOL    HW132480   4.448   4.967   0.318
10712SOL    HW232481   4.585   5.051   0.342
10713SOL     OW32482   4.342   5.291   1.284
10713SOL    HW132483   4.337   5.373   1.341
10713SOL    HW232484   4.431   5.288   1.239
10714SOL     OW32485   5.024   4.177   0.691
10714SOL    HW132486   4.965   4.257   0.695
10714SOL    HW232487   5.039   4.142   0.784
10715SOL     OW32488   5.317   3.945   0.882
10715SOL    HW132489   5.233   3.944   0.936
10715SOL    HW232490   5.319   4.028   0.826
10716SOL     OW32491   3.763   4.801   0.300
10716SOL    HW132492   3.862   4.790   0.291
10716SOL    HW232493   3.723   4.715   0.332
10717SOL     OW32494   4.599   5.370   0.337
10717SOL    HW132495   4.522   5.335   0.283
10717SOL    HW232496   4.567   5.441   0.399
10718SOL     OW32497   3.954   4.352   1.975
10718SOL    HW132498   3.861   4.350   2.012
10718SOL    HW232499   3.955   4.313   1.883
10719SOL     OW32500   3.949   3.999   2.858
10719SOL    HW132501   3.984   3.982   2.950
10719SOL    HW232502   3.861   3.954   2.846
10720SOL     OW32503   3.743   4.092   2.509
10720SOL    HW132504   3.661   4.135   2.548
10720SOL    HW232505   3.715   4.019   2.446
10721SOL     OW32506   4.293   4.999   3.027
10721SOL    HW132507   4.200   4.992   2.990
10721SOL    HW232508   4.304   5.088   3.071
10722SOL     OW32509   5.279   5.235   2.565
10722SOL    HW132510   5.222   5.219   2.646
10722SOL    HW232511   5.220   5.245   2.485
10723SOL     OW32512   4.859   4.427   2.579
10723SOL    HW132513   4.916   4.505   2.554
10723SOL    HW232514   4.799   4.453   2.655
10724SOL     OW32515   5.479   4.331   2.093
10724SOL    HW132516   5.467   4.318   1.994
10724SOL    HW232517   5.449   4.250   2.142
10725SOL     OW32518   4.492   4.868   2.885
10725SOL    HW132519   4.414   4.885   2.945
10725SOL    HW232520   4.526   4.955   2.849
10726SOL     OW32521   4.574   4.522   3.685
10726SOL    HW132522   4.570   4.598   3.750
10726SOL    HW232523   4.596   4.558   3.594
10727SOL     OW32524   4.409   4.736   2.527
10727SOL    HW132525   4.478   4.720   2.597
10727SOL    HW232526   4.336   4.793   2.565
10728SOL     OW32527   4.410   4.885   3.665
10728SOL    HW132528   4.470   4.964   3.679
10728SOL    HW232529   4.324   4.916   3.624
10729SOL     OW32530   4.059   5.159   2.923
10729SOL    HW132531   3.981   5.128   2.870
10729SOL    HW232532   4.117   5.217   2.866
10730SOL     OW32533   5.184   5.229   3.201
10730SOL    HW132534   5.208   5.323   3.227
10730SOL    HW232535   5.168   5.175   3.283
10731SOL     OW32536   4.162   4.116   3.361
10731SOL    HW132537   4.244   4.060   3.370
10731SOL    HW232538   4.081   4.058   3.365
10732SOL     OW32539   5.327   4.171   2.599
10732SOL    HW132540   5.253   4.217   2.549
10732SOL    HW232541   5.378   4.239   2.652
10733SOL     OW32542   3.955   5.437   2.345
10733SOL    HW132543   3.989   5.514   2.399
10733SOL    HW232544   3.999   5.437   2.255
10734SOL     OW32545   4.851   5.065   3.552
10734SOL    HW132546   4.898   5.065   3.640
10734SOL    HW232547   4.803   4.978   3.541
10735SOL     OW32548   3.954   5.158   2.400
10735SOL    HW132549   3.928   5.254   2.400
10735SOL    HW232550   3.883   5.104   2.445
10736SOL     OW32551   3.964   4.815   2.748
10736SOL    HW132552   3.978   4.731   2.800
10736SOL    HW232553   3.909   4.879   2.803
10737SOL     OW32554   4.344   5.510   3.301
10737SOL    HW132555   4.252   5.493   3.336
10737SOL    HW232556   4.372   5.602   3.327
10738SOL     OW32557   4.330   4.688   1.985
10738SOL    HW132558   4.337   4.772   1.931
10738SOL    HW232559   4.376   4.701   2.073
10739SOL     OW32560   5.318   3.838   3.342
10739SOL    HW132561   5.300   3.905   3.270
10739SOL    HW232562   5.315   3.884   3.431
10740SOL     OW32563   3.846   4.367   2.425
10740SOL    HW132564   3.801   4.279   2.442
10740SOL    HW232565   3.845   4.421   2.509
10741SOL     OW32566   5.566   5.491   2.221
10741SOL    HW132567   5.620   5.462   2.301
10741SOL    HW232568   5.596   5.581   2.192
10742SOL     OW32569   3.751   5.320   1.979
10742SOL    HW132570   3.732   5.224   2.000
10742SOL    HW232571   3.718   5.378   2.054
10743SOL     OW32572   5.413   4.646   2.474
10743SOL    HW132573   5.508   4.617   2.482
10743SOL    HW232574   5.405   4.711   2.399
10744SOL     OW32575   5.365   4.832   2.294
10744SOL    HW132576   5.451   4.834   2.242
10744SOL    HW232577   5.379   4.879   2.382
10745SOL     OW32578   3.837   4.461   3.459
10745SOL    HW132579   3.925   4.448   3.504
10745SOL    HW232580   3.824   4.558   3.437
10746SOL     OW32581   4.337   5.089   2.588
10746SOL    HW132582   4.288   5.002   2.597
10746SOL    HW232583   4.314   5.132   2.501
10747SOL     OW32584   5.017   4.952   3.285
10747SOL    HW132585   5.054   4.879   3.227
10747SOL    HW232586   5.069   4.957   3.370
10748SOL     OW32587   4.533   3.728   2.364
10748SOL    HW132588   4.573   3.819   2.355
10748SOL    HW232589   4.433   3.736   2.370
10749SOL     OW32590   3.921   4.700   3.126
10749SOL    HW132591   4.010   4.655   3.112
10749SOL    HW232592   3.848   4.635   3.107
10750SOL     OW32593   5.249   4.723   2.052
10750SOL    HW132594   5.186   4.647   2.065
10750SOL    HW232595   5.297   4.741   2.138
10751SOL     OW32596   4.911   5.516   3.478
10751SOL    HW132597   4.935   5.576   3.402
10751SOL    HW232598   4.918   5.421   3.448
10752SOL     OW32599   4.041   3.975   3.663
10752SOL    HW132600   4.112   4.046   3.669
10752SOL    HW232601   3.953   4.014   3.691
10753SOL     OW32602   5.190   5.141   2.815
10753SOL    HW132603   5.131   5.147   2.895
10753SOL    HW232604   5.175   5.053   2.769
10754SOL     OW32605   5.391   5.438   2.434
10754SOL    HW132606   5.350   5.415   2.346
10754SOL    HW232607   5.373   5.364   2.499
10755SOL     OW32608   4.322   4.453   2.132
10755SOL    HW132609   4.346   4.522   2.064
10755SOL    HW232610   4.244   4.486   2.186
10756SOL     OW32611   5.005   4.069   2.806
10756SOL    HW132612   4.919   4.019   2.793
10756SOL    HW232613   5.067   4.015   2.862
10757SOL     OW32614   5.300   5.386   2.169
10757SOL    HW132615   5.389   5.432   2.172
10757SOL    HW232616   5.279   5.362   2.074
10758SOL     OW32617   4.531   4.329   3.327
10758SOL    HW132618   4.484   4.326   3.416
10758SOL    HW232619   4.480   4.274   3.261
10759SOL     OW32620   5.118   4.193   3.536
10759SOL    HW132621   5.098   4.236   3.624
10759SOL    HW232622   5.196   4.131   3.545
10760SOL     OW32623   4.697   4.614   3.434
10760SOL    HW132624   4.743   4.530   3.405
10760SOL    HW232625   4.641   4.648   3.359
10761SOL     OW32626   4.715   4.134   3.104
10761SOL    HW132627   4.638   4.168   3.158
10761SOL    HW232628   4.681   4.083   3.025
10762SOL     OW32629   4.765   4.425   2.291
10762SOL    HW132630   4.791   4.421   2.387
10762SOL    HW232631   4.680   4.374   2.277
10763SOL     OW32632   3.800   4.535   2.651
10763SOL    HW132633   3.899   4.523   2.660
10763SOL    HW232634   3.776   4.630   2.672
10764SOL     OW32635   3.854   5.545   3.433
10764SOL    HW132636   3.844   5.530   3.532
10764SOL    HW232637   3.768   5.581   3.397
10765SOL     OW32638   4.589   4.072   2.057
10765SOL    HW132639   4.648   4.135   2.008
10765SOL    HW232640   4.608   3.978   2.028
10766SOL     OW32641   5.443   4.309   3.693
10766SOL    HW132642   5.417   4.398   3.657
10766SOL    HW232643   5.441   4.241   3.620
10767SOL     OW32644   5.086   4.868   2.407
10767SOL    HW132645   5.169   4.839   2.359
10767SOL    HW232646   5.037   4.935   2.351
10768SOL     OW32647   4.274   3.920   2.747
10768SOL    HW132648   4.269   3.915   2.847
10768SOL    HW232649   4.276   4.016   2.718
10769SOL     OW32650   4.732   5.180   2.339
10769SOL    HW132651   4.686   5.252   2.287
10769SOL    HW232652   4.728   5.200   2.437
10770SOL     OW32653   4.075   5.525   2.715
10770SOL    HW132654   4.125   5.439   2.721
10770SOL    HW232655   4.140   5.602   2.712
10771SOL     OW32656   5.519   4.790   2.735
10771SOL    HW132657   5.457   4.775   2.659
10771SOL    HW232658   5.467   4.801   2.820
10772SOL     OW32659   4.951   5.274   3.368
10772SOL    HW132660   4.957   5.197   3.432
10772SOL    HW232661   4.899   5.248   3.288
10773SOL     OW32662   4.045   4.667   2.104
10773SOL    HW132663   4.127   4.706   2.062
10773SOL    HW232664   4.018   4.585   2.055
10774SOL     OW32665   5.182   4.459   2.590
10774SOL    HW132666   5.177   4.394   2.665
10774SOL    HW232667   5.262   4.518   2.603
10775SOL     OW32668   4.185   4.990   3.589
10775SOL    HW132669   4.135   4.991   3.503
10775SOL    HW232670   4.122   4.972   3.665
10776SOL     OW32671   4.835   5.500   2.099
10776SOL    HW132672   4.775   5.438   2.149
10776SOL    HW232673   4.866   5.456   2.014
10777SOL     OW32674   3.926   4.009   3.360
10777SOL    HW132675   3.846   4.069   3.347
10777SOL    HW232676   3.916   3.960   3.446
10778SOL     OW32677   5.356   5.101   1.943
10778SOL    HW132678   5.324   5.195   1.933
10778SOL    HW232679   5.280   5.038   1.931
10779SOL     OW32680   4.188   5.467   2.185
10779SOL    HW132681   4.221   5.506   2.271
10779SOL    HW232682   4.264   5.460   2.120
10780SOL     OW32683   5.124   3.831   2.288
10780SOL    HW132684   5.100   3.794   2.198
10780SOL    HW232685   5.223   3.847   2.292
10781SOL     OW32686   3.973   5.509   3.103
10781SOL    HW132687   4.030   5.444   3.153
10781SOL    HW232688   3.957   5.476   3.010
10782SOL     OW32689   4.664   5.422   2.766
10782SOL    HW132690   4.744   5.365   2.787
10782SOL    HW232691   4.615   5.382   2.689
10783SOL     OW32692   4.106   4.424   2.342
10783SOL    HW132693   4.151   4.334   2.339
10783SOL    HW232694   4.012   4.413   2.375
10784SOL     OW32695   5.271   3.946   3.591
10784SOL    HW132696   5.266   3.983   3.683
10784SOL    HW232697   5.199   3.877   3.579
10785SOL     OW32698   4.338   3.846   1.979
10785SOL    HW132699   4.436   3.824   1.986
10785SOL    HW232700   4.307   3.829   1.886
10786SOL     OW32701   4.505   3.988   3.611
10786SOL    HW132702   4.572   3.927   3.654
10786SOL    HW232703   4.432   4.007   3.676
10787SOL     OW32704   4.612   5.238   3.057
10787SOL    HW132705   4.589   5.213   2.963
10787SOL    HW232706   4.673   5.169   3.096
10788SOL     OW32707   5.075   4.314   3.295
10788SOL    HW132708   5.103   4.271   3.380
10788SOL    HW232709   5.100   4.410   3.296
10789SOL     OW32710   4.527   5.126   2.786
10789SOL    HW132711   4.617   5.140   2.744
10789SOL    HW232712   4.456   5.128   2.715
10790SOL     OW32713   4.646   4.227   2.761
10790SOL    HW132714   4.621   4.218   2.665
10790SOL    HW232715   4.694   4.145   2.792
10791SOL     OW32716   4.263   3.788   2.374
10791SOL    HW132717   4.182   3.789   2.432
10791SOL    HW232718   4.266   3.871   2.319
10792SOL     OW32719   5.158   4.912   1.903
10792SOL    HW132720   5.190   4.836   1.960
10792SOL    HW232721   5.066   4.939   1.933
10793SOL     OW32722   4.021   3.759   2.033
10793SOL    HW132723   4.070   3.843   2.012
10793SOL    HW232724   4.083   3.694   2.078
10794SOL     OW32725   4.659   3.960   2.342
10794SOL    HW132726   4.611   4.001   2.264
10794SOL    HW232727   4.758   3.958   2.323
10795SOL     OW32728   4.800   4.407   3.326
10795SOL    HW132729   4.720   4.346   3.329
10795SOL    HW232730   4.881   4.354   3.302
10796SOL     OW32731   4.951   5.294   2.655
10796SOL    HW132732   4.972   5.368   2.590
10796SOL    HW232733   5.019   5.294   2.728
10797SOL     OW32734   4.183   4.876   2.603
10797SOL    HW132735   4.112   4.849   2.668
10797SOL    HW232736   4.157   4.848   2.510
10798SOL     OW32737   4.995   5.521   2.453
10798SOL    HW132738   5.039   5.585   2.389
10798SOL    HW232739   4.945   5.573   2.523
10799SOL     OW32740   4.756   4.273   1.878
10799SOL    HW132741   4.715   4.355   1.839
10799SOL    HW232742   4.820   4.299   1.951
10800SOL     OW32743   3.802   4.280   3.248
10800SOL    HW132744   3.894   4.279   3.207
10800SOL    HW232745   3.796   4.354   3.315
10801SOL     OW32746   4.285   3.946   3.009
10801SOL    HW132747   4.323   3.862   3.046
10801SOL    HW232748   4.197   3.965   3.053
10802SOL     OW32749   4.590   4.178   2.504
10802SOL    HW132750   4.558   4.250   2.442
10802SOL    HW232751   4.614   4.097   2.451
10803SOL     OW32752   4.741   3.763   2.615
10803SOL    HW132753   4.669   3.768   2.546
10803SOL    HW232754   4.717   3.694   2.684
10804SOL     OW32755   5.153   4.897   2.729
10804SOL    HW132756   5.098   4.813   2.722
10804SOL    HW232757   5.179   4.926   2.637
10805SOL     OW32758   5.190   4.314   2.854
10805SOL    HW132759   5.160   4.219   2.861
10805SOL    HW232760   5.263   4.330   2.920
10806SOL     OW32761   5.581   4.557   2.239
10806SOL    HW132762   5.623   4.493   2.303
10806SOL    HW232763   5.543   4.506   2.161
10807SOL     OW32764   4.212   5.109   2.036
10807SOL    HW132765   4.125   5.094   2.083
10807SOL    HW232766   4.195   5.135   1.941
10808SOL     OW32767   5.388   5.004   2.519
10808SOL    HW132768   5.487   5.012   2.533
10808SOL    HW232769   5.343   5.088   2.550
10809SOL     OW32770   5.114   4.299   1.940
10809SOL    HW132771   5.060   4.278   2.021
10809SOL    HW232772   5.205   4.258   1.949
10810SOL     OW32773   4.251   3.980   2.190
10810SOL    HW132774   4.278   3.921   2.115
10810SOL    HW232775   4.251   4.075   2.159
10811SOL     OW32776   5.478   4.947   3.450
10811SOL    HW132777   5.569   4.908   3.437
10811SOL    HW232778   5.486   5.043   3.474
10812SOL     OW32779   4.788   5.071   3.202
10812SOL    HW132780   4.708   5.048   3.257
10812SOL    HW232781   4.871   5.045   3.251
10813SOL     OW32782   5.316   5.353   3.487
10813SOL    HW132783   5.343   5.387   3.397
10813SOL    HW232784   5.395   5.315   3.533
10814SOL     OW32785   4.835   4.919   2.962
10814SOL    HW132786   4.795   4.963   3.043
10814SOL    HW232787   4.794   4.956   2.879
10815SOL     OW32788   5.362   4.823   2.941
10815SOL    HW132789   5.367   4.904   3.000
10815SOL    HW232790   5.276   4.825   2.890
10816SOL     OW32791   4.639   3.813   3.264
10816SOL    HW132792   4.664   3.793   3.169
10816SOL    HW232793   4.711   3.869   3.306
10817SOL     OW32794   4.704   4.840   3.581
10817SOL    HW132795   4.605   4.846   3.591
10817SOL    HW232796   4.727   4.760   3.525
10818SOL     OW32797   4.429   4.774   2.230
10818SOL    HW132798   4.415   4.781   2.329
10818SOL    HW232799   4.513   4.723   2.212
10819SOL     OW32800   4.134   4.537   3.113
10819SOL    HW132801   4.220   4.549   3.163
10819SOL    HW232802   4.092   4.450   3.140
10820SOL     OW32803   4.998   4.110   3.124
10820SOL    HW132804   5.019   4.184   3.188
10820SOL    HW232805   4.909   4.127   3.081
10821SOL     OW32806   3.788   5.288   3.193
10821SOL    HW132807   3.742   5.370   3.159
10821SOL    HW232808   3.886   5.307   3.202
10822SOL     OW32809   4.091   4.824   2.363
10822SOL    HW132810   4.084   4.907   2.307
10822SOL    HW232811   4.095   4.744   2.303
10823SOL     OW32812   4.290   4.261   2.727
10823SOL    HW132813   4.302   4.327   2.653
10823SOL    HW232814   4.336   4.295   2.810
10824SOL     OW32815   4.976   5.072   2.250
10824SOL    HW132816   5.026   5.149   2.290
10824SOL    HW232817   4.881   5.074   2.282
10825SOL     OW32818   4.996   5.169   3.004
10825SOL    HW132819   5.043   5.182   3.091
10825SOL    HW232820   4.930   5.095   3.013
10826SOL     OW32821   5.306   4.363   2.334
10826SOL    HW132822   5.275   4.424   2.407
10826SOL    HW232823   5.356   4.415   2.265
10827SOL     OW32824   4.078   5.234   3.191
10827SOL    HW132825   4.057   5.190   3.104
10827SOL    HW232826   4.175   5.260   3.194
10828SOL     OW32827   4.126   4.475   3.460
10828SOL    HW132828   4.194   4.530   3.413
10828SOL    HW232829   4.166   4.387   3.487
10829SOL     OW32830   5.311   4.503   3.532
10829SOL    HW132831   5.219   4.541   3.527
10829SOL    HW232832   5.371   4.550   3.467
10830SOL     OW32833   4.737   3.829   3.632
10830SOL    HW132834   4.743   3.914   3.580
10830SOL    HW232835   4.769   3.753   3.575
10831SOL     OW32836   4.228   3.774   3.602
10831SOL    HW132837   4.186   3.717   3.532
10831SOL    HW232838   4.162   3.843   3.634
10832SOL     OW32839   4.297   4.594   2.891
10832SOL    HW132840   4.341   4.683   2.882
10832SOL    HW232841   4.234   4.594   2.968
10833SOL     OW32842   5.084   4.586   2.907
10833SOL    HW132843   5.009   4.586   2.841
10833SOL    HW232844   5.121   4.494   2.916
10834SOL     OW32845   4.933   4.249   2.137
10834SOL    HW132846   4.946   4.165   2.191
10834SOL    HW232847   4.904   4.323   2.197
10835SOL     OW32848   4.031   3.937   3.093
10835SOL    HW132849   4.008   3.974   3.183
10835SOL    HW232850   4.001   3.842   3.087
10836SOL     OW32851   3.761   5.034   3.144
10836SOL    HW132852   3.814   4.985   3.212
10836SOL    HW232853   3.783   5.132   3.149
10837SOL     OW32854   4.456   4.358   2.926
10837SOL    HW132855   4.515   4.332   2.850
10837SOL    HW232856   4.428   4.454   2.915
10838SOL     OW32857   5.452   4.659   3.716
10838SOL    HW132858   5.406   4.652   3.627
10838SOL    HW232859   5.390   4.703   3.782
10839SOL     OW32860   4.031   3.787   2.480
10839SOL    HW132861   4.020   3.881   2.513
10839SOL    HW232862   4.026   3.724   2.557
10840SOL     OW32863   5.346   4.091   2.236
10840SOL    HW132864   5.348   4.015   2.300
10840SOL    HW232865   5.298   4.168   2.276
10841SOL     OW32866   4.747   4.490   2.828
10841SOL    HW132867   4.762   4.511   2.924
10841SOL    HW232868   4.717   4.395   2.819
10842SOL     OW32869   4.704   5.297   3.562
10842SOL    HW132870   4.684   5.341   3.474
10842SOL    HW232871   4.743   5.206   3.546
10843SOL     OW32872   5.583   5.242   3.467
10843SOL    HW132873   5.597   5.269   3.372
10843SOL    HW232874   5.666   5.264   3.520
10844SOL     OW32875   4.074   4.622   3.666
10844SOL    HW132876   4.150   4.666   3.714
10844SOL    HW232877   4.109   4.575   3.584
10845SOL     OW32878   5.264   3.998   1.987
10845SOL    HW132879   5.203   3.923   2.010
10845SOL    HW232880   5.286   4.050   2.070
10846SOL     OW32881   5.027   4.562   1.904
10846SOL    HW132882   5.061   4.469   1.919
10846SOL    HW232883   5.045   4.589   1.809
10847SOL     OW32884   4.792   5.057   2.711
10847SOL    HW132885   4.799   4.973   2.656
10847SOL    HW232886   4.854   5.126   2.675
10848SOL     OW32887   4.043   4.534   2.811
10848SOL    HW132888   4.136   4.570   2.816
10848SOL    HW232889   4.037   4.449   2.863
10849SOL     OW32890   4.063   4.233   2.868
10849SOL    HW132891   4.011   4.150   2.851
10849SOL    HW232892   4.140   4.238   2.804
10850SOL     OW32893   4.862   4.104   3.540
10850SOL    HW132894   4.817   4.167   3.604
10850SOL    HW232895   4.955   4.135   3.523
10851SOL     OW32896   4.884   3.931   3.339
10851SOL    HW132897   4.884   3.995   3.416
10851SOL    HW232898   4.912   3.979   3.256
10852SOL     OW32899   3.732   5.050   2.062
10852SOL    HW132900   3.639   5.071   2.031
10852SOL    HW232901   3.742   4.951   2.075
10853SOL     OW32902   3.812   5.525   2.789
10853SOL    HW132903   3.770   5.439   2.762
10853SOL    HW232904   3.906   5.528   2.755
10854SOL     OW32905   4.228   5.292   2.772
10854SOL    HW132906   4.294   5.366   2.781
10854SOL    HW232907   4.272   5.213   2.730
10855SOL     OW32908   4.726   4.520   3.100
10855SOL    HW132909   4.767   4.488   3.186
10855SOL    HW232910   4.630   4.493   3.097
10856SOL     OW32911   3.764   4.268   2.976
10856SOL    HW132912   3.849   4.235   2.935
10856SOL    HW232913   3.777   4.283   3.074
10857SOL     OW32914   3.913   4.244   3.584
10857SOL    HW132915   3.972   4.204   3.514
10857SOL    HW232916   3.855   4.315   3.543
10858SOL     OW32917   5.093   4.674   3.522
10858SOL    HW132918   5.132   4.763   3.542
10858SOL    HW232919   5.103   4.654   3.425
10859SOL     OW32920   4.539   4.296   2.187
10859SOL    HW132921   4.546   4.207   2.141
10859SOL    HW232922   4.445   4.330   2.179
10860SOL     OW32923   5.381   4.328   3.068
10860SOL    HW132924   5.343   4.259   3.130
10860SOL    HW232925   5.463   4.292   3.024
10861SOL     OW32926   3.976   5.288   3.606
10861SOL    HW132927   3.946   5.345   3.682
10861SOL    HW232928   3.969   5.191   3.632
10862SOL     OW32929   4.395   4.188   3.131
10862SOL    HW132930   4.361   4.099   3.101
10862SOL    HW232931   4.421   4.242   3.051
10863SOL     OW32932   4.654   5.402   3.327
10863SOL    HW132933   4.630   5.384   3.232
10863SOL    HW232934   4.684   5.496   3.337
10864SOL     OW32935   4.197   4.224   2.053
10864SOL    HW132936   4.258   4.304   2.057
10864SOL    HW232937   4.102   4.255   2.060
10865SOL     OW32938   3.883   4.861   3.328
10865SOL    HW132939   3.905   4.800   3.404
10865SOL    HW232940   3.893   4.812   3.242
10866SOL     OW32941   5.071   4.783   3.096
10866SOL    HW132942   5.095   4.720   3.022
10866SOL    HW232943   4.981   4.823   3.078
10867SOL     OW32944   5.026   4.579   2.171
10867SOL    HW132945   4.940   4.548   2.213
10867SOL    HW232946   5.022   4.565   2.072
10868SOL     OW32947   5.483   5.471   3.016
10868SOL    HW132948   5.544   5.501   2.943
10868SOL    HW232949   5.445   5.382   2.994
10869SOL     OW32950   4.976   5.455   2.990
10869SOL    HW132951   5.060   5.460   2.936
10869SOL    HW232952   4.953   5.359   3.008
10870SOL     OW32953   3.807   4.982   2.884
10870SOL    HW132954   3.802   4.981   2.984
10870SOL    HW232955   3.724   4.941   2.846
10871SOL     OW32956   4.412   5.386   3.578
10871SOL    HW132957   4.356   5.467   3.587
10871SOL    HW232958   4.464   5.390   3.492
10872SOL     OW32959   5.450   3.859   2.385
10872SOL    HW132960   5.523   3.842   2.318
10872SOL    HW232961   5.419   3.772   2.423
10873SOL     OW32962   5.112   5.297   2.339
10873SOL    HW132963   5.179   5.309   2.265
10873SOL    HW232964   5.072   5.386   2.362
10874SOL     OW32965   3.854   5.518   3.713
10874SOL    HW132966   3.813   5.444   3.766
10874SOL    HW232967   3.918   5.569   3.771
10875SOL     OW32968   5.004   4.651   2.534
10875SOL    HW132969   5.064   4.570   2.536
10875SOL    HW232970   5.044   4.720   2.474
10876SOL     OW32971   4.554   4.997   3.284
10876SOL    HW132972   4.549   5.030   3.379
10876SOL    HW232973   4.468   5.016   3.238
10877SOL     OW32974   4.396   5.340   2.016
10877SOL    HW132975   4.405   5.350   1.917
10877SOL    HW232976   4.356   5.251   2.037
10878SOL     OW32977   5.374   5.444   3.256
10878SOL    HW132978   5.427   5.454   3.172
10878SOL    HW232979   5.347   5.534   3.290
10879SOL     OW32980   5.565   3.899   2.825
10879SOL    HW132981   5.604   3.814   2.789
10879SOL    HW232982   5.467   3.901   2.806
10880SOL     OW32983   3.987   4.050   2.582
10880SOL    HW132984   3.908   4.101   2.548
10880SOL    HW232985   3.978   4.035   2.680
10881SOL     OW32986   4.918   5.336   1.893
10881SOL    HW132987   4.924   5.243   1.930
10881SOL    HW232988   4.859   5.336   1.813
10882SOL     OW32989   4.546   4.726   3.234
10882SOL    HW132990   4.586   4.725   3.142
10882SOL    HW232991   4.556   4.818   3.274
10883SOL     OW32992   4.640   4.634   2.153
10883SOL    HW132993   4.703   4.672   2.085
10883SOL    HW232994   4.680   4.551   2.192
10884SOL     OW32995   5.228   5.331   1.906
10884SOL    HW132996   5.136   5.368   1.913
10884SOL    HW232997   5.266   5.351   1.816
10885SOL     OW32998   4.096   5.012   3.352
10885SOL    HW132999   4.083   5.105   3.318
10885SOL    HW233000   4.012   4.960   3.339
10886SOL     OW33001   5.338   5.016   3.151
10886SOL    HW133002   5.398   5.019   3.231
10886SOL    HW233003   5.263   5.080   3.164
10887SOL     OW33004   4.763   4.822   2.558
10887SOL    HW133005   4.693   4.775   2.612
10887SOL    HW233006   4.822   4.754   2.515
10888SOL     OW33007   4.738   3.960   2.833
10888SOL    HW133008   4.730   3.924   2.740
10888SOL    HW233009   4.736   3.884   2.898
10889SOL     OW33010   4.314   5.211   2.353
10889SOL    HW133011   4.356   5.153   2.283
10889SOL    HW233012   4.270   5.290   2.309
10890SOL     OW33013   5.433   4.109   3.243
10890SOL    HW133014   5.506   4.178   3.247
10890SOL    HW233015   5.461   4.034   3.184
10891SOL     OW33016   3.979   5.072   2.152
10891SOL    HW133017   3.883   5.073   2.125
10891SOL    HW233018   3.991   5.125   2.236
10892SOL     OW33019   3.829   4.737   3.588
10892SOL    HW133020   3.752   4.704   3.642
10892SOL    HW233021   3.914   4.707   3.630
10893SOL     OW33022   4.396   3.927   3.351
10893SOL    HW133023   4.486   3.911   3.311
10893SOL    HW233024   4.404   3.932   3.450
10894SOL     OW33025   3.799   4.069   1.895
10894SOL    HW133026   3.707   4.041   1.866
10894SOL    HW233027   3.830   4.146   1.839
10895SOL     OW33028   5.164   4.580   3.260
10895SOL    HW133029   5.107   4.632   3.197
10895SOL    HW233030   5.260   4.592   3.236
10896SOL     OW33031   3.796   3.890   2.180
10896SOL    HW133032   3.779   3.973   2.126
10896SOL    HW233033   3.886   3.853   2.158
10897SOL     OW33034   4.907   5.059   1.981
10897SOL    HW133035   4.808   5.048   1.983
10897SOL    HW233036   4.941   5.074   2.074
10898SOL     OW33037   4.337   4.566   3.293
10898SOL    HW133038   4.393   4.647   3.276
10898SOL    HW233039   4.396   4.486   3.296
10899SOL     OW33040   5.217   5.491   2.821
10899SOL    HW133041   5.250   5.555   2.752
10899SOL    HW233042   5.283   5.485   2.896
10900SOL     OW33043   4.440   4.289   3.570
10900SOL    HW133044   4.459   4.354   3.644
10900SOL    HW233045   4.500   4.209   3.579
10901SOL     OW33046   5.174   4.944   3.495
10901SOL    HW133047   5.165   4.934   3.594
10901SOL    HW233048   5.270   4.937   3.469
10902SOL     OW33049   4.114   5.465   3.422
10902SOL    HW133050   4.023   5.506   3.420
10902SOL    HW233051   4.107   5.371   3.454
10903SOL     OW33052   5.398   4.607   3.116
10903SOL    HW133053   5.371   4.518   3.079
10903SOL    HW233054   5.399   4.675   3.043
10904SOL     OW33055   4.949   4.049   2.311
10904SOL    HW133056   5.014   3.975   2.300
10904SOL    HW233057   4.969   4.099   2.395
10905SOL     OW33058   4.318   4.469   2.514
10905SOL    HW133059   4.368   4.554   2.495
10905SOL    HW233060   4.230   4.471   2.466
10906SOL     OW33061   5.501   4.066   3.504
10906SOL    HW133062   5.484   4.097   3.410
10906SOL    HW233063   5.417   4.029   3.542
10907SOL     OW33064   5.454   4.658   3.379
10907SOL    HW133065   5.492   4.749   3.394
10907SOL    HW233066   5.446   4.641   3.280
10908SOL     OW33067   4.583   5.098   1.878
10908SOL    HW133068   4.537   5.113   1.966
10908SOL    HW233069   4.627   5.183   1.848
10909SOL     OW33070   4.385   5.514   2.815
10909SOL    HW133071   4.339   5.602   2.802
10909SOL    HW233072   4.484   5.526   2.808
10910SOL     OW33073   4.583   4.680   2.723
10910SOL    HW133074   4.637   4.611   2.771
10910SOL    HW233075   4.551   4.749   2.789
10911SOL     OW33076   4.807   4.708   1.949
10911SOL    HW133077   4.784   4.761   1.867
10911SOL    HW233078   4.888   4.652   1.930
10912SOL     OW33079   5.585   5.293   2.713
10912SOL    HW133080   5.514   5.281   2.643
10912SOL    HW233081   5.586   5.214   2.773
10913SOL     OW33082   3.945   5.038   3.706
10913SOL    HW133083   3.880   4.965   3.685
10913SOL    HW233084   3.949   5.052   3.804
10914SOL     OW33085   3.803   4.964   2.515
10914SOL    HW133086   3.802   4.917   2.603
10914SOL    HW233087   3.885   4.936   2.464
10915SOL     OW33088   4.396   5.115   3.486
10915SOL    HW133089   4.318   5.065   3.524
10915SOL    HW233090   4.393   5.210   3.517
10916SOL     OW33091   5.548   3.916   3.089
10916SOL    HW133092   5.544   3.826   3.133
10916SOL    HW233093   5.551   3.905   2.990
10917SOL     OW33094   4.152   4.148   2.382
10917SOL    HW133095   4.182   4.076   2.320
10917SOL    HW233096   4.113   4.108   2.465
10918SOL     OW33097   5.429   5.211   2.966
10918SOL    HW133098   5.336   5.186   2.939
10918SOL    HW233099   5.455   5.161   3.048
10919SOL     OW33100   4.041   4.271   3.142
10919SOL    HW133101   4.079   4.212   3.214
10919SOL    HW233102   4.081   4.245   3.054
10920SOL     OW33103   4.536   5.310   2.549
10920SOL    HW133104   4.568   5.320   2.455
10920SOL    HW233105   4.457   5.248   2.551
10921SOL     OW33106   5.148   3.938   2.974
10921SOL    HW133107   5.200   3.873   3.029
10921SOL    HW233108   5.099   4.001   3.035
10922SOL     OW33109   4.725   3.758   3.016
10922SOL    HW133110   4.662   3.686   2.985
10922SOL    HW233111   4.818   3.722   3.016
10923SOL     OW33112   4.494   5.054   2.163
10923SOL    HW133113   4.448   4.967   2.180
10923SOL    HW233114   4.585   5.051   2.204
10924SOL     OW33115   4.342   5.291   3.146
10924SOL    HW133116   4.337   5.373   3.203
10924SOL    HW233117   4.431   5.288   3.101
10925SOL     OW33118   5.076   3.776   2.030
10925SOL    HW133119   5.111   3.735   1.946
10925SOL    HW233120   4.986   3.738   2.050
10926SOL     OW33121   5.024   4.177   2.553
10926SOL    HW133122   4.965   4.257   2.557
10926SOL    HW233123   5.039   4.142   2.646
10927SOL     OW33124   5.317   3.945   2.744
10927SOL    HW133125   5.233   3.944   2.798
10927SOL    HW233126   5.319   4.028   2.688
10928SOL     OW33127   3.763   4.801   2.162
10928SOL    HW133128   3.862   4.790   2.153
10928SOL    HW233129   3.723   4.715   2.194
10929SOL     OW33130   4.599   5.370   2.199
10929SOL    HW133131   4.522   5.335   2.145
10929SOL    HW233132   4.567   5.441   2.261
10930SOL     OW33133   3.954   4.352   3.837
10930SOL    HW133134   3.861   4.350   3.874
10930SOL    HW233135   3.955   4.313   3.745
10931SOL     OW33136   3.949   3.999   4.720
10931SOL    HW133137   3.984   3.982   4.812
10931SOL    HW233138   3.861   3.954   4.708
10932SOL     OW33139   3.743   4.092   4.371
10932SOL    HW133140   3.661   4.135   4.410
10932SOL    HW233141   3.715   4.019   4.308
10933SOL     OW33142   4.293   4.999   4.889
10933SOL    HW133143   4.200   4.992   4.852
10933SOL    HW233144   4.304   5.088   4.933
10934SOL     OW33145   5.279   5.235   4.427
10934SOL    HW133146   5.222   5.219   4.508
10934SOL    HW233147   5.220   5.245   4.347
10935SOL     OW33148   4.859   4.427   4.441
10935SOL    HW133149   4.916   4.505   4.416
10935SOL    HW233150   4.799   4.453   4.517
10936SOL     OW33151   5.479   4.331   3.955
10936SOL    HW133152   5.467   4.318   3.856
10936SOL    HW233153   5.449   4.250   4.004
10937SOL     OW33154   4.492   4.868   4.747
10937SOL    HW133155   4.414   4.885   4.807
10937SOL    HW233156   4.526   4.955   4.711
10938SOL     OW33157   4.574   4.522   5.547
10938SOL    HW133158   4.570   4.598   5.612
10938SOL    HW233159   4.596   4.558   5.456
10939SOL     OW33160   4.409   4.736   4.389
10939SOL    HW133161   4.478   4.720   4.459
10939SOL    HW233162   4.336   4.793   4.427
10940SOL     OW33163   4.410   4.885   5.527
10940SOL    HW133164   4.470   4.964   5.541
10940SOL    HW233165   4.324   4.916   5.486
10941SOL     OW33166   4.059   5.159   4.785
10941SOL    HW133167   3.981   5.128   4.732
10941SOL    HW233168   4.117   5.217   4.728
10942SOL     OW33169   5.184   5.229   5.063
10942SOL    HW133170   5.208   5.323   5.089
10942SOL    HW233171   5.168   5.175   5.145
10943SOL     OW33172   4.162   4.116   5.223
10943SOL    HW133173   4.244   4.060   5.232
10943SOL    HW233174   4.081   4.058   5.227
10944SOL     OW33175   5.327   4.171   4.461
10944SOL    HW133176   5.253   4.217   4.411
10944SOL    HW233177   5.378   4.239   4.514
10945SOL     OW33178   3.955   5.437   4.207
10945SOL    HW133179   3.989   5.514   4.261
10945SOL    HW233180   3.999   5.437   4.117
10946SOL     OW33181   4.851   5.065   5.414
10946SOL    HW133182   4.898   5.065   5.502
10946SOL    HW233183   4.803   4.978   5.403
10947SOL     OW33184   3.954   5.158   4.262
10947SOL    HW133185   3.928   5.254   4.262
10947SOL    HW233186   3.883   5.104   4.307
10948SOL     OW33187   3.964   4.815   4.610
10948SOL    HW133188   3.978   4.731   4.662
10948SOL    HW233189   3.909   4.879   4.665
10949SOL     OW33190   4.344   5.510   5.163
10949SOL    HW133191   4.252   5.493   5.198
10949SOL    HW233192   4.372   5.602   5.189
10950SOL     OW33193   4.330   4.688   3.847
10950SOL    HW133194   4.337   4.772   3.793
10950SOL    HW233195   4.376   4.701   3.935
10951SOL     OW33196   5.318   3.838   5.204
10951SOL    HW133197   5.300   3.905   5.132
10951SOL    HW233198   5.315   3.884   5.293
10952SOL     OW33199   3.846   4.367   4.287
10952SOL    HW133200   3.801   4.279   4.304
10952SOL    HW233201   3.845   4.421   4.371
10953SOL     OW33202   5.566   5.491   4.083
10953SOL    HW133203   5.620   5.462   4.163
10953SOL    HW233204   5.596   5.581   4.054
10954SOL     OW33205   3.751   5.320   3.841
10954SOL    HW133206   3.732   5.224   3.862
10954SOL    HW233207   3.718   5.378   3.916
10955SOL     OW33208   5.413   4.646   4.336
10955SOL    HW133209   5.508   4.617   4.344
10955SOL    HW233210   5.405   4.711   4.261
10956SOL     OW33211   5.365   4.832   4.156
10956SOL    HW133212   5.451   4.834   4.104
10956SOL    HW233213   5.379   4.879   4.244
10957SOL     OW33214   3.837   4.461   5.321
10957SOL    HW133215   3.925   4.448   5.366
10957SOL    HW233216   3.824   4.558   5.299
10958SOL     OW33217   4.337   5.089   4.450
10958SOL    HW133218   4.288   5.002   4.459
10958SOL    HW233219   4.314   5.132   4.363
10959SOL     OW33220   5.017   4.952   5.147
10959SOL    HW133221   5.054   4.879   5.089
10959SOL    HW233222   5.069   4.957   5.232
10960SOL     OW33223   4.533   3.728   4.226
10960SOL    HW133224   4.573   3.819   4.217
10960SOL    HW233225   4.433   3.736   4.232
10961SOL     OW33226   3.921   4.700   4.988
10961SOL    HW133227   4.010   4.655   4.974
10961SOL    HW233228   3.848   4.635   4.969
10962SOL     OW33229   5.249   4.723   3.914
10962SOL    HW133230   5.186   4.647   3.927
10962SOL    HW233231   5.297   4.741   4.000
10963SOL     OW33232   4.911   5.516   5.340
10963SOL    HW133233   4.935   5.576   5.264
10963SOL    HW233234   4.918   5.421   5.310
10964SOL     OW33235   4.041   3.975   5.525
10964SOL    HW133236   4.112   4.046   5.531
10964SOL    HW233237   3.953   4.014   5.553
10965SOL     OW33238   5.190   5.141   4.677
10965SOL    HW133239   5.131   5.147   4.757
10965SOL    HW233240   5.175   5.053   4.631
10966SOL     OW33241   5.391   5.438   4.296
10966SOL    HW133242   5.350   5.415   4.208
10966SOL    HW233243   5.373   5.364   4.361
10967SOL     OW33244   4.322   4.453   3.994
10967SOL    HW133245   4.346   4.522   3.926
10967SOL    HW233246   4.244   4.486   4.048
10968SOL     OW33247   5.005   4.069   4.668
10968SOL    HW133248   4.919   4.019   4.655
10968SOL    HW233249   5.067   4.015   4.724
10969SOL     OW33250   5.300   5.386   4.031
10969SOL    HW133251   5.389   5.432   4.034
10969SOL    HW233252   5.279   5.362   3.936
10970SOL     OW33253   4.531   4.329   5.189
10970SOL    HW133254   4.484   4.326   5.278
10970SOL    HW233255   4.480   4.274   5.123
10971SOL     OW33256   5.118   4.193   5.398
10971SOL    HW133257   5.098   4.236   5.486
10971SOL    HW233258   5.196   4.131   5.407
10972SOL     OW33259   4.697   4.614   5.296
10972SOL    HW133260   4.743   4.530   5.267
10972SOL    HW233261   4.641   4.648   5.221
10973SOL     OW33262   4.715   4.134   4.966
10973SOL    HW133263   4.638   4.168   5.020
10973SOL    HW233264   4.681   4.083   4.887
10974SOL     OW33265   4.765   4.425   4.153
10974SOL    HW133266   4.791   4.421   4.249
10974SOL    HW233267   4.680   4.374   4.139
10975SOL     OW33268   3.800   4.535   4.513
10975SOL    HW133269   3.899   4.523   4.522
10975SOL    HW233270   3.776   4.630   4.534
10976SOL     OW33271   3.854   5.545   5.295
10976SOL    HW133272   3.844   5.530   5.394
10976SOL    HW233273   3.768   5.581   5.259
10977SOL     OW33274   4.589   4.072   3.919
10977SOL    HW133275   4.648   4.135   3.870
10977SOL    HW233276   4.608   3.978   3.890
10978SOL     OW33277   5.443   4.309   5.555
10978SOL    HW133278   5.417   4.398   5.519
10978SOL    HW233279   5.441   4.241   5.482
10979SOL     OW33280   5.086   4.868   4.269
10979SOL    HW133281   5.169   4.839   4.221
10979SOL    HW233282   5.037   4.935   4.213
10980SOL     OW33283   4.274   3.920   4.609
10980SOL    HW133284   4.269   3.915   4.709
10980SOL    HW233285   4.276   4.016   4.580
10981SOL     OW33286   4.732   5.180   4.201
10981SOL    HW133287   4.686   5.252   4.149
10981SOL    HW233288   4.728   5.200   4.299
10982SOL     OW33289   4.075   5.525   4.577
10982SOL    HW133290   4.125   5.439   4.583
10982SOL    HW233291   4.140   5.602   4.574
10983SOL     OW33292   5.519   4.790   4.597
10983SOL    HW133293   5.457   4.775   4.521
10983SOL    HW233294   5.467   4.801   4.682
10984SOL     OW33295   4.951   5.274   5.230
10984SOL    HW133296   4.957   5.197   5.294
10984SOL    HW233297   4.899   5.248   5.150
10985SOL     OW33298   4.045   4.667   3.966
10985SOL    HW133299   4.127   4.706   3.924
10985SOL    HW233300   4.018   4.585   3.917
10986SOL     OW33301   5.182   4.459   4.452
10986SOL    HW133302   5.177   4.394   4.527
10986SOL    HW233303   5.262   4.518   4.465
10987SOL     OW33304   4.185   4.990   5.451
10987SOL    HW133305   4.135   4.991   5.365
10987SOL    HW233306   4.122   4.972   5.527
10988SOL     OW33307   4.835   5.500   3.961
10988SOL    HW133308   4.775   5.438   4.011
10988SOL    HW233309   4.866   5.456   3.876
10989SOL     OW33310   3.926   4.009   5.222
10989SOL    HW133311   3.846   4.069   5.209
10989SOL    HW233312   3.916   3.960   5.308
10990SOL     OW33313   5.356   5.101   3.805
10990SOL    HW133314   5.324   5.195   3.795
10990SOL    HW233315   5.280   5.038   3.793
10991SOL     OW33316   4.188   5.467   4.047
10991SOL    HW133317   4.221   5.506   4.133
10991SOL    HW233318   4.264   5.460   3.982
10992SOL     OW33319   5.124   3.831   4.150
10992SOL    HW133320   5.100   3.794   4.060
10992SOL    HW233321   5.223   3.847   4.154
10993SOL     OW33322   3.973   5.509   4.965
10993SOL    HW133323   4.030   5.444   5.015
10993SOL    HW233324   3.957   5.476   4.872
10994SOL     OW33325   4.664   5.422   4.628
10994SOL    HW133326   4.744   5.365   4.649
10994SOL    HW233327   4.615   5.382   4.551
10995SOL     OW33328   4.106   4.424   4.204
10995SOL    HW133329   4.151   4.334   4.201
10995SOL    HW233330   4.012   4.413   4.237
10996SOL     OW33331   5.271   3.946   5.453
10996SOL    HW133332   5.266   3.983   5.545
10996SOL    HW233333   5.199   3.877   5.441
10997SOL     OW33334   4.338   3.846   3.841
10997SOL    HW133335   4.436   3.824   3.848
10997SOL    HW233336   4.307   3.829   3.748
10998SOL     OW33337   4.505   3.988   5.473
10998SOL    HW133338   4.572   3.927   5.516
10998SOL    HW233339   4.432   4.007   5.538
10999SOL     OW33340   4.612   5.238   4.919
10999SOL    HW133341   4.589   5.213   4.825
10999SOL    HW233342   4.673   5.169   4.958
11000SOL     OW33343   5.075   4.314   5.157
11000SOL    HW133344   5.103   4.271   5.242
11000SOL    HW233345   5.100   4.410   5.158
11001SOL     OW33346   4.527   5.126   4.648
11001SOL    HW133347   4.617   5.140   4.606
11001SOL    HW233348   4.456   5.128   4.577
11002SOL     OW33349   4.646   4.227   4.623
11002SOL    HW133350   4.621   4.218   4.527
11002SOL    HW233351   4.694   4.145   4.654
11003SOL     OW33352   4.263   3.788   4.236
11003SOL    HW133353   4.182   3.789   4.294
11003SOL    HW233354   4.266   3.871   4.181
11004SOL     OW33355   5.158   4.912   3.765
11004SOL    HW133356   5.190   4.836   3.822
11004SOL    HW233357   5.066   4.939   3.795
11005SOL     OW33358   4.021   3.759   3.895
11005SOL    HW133359   4.070   3.843   3.874
11005SOL    HW233360   4.083   3.694   3.940
11006SOL     OW33361   4.659   3.960   4.204
11006SOL    HW133362   4.611   4.001   4.126
11006SOL    HW233363   4.758   3.958   4.185
11007SOL     OW33364   4.800   4.407   5.188
11007SOL    HW133365   4.720   4.346   5.191
11007SOL    HW233366   4.881   4.354   5.164
11008SOL     OW33367   4.951   5.294   4.517
11008SOL    HW133368   4.972   5.368   4.452
11008SOL    HW233369   5.019   5.294   4.590
11009SOL     OW33370   4.183   4.876   4.465
11009SOL    HW133371   4.112   4.849   4.530
11009SOL    HW233372   4.157   4.848   4.372
11010SOL     OW33373   4.995   5.521   4.315
11010SOL    HW133374   5.039   5.585   4.251
11010SOL    HW233375   4.945   5.573   4.385
11011SOL     OW33376   4.756   4.273   3.740
11011SOL    HW133377   4.715   4.355   3.701
11011SOL    HW233378   4.820   4.299   3.813
11012SOL     OW33379   3.802   4.280   5.110
11012SOL    HW133380   3.894   4.279   5.069
11012SOL    HW233381   3.796   4.354   5.177
11013SOL     OW33382   4.285   3.946   4.871
11013SOL    HW133383   4.323   3.862   4.908
11013SOL    HW233384   4.197   3.965   4.915
11014SOL     OW33385   4.590   4.178   4.366
11014SOL    HW133386   4.558   4.250   4.304
11014SOL    HW233387   4.614   4.097   4.313
11015SOL     OW33388   4.741   3.763   4.477
11015SOL    HW133389   4.669   3.768   4.408
11015SOL    HW233390   4.717   3.694   4.546
11016SOL     OW33391   5.153   4.897   4.591
11016SOL    HW133392   5.098   4.813   4.584
11016SOL    HW233393   5.179   4.926   4.499
11017SOL     OW33394   5.190   4.314   4.716
11017SOL    HW133395   5.160   4.219   4.723
11017SOL    HW233396   5.263   4.330   4.782
11018SOL     OW33397   5.581   4.557   4.101
11018SOL    HW133398   5.623   4.493   4.165
11018SOL    HW233399   5.543   4.506   4.023
11019SOL     OW33400   4.212   5.109   3.898
11019SOL    HW133401   4.125   5.094   3.945
11019SOL    HW233402   4.195   5.135   3.803
11020SOL     OW33403   5.388   5.004   4.381
11020SOL    HW133404   5.487   5.012   4.395
11020SOL    HW233405   5.343   5.088   4.412
11021SOL     OW33406   5.114   4.299   3.802
11021SOL    HW133407   5.060   4.278   3.883
11021SOL    HW233408   5.205   4.258   3.811
11022SOL     OW33409   4.251   3.980   4.052
11022SOL    HW133410   4.278   3.921   3.977
11022SOL    HW233411   4.251   4.075   4.021
11023SOL     OW33412   5.478   4.947   5.312
11023SOL    HW133413   5.569   4.908   5.299
11023SOL    HW233414   5.486   5.043   5.336
11024SOL     OW33415   4.788   5.071   5.064
11024SOL    HW133416   4.708   5.048   5.119
11024SOL    HW233417   4.871   5.045   5.113
11025SOL     OW33418   5.316   5.353   5.349
11025SOL    HW133419   5.343   5.387   5.259
11025SOL    HW233420   5.395   5.315   5.395
11026SOL     OW33421   4.835   4.919   4.824
11026SOL    HW133422   4.795   4.963   4.905
11026SOL    HW233423   4.794   4.956   4.741
11027SOL     OW33424   5.362   4.823   4.803
11027SOL    HW133425   5.367   4.904   4.862
11027SOL    HW233426   5.276   4.825   4.752
11028SOL     OW33427   4.639   3.813   5.126
11028SOL    HW133428   4.664   3.793   5.031
11028SOL    HW233429   4.711   3.869   5.168
11029SOL     OW33430   4.704   4.840   5.443
11029SOL    HW133431   4.605   4.846   5.453
11029SOL    HW233432   4.727   4.760   5.387
11030SOL     OW33433   4.429   4.774   4.092
11030SOL    HW133434   4.415   4.781   4.191
11030SOL    HW233435   4.513   4.723   4.074
11031SOL     OW33436   4.134   4.537   4.975
11031SOL    HW133437   4.220   4.549   5.025
11031SOL    HW233438   4.092   4.450   5.002
11032SOL     OW33439   4.998   4.110   4.986
11032SOL    HW133440   5.019   4.184   5.050
11032SOL    HW233441   4.909   4.127   4.943
11033SOL     OW33442   3.788   5.288   5.055
11033SOL    HW133443   3.742   5.370   5.021
11033SOL    HW233444   3.886   5.307   5.064
11034SOL     OW33445   4.091   4.824   4.225
11034SOL    HW133446   4.084   4.907   4.169
11034SOL    HW233447   4.095   4.744   4.165
11035SOL     OW33448   4.290   4.261   4.589
11035SOL    HW133449   4.302   4.327   4.515
11035SOL    HW233450   4.336   4.295   4.672
11036SOL     OW33451   4.976   5.072   4.112
11036SOL    HW133452   5.026   5.149   4.152
11036SOL    HW233453   4.881   5.074   4.144
11037SOL     OW33454   4.996   5.169   4.866
11037SOL    HW133455   5.043   5.182   4.953
11037SOL    HW233456   4.930   5.095   4.875
11038SOL     OW33457   5.306   4.363   4.196
11038SOL    HW133458   5.275   4.424   4.269
11038SOL    HW233459   5.356   4.415   4.127
11039SOL     OW33460   4.078   5.234   5.053
11039SOL    HW133461   4.057   5.190   4.966
11039SOL    HW233462   4.175   5.260   5.056
11040SOL     OW33463   4.126   4.475   5.322
11040SOL    HW133464   4.194   4.530   5.275
11040SOL    HW233465   4.166   4.387   5.349
11041SOL     OW33466   5.311   4.503   5.394
11041SOL    HW133467   5.219   4.541   5.389
11041SOL    HW233468   5.371   4.550   5.329
11042SOL     OW33469   4.737   3.829   5.494
11042SOL    HW133470   4.743   3.914   5.442
11042SOL    HW233471   4.769   3.753   5.437
11043SOL     OW33472   4.228   3.774   5.464
11043SOL    HW133473   4.186   3.717   5.394
11043SOL    HW233474   4.162   3.843   5.496
11044SOL     OW33475   4.297   4.594   4.753
11044SOL    HW133476   4.341   4.683   4.744
11044SOL    HW233477   4.234   4.594   4.830
11045SOL     OW33478   5.084   4.586   4.769
11045SOL    HW133479   5.009   4.586   4.703
11045SOL    HW233480   5.121   4.494   4.778
11046SOL     OW33481   4.933   4.249   3.999
11046SOL    HW133482   4.946   4.165   4.053
11046SOL    HW233483   4.904   4.323   4.059
11047SOL     OW33484   4.031   3.937   4.955
11047SOL    HW133485   4.008   3.974   5.045
11047SOL    HW233486   4.001   3.842   4.949
11048SOL     OW33487   3.761   5.034   5.006
11048SOL    HW133488   3.814   4.985   5.074
11048SOL    HW233489   3.783   5.132   5.011
11049SOL     OW33490   4.456   4.358   4.788
11049SOL    HW133491   4.515   4.332   4.712
11049SOL    HW233492   4.428   4.454   4.777
11050SOL     OW33493   5.452   4.659   5.578
11050SOL    HW133494   5.406   4.652   5.489
11050SOL    HW233495   5.390   4.703   5.644
11051SOL     OW33496   4.031   3.787   4.342
11051SOL    HW133497   4.020   3.881   4.375
11051SOL    HW233498   4.026   3.724   4.419
11052SOL     OW33499   5.346   4.091   4.098
11052SOL    HW133500   5.348   4.015   4.162
11052SOL    HW233501   5.298   4.168   4.138
11053SOL     OW33502   4.747   4.490   4.690
11053SOL    HW133503   4.762   4.511   4.786
11053SOL    HW233504   4.717   4.395   4.681
11054SOL     OW33505   4.704   5.297   5.424
11054SOL    HW133506   4.684   5.341   5.336
11054SOL    HW233507   4.743   5.206   5.408
11055SOL     OW33508   5.583   5.242   5.329
11055SOL    HW133509   5.597   5.269   5.234
11055SOL    HW233510   5.666   5.264   5.382
11056SOL     OW33511   4.074   4.622   5.528
11056SOL    HW133512   4.150   4.666   5.576
11056SOL    HW233513   4.109   4.575   5.446
11057SOL     OW33514   5.264   3.998   3.849
11057SOL    HW133515   5.203   3.923   3.872
11057SOL    HW233516   5.286   4.050   3.932
11058SOL     OW33517   5.027   4.562   3.766
11058SOL    HW133518   5.061   4.469   3.781
11058SOL    HW233519   5.045   4.589   3.671
11059SOL     OW33520   4.792   5.057   4.573
11059SOL    HW133521   4.799   4.973   4.518
11059SOL    HW233522   4.854   5.126   4.537
11060SOL     OW33523   4.043   4.534   4.673
11060SOL    HW133524   4.136   4.570   4.678
11060SOL    HW233525   4.037   4.449   4.725
11061SOL     OW33526   4.063   4.233   4.730
11061SOL    HW133527   4.011   4.150   4.713
11061SOL    HW233528   4.140   4.238   4.666
11062SOL     OW33529   4.862   4.104   5.402
11062SOL    HW133530   4.817   4.167   5.466
11062SOL    HW233531   4.955   4.135   5.385
11063SOL     OW33532   4.884   3.931   5.201
11063SOL    HW133533   4.884   3.995   5.278
11063SOL    HW233534   4.912   3.979   5.118
11064SOL     OW33535   3.732   5.050   3.924
11064SOL    HW133536   3.639   5.071   3.893
11064SOL    HW233537   3.742   4.951   3.937
11065SOL     OW33538   3.812   5.525   4.651
11065SOL    HW133539   3.770   5.439   4.624
11065SOL    HW233540   3.906   5.528   4.617
11066SOL     OW33541   4.228   5.292   4.634
11066SOL    HW133542   4.294   5.366   4.643
11066SOL    HW233543   4.272   5.213   4.592
11067SOL     OW33544   4.726   4.520   4.962
11067SOL    HW133545   4.767   4.488   5.048
11067SOL    HW233546   4.630   4.493   4.959
11068SOL     OW33547   3.764   4.268   4.838
11068SOL    HW133548   3.849   4.235   4.797
11068SOL    HW233549   3.777   4.283   4.936
11069SOL     OW33550   3.913   4.244   5.446
11069SOL    HW133551   3.972   4.204   5.376
11069SOL    HW233552   3.855   4.315   5.405
11070SOL     OW33553   5.093   4.674   5.384
11070SOL    HW133554   5.132   4.763   5.404
11070SOL    HW233555   5.103   4.654   5.287
11071SOL     OW33556   4.539   4.296   4.049
11071SOL    HW133557   4.546   4.207   4.003
11071SOL    HW233558   4.445   4.330   4.041
11072SOL     OW33559   5.381   4.328   4.930
11072SOL    HW133560   5.343   4.259   4.992
11072SOL    HW233561   5.463   4.292   4.886
11073SOL     OW33562   3.976   5.288   5.468
11073SOL    HW133563   3.946   5.345   5.544
11073SOL    HW233564   3.969   5.191   5.494
11074SOL     OW33565   4.395   4.188   4.993
11074SOL    HW133566   4.361   4.099   4.963
11074SOL    HW233567   4.421   4.242   4.913
11075SOL     OW33568   4.654   5.402   5.189
11075SOL    HW133569   4.630   5.384   5.094
11075SOL    HW233570   4.684   5.496   5.199
11076SOL     OW33571   4.197   4.224   3.915
11076SOL    HW133572   4.258   4.304   3.919
11076SOL    HW233573   4.102   4.255   3.922
11077SOL     OW33574   3.883   4.861   5.190
11077SOL    HW133575   3.905   4.800   5.266
11077SOL    HW233576   3.893   4.812   5.104
11078SOL     OW33577   5.071   4.783   4.958
11078SOL    HW133578   5.095   4.720   4.884
11078SOL    HW233579   4.981   4.823   4.940
11079SOL     OW33580   5.026   4.579   4.033
11079SOL    HW133581   4.940   4.548   4.075
11079SOL    HW233582   5.022   4.565   3.934
11080SOL     OW33583   5.483   5.471   4.878
11080SOL    HW133584   5.544   5.501   4.805
11080SOL    HW233585   5.445   5.382   4.856
11081SOL     OW33586   4.976   5.455   4.852
11081SOL    HW133587   5.060   5.460   4.798
11081SOL    HW233588   4.953   5.359   4.870
11082SOL     OW33589   3.807   4.982   4.746
11082SOL    HW133590   3.802   4.981   4.846
11082SOL    HW233591   3.724   4.941   4.708
11083SOL     OW33592   4.412   5.386   5.440
11083SOL    HW133593   4.356   5.467   5.449
11083SOL    HW233594   4.464   5.390   5.354
11084SOL     OW33595   5.450   3.859   4.247
11084SOL    HW133596   5.523   3.842   4.180
11084SOL    HW233597   5.419   3.772   4.285
11085SOL     OW33598   5.112   5.297   4.201
11085SOL    HW133599   5.179   5.309   4.127
11085SOL    HW233600   5.072   5.386   4.224
11086SOL     OW33601   3.854   5.518   5.575
11086SOL    HW133602   3.813   5.444   5.628
11086SOL    HW233603   3.918   5.569   5.633
11087SOL     OW33604   5.004   4.651   4.396
11087SOL    HW133605   5.064   4.570   4.398
11087SOL    HW233606   5.044   4.720   4.336
11088SOL     OW33607   4.554   4.997   5.146
11088SOL    HW133608   4.549   5.030   5.241
11088SOL    HW233609   4.468   5.016   5.100
11089SOL     OW33610   4.396   5.340   3.878
11089SOL    HW133611   4.405   5.350   3.779
11089SOL    HW233612   4.356   5.251   3.899
11090SOL     OW33613   5.374   5.444   5.118
11090SOL    HW133614   5.427   5.454   5.034
11090SOL    HW233615   5.347   5.534   5.152
11091SOL     OW33616   5.565   3.899   4.687
11091SOL    HW133617   5.604   3.814   4.651
11091SOL    HW233618   5.467   3.901   4.668
11092SOL     OW33619   3.987   4.050   4.444
11092SOL    HW133620   3.908   4.101   4.410
11092SOL    HW233621   3.978   4.035   4.542
11093SOL     OW33622   4.918   5.336   3.755
11093SOL    HW133623   4.924   5.243   3.792
11093SOL    HW233624   4.859   5.336   3.675
11094SOL     OW33625   4.546   4.726   5.096
11094SOL    HW133626   4.586   4.725   5.004
11094SOL    HW233627   4.556   4.818   5.136
11095SOL     OW33628   4.640   4.634   4.015
11095SOL    HW133629   4.703   4.672   3.947
11095SOL    HW233630   4.680   4.551   4.054
11096SOL     OW33631   5.228   5.331   3.768
11096SOL    HW133632   5.136   5.368   3.775
11096SOL    HW233633   5.266   5.351   3.678
11097SOL     OW33634   4.096   5.012   5.214
11097SOL    HW133635   4.083   5.105   5.180
11097SOL    HW233636   4.012   4.960   5.201
11098SOL     OW33637   5.338   5.016   5.013
11098SOL    HW133638   5.398   5.019   5.093
11098SOL    HW233639   5.263   5.080   5.026
11099SOL     OW33640   4.763   4.822   4.420
11099SOL    HW133641   4.693   4.775   4.474
11099SOL    HW233642   4.822   4.754   4.377
11100SOL     OW33643   4.738   3.960   4.695
11100SOL    HW133644   4.730   3.924   4.602
11100SOL    HW233645   4.736   3.884   4.760
11101SOL     OW33646   4.314   5.211   4.215
11101SOL    HW133647   4.356   5.153   4.145
11101SOL    HW233648   4.270   5.290   4.171
11102SOL     OW33649   5.433   4.109   5.105
11102SOL    HW133650   5.506   4.178   5.109
11102SOL    HW233651   5.461   4.034   5.046
11103SOL     OW33652   3.979   5.072   4.014
11103SOL    HW133653   3.883   5.073   3.987
11103SOL    HW233654   3.991   5.125   4.098
11104SOL     OW33655   3.829   4.737   5.450
11104SOL    HW133656   3.752   4.704   5.504
11104SOL    HW233657   3.914   4.707   5.492
11105SOL     OW33658   4.396   3.927   5.213
11105SOL    HW133659   4.486   3.911   5.173
11105SOL    HW233660   4.404   3.932   5.312
11106SOL     OW33661   3.799   4.069   3.757
11106SOL    HW133662   3.707   4.041   3.728
11106SOL    HW233663   3.830   4.146   3.701
11107SOL     OW33664   5.164   4.580   5.122
11107SOL    HW133665   5.107   4.632   5.059
11107SOL    HW233666   5.260   4.592   5.098
11108SOL     OW33667   3.796   3.890   4.042
11108SOL    HW133668   3.779   3.973   3.988
11108SOL    HW233669   3.886   3.853   4.020
11109SOL     OW33670   4.907   5.059   3.843
11109SOL    HW133671   4.808   5.048   3.845
11109SOL    HW233672   4.941   5.074   3.936
11110SOL     OW33673   4.337   4.566   5.155
11110SOL    HW133674   4.393   4.647   5.138
11110SOL    HW233675   4.396   4.486   5.158
11111SOL     OW33676   5.217   5.491   4.683
11111SOL    HW133677   5.250   5.555   4.614
11111SOL    HW233678   5.283   5.485   4.758
11112SOL     OW33679   4.440   4.289   5.432
11112SOL    HW133680   4.459   4.354   5.506
11112SOL    HW233681   4.500   4.209   5.441
11113SOL     OW33682   5.174   4.944   5.357
11113SOL    HW133683   5.165   4.934   5.456
11113SOL    HW233684   5.270   4.937   5.331
11114SOL     OW33685   4.114   5.465   5.284
11114SOL    HW133686   4.023   5.506   5.282
11114SOL    HW233687   4.107   5.371   5.316
11115SOL     OW33688   5.398   4.607   4.978
11115SOL    HW133689   5.371   4.518   4.941
11115SOL    HW233690   5.399   4.675   4.905
11116SOL     OW33691   4.949   4.049   4.173
11116SOL    HW133692   5.014   3.975   4.162
11116SOL    HW233693   4.969   4.099   4.257
11117SOL     OW33694   4.318   4.469   4.376
11117SOL    HW133695   4.368   4.554   4.357
11117SOL    HW233696   4.230   4.471   4.328
11118SOL     OW33697   5.501   4.066   5.366
11118SOL    HW133698   5.484   4.097   5.272
11118SOL    HW233699   5.417   4.029   5.404
11119SOL     OW33700   5.454   4.658   5.241
11119SOL    HW133701   5.492   4.749   5.256
11119SOL    HW233702   5.446   4.641   5.142
11120SOL     OW33703   4.583   5.098   3.740
11120SOL    HW133704   4.537   5.113   3.828
11120SOL    HW233705   4.627   5.183   3.710
11121SOL     OW33706   4.385   5.514   4.677
11121SOL    HW133707   4.339   5.602   4.664
11121SOL    HW233708   4.484   5.526   4.670
11122SOL     OW33709   4.583   4.680   4.585
11122SOL    HW133710   4.637   4.611   4.633
11122SOL    HW233711   4.551   4.749   4.651
11123SOL     OW33712   4.807   4.708   3.811
11123SOL    HW133713   4.784   4.761   3.729
11123SOL    HW233714   4.888   4.652   3.792
11124SOL     OW33715   5.585   5.293   4.575
11124SOL    HW133716   5.514   5.281   4.505
11124SOL    HW233717   5.586   5.214   4.635
11125SOL     OW33718   3.945   5.038   5.568
11125SOL    HW133719   3.880   4.965   5.547
11125SOL    HW233720   3.949   5.052   5.666
11126SOL     OW33721   3.803   4.964   4.377
11126SOL    HW133722   3.802   4.917   4.465
11126SOL    HW233723   3.885   4.936   4.326
11127SOL     OW33724   4.396   5.115   5.348
11127SOL    HW133725   4.318   5.065   5.386
11127SOL    HW233726   4.393   5.210   5.379
11128SOL     OW33727   5.548   3.916   4.951
11128SOL    HW133728   5.544   3.826   4.995
11128SOL    HW233729   5.551   3.905   4.852
11129SOL     OW33730   4.152   4.148   4.244
11129SOL    HW133731   4.182   4.076   4.182
11129SOL    HW233732   4.113   4.108   4.327
11130SOL     OW33733   5.429   5.211   4.828
11130SOL    HW133734   5.336   5.186   4.801
11130SOL    HW233735   5.455   5.161   4.910
11131SOL     OW33736   4.041   4.271   5.004
11131SOL    HW133737   4.079   4.212   5.076
11131SOL    HW233738   4.081   4.245   4.916
11132SOL     OW33739   4.536   5.310   4.411
11132SOL    HW133740   4.568   5.320   4.317
11132SOL    HW233741   4.457   5.248   4.413
11133SOL     OW33742   5.148   3.938   4.836
11133SOL    HW133743   5.200   3.873   4.891
11133SOL    HW233744   5.099   4.001   4.897
11134SOL     OW33745   4.725   3.758   4.878
11134SOL    HW133746   4.662   3.686   4.847
11134SOL    HW233747   4.818   3.722   4.878
11135SOL     OW33748   4.494   5.054   4.025
11135SOL    HW133749   4.448   4.967   4.042
11135SOL    HW233750   4.585   5.051   4.066
11136SOL     OW33751   4.342   5.291   5.008
11136SOL    HW133752   4.337   5.373   5.065
11136SOL    HW233753   4.431   5.288   4.963
11137SOL     OW33754   5.076   3.776   3.892
11137SOL    HW133755   5.111   3.735   3.808
11137SOL    HW233756   4.986   3.738   3.912
11138SOL     OW33757   5.024   4.177   4.415
11138SOL    HW133758   4.965   4.257   4.419
11138SOL    HW233759   5.039   4.142   4.508
11139SOL     OW33760   5.317   3.945   4.606
11139SOL    HW133761   5.233   3.944   4.660
11139SOL    HW233762   5.319   4.028   4.550
11140SOL     OW33763   3.763   4.801   4.024
11140SOL    HW133764   3.862   4.790   4.015
11140SOL    HW233765   3.723   4.715   4.056
11141SOL     OW33766   4.599   5.370   4.061
11141SOL    HW133767   4.522   5.335   4.007
11141SOL    HW233768   4.567   5.441   4.123
11142SOL     OW33769   3.954   4.352   5.699
11142SOL    HW133770   3.861   4.350   5.736
11142SOL    HW233771   3.955   4.313   5.607
11143SOL     OW33772   3.949   3.999   6.582
11143SOL    HW133773   3.984   3.982   6.674
11143SOL    HW233774   3.861   3.954   6.570
11144SOL     OW33775   3.743   4.092   6.233
11144SOL    HW133776   3.661   4.135   6.272
11144SOL    HW233777   3.715   4.019   6.170
11145SOL     OW33778   4.293   4.999   6.751
11145SOL    HW133779   4.200   4.992   6.714
11145SOL    HW233780   4.304   5.088   6.795
11146SOL     OW33781   5.279   5.235   6.289
11146SOL    HW133782   5.222   5.219   6.370
11146SOL    HW233783   5.220   5.245   6.209
11147SOL     OW33784   4.859   4.427   6.303
11147SOL    HW133785   4.916   4.505   6.278
11147SOL    HW233786   4.799   4.453   6.379
11148SOL     OW33787   5.479   4.331   5.817
11148SOL    HW133788   5.467   4.318   5.718
11148SOL    HW233789   5.449   4.250   5.866
11149SOL     OW33790   4.492   4.868   6.609
11149SOL    HW133791   4.414   4.885   6.669
11149SOL    HW233792   4.526   4.955   6.573
11150SOL     OW33793   4.574   4.522   7.409
11150SOL    HW133794   4.570   4.598   7.474
11150SOL    HW233795   4.596   4.558   7.318
11151SOL     OW33796   4.409   4.736   6.251
11151SOL    HW133797   4.478   4.720   6.321
11151SOL    HW233798   4.336   4.793   6.289
11152SOL     OW33799   4.410   4.885   7.389
11152SOL    HW133800   4.470   4.964   7.403
11152SOL    HW233801   4.324   4.916   7.348
11153SOL     OW33802   4.059   5.159   6.647
11153SOL    HW133803   3.981   5.128   6.594
11153SOL    HW233804   4.117   5.217   6.590
11154SOL     OW33805   5.184   5.229   6.925
11154SOL    HW133806   5.208   5.323   6.951
11154SOL    HW233807   5.168   5.175   7.007
11155SOL     OW33808   4.162   4.116   7.085
11155SOL    HW133809   4.244   4.060   7.094
11155SOL    HW233810   4.081   4.058   7.089
11156SOL     OW33811   5.327   4.171   6.323
11156SOL    HW133812   5.253   4.217   6.273
11156SOL    HW233813   5.378   4.239   6.376
11157SOL     OW33814   3.955   5.437   6.069
11157SOL    HW133815   3.989   5.514   6.123
11157SOL    HW233816   3.999   5.437   5.979
11158SOL     OW33817   4.851   5.065   7.276
11158SOL    HW133818   4.898   5.065   7.364
11158SOL    HW233819   4.803   4.978   7.265
11159SOL     OW33820   3.954   5.158   6.124
11159SOL    HW133821   3.928   5.254   6.124
11159SOL    HW233822   3.883   5.104   6.169
11160SOL     OW33823   3.964   4.815   6.472
11160SOL    HW133824   3.978   4.731   6.524
11160SOL    HW233825   3.909   4.879   6.527
11161SOL     OW33826   4.344   5.510   7.025
11161SOL    HW133827   4.252   5.493   7.060
11161SOL    HW233828   4.372   5.602   7.051
11162SOL     OW33829   4.330   4.688   5.709
11162SOL    HW133830   4.337   4.772   5.655
11162SOL    HW233831   4.376   4.701   5.797
11163SOL     OW33832   5.318   3.838   7.066
11163SOL    HW133833   5.300   3.905   6.994
11163SOL    HW233834   5.315   3.884   7.155
11164SOL     OW33835   3.846   4.367   6.149
11164SOL    HW133836   3.801   4.279   6.166
11164SOL    HW233837   3.845   4.421   6.233
11165SOL     OW33838   5.566   5.491   5.945
11165SOL    HW133839   5.620   5.462   6.025
11165SOL    HW233840   5.596   5.581   5.916
11166SOL     OW33841   3.751   5.320   5.703
11166SOL    HW133842   3.732   5.224   5.724
11166SOL    HW233843   3.718   5.378   5.778
11167SOL     OW33844   5.413   4.646   6.198
11167SOL    HW133845   5.508   4.617   6.206
11167SOL    HW233846   5.405   4.711   6.123
11168SOL     OW33847   5.365   4.832   6.018
11168SOL    HW133848   5.451   4.834   5.966
11168SOL    HW233849   5.379   4.879   6.106
11169SOL     OW33850   3.837   4.461   7.183
11169SOL    HW133851   3.925   4.448   7.228
11169SOL    HW233852   3.824   4.558   7.161
11170SOL     OW33853   4.337   5.089   6.312
11170SOL    HW133854   4.288   5.002   6.321
11170SOL    HW233855   4.314   5.132   6.225
11171SOL     OW33856   5.017   4.952   7.009
11171SOL    HW133857   5.054   4.879   6.951
11171SOL    HW233858   5.069   4.957   7.094
11172SOL     OW33859   4.533   3.728   6.088
11172SOL    HW133860   4.573   3.819   6.079
11172SOL    HW233861   4.433   3.736   6.094
11173SOL     OW33862   3.921   4.700   6.850
11173SOL    HW133863   4.010   4.655   6.836
11173SOL    HW233864   3.848   4.635   6.831
11174SOL     OW33865   5.249   4.723   5.776
11174SOL    HW133866   5.186   4.647   5.789
11174SOL    HW233867   5.297   4.741   5.862
11175SOL     OW33868   4.911   5.516   7.202
11175SOL    HW133869   4.935   5.576   7.126
11175SOL    HW233870   4.918   5.421   7.172
11176SOL     OW33871   4.041   3.975   7.387
11176SOL    HW133872   4.112   4.046   7.393
11176SOL    HW233873   3.953   4.014   7.415
11177SOL     OW33874   5.190   5.141   6.539
11177SOL    HW133875   5.131   5.147   6.619
11177SOL    HW233876   5.175   5.053   6.493
11178SOL     OW33877   5.391   5.438   6.158
11178SOL    HW133878   5.350   5.415   6.070
11178SOL    HW233879   5.373   5.364   6.223
11179SOL     OW33880   4.322   4.453   5.856
11179SOL    HW133881   4.346   4.522   5.788
11179SOL    HW233882   4.244   4.486   5.910
11180SOL     OW33883   5.005   4.069   6.530
11180SOL    HW133884   4.919   4.019   6.517
11180SOL    HW233885   5.067   4.015   6.586
11181SOL     OW33886   5.300   5.386   5.893
11181SOL    HW133887   5.389   5.432   5.896
11181SOL    HW233888   5.279   5.362   5.798
11182SOL     OW33889   4.531   4.329   7.051
11182SOL    HW133890   4.484   4.326   7.140
11182SOL    HW233891   4.480   4.274   6.985
11183SOL     OW33892   5.118   4.193   7.260
11183SOL    HW133893   5.098   4.236   7.348
11183SOL    HW233894   5.196   4.131   7.269
11184SOL     OW33895   4.697   4.614   7.158
11184SOL    HW133896   4.743   4.530   7.129
11184SOL    HW233897   4.641   4.648   7.083
11185SOL     OW33898   4.715   4.134   6.828
11185SOL    HW133899   4.638   4.168   6.882
11185SOL    HW233900   4.681   4.083   6.749
11186SOL     OW33901   4.765   4.425   6.015
11186SOL    HW133902   4.791   4.421   6.111
11186SOL    HW233903   4.680   4.374   6.001
11187SOL     OW33904   3.800   4.535   6.375
11187SOL    HW133905   3.899   4.523   6.384
11187SOL    HW233906   3.776   4.630   6.396
11188SOL     OW33907   3.854   5.545   7.157
11188SOL    HW133908   3.844   5.530   7.256
11188SOL    HW233909   3.768   5.581   7.121
11189SOL     OW33910   4.589   4.072   5.781
11189SOL    HW133911   4.648   4.135   5.732
11189SOL    HW233912   4.608   3.978   5.752
11190SOL     OW33913   5.443   4.309   7.417
11190SOL    HW133914   5.417   4.398   7.381
11190SOL    HW233915   5.441   4.241   7.344
11191SOL     OW33916   5.086   4.868   6.131
11191SOL    HW133917   5.169   4.839   6.083
11191SOL    HW233918   5.037   4.935   6.075
11192SOL     OW33919   4.274   3.920   6.471
11192SOL    HW133920   4.269   3.915   6.571
11192SOL    HW233921   4.276   4.016   6.442
11193SOL     OW33922   4.732   5.180   6.063
11193SOL    HW133923   4.686   5.252   6.011
11193SOL    HW233924   4.728   5.200   6.161
11194SOL     OW33925   4.075   5.525   6.439
11194SOL    HW133926   4.125   5.439   6.445
11194SOL    HW233927   4.140   5.602   6.436
11195SOL     OW33928   5.519   4.790   6.459
11195SOL    HW133929   5.457   4.775   6.383
11195SOL    HW233930   5.467   4.801   6.544
11196SOL     OW33931   4.951   5.274   7.092
11196SOL    HW133932   4.957   5.197   7.156
11196SOL    HW233933   4.899   5.248   7.012
11197SOL     OW33934   4.045   4.667   5.828
11197SOL    HW133935   4.127   4.706   5.786
11197SOL    HW233936   4.018   4.585   5.779
11198SOL     OW33937   5.182   4.459   6.314
11198SOL    HW133938   5.177   4.394   6.389
11198SOL    HW233939   5.262   4.518   6.327
11199SOL     OW33940   4.185   4.990   7.313
11199SOL    HW133941   4.135   4.991   7.227
11199SOL    HW233942   4.122   4.972   7.389
11200SOL     OW33943   4.835   5.500   5.823
11200SOL    HW133944   4.775   5.438   5.873
11200SOL    HW233945   4.866   5.456   5.738
11201SOL     OW33946   3.926   4.009   7.084
11201SOL    HW133947   3.846   4.069   7.071
11201SOL    HW233948   3.916   3.960   7.170
11202SOL     OW33949   5.356   5.101   5.667
11202SOL    HW133950   5.324   5.195   5.657
11202SOL    HW233951   5.280   5.038   5.655
11203SOL     OW33952   4.188   5.467   5.909
11203SOL    HW133953   4.221   5.506   5.995
11203SOL    HW233954   4.264   5.460   5.844
11204SOL     OW33955   5.124   3.831   6.012
11204SOL    HW133956   5.100   3.794   5.922
11204SOL    HW233957   5.223   3.847   6.016
11205SOL     OW33958   3.973   5.509   6.827
11205SOL    HW133959   4.030   5.444   6.877
11205SOL    HW233960   3.957   5.476   6.734
11206SOL     OW33961   4.664   5.422   6.490
11206SOL    HW133962   4.744   5.365   6.511
11206SOL    HW233963   4.615   5.382   6.413
11207SOL     OW33964   4.106   4.424   6.066
11207SOL    HW133965   4.151   4.334   6.063
11207SOL    HW233966   4.012   4.413   6.099
11208SOL     OW33967   5.271   3.946   7.315
11208SOL    HW133968   5.266   3.983   7.407
11208SOL    HW233969   5.199   3.877   7.303
11209SOL     OW33970   4.338   3.846   5.703
11209SOL    HW133971   4.436   3.824   5.710
11209SOL    HW233972   4.307   3.829   5.610
11210SOL     OW33973   4.505   3.988   7.335
11210SOL    HW133974   4.572   3.927   7.378
11210SOL    HW233975   4.432   4.007   7.400
11211SOL     OW33976   4.612   5.238   6.781
11211SOL    HW133977   4.589   5.213   6.687
11211SOL    HW233978   4.673   5.169   6.820
11212SOL     OW33979   5.075   4.314   7.019
11212SOL    HW133980   5.103   4.271   7.104
11212SOL    HW233981   5.100   4.410   7.020
11213SOL     OW33982   4.527   5.126   6.510
11213SOL    HW133983   4.617   5.140   6.468
11213SOL    HW233984   4.456   5.128   6.439
11214SOL     OW33985   4.646   4.227   6.485
11214SOL    HW133986   4.621   4.218   6.389
11214SOL    HW233987   4.694   4.145   6.516
11215SOL     OW33988   4.263   3.788   6.098
11215SOL    HW133989   4.182   3.789   6.156
11215SOL    HW233990   4.266   3.871   6.043
11216SOL     OW33991   5.158   4.912   5.627
11216SOL    HW133992   5.190   4.836   5.684
11216SOL    HW233993   5.066   4.939   5.657
11217SOL     OW33994   4.021   3.759   5.757
11217SOL    HW133995   4.070   3.843   5.736
11217SOL    HW233996   4.083   3.694   5.802
11218SOL     OW33997   4.659   3.960   6.066
11218SOL    HW133998   4.611   4.001   5.988
11218SOL    HW233999   4.758   3.958   6.047
11219SOL     OW34000   4.800   4.407   7.050
11219SOL    HW134001   4.720   4.346   7.053
11219SOL    HW234002   4.881   4.354   7.026
11220SOL     OW34003   4.951   5.294   6.379
11220SOL    HW134004   4.972   5.368   6.314
11220SOL    HW234005   5.019   5.294   6.452
11221SOL     OW34006   4.183   4.876   6.327
11221SOL    HW134007   4.112   4.849   6.392
11221SOL    HW234008   4.157   4.848   6.234
11222SOL     OW34009   4.995   5.521   6.177
11222SOL    HW134010   5.039   5.585   6.113
11222SOL    HW234011   4.945   5.573   6.247
11223SOL     OW34012   4.756   4.273   5.602
11223SOL    HW134013   4.715   4.355   5.563
11223SOL    HW234014   4.820   4.299   5.675
11224SOL     OW34015   3.802   4.280   6.972
11224SOL    HW134016   3.894   4.279   6.931
11224SOL    HW234017   3.796   4.354   7.039
11225SOL     OW34018   4.285   3.946   6.733
11225SOL    HW134019   4.323   3.862   6.770
11225SOL    HW234020   4.197   3.965   6.777
11226SOL     OW34021   4.590   4.178   6.228
11226SOL    HW134022   4.558   4.250   6.166
11226SOL    HW234023   4.614   4.097   6.175
11227SOL     OW34024   4.741   3.763   6.339
11227SOL    HW134025   4.669   3.768   6.270
11227SOL    HW234026   4.717   3.694   6.408
11228SOL     OW34027   5.153   4.897   6.453
11228SOL    HW134028   5.098   4.813   6.446
11228SOL    HW234029   5.179   4.926   6.361
11229SOL     OW34030   5.190   4.314   6.578
11229SOL    HW134031   5.160   4.219   6.585
11229SOL    HW234032   5.263   4.330   6.644
11230SOL     OW34033   5.581   4.557   5.963
11230SOL    HW134034   5.623   4.493   6.027
11230SOL    HW234035   5.543   4.506   5.885
11231SOL     OW34036   4.212   5.109   5.760
11231SOL    HW134037   4.125   5.094   5.807
11231SOL    HW234038   4.195   5.135   5.665
11232SOL     OW34039   5.388   5.004   6.243
11232SOL    HW134040   5.487   5.012   6.257
11232SOL    HW234041   5.343   5.088   6.274
11233SOL     OW34042   5.114   4.299   5.664
11233SOL    HW134043   5.060   4.278   5.745
11233SOL    HW234044   5.205   4.258   5.673
11234SOL     OW34045   4.251   3.980   5.914
11234SOL    HW134046   4.278   3.921   5.839
11234SOL    HW234047   4.251   4.075   5.883
11235SOL     OW34048   5.478   4.947   7.174
11235SOL    HW134049   5.569   4.908   7.161
11235SOL    HW234050   5.486   5.043   7.198
11236SOL     OW34051   4.788   5.071   6.926
11236SOL    HW134052   4.708   5.048   6.981
11236SOL    HW234053   4.871   5.045   6.975
11237SOL     OW34054   5.316   5.353   7.211
11237SOL    HW134055   5.343   5.387   7.121
11237SOL    HW234056   5.395   5.315   7.257
11238SOL     OW34057   4.835   4.919   6.686
11238SOL    HW134058   4.795   4.963   6.767
11238SOL    HW234059   4.794   4.956   6.603
11239SOL     OW34060   5.362   4.823   6.665
11239SOL    HW134061   5.367   4.904   6.724
11239SOL    HW234062   5.276   4.825   6.614
11240SOL     OW34063   4.639   3.813   6.988
11240SOL    HW134064   4.664   3.793   6.893
11240SOL    HW234065   4.711   3.869   7.030
11241SOL     OW34066   4.704   4.840   7.305
11241SOL    HW134067   4.605   4.846   7.315
11241SOL    HW234068   4.727   4.760   7.249
11242SOL     OW34069   4.429   4.774   5.954
11242SOL    HW134070   4.415   4.781   6.053
11242SOL    HW234071   4.513   4.723   5.936
11243SOL     OW34072   4.134   4.537   6.837
11243SOL    HW134073   4.220   4.549   6.887
11243SOL    HW234074   4.092   4.450   6.864
11244SOL     OW34075   4.998   4.110   6.848
11244SOL    HW134076   5.019   4.184   6.912
11244SOL    HW234077   4.909   4.127   6.805
11245SOL     OW34078   3.788   5.288   6.917
11245SOL    HW134079   3.742   5.370   6.883
11245SOL    HW234080   3.886   5.307   6.926
11246SOL     OW34081   4.091   4.824   6.087
11246SOL    HW134082   4.084   4.907   6.031
11246SOL    HW234083   4.095   4.744   6.027
11247SOL     OW34084   4.290   4.261   6.451
11247SOL    HW134085   4.302   4.327   6.377
11247SOL    HW234086   4.336   4.295   6.534
11248SOL     OW34087   4.976   5.072   5.974
11248SOL    HW134088   5.026   5.149   6.014
11248SOL    HW234089   4.881   5.074   6.006
11249SOL     OW34090   4.996   5.169   6.728
11249SOL    HW134091   5.043   5.182   6.815
11249SOL    HW234092   4.930   5.095   6.737
11250SOL     OW34093   5.306   4.363   6.058
11250SOL    HW134094   5.275   4.424   6.131
11250SOL    HW234095   5.356   4.415   5.989
11251SOL     OW34096   4.078   5.234   6.915
11251SOL    HW134097   4.057   5.190   6.828
11251SOL    HW234098   4.175   5.260   6.918
11252SOL     OW34099   4.126   4.475   7.184
11252SOL    HW134100   4.194   4.530   7.137
11252SOL    HW234101   4.166   4.387   7.211
11253SOL     OW34102   5.311   4.503   7.256
11253SOL    HW134103   5.219   4.541   7.251
11253SOL    HW234104   5.371   4.550   7.191
11254SOL     OW34105   4.737   3.829   7.356
11254SOL    HW134106   4.743   3.914   7.304
11254SOL    HW234107   4.769   3.753   7.299
11255SOL     OW34108   4.228   3.774   7.326
11255SOL    HW134109   4.186   3.717   7.256
11255SOL    HW234110   4.162   3.843   7.358
11256SOL     OW34111   4.297   4.594   6.615
11256SOL    HW134112   4.341   4.683   6.606
11256SOL    HW234113   4.234   4.594   6.692
11257SOL     OW34114   5.084   4.586   6.631
11257SOL    HW134115   5.009   4.586   6.565
11257SOL    HW234116   5.121   4.494   6.640
11258SOL     OW34117   4.933   4.249   5.861
11258SOL    HW134118   4.946   4.165   5.915
11258SOL    HW234119   4.904   4.323   5.921
11259SOL     OW34120   4.031   3.937   6.817
11259SOL    HW134121   4.008   3.974   6.907
11259SOL    HW234122   4.001   3.842   6.811
11260SOL     OW34123   3.761   5.034   6.868
11260SOL    HW134124   3.814   4.985   6.936
11260SOL    HW234125   3.783   5.132   6.873
11261SOL     OW34126   4.456   4.358   6.650
11261SOL    HW134127   4.515   4.332   6.574
11261SOL    HW234128   4.428   4.454   6.639
11262SOL     OW34129   5.452   4.659   7.440
11262SOL    HW134130   5.406   4.652   7.351
11262SOL    HW234131   5.390   4.703   7.506
11263SOL     OW34132   4.031   3.787   6.204
11263SOL    HW134133   4.020   3.881   6.237
11263SOL    HW234134   4.026   3.724   6.281
11264SOL     OW34135   5.346   4.091   5.960
11264SOL    HW134136   5.348   4.015   6.024
11264SOL    HW234137   5.298   4.168   6.000
11265SOL     OW34138   4.747   4.490   6.552
11265SOL    HW134139   4.762   4.511   6.648
11265SOL    HW234140   4.717   4.395   6.543
11266SOL     OW34141   4.704   5.297   7.286
11266SOL    HW134142   4.684   5.341   7.198
11266SOL    HW234143   4.743   5.206   7.270
11267SOL     OW34144   5.583   5.242   7.191
11267SOL    HW134145   5.597   5.269   7.096
11267SOL    HW234146   5.666   5.264   7.244
11268SOL     OW34147   4.074   4.622   7.390
11268SOL    HW134148   4.150   4.666   7.438
11268SOL    HW234149   4.109   4.575   7.308
11269SOL     OW34150   5.264   3.998   5.711
11269SOL    HW134151   5.203   3.923   5.734
11269SOL    HW234152   5.286   4.050   5.794
11270SOL     OW34153   5.027   4.562   5.628
11270SOL    HW134154   5.061   4.469   5.643
11270SOL    HW234155   5.045   4.589   5.533
11271SOL     OW34156   4.792   5.057   6.435
11271SOL    HW134157   4.799   4.973   6.380
11271SOL    HW234158   4.854   5.126   6.399
11272SOL     OW34159   4.043   4.534   6.535
11272SOL    HW134160   4.136   4.570   6.540
11272SOL    HW234161   4.037   4.449   6.587
11273SOL     OW34162   4.063   4.233   6.592
11273SOL    HW134163   4.011   4.150   6.575
11273SOL    HW234164   4.140   4.238   6.528
11274SOL     OW34165   4.862   4.104   7.264
11274SOL    HW134166   4.817   4.167   7.328
11274SOL    HW234167   4.955   4.135   7.247
11275SOL     OW34168   4.884   3.931   7.063
11275SOL    HW134169   4.884   3.995   7.140
11275SOL    HW234170   4.912   3.979   6.980
11276SOL     OW34171   3.732   5.050   5.786
11276SOL    HW134172   3.639   5.071   5.755
11276SOL    HW234173   3.742   4.951   5.799
11277SOL     OW34174   3.812   5.525   6.513
11277SOL    HW134175   3.770   5.439   6.486
11277SOL    HW234176   3.906   5.528   6.479
11278SOL     OW34177   4.228   5.292   6.496
11278SOL    HW134178   4.294   5.366   6.505
11278SOL    HW234179   4.272   5.213   6.454
11279SOL     OW34180   4.726   4.520   6.824
11279SOL    HW134181   4.767   4.488   6.910
11279SOL    HW234182   4.630   4.493   6.821
11280SOL     OW34183   3.764   4.268   6.700
11280SOL    HW134184   3.849   4.235   6.659
11280SOL    HW234185   3.777   4.283   6.798
11281SOL     OW34186   3.913   4.244   7.308
11281SOL    HW134187   3.972   4.204   7.238
11281SOL    HW234188   3.855   4.315   7.267
11282SOL     OW34189   5.093   4.674   7.246
11282SOL    HW134190   5.132   4.763   7.266
11282SOL    HW234191   5.103   4.654   7.149
11283SOL     OW34192   4.539   4.296   5.911
11283SOL    HW134193   4.546   4.207   5.865
11283SOL    HW234194   4.445   4.330   5.903
11284SOL     OW34195   5.381   4.328   6.792
11284SOL    HW134196   5.343   4.259   6.854
11284SOL    HW234197   5.463   4.292   6.748
11285SOL     OW34198   3.976   5.288   7.330
11285SOL    HW134199   3.946   5.345   7.406
11285SOL    HW234200   3.969   5.191   7.356
11286SOL     OW34201   4.395   4.188   6.855
11286SOL    HW134202   4.361   4.099   6.825
11286SOL    HW234203   4.421   4.242   6.775
11287SOL     OW34204   4.654   5.402   7.051
11287SOL    HW134205   4.630   5.384   6.956
11287SOL    HW234206   4.684   5.496   7.061
11288SOL     OW34207   4.197   4.224   5.777
11288SOL    HW134208   4.258   4.304   5.781
11288SOL    HW234209   4.102   4.255   5.784
11289SOL     OW34210   3.883   4.861   7.052
11289SOL    HW134211   3.905   4.800   7.128
11289SOL    HW234212   3.893   4.812   6.966
11290SOL     OW34213   5.071   4.783   6.820
11290SOL    HW134214   5.095   4.720   6.746
11290SOL    HW234215   4.981   4.823   6.802
11291SOL     OW34216   5.026   4.579   5.895
11291SOL    HW134217   4.940   4.548   5.937
11291SOL    HW234218   5.022   4.565   5.796
11292SOL     OW34219   5.483   5.471   6.740
11292SOL    HW134220   5.544   5.501   6.667
11292SOL    HW234221   5.445   5.382   6.718
11293SOL     OW34222   4.976   5.455   6.714
11293SOL    HW134223   5.060   5.460   6.660
11293SOL    HW234224   4.953   5.359   6.732
11294SOL     OW34225   3.807   4.982   6.608
11294SOL    HW134226   3.802   4.981   6.708
11294SOL    HW234227   3.724   4.941   6.570
11295SOL     OW34228   4.412   5.386   7.302
11295SOL    HW134229   4.356   5.467   7.311
11295SOL    HW234230   4.464   5.390   7.216
11296SOL     OW34231   5.450   3.859   6.109
11296SOL    HW134232   5.523   3.842   6.042
11296SOL    HW234233   5.419   3.772   6.147
11297SOL     OW34234   5.112   5.297   6.063
11297SOL    HW134235   5.179   5.309   5.989
11297SOL    HW234236   5.072   5.386   6.086
11298SOL     OW34237   3.854   5.518   7.437
11298SOL    HW134238   3.813   5.444   7.490
11298SOL    HW234239   3.918   5.569   7.495
11299SOL     OW34240   5.004   4.651   6.258
11299SOL    HW134241   5.064   4.570   6.260
11299SOL    HW234242   5.044   4.720   6.198
11300SOL     OW34243   4.554   4.997   7.008
11300SOL    HW134244   4.549   5.030   7.103
11300SOL    HW234245   4.468   5.016   6.962
11301SOL     OW34246   4.396   5.340   5.740
11301SOL    HW134247   4.405   5.350   5.641
11301SOL    HW234248   4.356   5.251   5.761
11302SOL     OW34249   5.374   5.444   6.980
11302SOL    HW134250   5.427   5.454   6.896
11302SOL    HW234251   5.347   5.534   7.014
11303SOL     OW34252   5.565   3.899   6.549
11303SOL    HW134253   5.604   3.814   6.513
11303SOL    HW234254   5.467   3.901   6.530
11304SOL     OW34255   3.987   4.050   6.306
11304SOL    HW134256   3.908   4.101   6.272
11304SOL    HW234257   3.978   4.035   6.404
11305SOL     OW34258   4.918   5.336   5.617
11305SOL    HW134259   4.924   5.243   5.654
11305SOL    HW234260   4.859   5.336   5.537
11306SOL     OW34261   4.546   4.726   6.958
11306SOL    HW134262   4.586   4.725   6.866
11306SOL    HW234263   4.556   4.818   6.998
11307SOL     OW34264   4.640   4.634   5.877
11307SOL    HW134265   4.703   4.672   5.809
11307SOL    HW234266   4.680   4.551   5.916
11308SOL     OW34267   5.228   5.331   5.630
11308SOL    HW134268   5.136   5.368   5.637
11308SOL    HW234269   5.266   5.351   5.540
11309SOL     OW34270   4.096   5.012   7.076
11309SOL    HW134271   4.083   5.105   7.042
11309SOL    HW234272   4.012   4.960   7.063
11310SOL     OW34273   5.338   5.016   6.875
11310SOL    HW134274   5.398   5.019   6.955
11310SOL    HW234275   5.263   5.080   6.888
11311SOL     OW34276   4.763   4.822   6.282
11311SOL    HW134277   4.693   4.775   6.336
11311SOL    HW234278   4.822   4.754   6.239
11312SOL     OW34279   4.738   3.960   6.557
11312SOL    HW134280   4.730   3.924   6.464
11312SOL    HW234281   4.736   3.884   6.622
11313SOL     OW34282   4.314   5.211   6.077
11313SOL    HW134283   4.356   5.153   6.007
11313SOL    HW234284   4.270   5.290   6.033
11314SOL     OW34285   5.433   4.109   6.967
11314SOL    HW134286   5.506   4.178   6.971
11314SOL    HW234287   5.461   4.034   6.908
11315SOL     OW34288   3.979   5.072   5.876
11315SOL    HW134289   3.883   5.073   5.849
11315SOL    HW234290   3.991   5.125   5.960
11316SOL     OW34291   3.829   4.737   7.312
11316SOL    HW134292   3.752   4.704   7.366
11316SOL    HW234293   3.914   4.707   7.354
11317SOL     OW34294   4.396   3.927   7.075
11317SOL    HW134295   4.486   3.911   7.035
11317SOL    HW234296   4.404   3.932   7.174
11318SOL     OW34297   3.799   4.069   5.619
11318SOL    HW134298   3.707   4.041   5.590
11318SOL    HW234299   3.830   4.146   5.563
11319SOL     OW34300   5.164   4.580   6.984
11319SOL    HW134301   5.107   4.632   6.921
11319SOL    HW234302   5.260   4.592   6.960
11320SOL     OW34303   3.796   3.890   5.904
11320SOL    HW134304   3.779   3.973   5.850
11320SOL    HW234305   3.886   3.853   5.882
11321SOL     OW34306   4.907   5.059   5.705
11321SOL    HW134307   4.808   5.048   5.707
11321SOL    HW234308   4.941   5.074   5.798
11322SOL     OW34309   4.337   4.566   7.017
11322SOL    HW134310   4.393   4.647   7.000
11322SOL    HW234311   4.396   4.486   7.020
11323SOL     OW34312   5.217   5.491   6.545
11323SOL    HW134313   5.250   5.555   6.476
11323SOL    HW234314   5.283   5.485   6.620
11324SOL     OW34315   4.440   4.289   7.294
11324SOL    HW134316   4.459   4.354   7.368
11324SOL    HW234317   4.500   4.209   7.303
11325SOL     OW34318   5.174   4.944   7.219
11325SOL    HW134319   5.165   4.934   7.318
11325SOL    HW234320   5.270   4.937   7.193
11326SOL     OW34321   4.114   5.465   7.146
11326SOL    HW134322   4.023   5.506   7.144
11326SOL    HW234323   4.107   5.371   7.178
11327SOL     OW34324   5.398   4.607   6.840
11327SOL    HW134325   5.371   4.518   6.803
11327SOL    HW234326   5.399   4.675   6.767
11328SOL     OW34327   4.949   4.049   6.035
11328SOL    HW134328   5.014   3.975   6.024
11328SOL    HW234329   4.969   4.099   6.119
11329SOL     OW34330   4.318   4.469   6.238
11329SOL    HW134331   4.368   4.554   6.219
11329SOL    HW234332   4.230   4.471   6.190
11330SOL     OW34333   5.501   4.066   7.228
11330SOL    HW134334   5.484   4.097   7.134
11330SOL    HW234335   5.417   4.029   7.266
11331SOL     OW34336   5.454   4.658   7.103
11331SOL    HW134337   5.492   4.749   7.118
11331SOL    HW234338   5.446   4.641   7.004
11332SOL     OW34339   4.583   5.098   5.602
11332SOL    HW134340   4.537   5.113   5.690
11332SOL    HW234341   4.627   5.183   5.572
11333SOL     OW34342   4.385   5.514   6.539
11333SOL    HW134343   4.339   5.602   6.526
11333SOL    HW234344   4.484   5.526   6.532
11334SOL     OW34345   4.583   4.680   6.447
11334SOL    HW134346   4.637   4.611   6.495
11334SOL    HW234347   4.551   4.749   6.513
11335SOL     OW34348   4.807   4.708   5.673
11335SOL    HW134349   4.784   4.761   5.591
11335SOL    HW234350   4.888   4.652   5.654
11336SOL     OW34351   5.585   5.293   6.437
11336SOL    HW134352   5.514   5.281   6.367
11336SOL    HW234353   5.586   5.214   6.497
11337SOL     OW34354   3.945   5.038   7.430
11337SOL    HW134355   3.880   4.965   7.409
11337SOL    HW234356   3.949   5.052   7.528
11338SOL     OW34357   3.803   4.964   6.239
11338SOL    HW134358   3.802   4.917   6.327
11338SOL    HW234359   3.885   4.936   6.188
11339SOL     OW34360   4.396   5.115   7.210
11339SOL    HW134361   4.318   5.065   7.248
11339SOL    HW234362   4.393   5.210   7.241
11340SOL     OW34363   5.548   3.916   6.813
11340SOL    HW134364   5.544   3.826   6.857
11340SOL    HW234365   5.551   3.905   6.714
11341SOL     OW34366   4.152   4.148   6.106
11341SOL    HW134367   4.182   4.076   6.044
11341SOL    HW234368   4.113   4.108   6.189
11342SOL     OW34369   5.429   5.211   6.690
11342SOL    HW134370   5.336   5.186   6.663
11342SOL    HW234371   5.455   5.161   6.772
11343SOL     OW34372   4.041   4.271   6.866
11343SOL    HW134373   4.079   4.212   6.938
11343SOL    HW234374   4.081   4.245   6.778
11344SOL     OW34375   4.536   5.310   6.273
11344SOL    HW134376   4.568   5.320   6.179
11344SOL    HW234377   4.457   5.248   6.275
11345SOL     OW34378   5.148   3.938   6.698
11345SOL    HW134379   5.200   3.873   6.753
11345SOL    HW234380   5.099   4.001   6.759
11346SOL     OW34381   4.725   3.758   6.740
11346SOL    HW134382   4.662   3.686   6.709
11346SOL    HW234383   4.818   3.722   6.740
11347SOL     OW34384   4.494   5.054   5.887
11347SOL    HW134385   4.448   4.967   5.904
11347SOL    HW234386   4.585   5.051   5.928
11348SOL     OW34387   4.342   5.291   6.870
11348SOL    HW134388   4.337   5.373   6.927
11348SOL    HW234389   4.431   5.288   6.825
11349SOL     OW34390   5.076   3.776   5.754
11349SOL    HW134391   5.111   3.735   5.670
11349SOL    HW234392   4.986   3.738   5.774
11350SOL     OW34393   5.024   4.177   6.277
11350SOL    HW134394   4.965   4.257   6.281
11350SOL    HW234395   5.039   4.142   6.370
11351SOL     OW34396   5.317   3.945   6.468
11351SOL    HW134397   5.233   3.944   6.522
11351SOL    HW234398   5.319   4.028   6.412
11352SOL     OW34399   3.763   4.801   5.886
11352SOL    HW134400   3.862   4.790   5.877
11352SOL    HW234401   3.723   4.715   5.918
11353SOL     OW34402   4.599   5.370   5.923
11353SOL    HW134403   4.522   5.335   5.869
11353SOL    HW234404   4.567   5.441   5.985
11354SOL     OW34405   3.955   5.437   7.931
11354SOL    HW134406   3.989   5.514   7.985
11354SOL    HW234407   3.999   5.437   7.841
11355SOL     OW34408   5.566   5.491   7.807
11355SOL    HW134409   5.620   5.462   7.887
11355SOL    HW234410   5.596   5.581   7.778
11356SOL     OW34411   3.751   5.320   7.565
11356SOL    HW134412   3.732   5.224   7.586
11356SOL    HW234413   3.718   5.378   7.640
11357SOL     OW34414   5.365   4.832   7.880
11357SOL    HW134415   5.451   4.834   7.828
11357SOL    HW234416   5.379   4.879   7.968
11358SOL     OW34417   5.249   4.723   7.638
11358SOL    HW134418   5.186   4.647   7.651
11358SOL    HW234419   5.297   4.741   7.724
11359SOL     OW34420   5.391   5.438   8.020
11359SOL    HW134421   5.350   5.415   7.932
11359SOL    HW234422   5.373   5.364   8.085
11360SOL     OW34423   5.300   5.386   7.755
11360SOL    HW134424   5.389   5.432   7.758
11360SOL    HW234425   5.279   5.362   7.660
11361SOL     OW34426   5.086   4.868   7.993
11361SOL    HW134427   5.169   4.839   7.945
11361SOL    HW234428   5.037   4.935   7.937
11362SOL     OW34429   4.732   5.180   7.925
11362SOL    HW134430   4.686   5.252   7.873
11362SOL    HW234431   4.728   5.200   8.023
11363SOL     OW34432   4.045   4.667   7.690
11363SOL    HW134433   4.127   4.706   7.648
11363SOL    HW234434   4.018   4.585   7.641
11364SOL     OW34435   4.835   5.500   7.685
11364SOL    HW134436   4.775   5.438   7.735
11364SOL    HW234437   4.866   5.456   7.600
11365SOL     OW34438   5.356   5.101   7.529
11365SOL    HW134439   5.324   5.195   7.519
11365SOL    HW234440   5.280   5.038   7.517
11366SOL     OW34441   4.188   5.467   7.771
11366SOL    HW134442   4.221   5.506   7.857
11366SOL    HW234443   4.264   5.460   7.706
11367SOL     OW34444   5.158   4.912   7.489
11367SOL    HW134445   5.190   4.836   7.546
11367SOL    HW234446   5.066   4.939   7.519
11368SOL     OW34447   4.756   4.273   7.464
11368SOL    HW134448   4.715   4.355   7.425
11368SOL    HW234449   4.820   4.299   7.537
11369SOL     OW34450   4.212   5.109   7.622
11369SOL    HW134451   4.125   5.094   7.669
11369SOL    HW234452   4.195   5.135   7.527
11370SOL     OW34453   5.114   4.299   7.526
11370SOL    HW134454   5.060   4.278   7.607
11370SOL    HW234455   5.205   4.258   7.535
11371SOL     OW34456   4.091   4.824   7.949
11371SOL    HW134457   4.084   4.907   7.893
11371SOL    HW234458   4.095   4.744   7.889
11372SOL     OW34459   4.976   5.072   7.836
11372SOL    HW134460   5.026   5.149   7.876
11372SOL    HW234461   4.881   5.074   7.868
11373SOL     OW34462   5.264   3.998   7.573
11373SOL    HW134463   5.203   3.923   7.596
11373SOL    HW234464   5.286   4.050   7.656
11374SOL     OW34465   5.027   4.562   7.490
11374SOL    HW134466   5.061   4.469   7.505
11374SOL    HW234467   5.045   4.589   7.395
11375SOL     OW34468   3.732   5.050   7.648
11375SOL    HW134469   3.639   5.071   7.617
11375SOL    HW234470   3.742   4.951   7.661
11376SOL     OW34471   4.197   4.224   7.639
11376SOL    HW134472   4.258   4.304   7.643
11376SOL    HW234473   4.102   4.255   7.646
11377SOL     OW34474   5.112   5.297   7.925
11377SOL    HW134475   5.179   5.309   7.851
11377SOL    HW234476   5.072   5.386   7.948
11378SOL     OW34477   4.396   5.340   7.602
11378SOL    HW134478   4.405   5.350   7.503
11378SOL    HW234479   4.356   5.251   7.623
11379SOL     OW34480   4.918   5.336   7.479
11379SOL    HW134481   4.924   5.243   7.516
11379SOL    HW234482   4.859   5.336   7.399
11380SOL     OW34483   5.228   5.331   7.492
11380SOL    HW134484   5.136   5.368   7.499
11380SOL    HW234485   5.266   5.351   7.402
11381SOL     OW34486   4.314   5.211   7.939
11381SOL    HW134487   4.356   5.153   7.869
11381SOL    HW234488   4.270   5.290   7.895
11382SOL     OW34489   3.979   5.072   7.738
11382SOL    HW134490   3.883   5.073   7.711
11382SOL    HW234491   3.991   5.125   7.822
11383SOL     OW34492   3.799   4.069   7.481
11383SOL    HW134493   3.707   4.041   7.452
11383SOL    HW234494   3.830   4.146   7.425
11384SOL     OW34495   4.907   5.059   7.567
11384SOL    HW134496   4.808   5.048   7.569
11384SOL    HW234497   4.941   5.074   7.660
11385SOL     OW34498   4.583   5.098   7.464
11385SOL    HW134499   4.537   5.113   7.552
11385SOL    HW234500   4.627   5.183   7.434
11386SOL     OW34501   4.807   4.708   7.535
11386SOL    HW134502   4.784   4.761   7.453
11386SOL    HW234503   4.888   4.652   7.516
11387SOL     OW34504   4.494   5.054   7.749
11387SOL    HW134505   4.448   4.967   7.766
11387SOL    HW234506   4.585   5.051   7.790
11388SOL     OW34507   5.076   3.776   7.616
11388SOL    HW134508   5.111   3.735   7.532
11388SOL    HW234509   4.986   3.738   7.636
11389SOL     OW34510   3.763   4.801   7.748
11389SOL    HW134511   3.862   4.790   7.739
11389SOL    HW234512   3.723   4.715   7.780
11390SOL     OW34513   4.599   5.370   7.785
11390SOL    HW134514   4.522   5.335   7.731
11390SOL    HW234515   4.567   5.441   7.847
11391SOL     OW34516   3.954   6.214   0.113
11391SOL    HW134517   3.861   6.212   0.150
11391SOL    HW234518   3.955   6.175   0.021
11392SOL     OW34519   3.949   5.861   0.996
11392SOL    HW134520   3.984   5.844   1.088
11392SOL    HW234521   3.861   5.816   0.984
11393SOL     OW34522   3.743   5.954   0.647
11393SOL    HW134523   3.661   5.997   0.686
11393SOL    HW234524   3.715   5.881   0.584
11394SOL     OW34525   4.293   6.861   1.165
11394SOL    HW134526   4.200   6.854   1.128
11394SOL    HW234527   4.304   6.950   1.209
11395SOL     OW34528   5.279   7.097   0.703
11395SOL    HW134529   5.222   7.081   0.784
11395SOL    HW234530   5.220   7.107   0.623
11396SOL     OW34531   4.859   6.289   0.717
11396SOL    HW134532   4.916   6.367   0.692
11396SOL    HW234533   4.799   6.315   0.793
11397SOL     OW34534   5.479   6.193   0.231
11397SOL    HW134535   5.467   6.180   0.132
11397SOL    HW234536   5.449   6.112   0.280
11398SOL     OW34537   4.492   6.730   1.023
11398SOL    HW134538   4.414   6.747   1.083
11398SOL    HW234539   4.526   6.817   0.987
11399SOL     OW34540   4.574   6.384   1.823
11399SOL    HW134541   4.570   6.460   1.888
11399SOL    HW234542   4.596   6.420   1.732
11400SOL     OW34543   4.409   6.598   0.665
11400SOL    HW134544   4.478   6.582   0.735
11400SOL    HW234545   4.336   6.655   0.703
11401SOL     OW34546   4.410   6.747   1.803
11401SOL    HW134547   4.470   6.826   1.817
11401SOL    HW234548   4.324   6.778   1.762
11402SOL     OW34549   4.059   7.021   1.061
11402SOL    HW134550   3.981   6.990   1.008
11402SOL    HW234551   4.117   7.079   1.004
11403SOL     OW34552   5.184   7.091   1.339
11403SOL    HW134553   5.208   7.185   1.365
11403SOL    HW234554   5.168   7.037   1.421
11404SOL     OW34555   4.162   5.978   1.499
11404SOL    HW134556   4.244   5.922   1.508
11404SOL    HW234557   4.081   5.920   1.503
11405SOL     OW34558   5.327   6.033   0.737
11405SOL    HW134559   5.253   6.079   0.687
11405SOL    HW234560   5.378   6.101   0.790
11406SOL     OW34561   3.955   7.299   0.483
11406SOL    HW134562   3.989   7.376   0.537
11406SOL    HW234563   3.999   7.299   0.393
11407SOL     OW34564   4.851   6.927   1.690
11407SOL    HW134565   4.898   6.927   1.778
11407SOL    HW234566   4.803   6.840   1.679
11408SOL     OW34567   3.954   7.020   0.538
11408SOL    HW134568   3.928   7.116   0.538
11408SOL    HW234569   3.883   6.966   0.583
11409SOL     OW34570   3.964   6.677   0.886
11409SOL    HW134571   3.978   6.593   0.938
11409SOL    HW234572   3.909   6.741   0.941
11410SOL     OW34573   4.344   7.372   1.439
11410SOL    HW134574   4.252   7.355   1.474
11410SOL    HW234575   4.372   7.464   1.465
11411SOL     OW34576   4.330   6.550   0.123
11411SOL    HW134577   4.337   6.634   0.069
11411SOL    HW234578   4.376   6.563   0.211
11412SOL     OW34579   5.318   5.700   1.480
11412SOL    HW134580   5.300   5.767   1.408
11412SOL    HW234581   5.315   5.746   1.569
11413SOL     OW34582   3.846   6.229   0.563
11413SOL    HW134583   3.801   6.141   0.580
11413SOL    HW234584   3.845   6.283   0.647
11414SOL     OW34585   5.566   7.353   0.359
11414SOL    HW134586   5.620   7.324   0.439
11414SOL    HW234587   5.596   7.443   0.330
11415SOL     OW34588   3.751   7.182   0.117
11415SOL    HW134589   3.732   7.086   0.138
11415SOL    HW234590   3.718   7.240   0.192
11416SOL     OW34591   5.413   6.508   0.612
11416SOL    HW134592   5.508   6.479   0.620
11416SOL    HW234593   5.405   6.573   0.537
11417SOL     OW34594   5.365   6.694   0.432
11417SOL    HW134595   5.451   6.696   0.380
11417SOL    HW234596   5.379   6.741   0.520
11418SOL     OW34597   3.837   6.323   1.597
11418SOL    HW134598   3.925   6.310   1.642
11418SOL    HW234599   3.824   6.420   1.575
11419SOL     OW34600   4.337   6.951   0.726
11419SOL    HW134601   4.288   6.864   0.735
11419SOL    HW234602   4.314   6.994   0.639
11420SOL     OW34603   5.017   6.814   1.423
11420SOL    HW134604   5.054   6.741   1.365
11420SOL    HW234605   5.069   6.819   1.508
11421SOL     OW34606   4.533   5.590   0.502
11421SOL    HW134607   4.573   5.681   0.493
11421SOL    HW234608   4.433   5.598   0.508
11422SOL     OW34609   3.921   6.562   1.264
11422SOL    HW134610   4.010   6.517   1.250
11422SOL    HW234611   3.848   6.497   1.245
11423SOL     OW34612   5.249   6.585   0.190
11423SOL    HW134613   5.186   6.509   0.203
11423SOL    HW234614   5.297   6.603   0.276
11424SOL     OW34615   4.911   7.378   1.616
11424SOL    HW134616   4.935   7.438   1.540
11424SOL    HW234617   4.918   7.283   1.586
11425SOL     OW34618   4.041   5.837   1.801
11425SOL    HW134619   4.112   5.908   1.807
11425SOL    HW234620   3.953   5.876   1.829
11426SOL     OW34621   5.190   7.003   0.953
11426SOL    HW134622   5.131   7.009   1.033
11426SOL    HW234623   5.175   6.915   0.907
11427SOL     OW34624   5.391   7.300   0.572
11427SOL    HW134625   5.350   7.277   0.484
11427SOL    HW234626   5.373   7.226   0.637
11428SOL     OW34627   4.322   6.315   0.270
11428SOL    HW134628   4.346   6.384   0.202
11428SOL    HW234629   4.244   6.348   0.324
11429SOL     OW34630   5.005   5.931   0.944
11429SOL    HW134631   4.919   5.881   0.931
11429SOL    HW234632   5.067   5.877   1.000
11430SOL     OW34633   5.300   7.248   0.307
11430SOL    HW134634   5.389   7.294   0.310
11430SOL    HW234635   5.279   7.224   0.212
11431SOL     OW34636   4.531   6.191   1.465
11431SOL    HW134637   4.484   6.188   1.554
11431SOL    HW234638   4.480   6.136   1.399
11432SOL     OW34639   4.697   6.476   1.572
11432SOL    HW134640   4.743   6.392   1.543
11432SOL    HW234641   4.641   6.510   1.497
11433SOL     OW34642   4.715   5.996   1.242
11433SOL    HW134643   4.638   6.030   1.296
11433SOL    HW234644   4.681   5.945   1.163
11434SOL     OW34645   4.765   6.287   0.429
11434SOL    HW134646   4.791   6.283   0.525
11434SOL    HW234647   4.680   6.236   0.415
11435SOL     OW34648   3.800   6.397   0.789
11435SOL    HW134649   3.899   6.385   0.798
11435SOL    HW234650   3.776   6.492   0.810
11436SOL     OW34651   3.854   7.407   1.571
11436SOL    HW134652   3.844   7.392   1.670
11436SOL    HW234653   3.768   7.443   1.535
11437SOL     OW34654   4.589   5.934   0.195
11437SOL    HW134655   4.648   5.997   0.146
11437SOL    HW234656   4.608   5.840   0.166
11438SOL     OW34657   5.086   6.730   0.545
11438SOL    HW134658   5.169   6.701   0.497
11438SOL    HW234659   5.037   6.797   0.489
11439SOL     OW34660   4.274   5.782   0.885
11439SOL    HW134661   4.269   5.777   0.985
11439SOL    HW234662   4.276   5.878   0.856
11440SOL     OW34663   4.732   7.042   0.477
11440SOL    HW134664   4.686   7.114   0.425
11440SOL    HW234665   4.728   7.062   0.575
11441SOL     OW34666   4.075   7.387   0.853
11441SOL    HW134667   4.125   7.301   0.859
11441SOL    HW234668   4.140   7.464   0.850
11442SOL     OW34669   5.519   6.652   0.873
11442SOL    HW134670   5.457   6.637   0.797
11442SOL    HW234671   5.467   6.663   0.958
11443SOL     OW34672   4.951   7.136   1.506
11443SOL    HW134673   4.957   7.059   1.570
11443SOL    HW234674   4.899   7.110   1.426
11444SOL     OW34675   4.045   6.529   0.242
11444SOL    HW134676   4.127   6.568   0.200
11444SOL    HW234677   4.018   6.447   0.193
11445SOL     OW34678   5.182   6.321   0.728
11445SOL    HW134679   5.177   6.256   0.803
11445SOL    HW234680   5.262   6.380   0.741
11446SOL     OW34681   4.185   6.852   1.727
11446SOL    HW134682   4.135   6.853   1.641
11446SOL    HW234683   4.122   6.834   1.803
11447SOL     OW34684   4.835   7.362   0.237
11447SOL    HW134685   4.775   7.300   0.287
11447SOL    HW234686   4.866   7.318   0.152
11448SOL     OW34687   3.926   5.871   1.498
11448SOL    HW134688   3.846   5.931   1.485
11448SOL    HW234689   3.916   5.822   1.584
11449SOL     OW34690   5.356   6.963   0.081
11449SOL    HW134691   5.324   7.057   0.071
11449SOL    HW234692   5.280   6.900   0.069
11450SOL     OW34693   4.188   7.329   0.323
11450SOL    HW134694   4.221   7.368   0.409
11450SOL    HW234695   4.264   7.322   0.258
11451SOL     OW34696   5.124   5.693   0.426
11451SOL    HW134697   5.100   5.656   0.336
11451SOL    HW234698   5.223   5.709   0.430
11452SOL     OW34699   3.973   7.371   1.241
11452SOL    HW134700   4.030   7.306   1.291
11452SOL    HW234701   3.957   7.338   1.148
11453SOL     OW34702   4.664   7.284   0.904
11453SOL    HW134703   4.744   7.227   0.925
11453SOL    HW234704   4.615   7.244   0.827
11454SOL     OW34705   4.106   6.286   0.480
11454SOL    HW134706   4.151   6.196   0.477
11454SOL    HW234707   4.012   6.275   0.513
11455SOL     OW34708   5.271   5.808   1.729
11455SOL    HW134709   5.266   5.845   1.821
11455SOL    HW234710   5.199   5.739   1.717
11456SOL     OW34711   4.338   5.708   0.117
11456SOL    HW134712   4.436   5.686   0.124
11456SOL    HW234713   4.307   5.691   0.024
11457SOL     OW34714   4.505   5.850   1.749
11457SOL    HW134715   4.572   5.789   1.792
11457SOL    HW234716   4.432   5.869   1.814
11458SOL     OW34717   4.612   7.100   1.195
11458SOL    HW134718   4.589   7.075   1.101
11458SOL    HW234719   4.673   7.031   1.234
11459SOL     OW34720   5.075   6.176   1.433
11459SOL    HW134721   5.103   6.133   1.518
11459SOL    HW234722   5.100   6.272   1.434
11460SOL     OW34723   4.527   6.988   0.924
11460SOL    HW134724   4.617   7.002   0.882
11460SOL    HW234725   4.456   6.990   0.853
11461SOL     OW34726   4.646   6.089   0.899
11461SOL    HW134727   4.621   6.080   0.803
11461SOL    HW234728   4.694   6.007   0.930
11462SOL     OW34729   4.263   5.650   0.512
11462SOL    HW134730   4.182   5.651   0.570
11462SOL    HW234731   4.266   5.733   0.457
11463SOL     OW34732   5.158   6.774   0.041
11463SOL    HW134733   5.190   6.698   0.098
11463SOL    HW234734   5.066   6.801   0.071
11464SOL     OW34735   4.021   5.621   0.171
11464SOL    HW134736   4.070   5.705   0.150
11464SOL    HW234737   4.083   5.556   0.216
11465SOL     OW34738   4.659   5.822   0.480
11465SOL    HW134739   4.611   5.863   0.402
11465SOL    HW234740   4.758   5.820   0.461
11466SOL     OW34741   4.800   6.269   1.464
11466SOL    HW134742   4.720   6.208   1.467
11466SOL    HW234743   4.881   6.216   1.440
11467SOL     OW34744   4.951   7.156   0.793
11467SOL    HW134745   4.972   7.230   0.728
11467SOL    HW234746   5.019   7.156   0.866
11468SOL     OW34747   4.183   6.738   0.741
11468SOL    HW134748   4.112   6.711   0.806
11468SOL    HW234749   4.157   6.710   0.648
11469SOL     OW34750   4.995   7.383   0.591
11469SOL    HW134751   5.039   7.447   0.527
11469SOL    HW234752   4.945   7.435   0.661
11470SOL     OW34753   4.756   6.135   0.016
11470SOL    HW134754   4.715   6.217  -0.023
11470SOL    HW234755   4.820   6.161   0.089
11471SOL     OW34756   3.802   6.142   1.386
11471SOL    HW134757   3.894   6.141   1.345
11471SOL    HW234758   3.796   6.216   1.453
11472SOL     OW34759   4.285   5.808   1.147
11472SOL    HW134760   4.323   5.724   1.184
11472SOL    HW234761   4.197   5.827   1.191
11473SOL     OW34762   4.590   6.040   0.642
11473SOL    HW134763   4.558   6.112   0.580
11473SOL    HW234764   4.614   5.959   0.589
11474SOL     OW34765   4.741   5.625   0.753
11474SOL    HW134766   4.669   5.630   0.684
11474SOL    HW234767   4.717   5.556   0.822
11475SOL     OW34768   5.153   6.759   0.867
11475SOL    HW134769   5.098   6.675   0.860
11475SOL    HW234770   5.179   6.788   0.775
11476SOL     OW34771   5.190   6.176   0.992
11476SOL    HW134772   5.160   6.081   0.999
11476SOL    HW234773   5.263   6.192   1.058
11477SOL     OW34774   5.581   6.419   0.377
11477SOL    HW134775   5.623   6.355   0.441
11477SOL    HW234776   5.543   6.368   0.299
11478SOL     OW34777   4.212   6.971   0.174
11478SOL    HW134778   4.125   6.956   0.221
11478SOL    HW234779   4.195   6.997   0.079
11479SOL     OW34780   5.388   6.866   0.657
11479SOL    HW134781   5.487   6.874   0.671
11479SOL    HW234782   5.343   6.950   0.688
11480SOL     OW34783   5.114   6.161   0.078
11480SOL    HW134784   5.060   6.140   0.159
11480SOL    HW234785   5.205   6.120   0.087
11481SOL     OW34786   4.251   5.842   0.328
11481SOL    HW134787   4.278   5.783   0.253
11481SOL    HW234788   4.251   5.937   0.297
11482SOL     OW34789   5.478   6.809   1.588
11482SOL    HW134790   5.569   6.770   1.575
11482SOL    HW234791   5.486   6.905   1.612
11483SOL     OW34792   4.788   6.933   1.340
11483SOL    HW134793   4.708   6.910   1.395
11483SOL    HW234794   4.871   6.907   1.389
11484SOL     OW34795   5.316   7.215   1.625
11484SOL    HW134796   5.343   7.249   1.535
11484SOL    HW234797   5.395   7.177   1.671
11485SOL     OW34798   4.835   6.781   1.100
11485SOL    HW134799   4.795   6.825   1.181
11485SOL    HW234800   4.794   6.818   1.017
11486SOL     OW34801   5.362   6.685   1.079
11486SOL    HW134802   5.367   6.766   1.138
11486SOL    HW234803   5.276   6.687   1.028
11487SOL     OW34804   4.639   5.675   1.402
11487SOL    HW134805   4.664   5.655   1.307
11487SOL    HW234806   4.711   5.731   1.444
11488SOL     OW34807   4.704   6.702   1.719
11488SOL    HW134808   4.605   6.708   1.729
11488SOL    HW234809   4.727   6.622   1.663
11489SOL     OW34810   4.429   6.636   0.368
11489SOL    HW134811   4.415   6.643   0.467
11489SOL    HW234812   4.513   6.585   0.350
11490SOL     OW34813   4.134   6.399   1.251
11490SOL    HW134814   4.220   6.411   1.301
11490SOL    HW234815   4.092   6.312   1.278
11491SOL     OW34816   4.998   5.972   1.262
11491SOL    HW134817   5.019   6.046   1.326
11491SOL    HW234818   4.909   5.989   1.219
11492SOL     OW34819   3.788   7.150   1.331
11492SOL    HW134820   3.742   7.232   1.297
11492SOL    HW234821   3.886   7.169   1.340
11493SOL     OW34822   4.091   6.686   0.501
11493SOL    HW134823   4.084   6.769   0.445
11493SOL    HW234824   4.095   6.606   0.441
11494SOL     OW34825   4.290   6.123   0.865
11494SOL    HW134826   4.302   6.189   0.791
11494SOL    HW234827   4.336   6.157   0.948
11495SOL     OW34828   4.976   6.934   0.388
11495SOL    HW134829   5.026   7.011   0.428
11495SOL    HW234830   4.881   6.936   0.420
11496SOL     OW34831   4.996   7.031   1.142
11496SOL    HW134832   5.043   7.044   1.229
11496SOL    HW234833   4.930   6.957   1.151
11497SOL     OW34834   5.306   6.225   0.472
11497SOL    HW134835   5.275   6.286   0.545
11497SOL    HW234836   5.356   6.277   0.403
11498SOL     OW34837   4.078   7.096   1.329
11498SOL    HW134838   4.057   7.052   1.242
11498SOL    HW234839   4.175   7.122   1.332
11499SOL     OW34840   4.126   6.337   1.598
11499SOL    HW134841   4.194   6.392   1.551
11499SOL    HW234842   4.166   6.249   1.625
11500SOL     OW34843   5.311   6.365   1.670
11500SOL    HW134844   5.219   6.403   1.665
11500SOL    HW234845   5.371   6.412   1.605
11501SOL     OW34846   4.737   5.691   1.770
11501SOL    HW134847   4.743   5.776   1.718
11501SOL    HW234848   4.769   5.615   1.713
11502SOL     OW34849   4.228   5.636   1.740
11502SOL    HW134850   4.186   5.579   1.670
11502SOL    HW234851   4.162   5.705   1.772
11503SOL     OW34852   4.297   6.456   1.029
11503SOL    HW134853   4.341   6.545   1.020
11503SOL    HW234854   4.234   6.456   1.106
11504SOL     OW34855   5.084   6.448   1.045
11504SOL    HW134856   5.009   6.448   0.979
11504SOL    HW234857   5.121   6.356   1.054
11505SOL     OW34858   4.933   6.111   0.275
11505SOL    HW134859   4.946   6.027   0.329
11505SOL    HW234860   4.904   6.185   0.335
11506SOL     OW34861   4.031   5.799   1.231
11506SOL    HW134862   4.008   5.836   1.321
11506SOL    HW234863   4.001   5.704   1.225
11507SOL     OW34864   3.761   6.896   1.282
11507SOL    HW134865   3.814   6.847   1.350
11507SOL    HW234866   3.783   6.994   1.287
11508SOL     OW34867   4.456   6.220   1.064
11508SOL    HW134868   4.515   6.194   0.988
11508SOL    HW234869   4.428   6.316   1.053
11509SOL     OW34870   4.031   5.649   0.618
11509SOL    HW134871   4.020   5.743   0.651
11509SOL    HW234872   4.026   5.586   0.695
11510SOL     OW34873   5.346   5.953   0.374
11510SOL    HW134874   5.348   5.877   0.438
11510SOL    HW234875   5.298   6.030   0.414
11511SOL     OW34876   4.747   6.352   0.966
11511SOL    HW134877   4.762   6.373   1.062
11511SOL    HW234878   4.717   6.257   0.957
11512SOL     OW34879   4.704   7.159   1.700
11512SOL    HW134880   4.684   7.203   1.612
11512SOL    HW234881   4.743   7.068   1.684
11513SOL     OW34882   5.583   7.104   1.605
11513SOL    HW134883   5.597   7.131   1.510
11513SOL    HW234884   5.666   7.126   1.658
11514SOL     OW34885   4.074   6.484   1.804
11514SOL    HW134886   4.150   6.528   1.852
11514SOL    HW234887   4.109   6.437   1.722
11515SOL     OW34888   5.264   5.860   0.125
11515SOL    HW134889   5.203   5.785   0.148
11515SOL    HW234890   5.286   5.912   0.208
11516SOL     OW34891   5.027   6.424   0.042
11516SOL    HW134892   5.061   6.331   0.057
11516SOL    HW234893   5.045   6.451  -0.053
11517SOL     OW34894   4.792   6.919   0.849
11517SOL    HW134895   4.799   6.835   0.794
11517SOL    HW234896   4.854   6.988   0.813
11518SOL     OW34897   4.043   6.396   0.949
11518SOL    HW134898   4.136   6.432   0.954
11518SOL    HW234899   4.037   6.311   1.001
11519SOL     OW34900   4.063   6.095   1.006
11519SOL    HW134901   4.011   6.012   0.989
11519SOL    HW234902   4.140   6.100   0.942
11520SOL     OW34903   4.862   5.966   1.678
11520SOL    HW134904   4.817   6.029   1.742
11520SOL    HW234905   4.955   5.997   1.661
11521SOL     OW34906   4.884   5.793   1.477
11521SOL    HW134907   4.884   5.857   1.554
11521SOL    HW234908   4.912   5.841   1.394
11522SOL     OW34909   3.732   6.912   0.200
11522SOL    HW134910   3.639   6.933   0.169
11522SOL    HW234911   3.742   6.813   0.213
11523SOL     OW34912   3.812   7.387   0.927
11523SOL    HW134913   3.770   7.301   0.900
11523SOL    HW234914   3.906   7.390   0.893
11524SOL     OW34915   4.228   7.154   0.910
11524SOL    HW134916   4.294   7.228   0.919
11524SOL    HW234917   4.272   7.075   0.868
11525SOL     OW34918   4.726   6.382   1.238
11525SOL    HW134919   4.767   6.350   1.324
11525SOL    HW234920   4.630   6.355   1.235
11526SOL     OW34921   3.764   6.130   1.114
11526SOL    HW134922   3.849   6.097   1.073
11526SOL    HW234923   3.777   6.145   1.212
11527SOL     OW34924   3.913   6.106   1.722
11527SOL    HW134925   3.972   6.066   1.652
11527SOL    HW234926   3.855   6.177   1.681
11528SOL     OW34927   5.093   6.536   1.660
11528SOL    HW134928   5.132   6.625   1.680
11528SOL    HW234929   5.103   6.516   1.563
11529SOL     OW34930   4.539   6.158   0.325
11529SOL    HW134931   4.546   6.069   0.279
11529SOL    HW234932   4.445   6.192   0.317
11530SOL     OW34933   5.381   6.190   1.206
11530SOL    HW134934   5.343   6.121   1.268
11530SOL    HW234935   5.463   6.154   1.162
11531SOL     OW34936   3.976   7.150   1.744
11531SOL    HW134937   3.946   7.207   1.820
11531SOL    HW234938   3.969   7.053   1.770
11532SOL     OW34939   4.395   6.050   1.269
11532SOL    HW134940   4.361   5.961   1.239
11532SOL    HW234941   4.421   6.104   1.189
11533SOL     OW34942   4.654   7.264   1.465
11533SOL    HW134943   4.630   7.246   1.370
11533SOL    HW234944   4.684   7.358   1.475
11534SOL     OW34945   4.197   6.086   0.191
11534SOL    HW134946   4.258   6.166   0.195
11534SOL    HW234947   4.102   6.117   0.198
11535SOL     OW34948   3.883   6.723   1.466
11535SOL    HW134949   3.905   6.662   1.542
11535SOL    HW234950   3.893   6.674   1.380
11536SOL     OW34951   5.071   6.645   1.234
11536SOL    HW134952   5.095   6.582   1.160
11536SOL    HW234953   4.981   6.685   1.216
11537SOL     OW34954   5.026   6.441   0.309
11537SOL    HW134955   4.940   6.410   0.351
11537SOL    HW234956   5.022   6.427   0.210
11538SOL     OW34957   5.483   7.333   1.154
11538SOL    HW134958   5.544   7.363   1.081
11538SOL    HW234959   5.445   7.244   1.132
11539SOL     OW34960   4.976   7.317   1.128
11539SOL    HW134961   5.060   7.322   1.074
11539SOL    HW234962   4.953   7.221   1.146
11540SOL     OW34963   3.807   6.844   1.022
11540SOL    HW134964   3.802   6.843   1.122
11540SOL    HW234965   3.724   6.803   0.984
11541SOL     OW34966   4.412   7.248   1.716
11541SOL    HW134967   4.356   7.329   1.725
11541SOL    HW234968   4.464   7.252   1.630
11542SOL     OW34969   4.627   5.672   0.133
11542SOL    HW134970   4.678   5.673   0.047
11542SOL    HW234971   4.683   5.630   0.204
11543SOL     OW34972   5.450   5.721   0.523
11543SOL    HW134973   5.523   5.704   0.456
11543SOL    HW234974   5.419   5.634   0.561
11544SOL     OW34975   5.112   7.159   0.477
11544SOL    HW134976   5.179   7.171   0.403
11544SOL    HW234977   5.072   7.248   0.500
11545SOL     OW34978   3.854   7.380   1.851
11545SOL    HW134979   3.813   7.306   1.904
11545SOL    HW234980   3.918   7.431   1.909
11546SOL     OW34981   5.004   6.513   0.672
11546SOL    HW134982   5.064   6.432   0.674
11546SOL    HW234983   5.044   6.582   0.612
11547SOL     OW34984   4.554   6.859   1.422
11547SOL    HW134985   4.549   6.892   1.517
11547SOL    HW234986   4.468   6.878   1.376
11548SOL     OW34987   4.396   7.202   0.154
11548SOL    HW134988   4.405   7.212   0.055
11548SOL    HW234989   4.356   7.113   0.175
11549SOL     OW34990   5.374   7.306   1.394
11549SOL    HW134991   5.427   7.316   1.310
11549SOL    HW234992   5.347   7.396   1.428
11550SOL     OW34993   5.565   5.761   0.963
11550SOL    HW134994   5.604   5.676   0.927
11550SOL    HW234995   5.467   5.763   0.944
11551SOL     OW34996   3.987   5.912   0.720
11551SOL    HW134997   3.908   5.963   0.686
11551SOL    HW234998   3.978   5.897   0.818
11552SOL     OW34999   4.918   7.198   0.031
11552SOL    HW135000   4.924   7.105   0.068
11552SOL    HW235001   4.859   7.198  -0.049
11553SOL     OW35002   4.546   6.588   1.372
11553SOL    HW135003   4.586   6.587   1.280
11553SOL    HW235004   4.556   6.680   1.412
11554SOL     OW35005   4.640   6.496   0.291
11554SOL    HW135006   4.703   6.534   0.223
11554SOL    HW235007   4.680   6.413   0.330
11555SOL     OW35008   5.228   7.193   0.044
11555SOL    HW135009   5.136   7.230   0.051
11555SOL    HW235010   5.266   7.213  -0.046
11556SOL     OW35011   4.096   6.874   1.490
11556SOL    HW135012   4.083   6.967   1.456
11556SOL    HW235013   4.012   6.822   1.477
11557SOL     OW35014   5.338   6.878   1.289
11557SOL    HW135015   5.398   6.881   1.369
11557SOL    HW235016   5.263   6.942   1.302
11558SOL     OW35017   4.763   6.684   0.696
11558SOL    HW135018   4.693   6.637   0.750
11558SOL    HW235019   4.822   6.616   0.653
11559SOL     OW35020   4.738   5.822   0.971
11559SOL    HW135021   4.730   5.786   0.878
11559SOL    HW235022   4.736   5.746   1.036
11560SOL     OW35023   4.314   7.073   0.491
11560SOL    HW135024   4.356   7.015   0.421
11560SOL    HW235025   4.270   7.152   0.447
11561SOL     OW35026   5.433   5.971   1.381
11561SOL    HW135027   5.506   6.040   1.385
11561SOL    HW235028   5.461   5.896   1.322
11562SOL     OW35029   3.979   6.934   0.290
11562SOL    HW135030   3.883   6.935   0.263
11562SOL    HW235031   3.991   6.987   0.374
11563SOL     OW35032   3.829   6.599   1.726
11563SOL    HW135033   3.752   6.566   1.780
11563SOL    HW235034   3.914   6.569   1.768
11564SOL     OW35035   4.396   5.789   1.489
11564SOL    HW135036   4.486   5.773   1.449
11564SOL    HW235037   4.404   5.794   1.588
11565SOL     OW35038   3.799   5.931   0.033
11565SOL    HW135039   3.707   5.903   0.004
11565SOL    HW235040   3.830   6.008  -0.023
11566SOL     OW35041   5.164   6.442   1.398
11566SOL    HW135042   5.107   6.494   1.335
11566SOL    HW235043   5.260   6.454   1.374
11567SOL     OW35044   3.796   5.752   0.318
11567SOL    HW135045   3.779   5.835   0.264
11567SOL    HW235046   3.886   5.715   0.296
11568SOL     OW35047   4.907   6.921   0.119
11568SOL    HW135048   4.808   6.910   0.121
11568SOL    HW235049   4.941   6.936   0.212
11569SOL     OW35050   4.337   6.428   1.431
11569SOL    HW135051   4.393   6.509   1.414
11569SOL    HW235052   4.396   6.348   1.434
11570SOL     OW35053   5.217   7.353   0.959
11570SOL    HW135054   5.250   7.417   0.890
11570SOL    HW235055   5.283   7.347   1.034
11571SOL     OW35056   4.440   6.151   1.708
11571SOL    HW135057   4.459   6.216   1.782
11571SOL    HW235058   4.500   6.071   1.717
11572SOL     OW35059   5.174   6.806   1.633
11572SOL    HW135060   5.165   6.796   1.732
11572SOL    HW235061   5.270   6.799   1.607
11573SOL     OW35062   4.114   7.327   1.560
11573SOL    HW135063   4.023   7.368   1.558
11573SOL    HW235064   4.107   7.233   1.592
11574SOL     OW35065   5.398   6.469   1.254
11574SOL    HW135066   5.371   6.380   1.217
11574SOL    HW235067   5.399   6.537   1.181
11575SOL     OW35068   4.949   5.911   0.449
11575SOL    HW135069   5.014   5.837   0.438
11575SOL    HW235070   4.969   5.961   0.533
11576SOL     OW35071   4.318   6.331   0.652
11576SOL    HW135072   4.368   6.416   0.633
11576SOL    HW235073   4.230   6.333   0.604
11577SOL     OW35074   5.501   5.928   1.642
11577SOL    HW135075   5.484   5.959   1.548
11577SOL    HW235076   5.417   5.891   1.680
11578SOL     OW35077   4.583   6.960   0.016
11578SOL    HW135078   4.537   6.975   0.104
11578SOL    HW235079   4.627   7.045  -0.014
11579SOL     OW35080   4.385   7.376   0.953
11579SOL    HW135081   4.339   7.464   0.940
11579SOL    HW235082   4.484   7.388   0.946
11580SOL     OW35083   4.583   6.542   0.861
11580SOL    HW135084   4.637   6.473   0.909
11580SOL    HW235085   4.551   6.611   0.927
11581SOL     OW35086   4.807   6.570   0.087
11581SOL    HW135087   4.784   6.623   0.005
11581SOL    HW235088   4.888   6.514   0.068
11582SOL     OW35089   5.585   7.155   0.851
11582SOL    HW135090   5.514   7.143   0.781
11582SOL    HW235091   5.586   7.076   0.911
11583SOL     OW35092   3.945   6.900   1.844
11583SOL    HW135093   3.880   6.827   1.823
11583SOL    HW235094   3.949   6.914   1.942
11584SOL     OW35095   3.803   6.826   0.653
11584SOL    HW135096   3.802   6.779   0.741
11584SOL    HW235097   3.885   6.798   0.602
11585SOL     OW35098   4.396   6.977   1.624
11585SOL    HW135099   4.318   6.927   1.662
11585SOL    HW235100   4.393   7.072   1.655
11586SOL     OW35101   5.548   5.778   1.227
11586SOL    HW135102   5.544   5.688   1.271
11586SOL    HW235103   5.551   5.767   1.128
11587SOL     OW35104   4.152   6.010   0.520
11587SOL    HW135105   4.182   5.938   0.458
11587SOL    HW235106   4.113   5.970   0.603
11588SOL     OW35107   5.429   7.073   1.104
11588SOL    HW135108   5.336   7.048   1.077
11588SOL    HW235109   5.455   7.023   1.186
11589SOL     OW35110   4.041   6.133   1.280
11589SOL    HW135111   4.079   6.074   1.352
11589SOL    HW235112   4.081   6.107   1.192
11590SOL     OW35113   4.536   7.172   0.687
11590SOL    HW135114   4.568   7.182   0.593
11590SOL    HW235115   4.457   7.110   0.689
11591SOL     OW35116   5.148   5.800   1.112
11591SOL    HW135117   5.200   5.735   1.167
11591SOL    HW235118   5.099   5.863   1.173
11592SOL     OW35119   4.725   5.620   1.154
11592SOL    HW135120   4.662   5.548   1.123
11592SOL    HW235121   4.818   5.584   1.154
11593SOL     OW35122   4.494   6.916   0.301
11593SOL    HW135123   4.448   6.829   0.318
11593SOL    HW235124   4.585   6.913   0.342
11594SOL     OW35125   4.342   7.153   1.284
11594SOL    HW135126   4.337   7.235   1.341
11594SOL    HW235127   4.431   7.150   1.239
11595SOL     OW35128   5.076   5.638   0.168
11595SOL    HW135129   5.111   5.597   0.084
11595SOL    HW235130   4.986   5.600   0.188
11596SOL     OW35131   5.024   6.039   0.691
11596SOL    HW135132   4.965   6.119   0.695
11596SOL    HW235133   5.039   6.004   0.784
11597SOL     OW35134   5.317   5.807   0.882
11597SOL    HW135135   5.233   5.806   0.936
11597SOL    HW235136   5.319   5.890   0.826
11598SOL     OW35137   3.763   6.663   0.300
11598SOL    HW135138   3.862   6.652   0.291
11598SOL    HW235139   3.723   6.577   0.332
11599SOL     OW35140   4.599   7.232   0.337
11599SOL    HW135141   4.522   7.197   0.283
11599SOL    HW235142   4.567   7.303   0.399
11600SOL     OW35143   3.954   6.214   1.975
11600SOL    HW135144   3.861   6.212   2.012
11600SOL    HW235145   3.955   6.175   1.883
11601SOL     OW35146   3.949   5.861   2.858
11601SOL    HW135147   3.984   5.844   2.950
11601SOL    HW235148   3.861   5.816   2.846
11602SOL     OW35149   3.743   5.954   2.509
11602SOL    HW135150   3.661   5.997   2.548
11602SOL    HW235151   3.715   5.881   2.446
11603SOL     OW35152   4.293   6.861   3.027
11603SOL    HW135153   4.200   6.854   2.990
11603SOL    HW235154   4.304   6.950   3.071
11604SOL     OW35155   5.279   7.097   2.565
11604SOL    HW135156   5.222   7.081   2.646
11604SOL    HW235157   5.220   7.107   2.485
11605SOL     OW35158   4.859   6.289   2.579
11605SOL    HW135159   4.916   6.367   2.554
11605SOL    HW235160   4.799   6.315   2.655
11606SOL     OW35161   4.492   6.730   2.885
11606SOL    HW135162   4.414   6.747   2.945
11606SOL    HW235163   4.526   6.817   2.849
11607SOL     OW35164   4.574   6.384   3.685
11607SOL    HW135165   4.570   6.460   3.750
11607SOL    HW235166   4.596   6.420   3.594
11608SOL     OW35167   4.409   6.598   2.527
11608SOL    HW135168   4.478   6.582   2.597
11608SOL    HW235169   4.336   6.655   2.565
11609SOL     OW35170   4.410   6.747   3.665
11609SOL    HW135171   4.470   6.826   3.679
11609SOL    HW235172   4.324   6.778   3.624
11610SOL     OW35173   4.059   7.021   2.923
11610SOL    HW135174   3.981   6.990   2.870
11610SOL    HW235175   4.117   7.079   2.866
11611SOL     OW35176   5.184   7.091   3.201
11611SOL    HW135177   5.208   7.185   3.227
11611SOL    HW235178   5.168   7.037   3.283
11612SOL     OW35179   4.162   5.978   3.361
11612SOL    HW135180   4.244   5.922   3.370
11612SOL    HW235181   4.081   5.920   3.365
11613SOL     OW35182   5.327   6.033   2.599
11613SOL    HW135183   5.253   6.079   2.549
11613SOL    HW235184   5.378   6.101   2.652
11614SOL     OW35185   3.955   7.299   2.345
11614SOL    HW135186   3.989   7.376   2.399
11614SOL    HW235187   3.999   7.299   2.255
11615SOL     OW35188   3.954   7.020   2.400
11615SOL    HW135189   3.928   7.116   2.400
11615SOL    HW235190   3.883   6.966   2.445
11616SOL     OW35191   3.964   6.677   2.748
11616SOL    HW135192   3.978   6.593   2.800
11616SOL    HW235193   3.909   6.741   2.803
11617SOL     OW35194   4.344   7.372   3.301
11617SOL    HW135195   4.252   7.355   3.336
11617SOL    HW235196   4.372   7.464   3.327
11618SOL     OW35197   4.330   6.550   1.985
11618SOL    HW135198   4.337   6.634   1.931
11618SOL    HW235199   4.376   6.563   2.073
11619SOL     OW35200   3.846   6.229   2.425
11619SOL    HW135201   3.801   6.141   2.442
11619SOL    HW235202   3.845   6.283   2.509
11620SOL     OW35203   5.566   7.353   2.221
11620SOL    HW135204   5.620   7.324   2.301
11620SOL    HW235205   5.596   7.443   2.192
11621SOL     OW35206   3.751   7.182   1.979
11621SOL    HW135207   3.732   7.086   2.000
11621SOL    HW235208   3.718   7.240   2.054
11622SOL     OW35209   5.365   6.694   2.294
11622SOL    HW135210   5.451   6.696   2.242
11622SOL    HW235211   5.379   6.741   2.382
11623SOL     OW35212   3.837   6.323   3.459
11623SOL    HW135213   3.925   6.310   3.504
11623SOL    HW235214   3.824   6.420   3.437
11624SOL     OW35215   4.337   6.951   2.588
11624SOL    HW135216   4.288   6.864   2.597
11624SOL    HW235217   4.314   6.994   2.501
11625SOL     OW35218   4.533   5.590   2.364
11625SOL    HW135219   4.573   5.681   2.355
11625SOL    HW235220   4.433   5.598   2.370
11626SOL     OW35221   3.921   6.562   3.126
11626SOL    HW135222   4.010   6.517   3.112
11626SOL    HW235223   3.848   6.497   3.107
11627SOL     OW35224   5.249   6.585   2.052
11627SOL    HW135225   5.186   6.509   2.065
11627SOL    HW235226   5.297   6.603   2.138
11628SOL     OW35227   4.911   7.378   3.478
11628SOL    HW135228   4.935   7.438   3.402
11628SOL    HW235229   4.918   7.283   3.448
11629SOL     OW35230   4.041   5.837   3.663
11629SOL    HW135231   4.112   5.908   3.669
11629SOL    HW235232   3.953   5.876   3.691
11630SOL     OW35233   5.190   7.003   2.815
11630SOL    HW135234   5.131   7.009   2.895
11630SOL    HW235235   5.175   6.915   2.769
11631SOL     OW35236   5.391   7.300   2.434
11631SOL    HW135237   5.350   7.277   2.346
11631SOL    HW235238   5.373   7.226   2.499
11632SOL     OW35239   4.322   6.315   2.132
11632SOL    HW135240   4.346   6.384   2.064
11632SOL    HW235241   4.244   6.348   2.186
11633SOL     OW35242   5.005   5.931   2.806
11633SOL    HW135243   4.919   5.881   2.793
11633SOL    HW235244   5.067   5.877   2.862
11634SOL     OW35245   5.300   7.248   2.169
11634SOL    HW135246   5.389   7.294   2.172
11634SOL    HW235247   5.279   7.224   2.074
11635SOL     OW35248   4.531   6.191   3.327
11635SOL    HW135249   4.484   6.188   3.416
11635SOL    HW235250   4.480   6.136   3.261
11636SOL     OW35251   4.697   6.476   3.434
11636SOL    HW135252   4.743   6.392   3.405
11636SOL    HW235253   4.641   6.510   3.359
11637SOL     OW35254   4.715   5.996   3.104
11637SOL    HW135255   4.638   6.030   3.158
11637SOL    HW235256   4.681   5.945   3.025
11638SOL     OW35257   4.765   6.287   2.291
11638SOL    HW135258   4.791   6.283   2.387
11638SOL    HW235259   4.680   6.236   2.277
11639SOL     OW35260   3.800   6.397   2.651
11639SOL    HW135261   3.899   6.385   2.660
11639SOL    HW235262   3.776   6.492   2.672
11640SOL     OW35263   3.854   7.407   3.433
11640SOL    HW135264   3.844   7.392   3.532
11640SOL    HW235265   3.768   7.443   3.397
11641SOL     OW35266   4.589   5.934   2.057
11641SOL    HW135267   4.648   5.997   2.008
11641SOL    HW235268   4.608   5.840   2.028
11642SOL     OW35269   5.086   6.730   2.407
11642SOL    HW135270   5.169   6.701   2.359
11642SOL    HW235271   5.037   6.797   2.351
11643SOL     OW35272   4.274   5.782   2.747
11643SOL    HW135273   4.269   5.777   2.847
11643SOL    HW235274   4.276   5.878   2.718
11644SOL     OW35275   4.732   7.042   2.339
11644SOL    HW135276   4.686   7.114   2.287
11644SOL    HW235277   4.728   7.062   2.437
11645SOL     OW35278   4.075   7.387   2.715
11645SOL    HW135279   4.125   7.301   2.721
11645SOL    HW235280   4.140   7.464   2.712
11646SOL     OW35281   5.519   6.652   2.735
11646SOL    HW135282   5.457   6.637   2.659
11646SOL    HW235283   5.467   6.663   2.820
11647SOL     OW35284   4.951   7.136   3.368
11647SOL    HW135285   4.957   7.059   3.432
11647SOL    HW235286   4.899   7.110   3.288
11648SOL     OW35287   4.045   6.529   2.104
11648SOL    HW135288   4.127   6.568   2.062
11648SOL    HW235289   4.018   6.447   2.055
11649SOL     OW35290   5.182   6.321   2.590
11649SOL    HW135291   5.177   6.256   2.665
11649SOL    HW235292   5.262   6.380   2.603
11650SOL     OW35293   4.185   6.852   3.589
11650SOL    HW135294   4.135   6.853   3.503
11650SOL    HW235295   4.122   6.834   3.665
11651SOL     OW35296   4.835   7.362   2.099
11651SOL    HW135297   4.775   7.300   2.149
11651SOL    HW235298   4.866   7.318   2.014
11652SOL     OW35299   3.926   5.871   3.360
11652SOL    HW135300   3.846   5.931   3.347
11652SOL    HW235301   3.916   5.822   3.446
11653SOL     OW35302   5.356   6.963   1.943
11653SOL    HW135303   5.324   7.057   1.933
11653SOL    HW235304   5.280   6.900   1.931
11654SOL     OW35305   4.188   7.329   2.185
11654SOL    HW135306   4.221   7.368   2.271
11654SOL    HW235307   4.264   7.322   2.120
11655SOL     OW35308   5.124   5.693   2.288
11655SOL    HW135309   5.100   5.656   2.198
11655SOL    HW235310   5.223   5.709   2.292
11656SOL     OW35311   3.973   7.371   3.103
11656SOL    HW135312   4.030   7.306   3.153
11656SOL    HW235313   3.957   7.338   3.010
11657SOL     OW35314   4.664   7.284   2.766
11657SOL    HW135315   4.744   7.227   2.787
11657SOL    HW235316   4.615   7.244   2.689
11658SOL     OW35317   4.106   6.286   2.342
11658SOL    HW135318   4.151   6.196   2.339
11658SOL    HW235319   4.012   6.275   2.375
11659SOL     OW35320   4.338   5.708   1.979
11659SOL    HW135321   4.436   5.686   1.986
11659SOL    HW235322   4.307   5.691   1.886
11660SOL     OW35323   4.505   5.850   3.611
11660SOL    HW135324   4.572   5.789   3.654
11660SOL    HW235325   4.432   5.869   3.676
11661SOL     OW35326   4.612   7.100   3.057
11661SOL    HW135327   4.589   7.075   2.963
11661SOL    HW235328   4.673   7.031   3.096
11662SOL     OW35329   5.075   6.176   3.295
11662SOL    HW135330   5.103   6.133   3.380
11662SOL    HW235331   5.100   6.272   3.296
11663SOL     OW35332   4.527   6.988   2.786
11663SOL    HW135333   4.617   7.002   2.744
11663SOL    HW235334   4.456   6.990   2.715
11664SOL     OW35335   4.646   6.089   2.761
11664SOL    HW135336   4.621   6.080   2.665
11664SOL    HW235337   4.694   6.007   2.792
11665SOL     OW35338   4.263   5.650   2.374
11665SOL    HW135339   4.182   5.651   2.432
11665SOL    HW235340   4.266   5.733   2.319
11666SOL     OW35341   5.158   6.774   1.903
11666SOL    HW135342   5.190   6.698   1.960
11666SOL    HW235343   5.066   6.801   1.933
11667SOL     OW35344   4.021   5.621   2.033
11667SOL    HW135345   4.070   5.705   2.012
11667SOL    HW235346   4.083   5.556   2.078
11668SOL     OW35347   4.659   5.822   2.342
11668SOL    HW135348   4.611   5.863   2.264
11668SOL    HW235349   4.758   5.820   2.323
11669SOL     OW35350   4.800   6.269   3.326
11669SOL    HW135351   4.720   6.208   3.329
11669SOL    HW235352   4.881   6.216   3.302
11670SOL     OW35353   4.951   7.156   2.655
11670SOL    HW135354   4.972   7.230   2.590
11670SOL    HW235355   5.019   7.156   2.728
11671SOL     OW35356   4.183   6.738   2.603
11671SOL    HW135357   4.112   6.711   2.668
11671SOL    HW235358   4.157   6.710   2.510
11672SOL     OW35359   4.995   7.383   2.453
11672SOL    HW135360   5.039   7.447   2.389
11672SOL    HW235361   4.945   7.435   2.523
11673SOL     OW35362   4.756   6.135   1.878
11673SOL    HW135363   4.715   6.217   1.839
11673SOL    HW235364   4.820   6.161   1.951
11674SOL     OW35365   3.802   6.142   3.248
11674SOL    HW135366   3.894   6.141   3.207
11674SOL    HW235367   3.796   6.216   3.315
11675SOL     OW35368   4.285   5.808   3.009
11675SOL    HW135369   4.323   5.724   3.046
11675SOL    HW235370   4.197   5.827   3.053
11676SOL     OW35371   4.590   6.040   2.504
11676SOL    HW135372   4.558   6.112   2.442
11676SOL    HW235373   4.614   5.959   2.451
11677SOL     OW35374   4.741   5.625   2.615
11677SOL    HW135375   4.669   5.630   2.546
11677SOL    HW235376   4.717   5.556   2.684
11678SOL     OW35377   5.153   6.759   2.729
11678SOL    HW135378   5.098   6.675   2.722
11678SOL    HW235379   5.179   6.788   2.637
11679SOL     OW35380   4.212   6.971   2.036
11679SOL    HW135381   4.125   6.956   2.083
11679SOL    HW235382   4.195   6.997   1.941
11680SOL     OW35383   5.388   6.866   2.519
11680SOL    HW135384   5.487   6.874   2.533
11680SOL    HW235385   5.343   6.950   2.550
11681SOL     OW35386   4.251   5.842   2.190
11681SOL    HW135387   4.278   5.783   2.115
11681SOL    HW235388   4.251   5.937   2.159
11682SOL     OW35389   4.788   6.933   3.202
11682SOL    HW135390   4.708   6.910   3.257
11682SOL    HW235391   4.871   6.907   3.251
11683SOL     OW35392   5.316   7.215   3.487
11683SOL    HW135393   5.343   7.249   3.397
11683SOL    HW235394   5.395   7.177   3.533
11684SOL     OW35395   4.835   6.781   2.962
11684SOL    HW135396   4.795   6.825   3.043
11684SOL    HW235397   4.794   6.818   2.879
11685SOL     OW35398   5.362   6.685   2.941
11685SOL    HW135399   5.367   6.766   3.000
11685SOL    HW235400   5.276   6.687   2.890
11686SOL     OW35401   4.639   5.675   3.264
11686SOL    HW135402   4.664   5.655   3.169
11686SOL    HW235403   4.711   5.731   3.306
11687SOL     OW35404   4.704   6.702   3.581
11687SOL    HW135405   4.605   6.708   3.591
11687SOL    HW235406   4.727   6.622   3.525
11688SOL     OW35407   4.429   6.636   2.230
11688SOL    HW135408   4.415   6.643   2.329
11688SOL    HW235409   4.513   6.585   2.212
11689SOL     OW35410   4.134   6.399   3.113
11689SOL    HW135411   4.220   6.411   3.163
11689SOL    HW235412   4.092   6.312   3.140
11690SOL     OW35413   3.788   7.150   3.193
11690SOL    HW135414   3.742   7.232   3.159
11690SOL    HW235415   3.886   7.169   3.202
11691SOL     OW35416   4.091   6.686   2.363
11691SOL    HW135417   4.084   6.769   2.307
11691SOL    HW235418   4.095   6.606   2.303
11692SOL     OW35419   4.290   6.123   2.727
11692SOL    HW135420   4.302   6.189   2.653
11692SOL    HW235421   4.336   6.157   2.810
11693SOL     OW35422   4.976   6.934   2.250
11693SOL    HW135423   5.026   7.011   2.290
11693SOL    HW235424   4.881   6.936   2.282
11694SOL     OW35425   4.996   7.031   3.004
11694SOL    HW135426   5.043   7.044   3.091
11694SOL    HW235427   4.930   6.957   3.013
11695SOL     OW35428   4.078   7.096   3.191
11695SOL    HW135429   4.057   7.052   3.104
11695SOL    HW235430   4.175   7.122   3.194
11696SOL     OW35431   4.126   6.337   3.460
11696SOL    HW135432   4.194   6.392   3.413
11696SOL    HW235433   4.166   6.249   3.487
11697SOL     OW35434   4.737   5.691   3.632
11697SOL    HW135435   4.743   5.776   3.580
11697SOL    HW235436   4.769   5.615   3.575
11698SOL     OW35437   4.228   5.636   3.602
11698SOL    HW135438   4.186   5.579   3.532
11698SOL    HW235439   4.162   5.705   3.634
11699SOL     OW35440   4.297   6.456   2.891
11699SOL    HW135441   4.341   6.545   2.882
11699SOL    HW235442   4.234   6.456   2.968
11700SOL     OW35443   4.933   6.111   2.137
11700SOL    HW135444   4.946   6.027   2.191
11700SOL    HW235445   4.904   6.185   2.197
11701SOL     OW35446   4.031   5.799   3.093
11701SOL    HW135447   4.008   5.836   3.183
11701SOL    HW235448   4.001   5.704   3.087
11702SOL     OW35449   3.761   6.896   3.144
11702SOL    HW135450   3.814   6.847   3.212
11702SOL    HW235451   3.783   6.994   3.149
11703SOL     OW35452   4.456   6.220   2.926
11703SOL    HW135453   4.515   6.194   2.850
11703SOL    HW235454   4.428   6.316   2.915
11704SOL     OW35455   5.452   6.521   3.716
11704SOL    HW135456   5.406   6.514   3.627
11704SOL    HW235457   5.390   6.565   3.782
11705SOL     OW35458   4.031   5.649   2.480
11705SOL    HW135459   4.020   5.743   2.513
11705SOL    HW235460   4.026   5.586   2.557
11706SOL     OW35461   5.346   5.953   2.236
11706SOL    HW135462   5.348   5.877   2.300
11706SOL    HW235463   5.298   6.030   2.276
11707SOL     OW35464   4.747   6.352   2.828
11707SOL    HW135465   4.762   6.373   2.924
11707SOL    HW235466   4.717   6.257   2.819
11708SOL     OW35467   4.704   7.159   3.562
11708SOL    HW135468   4.684   7.203   3.474
11708SOL    HW235469   4.743   7.068   3.546
11709SOL     OW35470   5.583   7.104   3.467
11709SOL    HW135471   5.597   7.131   3.372
11709SOL    HW235472   5.666   7.126   3.520
11710SOL     OW35473   4.074   6.484   3.666
11710SOL    HW135474   4.150   6.528   3.714
11710SOL    HW235475   4.109   6.437   3.584
11711SOL     OW35476   5.264   5.860   1.987
11711SOL    HW135477   5.203   5.785   2.010
11711SOL    HW235478   5.286   5.912   2.070
11712SOL     OW35479   5.027   6.424   1.904
11712SOL    HW135480   5.061   6.331   1.919
11712SOL    HW235481   5.045   6.451   1.809
11713SOL     OW35482   4.792   6.919   2.711
11713SOL    HW135483   4.799   6.835   2.656
11713SOL    HW235484   4.854   6.988   2.675
11714SOL     OW35485   4.043   6.396   2.811
11714SOL    HW135486   4.136   6.432   2.816
11714SOL    HW235487   4.037   6.311   2.863
11715SOL     OW35488   4.063   6.095   2.868
11715SOL    HW135489   4.011   6.012   2.851
11715SOL    HW235490   4.140   6.100   2.804
11716SOL     OW35491   4.862   5.966   3.540
11716SOL    HW135492   4.817   6.029   3.604
11716SOL    HW235493   4.955   5.997   3.523
11717SOL     OW35494   4.884   5.793   3.339
11717SOL    HW135495   4.884   5.857   3.416
11717SOL    HW235496   4.912   5.841   3.256
11718SOL     OW35497   3.732   6.912   2.062
11718SOL    HW135498   3.639   6.933   2.031
11718SOL    HW235499   3.742   6.813   2.075
11719SOL     OW35500   3.812   7.387   2.789
11719SOL    HW135501   3.770   7.301   2.762
11719SOL    HW235502   3.906   7.390   2.755
11720SOL     OW35503   4.228   7.154   2.772
11720SOL    HW135504   4.294   7.228   2.781
11720SOL    HW235505   4.272   7.075   2.730
11721SOL     OW35506   4.726   6.382   3.100
11721SOL    HW135507   4.767   6.350   3.186
11721SOL    HW235508   4.630   6.355   3.097
11722SOL     OW35509   3.764   6.130   2.976
11722SOL    HW135510   3.849   6.097   2.935
11722SOL    HW235511   3.777   6.145   3.074
11723SOL     OW35512   3.913   6.106   3.584
11723SOL    HW135513   3.972   6.066   3.514
11723SOL    HW235514   3.855   6.177   3.543
11724SOL     OW35515   4.539   6.158   2.187
11724SOL    HW135516   4.546   6.069   2.141
11724SOL    HW235517   4.445   6.192   2.179
11725SOL     OW35518   3.976   7.150   3.606
11725SOL    HW135519   3.946   7.207   3.682
11725SOL    HW235520   3.969   7.053   3.632
11726SOL     OW35521   4.395   6.050   3.131
11726SOL    HW135522   4.361   5.961   3.101
11726SOL    HW235523   4.421   6.104   3.051
11727SOL     OW35524   4.654   7.264   3.327
11727SOL    HW135525   4.630   7.246   3.232
11727SOL    HW235526   4.684   7.358   3.337
11728SOL     OW35527   4.197   6.086   2.053
11728SOL    HW135528   4.258   6.166   2.057
11728SOL    HW235529   4.102   6.117   2.060
11729SOL     OW35530   3.883   6.723   3.328
11729SOL    HW135531   3.905   6.662   3.404
11729SOL    HW235532   3.893   6.674   3.242
11730SOL     OW35533   5.026   6.441   2.171
11730SOL    HW135534   4.940   6.410   2.213
11730SOL    HW235535   5.022   6.427   2.072
11731SOL     OW35536   5.483   7.333   3.016
11731SOL    HW135537   5.544   7.363   2.943
11731SOL    HW235538   5.445   7.244   2.994
11732SOL     OW35539   4.976   7.317   2.990
11732SOL    HW135540   5.060   7.322   2.936
11732SOL    HW235541   4.953   7.221   3.008
11733SOL     OW35542   3.807   6.844   2.884
11733SOL    HW135543   3.802   6.843   2.984
11733SOL    HW235544   3.724   6.803   2.846
11734SOL     OW35545   4.412   7.248   3.578
11734SOL    HW135546   4.356   7.329   3.587
11734SOL    HW235547   4.464   7.252   3.492
11735SOL     OW35548   5.450   5.721   2.385
11735SOL    HW135549   5.523   5.704   2.318
11735SOL    HW235550   5.419   5.634   2.423
11736SOL     OW35551   5.112   7.159   2.339
11736SOL    HW135552   5.179   7.171   2.265
11736SOL    HW235553   5.072   7.248   2.362
11737SOL     OW35554   3.854   7.380   3.713
11737SOL    HW135555   3.813   7.306   3.766
11737SOL    HW235556   3.918   7.431   3.771
11738SOL     OW35557   5.004   6.513   2.534
11738SOL    HW135558   5.064   6.432   2.536
11738SOL    HW235559   5.044   6.582   2.474
11739SOL     OW35560   4.554   6.859   3.284
11739SOL    HW135561   4.549   6.892   3.379
11739SOL    HW235562   4.468   6.878   3.238
11740SOL     OW35563   4.396   7.202   2.016
11740SOL    HW135564   4.405   7.212   1.917
11740SOL    HW235565   4.356   7.113   2.037
11741SOL     OW35566   5.374   7.306   3.256
11741SOL    HW135567   5.427   7.316   3.172
11741SOL    HW235568   5.347   7.396   3.290
11742SOL     OW35569   3.987   5.912   2.582
11742SOL    HW135570   3.908   5.963   2.548
11742SOL    HW235571   3.978   5.897   2.680
11743SOL     OW35572   4.918   7.198   1.893
11743SOL    HW135573   4.924   7.105   1.930
11743SOL    HW235574   4.859   7.198   1.813
11744SOL     OW35575   4.546   6.588   3.234
11744SOL    HW135576   4.586   6.587   3.142
11744SOL    HW235577   4.556   6.680   3.274
11745SOL     OW35578   4.640   6.496   2.153
11745SOL    HW135579   4.703   6.534   2.085
11745SOL    HW235580   4.680   6.413   2.192
11746SOL     OW35581   5.228   7.193   1.906
11746SOL    HW135582   5.136   7.230   1.913
11746SOL    HW235583   5.266   7.213   1.816
11747SOL     OW35584   4.096   6.874   3.352
11747SOL    HW135585   4.083   6.967   3.318
11747SOL    HW235586   4.012   6.822   3.339
11748SOL     OW35587   5.338   6.878   3.151
11748SOL    HW135588   5.398   6.881   3.231
11748SOL    HW235589   5.263   6.942   3.164
11749SOL     OW35590   4.763   6.684   2.558
11749SOL    HW135591   4.693   6.637   2.612
11749SOL    HW235592   4.822   6.616   2.515
11750SOL     OW35593   4.738   5.822   2.833
11750SOL    HW135594   4.730   5.786   2.740
11750SOL    HW235595   4.736   5.746   2.898
11751SOL     OW35596   4.314   7.073   2.353
11751SOL    HW135597   4.356   7.015   2.283
11751SOL    HW235598   4.270   7.152   2.309
11752SOL     OW35599   3.979   6.934   2.152
11752SOL    HW135600   3.883   6.935   2.125
11752SOL    HW235601   3.991   6.987   2.236
11753SOL     OW35602   3.829   6.599   3.588
11753SOL    HW135603   3.752   6.566   3.642
11753SOL    HW235604   3.914   6.569   3.630
11754SOL     OW35605   4.396   5.789   3.351
11754SOL    HW135606   4.486   5.773   3.311
11754SOL    HW235607   4.404   5.794   3.450
11755SOL     OW35608   3.799   5.931   1.895
11755SOL    HW135609   3.707   5.903   1.866
11755SOL    HW235610   3.830   6.008   1.839
11756SOL     OW35611   3.796   5.752   2.180
11756SOL    HW135612   3.779   5.835   2.126
11756SOL    HW235613   3.886   5.715   2.158
11757SOL     OW35614   4.907   6.921   1.981
11757SOL    HW135615   4.808   6.910   1.983
11757SOL    HW235616   4.941   6.936   2.074
11758SOL     OW35617   4.337   6.428   3.293
11758SOL    HW135618   4.393   6.509   3.276
11758SOL    HW235619   4.396   6.348   3.296
11759SOL     OW35620   5.217   7.353   2.821
11759SOL    HW135621   5.250   7.417   2.752
11759SOL    HW235622   5.283   7.347   2.896
11760SOL     OW35623   4.440   6.151   3.570
11760SOL    HW135624   4.459   6.216   3.644
11760SOL    HW235625   4.500   6.071   3.579
11761SOL     OW35626   4.114   7.327   3.422
11761SOL    HW135627   4.023   7.368   3.420
11761SOL    HW235628   4.107   7.233   3.454
11762SOL     OW35629   4.949   5.911   2.311
11762SOL    HW135630   5.014   5.837   2.300
11762SOL    HW235631   4.969   5.961   2.395
11763SOL     OW35632   4.318   6.331   2.514
11763SOL    HW135633   4.368   6.416   2.495
11763SOL    HW235634   4.230   6.333   2.466
11764SOL     OW35635   5.454   6.520   3.379
11764SOL    HW135636   5.492   6.611   3.394
11764SOL    HW235637   5.446   6.503   3.280
11765SOL     OW35638   4.583   6.960   1.878
11765SOL    HW135639   4.537   6.975   1.966
11765SOL    HW235640   4.627   7.045   1.848
11766SOL     OW35641   4.385   7.376   2.815
11766SOL    HW135642   4.339   7.464   2.802
11766SOL    HW235643   4.484   7.388   2.808
11767SOL     OW35644   4.583   6.542   2.723
11767SOL    HW135645   4.637   6.473   2.771
11767SOL    HW235646   4.551   6.611   2.789
11768SOL     OW35647   4.807   6.570   1.949
11768SOL    HW135648   4.784   6.623   1.867
11768SOL    HW235649   4.888   6.514   1.930
11769SOL     OW35650   5.585   7.155   2.713
11769SOL    HW135651   5.514   7.143   2.643
11769SOL    HW235652   5.586   7.076   2.773
11770SOL     OW35653   3.945   6.900   3.706
11770SOL    HW135654   3.880   6.827   3.685
11770SOL    HW235655   3.949   6.914   3.804
11771SOL     OW35656   3.803   6.826   2.515
11771SOL    HW135657   3.802   6.779   2.603
11771SOL    HW235658   3.885   6.798   2.464
11772SOL     OW35659   4.396   6.977   3.486
11772SOL    HW135660   4.318   6.927   3.524
11772SOL    HW235661   4.393   7.072   3.517
11773SOL     OW35662   4.152   6.010   2.382
11773SOL    HW135663   4.182   5.938   2.320
11773SOL    HW235664   4.113   5.970   2.465
11774SOL     OW35665   5.429   7.073   2.966
11774SOL    HW135666   5.336   7.048   2.939
11774SOL    HW235667   5.455   7.023   3.048
11775SOL     OW35668   4.041   6.133   3.142
11775SOL    HW135669   4.079   6.074   3.214
11775SOL    HW235670   4.081   6.107   3.054
11776SOL     OW35671   4.536   7.172   2.549
11776SOL    HW135672   4.568   7.182   2.455
11776SOL    HW235673   4.457   7.110   2.551
11777SOL     OW35674   5.148   5.800   2.974
11777SOL    HW135675   5.200   5.735   3.029
11777SOL    HW235676   5.099   5.863   3.035
11778SOL     OW35677   4.725   5.620   3.016
11778SOL    HW135678   4.662   5.548   2.985
11778SOL    HW235679   4.818   5.584   3.016
11779SOL     OW35680   4.494   6.916   2.163
11779SOL    HW135681   4.448   6.829   2.180
11779SOL    HW235682   4.585   6.913   2.204
11780SOL     OW35683   4.342   7.153   3.146
11780SOL    HW135684   4.337   7.235   3.203
11780SOL    HW235685   4.431   7.150   3.101
11781SOL     OW35686   5.076   5.638   2.030
11781SOL    HW135687   5.111   5.597   1.946
11781SOL    HW235688   4.986   5.600   2.050
11782SOL     OW35689   5.024   6.039   2.553
11782SOL    HW135690   4.965   6.119   2.557
11782SOL    HW235691   5.039   6.004   2.646
11783SOL     OW35692   5.317   5.807   2.744
11783SOL    HW135693   5.233   5.806   2.798
11783SOL    HW235694   5.319   5.890   2.688
11784SOL     OW35695   3.763   6.663   2.162
11784SOL    HW135696   3.862   6.652   2.153
11784SOL    HW235697   3.723   6.577   2.194
11785SOL     OW35698   4.599   7.232   2.199
11785SOL    HW135699   4.522   7.197   2.145
11785SOL    HW235700   4.567   7.303   2.261
11786SOL     OW35701   3.954   6.214   3.837
11786SOL    HW135702   3.861   6.212   3.874
11786SOL    HW235703   3.955   6.175   3.745
11787SOL     OW35704   3.949   5.861   4.720
11787SOL    HW135705   3.984   5.844   4.812
11787SOL    HW235706   3.861   5.816   4.708
11788SOL     OW35707   3.743   5.954   4.371
11788SOL    HW135708   3.661   5.997   4.410
11788SOL    HW235709   3.715   5.881   4.308
11789SOL     OW35710   5.279   7.097   4.427
11789SOL    HW135711   5.222   7.081   4.508
11789SOL    HW235712   5.220   7.107   4.347
11790SOL     OW35713   4.859   6.289   4.441
11790SOL    HW135714   4.916   6.367   4.416
11790SOL    HW235715   4.799   6.315   4.517
11791SOL     OW35716   5.479   6.193   3.955
11791SOL    HW135717   5.467   6.180   3.856
11791SOL    HW235718   5.449   6.112   4.004
11792SOL     OW35719   4.574   6.384   5.547
11792SOL    HW135720   4.570   6.460   5.612
11792SOL    HW235721   4.596   6.420   5.456
11793SOL     OW35722   4.410   6.747   5.527
11793SOL    HW135723   4.470   6.826   5.541
11793SOL    HW235724   4.324   6.778   5.486
11794SOL     OW35725   5.184   7.091   5.063
11794SOL    HW135726   5.208   7.185   5.089
11794SOL    HW235727   5.168   7.037   5.145
11795SOL     OW35728   4.162   5.978   5.223
11795SOL    HW135729   4.244   5.922   5.232
11795SOL    HW235730   4.081   5.920   5.227
11796SOL     OW35731   5.327   6.033   4.461
11796SOL    HW135732   5.253   6.079   4.411
11796SOL    HW235733   5.378   6.101   4.514
11797SOL     OW35734   3.955   7.299   4.207
11797SOL    HW135735   3.989   7.376   4.261
11797SOL    HW235736   3.999   7.299   4.117
11798SOL     OW35737   4.851   6.927   5.414
11798SOL    HW135738   4.898   6.927   5.502
11798SOL    HW235739   4.803   6.840   5.403
11799SOL     OW35740   3.954   7.020   4.262
11799SOL    HW135741   3.928   7.116   4.262
11799SOL    HW235742   3.883   6.966   4.307
11800SOL     OW35743   4.344   7.372   5.163
11800SOL    HW135744   4.252   7.355   5.198
11800SOL    HW235745   4.372   7.464   5.189
11801SOL     OW35746   4.330   6.550   3.847
11801SOL    HW135747   4.337   6.634   3.793
11801SOL    HW235748   4.376   6.563   3.935
11802SOL     OW35749   5.318   5.700   5.204
11802SOL    HW135750   5.300   5.767   5.132
11802SOL    HW235751   5.315   5.746   5.293
11803SOL     OW35752   3.846   6.229   4.287
11803SOL    HW135753   3.801   6.141   4.304
11803SOL    HW235754   3.845   6.283   4.371
11804SOL     OW35755   5.566   7.353   4.083
11804SOL    HW135756   5.620   7.324   4.163
11804SOL    HW235757   5.596   7.443   4.054
11805SOL     OW35758   3.751   7.182   3.841
11805SOL    HW135759   3.732   7.086   3.862
11805SOL    HW235760   3.718   7.240   3.916
11806SOL     OW35761   5.413   6.508   4.336
11806SOL    HW135762   5.508   6.479   4.344
11806SOL    HW235763   5.405   6.573   4.261
11807SOL     OW35764   5.365   6.694   4.156
11807SOL    HW135765   5.451   6.696   4.104
11807SOL    HW235766   5.379   6.741   4.244
11808SOL     OW35767   3.837   6.323   5.321
11808SOL    HW135768   3.925   6.310   5.366
11808SOL    HW235769   3.824   6.420   5.299
11809SOL     OW35770   5.017   6.814   5.147
11809SOL    HW135771   5.054   6.741   5.089
11809SOL    HW235772   5.069   6.819   5.232
11810SOL     OW35773   4.533   5.590   4.226
11810SOL    HW135774   4.573   5.681   4.217
11810SOL    HW235775   4.433   5.598   4.232
11811SOL     OW35776   4.911   7.378   5.340
11811SOL    HW135777   4.935   7.438   5.264
11811SOL    HW235778   4.918   7.283   5.310
11812SOL     OW35779   4.041   5.837   5.525
11812SOL    HW135780   4.112   5.908   5.531
11812SOL    HW235781   3.953   5.876   5.553
11813SOL     OW35782   5.190   7.003   4.677
11813SOL    HW135783   5.131   7.009   4.757
11813SOL    HW235784   5.175   6.915   4.631
11814SOL     OW35785   5.391   7.300   4.296
11814SOL    HW135786   5.350   7.277   4.208
11814SOL    HW235787   5.373   7.226   4.361
11815SOL     OW35788   5.005   5.931   4.668
11815SOL    HW135789   4.919   5.881   4.655
11815SOL    HW235790   5.067   5.877   4.724
11816SOL     OW35791   5.300   7.248   4.031
11816SOL    HW135792   5.389   7.294   4.034
11816SOL    HW235793   5.279   7.224   3.936
11817SOL     OW35794   4.531   6.191   5.189
11817SOL    HW135795   4.484   6.188   5.278
11817SOL    HW235796   4.480   6.136   5.123
11818SOL     OW35797   5.118   6.055   5.398
11818SOL    HW135798   5.098   6.098   5.486
11818SOL    HW235799   5.196   5.993   5.407
11819SOL     OW35800   4.697   6.476   5.296
11819SOL    HW135801   4.743   6.392   5.267
11819SOL    HW235802   4.641   6.510   5.221
11820SOL     OW35803   4.715   5.996   4.966
11820SOL    HW135804   4.638   6.030   5.020
11820SOL    HW235805   4.681   5.945   4.887
11821SOL     OW35806   3.854   7.407   5.295
11821SOL    HW135807   3.844   7.392   5.394
11821SOL    HW235808   3.768   7.443   5.259
11822SOL     OW35809   4.589   5.934   3.919
11822SOL    HW135810   4.648   5.997   3.870
11822SOL    HW235811   4.608   5.840   3.890
11823SOL     OW35812   5.443   6.171   5.555
11823SOL    HW135813   5.417   6.260   5.519
11823SOL    HW235814   5.441   6.103   5.482
11824SOL     OW35815   5.086   6.730   4.269
11824SOL    HW135816   5.169   6.701   4.221
11824SOL    HW235817   5.037   6.797   4.213
11825SOL     OW35818   4.274   5.782   4.609
11825SOL    HW135819   4.269   5.777   4.709
11825SOL    HW235820   4.276   5.878   4.580
11826SOL     OW35821   5.519   6.652   4.597
11826SOL    HW135822   5.457   6.637   4.521
11826SOL    HW235823   5.467   6.663   4.682
11827SOL     OW35824   4.951   7.136   5.230
11827SOL    HW135825   4.957   7.059   5.294
11827SOL    HW235826   4.899   7.110   5.150
11828SOL     OW35827   4.045   6.529   3.966
11828SOL    HW135828   4.127   6.568   3.924
11828SOL    HW235829   4.018   6.447   3.917
11829SOL     OW35830   5.182   6.321   4.452
11829SOL    HW135831   5.177   6.256   4.527
11829SOL    HW235832   5.262   6.380   4.465
11830SOL     OW35833   4.185   6.852   5.451
11830SOL    HW135834   4.135   6.853   5.365
11830SOL    HW235835   4.122   6.834   5.527
11831SOL     OW35836   3.926   5.871   5.222
11831SOL    HW135837   3.846   5.931   5.209
11831SOL    HW235838   3.916   5.822   5.308
11832SOL     OW35839   5.356   6.963   3.805
11832SOL    HW135840   5.324   7.057   3.795
11832SOL    HW235841   5.280   6.900   3.793
11833SOL     OW35842   4.188   7.329   4.047
11833SOL    HW135843   4.221   7.368   4.133
11833SOL    HW235844   4.264   7.322   3.982
11834SOL     OW35845   5.124   5.693   4.150
11834SOL    HW135846   5.100   5.656   4.060
11834SOL    HW235847   5.223   5.709   4.154
11835SOL     OW35848   4.664   7.284   4.628
11835SOL    HW135849   4.744   7.227   4.649
11835SOL    HW235850   4.615   7.244   4.551
11836SOL     OW35851   5.271   5.808   5.453
11836SOL    HW135852   5.266   5.845   5.545
11836SOL    HW235853   5.199   5.739   5.441
11837SOL     OW35854   4.338   5.708   3.841
11837SOL    HW135855   4.436   5.686   3.848
11837SOL    HW235856   4.307   5.691   3.748
11838SOL     OW35857   4.505   5.850   5.473
11838SOL    HW135858   4.572   5.789   5.516
11838SOL    HW235859   4.432   5.869   5.538
11839SOL     OW35860   5.075   6.176   5.157
11839SOL    HW135861   5.103   6.133   5.242
11839SOL    HW235862   5.100   6.272   5.158
11840SOL     OW35863   4.646   6.089   4.623
11840SOL    HW135864   4.621   6.080   4.527
11840SOL    HW235865   4.694   6.007   4.654
11841SOL     OW35866   4.263   5.650   4.236
11841SOL    HW135867   4.182   5.651   4.294
11841SOL    HW235868   4.266   5.733   4.181
11842SOL     OW35869   4.021   5.621   3.895
11842SOL    HW135870   4.070   5.705   3.874
11842SOL    HW235871   4.083   5.556   3.940
11843SOL     OW35872   4.800   6.269   5.188
11843SOL    HW135873   4.720   6.208   5.191
11843SOL    HW235874   4.881   6.216   5.164
11844SOL     OW35875   4.183   6.738   4.465
11844SOL    HW135876   4.112   6.711   4.530
11844SOL    HW235877   4.157   6.710   4.372
11845SOL     OW35878   4.756   6.135   3.740
11845SOL    HW135879   4.715   6.217   3.701
11845SOL    HW235880   4.820   6.161   3.813
11846SOL     OW35881   3.802   6.142   5.110
11846SOL    HW135882   3.894   6.141   5.069
11846SOL    HW235883   3.796   6.216   5.177
11847SOL     OW35884   4.285   5.808   4.871
11847SOL    HW135885   4.323   5.724   4.908
11847SOL    HW235886   4.197   5.827   4.915
11848SOL     OW35887   4.590   6.040   4.366
11848SOL    HW135888   4.558   6.112   4.304
11848SOL    HW235889   4.614   5.959   4.313
11849SOL     OW35890   4.741   5.625   4.477
11849SOL    HW135891   4.669   5.630   4.408
11849SOL    HW235892   4.717   5.556   4.546
11850SOL     OW35893   5.153   6.759   4.591
11850SOL    HW135894   5.098   6.675   4.584
11850SOL    HW235895   5.179   6.788   4.499
11851SOL     OW35896   5.190   6.176   4.716
11851SOL    HW135897   5.160   6.081   4.723
11851SOL    HW235898   5.263   6.192   4.782
11852SOL     OW35899   5.581   6.419   4.101
11852SOL    HW135900   5.623   6.355   4.165
11852SOL    HW235901   5.543   6.368   4.023
11853SOL     OW35902   4.212   6.971   3.898
11853SOL    HW135903   4.125   6.956   3.945
11853SOL    HW235904   4.195   6.997   3.803
11854SOL     OW35905   5.388   6.866   4.381
11854SOL    HW135906   5.487   6.874   4.395
11854SOL    HW235907   5.343   6.950   4.412
11855SOL     OW35908   4.251   5.842   4.052
11855SOL    HW135909   4.278   5.783   3.977
11855SOL    HW235910   4.251   5.937   4.021
11856SOL     OW35911   5.478   6.809   5.312
11856SOL    HW135912   5.569   6.770   5.299
11856SOL    HW235913   5.486   6.905   5.336
11857SOL     OW35914   4.788   6.933   5.064
11857SOL    HW135915   4.708   6.910   5.119
11857SOL    HW235916   4.871   6.907   5.113
11858SOL     OW35917   5.316   7.215   5.349
11858SOL    HW135918   5.343   7.249   5.259
11858SOL    HW235919   5.395   7.177   5.395
11859SOL     OW35920   4.835   6.781   4.824
11859SOL    HW135921   4.795   6.825   4.905
11859SOL    HW235922   4.794   6.818   4.741
11860SOL     OW35923   5.362   6.685   4.803
11860SOL    HW135924   5.367   6.766   4.862
11860SOL    HW235925   5.276   6.687   4.752
11861SOL     OW35926   4.639   5.675   5.126
11861SOL    HW135927   4.664   5.655   5.031
11861SOL    HW235928   4.711   5.731   5.168
11862SOL     OW35929   4.704   6.702   5.443
11862SOL    HW135930   4.605   6.708   5.453
11862SOL    HW235931   4.727   6.622   5.387
11863SOL     OW35932   4.134   6.399   4.975
11863SOL    HW135933   4.220   6.411   5.025
11863SOL    HW235934   4.092   6.312   5.002
11864SOL     OW35935   4.998   5.972   4.986
11864SOL    HW135936   5.019   6.046   5.050
11864SOL    HW235937   4.909   5.989   4.943
11865SOL     OW35938   4.091   6.686   4.225
11865SOL    HW135939   4.084   6.769   4.169
11865SOL    HW235940   4.095   6.606   4.165
11866SOL     OW35941   4.290   6.123   4.589
11866SOL    HW135942   4.302   6.189   4.515
11866SOL    HW235943   4.336   6.157   4.672
11867SOL     OW35944   5.306   6.225   4.196
11867SOL    HW135945   5.275   6.286   4.269
11867SOL    HW235946   5.356   6.277   4.127
11868SOL     OW35947   4.126   6.337   5.322
11868SOL    HW135948   4.194   6.392   5.275
11868SOL    HW235949   4.166   6.249   5.349
11869SOL     OW35950   5.311   6.365   5.394
11869SOL    HW135951   5.219   6.403   5.389
11869SOL    HW235952   5.371   6.412   5.329
11870SOL     OW35953   4.737   5.691   5.494
11870SOL    HW135954   4.743   5.776   5.442
11870SOL    HW235955   4.769   5.615   5.437
11871SOL     OW35956   4.228   5.636   5.464
11871SOL    HW135957   4.186   5.579   5.394
11871SOL    HW235958   4.162   5.705   5.496
11872SOL     OW35959   5.084   6.448   4.769
11872SOL    HW135960   5.009   6.448   4.703
11872SOL    HW235961   5.121   6.356   4.778
11873SOL     OW35962   4.031   5.799   4.955
11873SOL    HW135963   4.008   5.836   5.045
11873SOL    HW235964   4.001   5.704   4.949
11874SOL     OW35965   4.456   6.220   4.788
11874SOL    HW135966   4.515   6.194   4.712
11874SOL    HW235967   4.428   6.316   4.777
11875SOL     OW35968   5.452   6.521   5.578
11875SOL    HW135969   5.406   6.514   5.489
11875SOL    HW235970   5.390   6.565   5.644
11876SOL     OW35971   4.031   5.649   4.342
11876SOL    HW135972   4.020   5.743   4.375
11876SOL    HW235973   4.026   5.586   4.419
11877SOL     OW35974   5.346   5.953   4.098
11877SOL    HW135975   5.348   5.877   4.162
11877SOL    HW235976   5.298   6.030   4.138
11878SOL     OW35977   4.747   6.352   4.690
11878SOL    HW135978   4.762   6.373   4.786
11878SOL    HW235979   4.717   6.257   4.681
11879SOL     OW35980   4.704   7.159   5.424
11879SOL    HW135981   4.684   7.203   5.336
11879SOL    HW235982   4.743   7.068   5.408
11880SOL     OW35983   5.583   7.104   5.329
11880SOL    HW135984   5.597   7.131   5.234
11880SOL    HW235985   5.666   7.126   5.382
11881SOL     OW35986   4.074   6.484   5.528
11881SOL    HW135987   4.150   6.528   5.576
11881SOL    HW235988   4.109   6.437   5.446
11882SOL     OW35989   5.264   5.860   3.849
11882SOL    HW135990   5.203   5.785   3.872
11882SOL    HW235991   5.286   5.912   3.932
11883SOL     OW35992   4.792   6.919   4.573
11883SOL    HW135993   4.799   6.835   4.518
11883SOL    HW235994   4.854   6.988   4.537
11884SOL     OW35995   4.063   6.095   4.730
11884SOL    HW135996   4.011   6.012   4.713
11884SOL    HW235997   4.140   6.100   4.666
11885SOL     OW35998   4.862   5.966   5.402
11885SOL    HW135999   4.817   6.029   5.466
11885SOL    HW236000   4.955   5.997   5.385
11886SOL     OW36001   4.884   5.793   5.201
11886SOL    HW136002   4.884   5.857   5.278
11886SOL    HW236003   4.912   5.841   5.118
11887SOL     OW36004   3.732   6.912   3.924
11887SOL    HW136005   3.639   6.933   3.893
11887SOL    HW236006   3.742   6.813   3.937
11888SOL     OW36007   4.726   6.382   4.962
11888SOL    HW136008   4.767   6.350   5.048
11888SOL    HW236009   4.630   6.355   4.959
11889SOL     OW36010   3.764   6.130   4.838
11889SOL    HW136011   3.849   6.097   4.797
11889SOL    HW236012   3.777   6.145   4.936
11890SOL     OW36013   3.913   6.106   5.446
11890SOL    HW136014   3.972   6.066   5.376
11890SOL    HW236015   3.855   6.177   5.405
11891SOL     OW36016   5.093   6.536   5.384
11891SOL    HW136017   5.132   6.625   5.404
11891SOL    HW236018   5.103   6.516   5.287
11892SOL     OW36019   5.381   6.190   4.930
11892SOL    HW136020   5.343   6.121   4.992
11892SOL    HW236021   5.463   6.154   4.886
11893SOL     OW36022   4.395   6.050   4.993
11893SOL    HW136023   4.361   5.961   4.963
11893SOL    HW236024   4.421   6.104   4.913
11894SOL     OW36025   4.654   7.264   5.189
11894SOL    HW136026   4.630   7.246   5.094
11894SOL    HW236027   4.684   7.358   5.199
11895SOL     OW36028   4.197   6.086   3.915
11895SOL    HW136029   4.258   6.166   3.919
11895SOL    HW236030   4.102   6.117   3.922
11896SOL     OW36031   5.071   6.645   4.958
11896SOL    HW136032   5.095   6.582   4.884
11896SOL    HW236033   4.981   6.685   4.940
11897SOL     OW36034   5.483   7.333   4.878
11897SOL    HW136035   5.544   7.363   4.805
11897SOL    HW236036   5.445   7.244   4.856
11898SOL     OW36037   4.976   7.317   4.852
11898SOL    HW136038   5.060   7.322   4.798
11898SOL    HW236039   4.953   7.221   4.870
11899SOL     OW36040   4.412   7.248   5.440
11899SOL    HW136041   4.356   7.329   5.449
11899SOL    HW236042   4.464   7.252   5.354
11900SOL     OW36043   5.450   5.721   4.247
11900SOL    HW136044   5.523   5.704   4.180
11900SOL    HW236045   5.419   5.634   4.285
11901SOL     OW36046   3.854   7.380   5.575
11901SOL    HW136047   3.813   7.306   5.628
11901SOL    HW236048   3.918   7.431   5.633
11902SOL     OW36049   5.004   6.513   4.396
11902SOL    HW136050   5.064   6.432   4.398
11902SOL    HW236051   5.044   6.582   4.336
11903SOL     OW36052   4.554   6.859   5.146
11903SOL    HW136053   4.549   6.892   5.241
11903SOL    HW236054   4.468   6.878   5.100
11904SOL     OW36055   4.396   7.202   3.878
11904SOL    HW136056   4.405   7.212   3.779
11904SOL    HW236057   4.356   7.113   3.899
11905SOL     OW36058   5.374   7.306   5.118
11905SOL    HW136059   5.427   7.316   5.034
11905SOL    HW236060   5.347   7.396   5.152
11906SOL     OW36061   5.565   5.761   4.687
11906SOL    HW136062   5.604   5.676   4.651
11906SOL    HW236063   5.467   5.763   4.668
11907SOL     OW36064   3.987   5.912   4.444
11907SOL    HW136065   3.908   5.963   4.410
11907SOL    HW236066   3.978   5.897   4.542
11908SOL     OW36067   4.546   6.588   5.096
11908SOL    HW136068   4.586   6.587   5.004
11908SOL    HW236069   4.556   6.680   5.136
11909SOL     OW36070   4.096   6.874   5.214
11909SOL    HW136071   4.083   6.967   5.180
11909SOL    HW236072   4.012   6.822   5.201
11910SOL     OW36073   5.338   6.878   5.013
11910SOL    HW136074   5.398   6.881   5.093
11910SOL    HW236075   5.263   6.942   5.026
11911SOL     OW36076   4.738   5.822   4.695
11911SOL    HW136077   4.730   5.786   4.602
11911SOL    HW236078   4.736   5.746   4.760
11912SOL     OW36079   4.314   7.073   4.215
11912SOL    HW136080   4.356   7.015   4.145
11912SOL    HW236081   4.270   7.152   4.171
11913SOL     OW36082   5.433   5.971   5.105
11913SOL    HW136083   5.506   6.040   5.109
11913SOL    HW236084   5.461   5.896   5.046
11914SOL     OW36085   3.979   6.934   4.014
11914SOL    HW136086   3.883   6.935   3.987
11914SOL    HW236087   3.991   6.987   4.098
11915SOL     OW36088   3.829   6.599   5.450
11915SOL    HW136089   3.752   6.566   5.504
11915SOL    HW236090   3.914   6.569   5.492
11916SOL     OW36091   4.396   5.789   5.213
11916SOL    HW136092   4.486   5.773   5.173
11916SOL    HW236093   4.404   5.794   5.312
11917SOL     OW36094   3.799   5.931   3.757
11917SOL    HW136095   3.707   5.903   3.728
11917SOL    HW236096   3.830   6.008   3.701
11918SOL     OW36097   5.164   6.442   5.122
11918SOL    HW136098   5.107   6.494   5.059
11918SOL    HW236099   5.260   6.454   5.098
11919SOL     OW36100   3.796   5.752   4.042
11919SOL    HW136101   3.779   5.835   3.988
11919SOL    HW236102   3.886   5.715   4.020
11920SOL     OW36103   4.337   6.428   5.155
11920SOL    HW136104   4.393   6.509   5.138
11920SOL    HW236105   4.396   6.348   5.158
11921SOL     OW36106   5.217   7.353   4.683
11921SOL    HW136107   5.250   7.417   4.614
11921SOL    HW236108   5.283   7.347   4.758
11922SOL     OW36109   4.440   6.151   5.432
11922SOL    HW136110   4.459   6.216   5.506
11922SOL    HW236111   4.500   6.071   5.441
11923SOL     OW36112   5.174   6.806   5.357
11923SOL    HW136113   5.165   6.796   5.456
11923SOL    HW236114   5.270   6.799   5.331
11924SOL     OW36115   5.398   6.469   4.978
11924SOL    HW136116   5.371   6.380   4.941
11924SOL    HW236117   5.399   6.537   4.905
11925SOL     OW36118   5.501   5.928   5.366
11925SOL    HW136119   5.484   5.959   5.272
11925SOL    HW236120   5.417   5.891   5.404
11926SOL     OW36121   5.454   6.520   5.241
11926SOL    HW136122   5.492   6.611   5.256
11926SOL    HW236123   5.446   6.503   5.142
11927SOL     OW36124   4.583   6.960   3.740
11927SOL    HW136125   4.537   6.975   3.828
11927SOL    HW236126   4.627   7.045   3.710
11928SOL     OW36127   4.385   7.376   4.677
11928SOL    HW136128   4.339   7.464   4.664
11928SOL    HW236129   4.484   7.388   4.670
11929SOL     OW36130   4.583   6.542   4.585
11929SOL    HW136131   4.637   6.473   4.633
11929SOL    HW236132   4.551   6.611   4.651
11930SOL     OW36133   5.585   7.155   4.575
11930SOL    HW136134   5.514   7.143   4.505
11930SOL    HW236135   5.586   7.076   4.635
11931SOL     OW36136   3.945   6.900   5.568
11931SOL    HW136137   3.880   6.827   5.547
11931SOL    HW236138   3.949   6.914   5.666
11932SOL     OW36139   3.803   6.826   4.377
11932SOL    HW136140   3.802   6.779   4.465
11932SOL    HW236141   3.885   6.798   4.326
11933SOL     OW36142   4.396   6.977   5.348
11933SOL    HW136143   4.318   6.927   5.386
11933SOL    HW236144   4.393   7.072   5.379
11934SOL     OW36145   5.548   5.778   4.951
11934SOL    HW136146   5.544   5.688   4.995
11934SOL    HW236147   5.551   5.767   4.852
11935SOL     OW36148   4.152   6.010   4.244
11935SOL    HW136149   4.182   5.938   4.182
11935SOL    HW236150   4.113   5.970   4.327
11936SOL     OW36151   5.429   7.073   4.828
11936SOL    HW136152   5.336   7.048   4.801
11936SOL    HW236153   5.455   7.023   4.910
11937SOL     OW36154   4.041   6.133   5.004
11937SOL    HW136155   4.079   6.074   5.076
11937SOL    HW236156   4.081   6.107   4.916
11938SOL     OW36157   4.536   7.172   4.411
11938SOL    HW136158   4.568   7.182   4.317
11938SOL    HW236159   4.457   7.110   4.413
11939SOL     OW36160   5.148   5.800   4.836
11939SOL    HW136161   5.200   5.735   4.891
11939SOL    HW236162   5.099   5.863   4.897
11940SOL     OW36163   4.725   5.620   4.878
11940SOL    HW136164   4.662   5.548   4.847
11940SOL    HW236165   4.818   5.584   4.878
11941SOL     OW36166   4.342   7.153   5.008
11941SOL    HW136167   4.337   7.235   5.065
11941SOL    HW236168   4.431   7.150   4.963
11942SOL     OW36169   5.076   5.638   3.892
11942SOL    HW136170   5.111   5.597   3.808
11942SOL    HW236171   4.986   5.600   3.912
11943SOL     OW36172   5.024   6.039   4.415
11943SOL    HW136173   4.965   6.119   4.419
11943SOL    HW236174   5.039   6.004   4.508
11944SOL     OW36175   5.317   5.807   4.606
11944SOL    HW136176   5.233   5.806   4.660
11944SOL    HW236177   5.319   5.890   4.550
11945SOL     OW36178   3.763   6.663   4.024
11945SOL    HW136179   3.862   6.652   4.015
11945SOL    HW236180   3.723   6.577   4.056
11946SOL     OW36181   4.599   7.232   4.061
11946SOL    HW136182   4.522   7.197   4.007
11946SOL    HW236183   4.567   7.303   4.123
11947SOL     OW36184   3.954   6.214   5.699
11947SOL    HW136185   3.861   6.212   5.736
11947SOL    HW236186   3.955   6.175   5.607
11948SOL     OW36187   3.949   5.861   6.582
11948SOL    HW136188   3.984   5.844   6.674
11948SOL    HW236189   3.861   5.816   6.570
11949SOL     OW36190   3.743   5.954   6.233
11949SOL    HW136191   3.661   5.997   6.272
11949SOL    HW236192   3.715   5.881   6.170
11950SOL     OW36193   4.293   6.861   6.751
11950SOL    HW136194   4.200   6.854   6.714
11950SOL    HW236195   4.304   6.950   6.795
11951SOL     OW36196   5.279   7.097   6.289
11951SOL    HW136197   5.222   7.081   6.370
11951SOL    HW236198   5.220   7.107   6.209
11952SOL     OW36199   4.859   6.289   6.303
11952SOL    HW136200   4.916   6.367   6.278
11952SOL    HW236201   4.799   6.315   6.379
11953SOL     OW36202   5.479   6.193   5.817
11953SOL    HW136203   5.467   6.180   5.718
11953SOL    HW236204   5.449   6.112   5.866
11954SOL     OW36205   4.492   6.730   6.609
11954SOL    HW136206   4.414   6.747   6.669
11954SOL    HW236207   4.526   6.817   6.573
11955SOL     OW36208   4.574   6.384   7.409
11955SOL    HW136209   4.570   6.460   7.474
11955SOL    HW236210   4.596   6.420   7.318
11956SOL     OW36211   4.409   6.598   6.251
11956SOL    HW136212   4.478   6.582   6.321
11956SOL    HW236213   4.336   6.655   6.289
11957SOL     OW36214   4.410   6.747   7.389
11957SOL    HW136215   4.470   6.826   7.403
11957SOL    HW236216   4.324   6.778   7.348
11958SOL     OW36217   4.059   7.021   6.647
11958SOL    HW136218   3.981   6.990   6.594
11958SOL    HW236219   4.117   7.079   6.590
11959SOL     OW36220   5.184   7.091   6.925
11959SOL    HW136221   5.208   7.185   6.951
11959SOL    HW236222   5.168   7.037   7.007
11960SOL     OW36223   4.162   5.978   7.085
11960SOL    HW136224   4.244   5.922   7.094
11960SOL    HW236225   4.081   5.920   7.089
11961SOL     OW36226   5.327   6.033   6.323
11961SOL    HW136227   5.253   6.079   6.273
11961SOL    HW236228   5.378   6.101   6.376
11962SOL     OW36229   3.955   7.299   6.069
11962SOL    HW136230   3.989   7.376   6.123
11962SOL    HW236231   3.999   7.299   5.979
11963SOL     OW36232   4.851   6.927   7.276
11963SOL    HW136233   4.898   6.927   7.364
11963SOL    HW236234   4.803   6.840   7.265
11964SOL     OW36235   3.954   7.020   6.124
11964SOL    HW136236   3.928   7.116   6.124
11964SOL    HW236237   3.883   6.966   6.169
11965SOL     OW36238   3.964   6.677   6.472
11965SOL    HW136239   3.978   6.593   6.524
11965SOL    HW236240   3.909   6.741   6.527
11966SOL     OW36241   4.344   7.372   7.025
11966SOL    HW136242   4.252   7.355   7.060
11966SOL    HW236243   4.372   7.464   7.051
11967SOL     OW36244   4.330   6.550   5.709
11967SOL    HW136245   4.337   6.634   5.655
11967SOL    HW236246   4.376   6.563   5.797
11968SOL     OW36247   5.318   5.700   7.066
11968SOL    HW136248   5.300   5.767   6.994
11968SOL    HW236249   5.315   5.746   7.155
11969SOL     OW36250   3.846   6.229   6.149
11969SOL    HW136251   3.801   6.141   6.166
11969SOL    HW236252   3.845   6.283   6.233
11970SOL     OW36253   5.566   7.353   5.945
11970SOL    HW136254   5.620   7.324   6.025
11970SOL    HW236255   5.596   7.443   5.916
11971SOL     OW36256   3.751   7.182   5.703
11971SOL    HW136257   3.732   7.086   5.724
11971SOL    HW236258   3.718   7.240   5.778
11972SOL     OW36259   5.413   6.508   6.198
11972SOL    HW136260   5.508   6.479   6.206
11972SOL    HW236261   5.405   6.573   6.123
11973SOL     OW36262   5.365   6.694   6.018
11973SOL    HW136263   5.451   6.696   5.966
11973SOL    HW236264   5.379   6.741   6.106
11974SOL     OW36265   3.837   6.323   7.183
11974SOL    HW136266   3.925   6.310   7.228
11974SOL    HW236267   3.824   6.420   7.161
11975SOL     OW36268   4.337   6.951   6.312
11975SOL    HW136269   4.288   6.864   6.321
11975SOL    HW236270   4.314   6.994   6.225
11976SOL     OW36271   5.017   6.814   7.009
11976SOL    HW136272   5.054   6.741   6.951
11976SOL    HW236273   5.069   6.819   7.094
11977SOL     OW36274   4.533   5.590   6.088
11977SOL    HW136275   4.573   5.681   6.079
11977SOL    HW236276   4.433   5.598   6.094
11978SOL     OW36277   3.921   6.562   6.850
11978SOL    HW136278   4.010   6.517   6.836
11978SOL    HW236279   3.848   6.497   6.831
11979SOL     OW36280   5.249   6.585   5.776
11979SOL    HW136281   5.186   6.509   5.789
11979SOL    HW236282   5.297   6.603   5.862
11980SOL     OW36283   4.911   7.378   7.202
11980SOL    HW136284   4.935   7.438   7.126
11980SOL    HW236285   4.918   7.283   7.172
11981SOL     OW36286   4.041   5.837   7.387
11981SOL    HW136287   4.112   5.908   7.393
11981SOL    HW236288   3.953   5.876   7.415
11982SOL     OW36289   5.190   7.003   6.539
11982SOL    HW136290   5.131   7.009   6.619
11982SOL    HW236291   5.175   6.915   6.493
11983SOL     OW36292   5.391   7.300   6.158
11983SOL    HW136293   5.350   7.277   6.070
11983SOL    HW236294   5.373   7.226   6.223
11984SOL     OW36295   4.322   6.315   5.856
11984SOL    HW136296   4.346   6.384   5.788
11984SOL    HW236297   4.244   6.348   5.910
11985SOL     OW36298   5.005   5.931   6.530
11985SOL    HW136299   4.919   5.881   6.517
11985SOL    HW236300   5.067   5.877   6.586
11986SOL     OW36301   5.300   7.248   5.893
11986SOL    HW136302   5.389   7.294   5.896
11986SOL    HW236303   5.279   7.224   5.798
11987SOL     OW36304   4.531   6.191   7.051
11987SOL    HW136305   4.484   6.188   7.140
11987SOL    HW236306   4.480   6.136   6.985
11988SOL     OW36307   5.118   6.055   7.260
11988SOL    HW136308   5.098   6.098   7.348
11988SOL    HW236309   5.196   5.993   7.269
11989SOL     OW36310   4.697   6.476   7.158
11989SOL    HW136311   4.743   6.392   7.129
11989SOL    HW236312   4.641   6.510   7.083
11990SOL     OW36313   4.715   5.996   6.828
11990SOL    HW136314   4.638   6.030   6.882
11990SOL    HW236315   4.681   5.945   6.749
11991SOL     OW36316   4.765   6.287   6.015
11991SOL    HW136317   4.791   6.283   6.111
11991SOL    HW236318   4.680   6.236   6.001
11992SOL     OW36319   3.800   6.397   6.375
11992SOL    HW136320   3.899   6.385   6.384
11992SOL    HW236321   3.776   6.492   6.396
11993SOL     OW36322   3.854   7.407   7.157
11993SOL    HW136323   3.844   7.392   7.256
11993SOL    HW236324   3.768   7.443   7.121
11994SOL     OW36325   4.589   5.934   5.781
11994SOL    HW136326   4.648   5.997   5.732
11994SOL    HW236327   4.608   5.840   5.752
11995SOL     OW36328   5.443   6.171   7.417
11995SOL    HW136329   5.417   6.260   7.381
11995SOL    HW236330   5.441   6.103   7.344
11996SOL     OW36331   5.086   6.730   6.131
11996SOL    HW136332   5.169   6.701   6.083
11996SOL    HW236333   5.037   6.797   6.075
11997SOL     OW36334   4.274   5.782   6.471
11997SOL    HW136335   4.269   5.777   6.571
11997SOL    HW236336   4.276   5.878   6.442
11998SOL     OW36337   4.732   7.042   6.063
11998SOL    HW136338   4.686   7.114   6.011
11998SOL    HW236339   4.728   7.062   6.161
11999SOL     OW36340   4.075   7.387   6.439
11999SOL    HW136341   4.125   7.301   6.445
11999SOL    HW236342   4.140   7.464   6.436
12000SOL     OW36343   5.519   6.652   6.459
12000SOL    HW136344   5.457   6.637   6.383
12000SOL    HW236345   5.467   6.663   6.544
12001SOL     OW36346   4.951   7.136   7.092
12001SOL    HW136347   4.957   7.059   7.156
12001SOL    HW236348   4.899   7.110   7.012
12002SOL     OW36349   4.045   6.529   5.828
12002SOL    HW136350   4.127   6.568   5.786
12002SOL    HW236351   4.018   6.447   5.779
12003SOL     OW36352   5.182   6.321   6.314
12003SOL    HW136353   5.177   6.256   6.389
12003SOL    HW236354   5.262   6.380   6.327
12004SOL     OW36355   4.185   6.852   7.313
12004SOL    HW136356   4.135   6.853   7.227
12004SOL    HW236357   4.122   6.834   7.389
12005SOL     OW36358   4.835   7.362   5.823
12005SOL    HW136359   4.775   7.300   5.873
12005SOL    HW236360   4.866   7.318   5.738
12006SOL     OW36361   3.926   5.871   7.084
12006SOL    HW136362   3.846   5.931   7.071
12006SOL    HW236363   3.916   5.822   7.170
12007SOL     OW36364   5.356   6.963   5.667
12007SOL    HW136365   5.324   7.057   5.657
12007SOL    HW236366   5.280   6.900   5.655
12008SOL     OW36367   4.188   7.329   5.909
12008SOL    HW136368   4.221   7.368   5.995
12008SOL    HW236369   4.264   7.322   5.844
12009SOL     OW36370   5.124   5.693   6.012
12009SOL    HW136371   5.100   5.656   5.922
12009SOL    HW236372   5.223   5.709   6.016
12010SOL     OW36373   3.973   7.371   6.827
12010SOL    HW136374   4.030   7.306   6.877
12010SOL    HW236375   3.957   7.338   6.734
12011SOL     OW36376   4.664   7.284   6.490
12011SOL    HW136377   4.744   7.227   6.511
12011SOL    HW236378   4.615   7.244   6.413
12012SOL     OW36379   4.106   6.286   6.066
12012SOL    HW136380   4.151   6.196   6.063
12012SOL    HW236381   4.012   6.275   6.099
12013SOL     OW36382   5.271   5.808   7.315
12013SOL    HW136383   5.266   5.845   7.407
12013SOL    HW236384   5.199   5.739   7.303
12014SOL     OW36385   4.338   5.708   5.703
12014SOL    HW136386   4.436   5.686   5.710
12014SOL    HW236387   4.307   5.691   5.610
12015SOL     OW36388   4.505   5.850   7.335
12015SOL    HW136389   4.572   5.789   7.378
12015SOL    HW236390   4.432   5.869   7.400
12016SOL     OW36391   4.612   7.100   6.781
12016SOL    HW136392   4.589   7.075   6.687
12016SOL    HW236393   4.673   7.031   6.820
12017SOL     OW36394   5.075   6.176   7.019
12017SOL    HW136395   5.103   6.133   7.104
12017SOL    HW236396   5.100   6.272   7.020
12018SOL     OW36397   4.527   6.988   6.510
12018SOL    HW136398   4.617   7.002   6.468
12018SOL    HW236399   4.456   6.990   6.439
12019SOL     OW36400   4.646   6.089   6.485
12019SOL    HW136401   4.621   6.080   6.389
12019SOL    HW236402   4.694   6.007   6.516
12020SOL     OW36403   4.263   5.650   6.098
12020SOL    HW136404   4.182   5.651   6.156
12020SOL    HW236405   4.266   5.733   6.043
12021SOL     OW36406   5.158   6.774   5.627
12021SOL    HW136407   5.190   6.698   5.684
12021SOL    HW236408   5.066   6.801   5.657
12022SOL     OW36409   4.021   5.621   5.757
12022SOL    HW136410   4.070   5.705   5.736
12022SOL    HW236411   4.083   5.556   5.802
12023SOL     OW36412   4.659   5.822   6.066
12023SOL    HW136413   4.611   5.863   5.988
12023SOL    HW236414   4.758   5.820   6.047
12024SOL     OW36415   4.800   6.269   7.050
12024SOL    HW136416   4.720   6.208   7.053
12024SOL    HW236417   4.881   6.216   7.026
12025SOL     OW36418   4.951   7.156   6.379
12025SOL    HW136419   4.972   7.230   6.314
12025SOL    HW236420   5.019   7.156   6.452
12026SOL     OW36421   4.183   6.738   6.327
12026SOL    HW136422   4.112   6.711   6.392
12026SOL    HW236423   4.157   6.710   6.234
12027SOL     OW36424   4.995   7.383   6.177
12027SOL    HW136425   5.039   7.447   6.113
12027SOL    HW236426   4.945   7.435   6.247
12028SOL     OW36427   4.756   6.135   5.602
12028SOL    HW136428   4.715   6.217   5.563
12028SOL    HW236429   4.820   6.161   5.675
12029SOL     OW36430   3.802   6.142   6.972
12029SOL    HW136431   3.894   6.141   6.931
12029SOL    HW236432   3.796   6.216   7.039
12030SOL     OW36433   4.285   5.808   6.733
12030SOL    HW136434   4.323   5.724   6.770
12030SOL    HW236435   4.197   5.827   6.777
12031SOL     OW36436   4.590   6.040   6.228
12031SOL    HW136437   4.558   6.112   6.166
12031SOL    HW236438   4.614   5.959   6.175
12032SOL     OW36439   4.741   5.625   6.339
12032SOL    HW136440   4.669   5.630   6.270
12032SOL    HW236441   4.717   5.556   6.408
12033SOL     OW36442   5.153   6.759   6.453
12033SOL    HW136443   5.098   6.675   6.446
12033SOL    HW236444   5.179   6.788   6.361
12034SOL     OW36445   5.190   6.176   6.578
12034SOL    HW136446   5.160   6.081   6.585
12034SOL    HW236447   5.263   6.192   6.644
12035SOL     OW36448   5.581   6.419   5.963
12035SOL    HW136449   5.623   6.355   6.027
12035SOL    HW236450   5.543   6.368   5.885
12036SOL     OW36451   4.212   6.971   5.760
12036SOL    HW136452   4.125   6.956   5.807
12036SOL    HW236453   4.195   6.997   5.665
12037SOL     OW36454   5.388   6.866   6.243
12037SOL    HW136455   5.487   6.874   6.257
12037SOL    HW236456   5.343   6.950   6.274
12038SOL     OW36457   5.114   6.161   5.664
12038SOL    HW136458   5.060   6.140   5.745
12038SOL    HW236459   5.205   6.120   5.673
12039SOL     OW36460   4.251   5.842   5.914
12039SOL    HW136461   4.278   5.783   5.839
12039SOL    HW236462   4.251   5.937   5.883
12040SOL     OW36463   5.478   6.809   7.174
12040SOL    HW136464   5.569   6.770   7.161
12040SOL    HW236465   5.486   6.905   7.198
12041SOL     OW36466   4.788   6.933   6.926
12041SOL    HW136467   4.708   6.910   6.981
12041SOL    HW236468   4.871   6.907   6.975
12042SOL     OW36469   5.316   7.215   7.211
12042SOL    HW136470   5.343   7.249   7.121
12042SOL    HW236471   5.395   7.177   7.257
12043SOL     OW36472   4.835   6.781   6.686
12043SOL    HW136473   4.795   6.825   6.767
12043SOL    HW236474   4.794   6.818   6.603
12044SOL     OW36475   5.362   6.685   6.665
12044SOL    HW136476   5.367   6.766   6.724
12044SOL    HW236477   5.276   6.687   6.614
12045SOL     OW36478   4.639   5.675   6.988
12045SOL    HW136479   4.664   5.655   6.893
12045SOL    HW236480   4.711   5.731   7.030
12046SOL     OW36481   4.704   6.702   7.305
12046SOL    HW136482   4.605   6.708   7.315
12046SOL    HW236483   4.727   6.622   7.249
12047SOL     OW36484   4.429   6.636   5.954
12047SOL    HW136485   4.415   6.643   6.053
12047SOL    HW236486   4.513   6.585   5.936
12048SOL     OW36487   4.134   6.399   6.837
12048SOL    HW136488   4.220   6.411   6.887
12048SOL    HW236489   4.092   6.312   6.864
12049SOL     OW36490   4.998   5.972   6.848
12049SOL    HW136491   5.019   6.046   6.912
12049SOL    HW236492   4.909   5.989   6.805
12050SOL     OW36493   3.788   7.150   6.917
12050SOL    HW136494   3.742   7.232   6.883
12050SOL    HW236495   3.886   7.169   6.926
12051SOL     OW36496   4.091   6.686   6.087
12051SOL    HW136497   4.084   6.769   6.031
12051SOL    HW236498   4.095   6.606   6.027
12052SOL     OW36499   4.290   6.123   6.451
12052SOL    HW136500   4.302   6.189   6.377
12052SOL    HW236501   4.336   6.157   6.534
12053SOL     OW36502   4.976   6.934   5.974
12053SOL    HW136503   5.026   7.011   6.014
12053SOL    HW236504   4.881   6.936   6.006
12054SOL     OW36505   4.996   7.031   6.728
12054SOL    HW136506   5.043   7.044   6.815
12054SOL    HW236507   4.930   6.957   6.737
12055SOL     OW36508   5.306   6.225   6.058
12055SOL    HW136509   5.275   6.286   6.131
12055SOL    HW236510   5.356   6.277   5.989
12056SOL     OW36511   4.078   7.096   6.915
12056SOL    HW136512   4.057   7.052   6.828
12056SOL    HW236513   4.175   7.122   6.918
12057SOL     OW36514   4.126   6.337   7.184
12057SOL    HW136515   4.194   6.392   7.137
12057SOL    HW236516   4.166   6.249   7.211
12058SOL     OW36517   5.311   6.365   7.256
12058SOL    HW136518   5.219   6.403   7.251
12058SOL    HW236519   5.371   6.412   7.191
12059SOL     OW36520   4.737   5.691   7.356
12059SOL    HW136521   4.743   5.776   7.304
12059SOL    HW236522   4.769   5.615   7.299
12060SOL     OW36523   4.228   5.636   7.326
12060SOL    HW136524   4.186   5.579   7.256
12060SOL    HW236525   4.162   5.705   7.358
12061SOL     OW36526   4.297   6.456   6.615
12061SOL    HW136527   4.341   6.545   6.606
12061SOL    HW236528   4.234   6.456   6.692
12062SOL     OW36529   5.084   6.448   6.631
12062SOL    HW136530   5.009   6.448   6.565
12062SOL    HW236531   5.121   6.356   6.640
12063SOL     OW36532   4.933   6.111   5.861
12063SOL    HW136533   4.946   6.027   5.915
12063SOL    HW236534   4.904   6.185   5.921
12064SOL     OW36535   4.031   5.799   6.817
12064SOL    HW136536   4.008   5.836   6.907
12064SOL    HW236537   4.001   5.704   6.811
12065SOL     OW36538   3.761   6.896   6.868
12065SOL    HW136539   3.814   6.847   6.936
12065SOL    HW236540   3.783   6.994   6.873
12066SOL     OW36541   4.456   6.220   6.650
12066SOL    HW136542   4.515   6.194   6.574
12066SOL    HW236543   4.428   6.316   6.639
12067SOL     OW36544   5.452   6.521   7.440
12067SOL    HW136545   5.406   6.514   7.351
12067SOL    HW236546   5.390   6.565   7.506
12068SOL     OW36547   4.031   5.649   6.204
12068SOL    HW136548   4.020   5.743   6.237
12068SOL    HW236549   4.026   5.586   6.281
12069SOL     OW36550   5.346   5.953   5.960
12069SOL    HW136551   5.348   5.877   6.024
12069SOL    HW236552   5.298   6.030   6.000
12070SOL     OW36553   4.747   6.352   6.552
12070SOL    HW136554   4.762   6.373   6.648
12070SOL    HW236555   4.717   6.257   6.543
12071SOL     OW36556   4.704   7.159   7.286
12071SOL    HW136557   4.684   7.203   7.198
12071SOL    HW236558   4.743   7.068   7.270
12072SOL     OW36559   5.583   7.104   7.191
12072SOL    HW136560   5.597   7.131   7.096
12072SOL    HW236561   5.666   7.126   7.244
12073SOL     OW36562   4.074   6.484   7.390
12073SOL    HW136563   4.150   6.528   7.438
12073SOL    HW236564   4.109   6.437   7.308
12074SOL     OW36565   5.264   5.860   5.711
12074SOL    HW136566   5.203   5.785   5.734
12074SOL    HW236567   5.286   5.912   5.794
12075SOL     OW36568   5.027   6.424   5.628
12075SOL    HW136569   5.061   6.331   5.643
12075SOL    HW236570   5.045   6.451   5.533
12076SOL     OW36571   4.792   6.919   6.435
12076SOL    HW136572   4.799   6.835   6.380
12076SOL    HW236573   4.854   6.988   6.399
12077SOL     OW36574   4.043   6.396   6.535
12077SOL    HW136575   4.136   6.432   6.540
12077SOL    HW236576   4.037   6.311   6.587
12078SOL     OW36577   4.063   6.095   6.592
12078SOL    HW136578   4.011   6.012   6.575
12078SOL    HW236579   4.140   6.100   6.528
12079SOL     OW36580   4.862   5.966   7.264
12079SOL    HW136581   4.817   6.029   7.328
12079SOL    HW236582   4.955   5.997   7.247
12080SOL     OW36583   4.884   5.793   7.063
12080SOL    HW136584   4.884   5.857   7.140
12080SOL    HW236585   4.912   5.841   6.980
12081SOL     OW36586   3.732   6.912   5.786
12081SOL    HW136587   3.639   6.933   5.755
12081SOL    HW236588   3.742   6.813   5.799
12082SOL     OW36589   3.812   7.387   6.513
12082SOL    HW136590   3.770   7.301   6.486
12082SOL    HW236591   3.906   7.390   6.479
12083SOL     OW36592   4.228   7.154   6.496
12083SOL    HW136593   4.294   7.228   6.505
12083SOL    HW236594   4.272   7.075   6.454
12084SOL     OW36595   4.726   6.382   6.824
12084SOL    HW136596   4.767   6.350   6.910
12084SOL    HW236597   4.630   6.355   6.821
12085SOL     OW36598   3.764   6.130   6.700
12085SOL    HW136599   3.849   6.097   6.659
12085SOL    HW236600   3.777   6.145   6.798
12086SOL     OW36601   3.913   6.106   7.308
12086SOL    HW136602   3.972   6.066   7.238
12086SOL    HW236603   3.855   6.177   7.267
12087SOL     OW36604   5.093   6.536   7.246
12087SOL    HW136605   5.132   6.625   7.266
12087SOL    HW236606   5.103   6.516   7.149
12088SOL     OW36607   4.539   6.158   5.911
12088SOL    HW136608   4.546   6.069   5.865
12088SOL    HW236609   4.445   6.192   5.903
12089SOL     OW36610   5.381   6.190   6.792
12089SOL    HW136611   5.343   6.121   6.854
12089SOL    HW236612   5.463   6.154   6.748
12090SOL     OW36613   3.976   7.150   7.330
12090SOL    HW136614   3.946   7.207   7.406
12090SOL    HW236615   3.969   7.053   7.356
12091SOL     OW36616   4.395   6.050   6.855
12091SOL    HW136617   4.361   5.961   6.825
12091SOL    HW236618   4.421   6.104   6.775
12092SOL     OW36619   4.654   7.264   7.051
12092SOL    HW136620   4.630   7.246   6.956
12092SOL    HW236621   4.684   7.358   7.061
12093SOL     OW36622   4.197   6.086   5.777
12093SOL    HW136623   4.258   6.166   5.781
12093SOL    HW236624   4.102   6.117   5.784
12094SOL     OW36625   3.883   6.723   7.052
12094SOL    HW136626   3.905   6.662   7.128
12094SOL    HW236627   3.893   6.674   6.966
12095SOL     OW36628   5.071   6.645   6.820
12095SOL    HW136629   5.095   6.582   6.746
12095SOL    HW236630   4.981   6.685   6.802
12096SOL     OW36631   5.026   6.441   5.895
12096SOL    HW136632   4.940   6.410   5.937
12096SOL    HW236633   5.022   6.427   5.796
12097SOL     OW36634   5.483   7.333   6.740
12097SOL    HW136635   5.544   7.363   6.667
12097SOL    HW236636   5.445   7.244   6.718
12098SOL     OW36637   4.976   7.317   6.714
12098SOL    HW136638   5.060   7.322   6.660
12098SOL    HW236639   4.953   7.221   6.732
12099SOL     OW36640   3.807   6.844   6.608
12099SOL    HW136641   3.802   6.843   6.708
12099SOL    HW236642   3.724   6.803   6.570
12100SOL     OW36643   4.412   7.248   7.302
12100SOL    HW136644   4.356   7.329   7.311
12100SOL    HW236645   4.464   7.252   7.216
12101SOL     OW36646   5.450   5.721   6.109
12101SOL    HW136647   5.523   5.704   6.042
12101SOL    HW236648   5.419   5.634   6.147
12102SOL     OW36649   5.112   7.159   6.063
12102SOL    HW136650   5.179   7.171   5.989
12102SOL    HW236651   5.072   7.248   6.086
12103SOL     OW36652   3.854   7.380   7.437
12103SOL    HW136653   3.813   7.306   7.490
12103SOL    HW236654   3.918   7.431   7.495
12104SOL     OW36655   5.004   6.513   6.258
12104SOL    HW136656   5.064   6.432   6.260
12104SOL    HW236657   5.044   6.582   6.198
12105SOL     OW36658   4.554   6.859   7.008
12105SOL    HW136659   4.549   6.892   7.103
12105SOL    HW236660   4.468   6.878   6.962
12106SOL     OW36661   4.396   7.202   5.740
12106SOL    HW136662   4.405   7.212   5.641
12106SOL    HW236663   4.356   7.113   5.761
12107SOL     OW36664   5.374   7.306   6.980
12107SOL    HW136665   5.427   7.316   6.896
12107SOL    HW236666   5.347   7.396   7.014
12108SOL     OW36667   5.565   5.761   6.549
12108SOL    HW136668   5.604   5.676   6.513
12108SOL    HW236669   5.467   5.763   6.530
12109SOL     OW36670   3.987   5.912   6.306
12109SOL    HW136671   3.908   5.963   6.272
12109SOL    HW236672   3.978   5.897   6.404
12110SOL     OW36673   4.918   7.198   5.617
12110SOL    HW136674   4.924   7.105   5.654
12110SOL    HW236675   4.859   7.198   5.537
12111SOL     OW36676   4.546   6.588   6.958
12111SOL    HW136677   4.586   6.587   6.866
12111SOL    HW236678   4.556   6.680   6.998
12112SOL     OW36679   4.640   6.496   5.877
12112SOL    HW136680   4.703   6.534   5.809
12112SOL    HW236681   4.680   6.413   5.916
12113SOL     OW36682   5.228   7.193   5.630
12113SOL    HW136683   5.136   7.230   5.637
12113SOL    HW236684   5.266   7.213   5.540
12114SOL     OW36685   4.096   6.874   7.076
12114SOL    HW136686   4.083   6.967   7.042
12114SOL    HW236687   4.012   6.822   7.063
12115SOL     OW36688   5.338   6.878   6.875
12115SOL    HW136689   5.398   6.881   6.955
12115SOL    HW236690   5.263   6.942   6.888
12116SOL     OW36691   4.763   6.684   6.282
12116SOL    HW136692   4.693   6.637   6.336
12116SOL    HW236693   4.822   6.616   6.239
12117SOL     OW36694   4.738   5.822   6.557
12117SOL    HW136695   4.730   5.786   6.464
12117SOL    HW236696   4.736   5.746   6.622
12118SOL     OW36697   4.314   7.073   6.077
12118SOL    HW136698   4.356   7.015   6.007
12118SOL    HW236699   4.270   7.152   6.033
12119SOL     OW36700   5.433   5.971   6.967
12119SOL    HW136701   5.506   6.040   6.971
12119SOL    HW236702   5.461   5.896   6.908
12120SOL     OW36703   3.979   6.934   5.876
12120SOL    HW136704   3.883   6.935   5.849
12120SOL    HW236705   3.991   6.987   5.960
12121SOL     OW36706   3.829   6.599   7.312
12121SOL    HW136707   3.752   6.566   7.366
12121SOL    HW236708   3.914   6.569   7.354
12122SOL     OW36709   4.396   5.789   7.075
12122SOL    HW136710   4.486   5.773   7.035
12122SOL    HW236711   4.404   5.794   7.174
12123SOL     OW36712   3.799   5.931   5.619
12123SOL    HW136713   3.707   5.903   5.590
12123SOL    HW236714   3.830   6.008   5.563
12124SOL     OW36715   5.164   6.442   6.984
12124SOL    HW136716   5.107   6.494   6.921
12124SOL    HW236717   5.260   6.454   6.960
12125SOL     OW36718   3.796   5.752   5.904
12125SOL    HW136719   3.779   5.835   5.850
12125SOL    HW236720   3.886   5.715   5.882
12126SOL     OW36721   4.907   6.921   5.705
12126SOL    HW136722   4.808   6.910   5.707
12126SOL    HW236723   4.941   6.936   5.798
12127SOL     OW36724   4.337   6.428   7.017
12127SOL    HW136725   4.393   6.509   7.000
12127SOL    HW236726   4.396   6.348   7.020
12128SOL     OW36727   5.217   7.353   6.545
12128SOL    HW136728   5.250   7.417   6.476
12128SOL    HW236729   5.283   7.347   6.620
12129SOL     OW36730   4.440   6.151   7.294
12129SOL    HW136731   4.459   6.216   7.368
12129SOL    HW236732   4.500   6.071   7.303
12130SOL     OW36733   5.174   6.806   7.219
12130SOL    HW136734   5.165   6.796   7.318
12130SOL    HW236735   5.270   6.799   7.193
12131SOL     OW36736   4.114   7.327   7.146
12131SOL    HW136737   4.023   7.368   7.144
12131SOL    HW236738   4.107   7.233   7.178
12132SOL     OW36739   5.398   6.469   6.840
12132SOL    HW136740   5.371   6.380   6.803
12132SOL    HW236741   5.399   6.537   6.767
12133SOL     OW36742   4.949   5.911   6.035
12133SOL    HW136743   5.014   5.837   6.024
12133SOL    HW236744   4.969   5.961   6.119
12134SOL     OW36745   4.318   6.331   6.238
12134SOL    HW136746   4.368   6.416   6.219
12134SOL    HW236747   4.230   6.333   6.190
12135SOL     OW36748   5.501   5.928   7.228
12135SOL    HW136749   5.484   5.959   7.134
12135SOL    HW236750   5.417   5.891   7.266
12136SOL     OW36751   5.454   6.520   7.103
12136SOL    HW136752   5.492   6.611   7.118
12136SOL    HW236753   5.446   6.503   7.004
12137SOL     OW36754   4.583   6.960   5.602
12137SOL    HW136755   4.537   6.975   5.690
12137SOL    HW236756   4.627   7.045   5.572
12138SOL     OW36757   4.385   7.376   6.539
12138SOL    HW136758   4.339   7.464   6.526
12138SOL    HW236759   4.484   7.388   6.532
12139SOL     OW36760   4.583   6.542   6.447
12139SOL    HW136761   4.637   6.473   6.495
12139SOL    HW236762   4.551   6.611   6.513
12140SOL     OW36763   4.807   6.570   5.673
12140SOL    HW136764   4.784   6.623   5.591
12140SOL    HW236765   4.888   6.514   5.654
12141SOL     OW36766   5.585   7.155   6.437
12141SOL    HW136767   5.514   7.143   6.367
12141SOL    HW236768   5.586   7.076   6.497
12142SOL     OW36769   3.945   6.900   7.430
12142SOL    HW136770   3.880   6.827   7.409
12142SOL    HW236771   3.949   6.914   7.528
12143SOL     OW36772   3.803   6.826   6.239
12143SOL    HW136773   3.802   6.779   6.327
12143SOL    HW236774   3.885   6.798   6.188
12144SOL     OW36775   4.396   6.977   7.210
12144SOL    HW136776   4.318   6.927   7.248
12144SOL    HW236777   4.393   7.072   7.241
12145SOL     OW36778   5.548   5.778   6.813
12145SOL    HW136779   5.544   5.688   6.857
12145SOL    HW236780   5.551   5.767   6.714
12146SOL     OW36781   4.152   6.010   6.106
12146SOL    HW136782   4.182   5.938   6.044
12146SOL    HW236783   4.113   5.970   6.189
12147SOL     OW36784   5.429   7.073   6.690
12147SOL    HW136785   5.336   7.048   6.663
12147SOL    HW236786   5.455   7.023   6.772
12148SOL     OW36787   4.041   6.133   6.866
12148SOL    HW136788   4.079   6.074   6.938
12148SOL    HW236789   4.081   6.107   6.778
12149SOL     OW36790   4.536   7.172   6.273
12149SOL    HW136791   4.568   7.182   6.179
12149SOL    HW236792   4.457   7.110   6.275
12150SOL     OW36793   5.148   5.800   6.698
12150SOL    HW136794   5.200   5.735   6.753
12150SOL    HW236795   5.099   5.863   6.759
12151SOL     OW36796   4.725   5.620   6.740
12151SOL    HW136797   4.662   5.548   6.709
12151SOL    HW236798   4.818   5.584   6.740
12152SOL     OW36799   4.494   6.916   5.887
12152SOL    HW136800   4.448   6.829   5.904
12152SOL    HW236801   4.585   6.913   5.928
12153SOL     OW36802   4.342   7.153   6.870
12153SOL    HW136803   4.337   7.235   6.927
12153SOL    HW236804   4.431   7.150   6.825
12154SOL     OW36805   5.076   5.638   5.754
12154SOL    HW136806   5.111   5.597   5.670
12154SOL    HW236807   4.986   5.600   5.774
12155SOL     OW36808   5.024   6.039   6.277
12155SOL    HW136809   4.965   6.119   6.281
12155SOL    HW236810   5.039   6.004   6.370
12156SOL     OW36811   5.317   5.807   6.468
12156SOL    HW136812   5.233   5.806   6.522
12156SOL    HW236813   5.319   5.890   6.412
12157SOL     OW36814   3.763   6.663   5.886
12157SOL    HW136815   3.862   6.652   5.877
12157SOL    HW236816   3.723   6.577   5.918
12158SOL     OW36817   4.599   7.232   5.923
12158SOL    HW136818   4.522   7.197   5.869
12158SOL    HW236819   4.567   7.303   5.985
12159SOL     OW36820   3.954   6.214   7.561
12159SOL    HW136821   3.861   6.212   7.598
12159SOL    HW236822   3.955   6.175   7.469
12160SOL     OW36823   5.479   6.193   7.679
12160SOL    HW136824   5.467   6.180   7.580
12160SOL    HW236825   5.449   6.112   7.728
12161SOL     OW36826   3.955   7.299   7.931
12161SOL    HW136827   3.989   7.376   7.985
12161SOL    HW236828   3.999   7.299   7.841
12162SOL     OW36829   4.330   6.550   7.571
12162SOL    HW136830   4.337   6.634   7.517
12162SOL    HW236831   4.376   6.563   7.659
12163SOL     OW36832   5.566   7.353   7.807
12163SOL    HW136833   5.620   7.324   7.887
12163SOL    HW236834   5.596   7.443   7.778
12164SOL     OW36835   3.751   7.182   7.565
12164SOL    HW136836   3.732   7.086   7.586
12164SOL    HW236837   3.718   7.240   7.640
12165SOL     OW36838   5.365   6.694   7.880
12165SOL    HW136839   5.451   6.696   7.828
12165SOL    HW236840   5.379   6.741   7.968
12166SOL     OW36841   4.533   5.590   7.950
12166SOL    HW136842   4.573   5.681   7.941
12166SOL    HW236843   4.433   5.598   7.956
12167SOL     OW36844   5.249   6.585   7.638
12167SOL    HW136845   5.186   6.509   7.651
12167SOL    HW236846   5.297   6.603   7.724
12168SOL     OW36847   5.391   7.300   8.020
12168SOL    HW136848   5.350   7.277   7.932
12168SOL    HW236849   5.373   7.226   8.085
12169SOL     OW36850   4.322   6.315   7.718
12169SOL    HW136851   4.346   6.384   7.650
12169SOL    HW236852   4.244   6.348   7.772
12170SOL     OW36853   5.300   7.248   7.755
12170SOL    HW136854   5.389   7.294   7.758
12170SOL    HW236855   5.279   7.224   7.660
12171SOL     OW36856   4.765   6.287   7.877
12171SOL    HW136857   4.791   6.283   7.973
12171SOL    HW236858   4.680   6.236   7.863
12172SOL     OW36859   4.589   5.934   7.643
12172SOL    HW136860   4.648   5.997   7.594
12172SOL    HW236861   4.608   5.840   7.614
12173SOL     OW36862   5.086   6.730   7.993
12173SOL    HW136863   5.169   6.701   7.945
12173SOL    HW236864   5.037   6.797   7.937
12174SOL     OW36865   4.732   7.042   7.925
12174SOL    HW136866   4.686   7.114   7.873
12174SOL    HW236867   4.728   7.062   8.023
12175SOL     OW36868   4.045   6.529   7.690
12175SOL    HW136869   4.127   6.568   7.648
12175SOL    HW236870   4.018   6.447   7.641
12176SOL     OW36871   4.835   7.362   7.685
12176SOL    HW136872   4.775   7.300   7.735
12176SOL    HW236873   4.866   7.318   7.600
12177SOL     OW36874   5.356   6.963   7.529
12177SOL    HW136875   5.324   7.057   7.519
12177SOL    HW236876   5.280   6.900   7.517
12178SOL     OW36877   4.188   7.329   7.771
12178SOL    HW136878   4.221   7.368   7.857
12178SOL    HW236879   4.264   7.322   7.706
12179SOL     OW36880   5.124   5.693   7.874
12179SOL    HW136881   5.100   5.656   7.784
12179SOL    HW236882   5.223   5.709   7.878
12180SOL     OW36883   4.106   6.286   7.928
12180SOL    HW136884   4.151   6.196   7.925
12180SOL    HW236885   4.012   6.275   7.961
12181SOL     OW36886   4.338   5.708   7.565
12181SOL    HW136887   4.436   5.686   7.572
12181SOL    HW236888   4.307   5.691   7.472
12182SOL     OW36889   4.263   5.650   7.960
12182SOL    HW136890   4.182   5.651   8.018
12182SOL    HW236891   4.266   5.733   7.905
12183SOL     OW36892   5.158   6.774   7.489
12183SOL    HW136893   5.190   6.698   7.546
12183SOL    HW236894   5.066   6.801   7.519
12184SOL     OW36895   4.021   5.621   7.619
12184SOL    HW136896   4.070   5.705   7.598
12184SOL    HW236897   4.083   5.556   7.664
12185SOL     OW36898   4.659   5.822   7.928
12185SOL    HW136899   4.611   5.863   7.850
12185SOL    HW236900   4.758   5.820   7.909
12186SOL     OW36901   4.756   6.135   7.464
12186SOL    HW136902   4.715   6.217   7.425
12186SOL    HW236903   4.820   6.161   7.537
12187SOL     OW36904   5.581   6.419   7.825
12187SOL    HW136905   5.623   6.355   7.889
12187SOL    HW236906   5.543   6.368   7.747
12188SOL     OW36907   4.212   6.971   7.622
12188SOL    HW136908   4.125   6.956   7.669
12188SOL    HW236909   4.195   6.997   7.527
12189SOL     OW36910   5.114   6.161   7.526
12189SOL    HW136911   5.060   6.140   7.607
12189SOL    HW236912   5.205   6.120   7.535
12190SOL     OW36913   4.251   5.842   7.776
12190SOL    HW136914   4.278   5.783   7.701
12190SOL    HW236915   4.251   5.937   7.745
12191SOL     OW36916   4.429   6.636   7.816
12191SOL    HW136917   4.415   6.643   7.915
12191SOL    HW236918   4.513   6.585   7.798
12192SOL     OW36919   4.091   6.686   7.949
12192SOL    HW136920   4.084   6.769   7.893
12192SOL    HW236921   4.095   6.606   7.889
12193SOL     OW36922   4.976   6.934   7.836
12193SOL    HW136923   5.026   7.011   7.876
12193SOL    HW236924   4.881   6.936   7.868
12194SOL     OW36925   5.306   6.225   7.920
12194SOL    HW136926   5.275   6.286   7.993
12194SOL    HW236927   5.356   6.277   7.851
12195SOL     OW36928   4.933   6.111   7.723
12195SOL    HW136929   4.946   6.027   7.777
12195SOL    HW236930   4.904   6.185   7.783
12196SOL     OW36931   5.346   5.953   7.822
12196SOL    HW136932   5.348   5.877   7.886
12196SOL    HW236933   5.298   6.030   7.862
12197SOL     OW36934   5.264   5.860   7.573
12197SOL    HW136935   5.203   5.785   7.596
12197SOL    HW236936   5.286   5.912   7.656
12198SOL     OW36937   5.027   6.424   7.490
12198SOL    HW136938   5.061   6.331   7.505
12198SOL    HW236939   5.045   6.451   7.395
12199SOL     OW36940   3.732   6.912   7.648
12199SOL    HW136941   3.639   6.933   7.617
12199SOL    HW236942   3.742   6.813   7.661
12200SOL     OW36943   4.539   6.158   7.773
12200SOL    HW136944   4.546   6.069   7.727
12200SOL    HW236945   4.445   6.192   7.765
12201SOL     OW36946   4.197   6.086   7.639
12201SOL    HW136947   4.258   6.166   7.643
12201SOL    HW236948   4.102   6.117   7.646
12202SOL     OW36949   5.026   6.441   7.757
12202SOL    HW136950   4.940   6.410   7.799
12202SOL    HW236951   5.022   6.427   7.658
12203SOL     OW36952   5.450   5.721   7.971
12203SOL    HW136953   5.523   5.704   7.904
12203SOL    HW236954   5.419   5.634   8.009
12204SOL     OW36955   5.112   7.159   7.925
12204SOL    HW136956   5.179   7.171   7.851
12204SOL    HW236957   5.072   7.248   7.948
12205SOL     OW36958   4.396   7.202   7.602
12205SOL    HW136959   4.405   7.212   7.503
12205SOL    HW236960   4.356   7.113   7.623
12206SOL     OW36961   4.918   7.198   7.479
12206SOL    HW136962   4.924   7.105   7.516
12206SOL    HW236963   4.859   7.198   7.399
12207SOL     OW36964   4.640   6.496   7.739
12207SOL    HW136965   4.703   6.534   7.671
12207SOL    HW236966   4.680   6.413   7.778
12208SOL     OW36967   5.228   7.193   7.492
12208SOL    HW136968   5.136   7.230   7.499
12208SOL    HW236969   5.266   7.213   7.402
12209SOL     OW36970   4.314   7.073   7.939
12209SOL    HW136971   4.356   7.015   7.869
12209SOL    HW236972   4.270   7.152   7.895
12210SOL     OW36973   3.979   6.934   7.738
12210SOL    HW136974   3.883   6.935   7.711
12210SOL    HW236975   3.991   6.987   7.822
12211SOL     OW36976   3.799   5.931   7.481
12211SOL    HW136977   3.707   5.903   7.452
12211SOL    HW236978   3.830   6.008   7.425
12212SOL     OW36979   3.796   5.752   7.766
12212SOL    HW136980   3.779   5.835   7.712
12212SOL    HW236981   3.886   5.715   7.744
12213SOL     OW36982   4.907   6.921   7.567
12213SOL    HW136983   4.808   6.910   7.569
12213SOL    HW236984   4.941   6.936   7.660
12214SOL     OW36985   4.949   5.911   7.897
12214SOL    HW136986   5.014   5.837   7.886
12214SOL    HW236987   4.969   5.961   7.981
12215SOL     OW36988   4.583   6.960   7.464
12215SOL    HW136989   4.537   6.975   7.552
12215SOL    HW236990   4.627   7.045   7.434
12216SOL     OW36991   4.807   6.570   7.535
12216SOL    HW136992   4.784   6.623   7.453
12216SOL    HW236993   4.888   6.514   7.516
12217SOL     OW36994   4.152   6.010   7.968
12217SOL    HW136995   4.182   5.938   7.906
12217SOL    HW236996   4.113   5.970   8.051
12218SOL     OW36997   4.494   6.916   7.749
12218SOL    HW136998   4.448   6.829   7.766
12218SOL    HW236999   4.585   6.913   7.790
12219SOL     OW37000   5.076   5.638   7.616
12219SOL    HW137001   5.111   5.597   7.532
12219SOL    HW237002   4.986   5.600   7.636
12220SOL     OW37003   3.763   6.663   7.748
12220SOL    HW137004   3.862   6.652   7.739
12220SOL    HW237005   3.723   6.577   7.780
12221SOL     OW37006   4.599   7.232   7.785
12221SOL    HW137007   4.522   7.197   7.731
12221SOL    HW237008   4.567   7.303   7.847
12222SOL     OW37009   3.954   8.076   0.113
12222SOL    HW137010   3.861   8.074   0.150
12222SOL    HW237011   3.955   8.037   0.021
12223SOL     OW37012   3.949   7.723   0.996
12223SOL    HW137013   3.984   7.706   1.088
12223SOL    HW237014   3.861   7.678   0.984
12224SOL     OW37015   3.743   7.816   0.647
12224SOL    HW137016   3.661   7.859   0.686
12224SOL    HW237017   3.715   7.743   0.584
12225SOL     OW37018   4.859   8.151   0.717
12225SOL    HW137019   4.916   8.229   0.692
12225SOL    HW237020   4.799   8.177   0.793
12226SOL     OW37021   5.479   8.055   0.231
12226SOL    HW137022   5.467   8.042   0.132
12226SOL    HW237023   5.449   7.974   0.280
12227SOL     OW37024   4.492   8.592   1.023
12227SOL    HW137025   4.414   8.609   1.083
12227SOL    HW237026   4.526   8.679   0.987
12228SOL     OW37027   4.574   8.246   1.823
12228SOL    HW137028   4.570   8.322   1.888
12228SOL    HW237029   4.596   8.282   1.732
12229SOL     OW37030   4.409   8.460   0.665
12229SOL    HW137031   4.478   8.444   0.735
12229SOL    HW237032   4.336   8.517   0.703
12230SOL     OW37033   4.410   8.609   1.803
12230SOL    HW137034   4.470   8.688   1.817
12230SOL    HW237035   4.324   8.640   1.762
12231SOL     OW37036   4.162   7.840   1.499
12231SOL    HW137037   4.244   7.784   1.508
12231SOL    HW237038   4.081   7.782   1.503
12232SOL     OW37039   5.327   7.895   0.737
12232SOL    HW137040   5.253   7.941   0.687
12232SOL    HW237041   5.378   7.963   0.790
12233SOL     OW37042   4.851   8.789   1.690
12233SOL    HW137043   4.898   8.789   1.778
12233SOL    HW237044   4.803   8.702   1.679
12234SOL     OW37045   3.964   8.539   0.886
12234SOL    HW137046   3.978   8.455   0.938
12234SOL    HW237047   3.909   8.603   0.941
12235SOL     OW37048   4.330   8.412   0.123
12235SOL    HW137049   4.337   8.496   0.069
12235SOL    HW237050   4.376   8.425   0.211
12236SOL     OW37051   5.318   7.562   1.480
12236SOL    HW137052   5.300   7.629   1.408
12236SOL    HW237053   5.315   7.608   1.569
12237SOL     OW37054   3.846   8.091   0.563
12237SOL    HW137055   3.801   8.003   0.580
12237SOL    HW237056   3.845   8.145   0.647
12238SOL     OW37057   5.413   8.370   0.612
12238SOL    HW137058   5.508   8.341   0.620
12238SOL    HW237059   5.405   8.435   0.537
12239SOL     OW37060   5.365   8.556   0.432
12239SOL    HW137061   5.451   8.558   0.380
12239SOL    HW237062   5.379   8.603   0.520
12240SOL     OW37063   3.837   8.185   1.597
12240SOL    HW137064   3.925   8.172   1.642
12240SOL    HW237065   3.824   8.282   1.575
12241SOL     OW37066   4.337   8.813   0.726
12241SOL    HW137067   4.288   8.726   0.735
12241SOL    HW237068   4.314   8.856   0.639
12242SOL     OW37069   5.017   8.676   1.423
12242SOL    HW137070   5.054   8.603   1.365
12242SOL    HW237071   5.069   8.681   1.508
12243SOL     OW37072   4.533   7.452   0.502
12243SOL    HW137073   4.573   7.543   0.493
12243SOL    HW237074   4.433   7.460   0.508
12244SOL     OW37075   3.921   8.424   1.264
12244SOL    HW137076   4.010   8.379   1.250
12244SOL    HW237077   3.848   8.359   1.245
12245SOL     OW37078   5.249   8.447   0.190
12245SOL    HW137079   5.186   8.371   0.203
12245SOL    HW237080   5.297   8.465   0.276
12246SOL     OW37081   4.041   7.699   1.801
12246SOL    HW137082   4.112   7.770   1.807
12246SOL    HW237083   3.953   7.738   1.829
12247SOL     OW37084   5.190   8.865   0.953
12247SOL    HW137085   5.131   8.871   1.033
12247SOL    HW237086   5.175   8.777   0.907
12248SOL     OW37087   4.322   8.177   0.270
12248SOL    HW137088   4.346   8.246   0.202
12248SOL    HW237089   4.244   8.210   0.324
12249SOL     OW37090   5.005   7.793   0.944
12249SOL    HW137091   4.919   7.743   0.931
12249SOL    HW237092   5.067   7.739   1.000
12250SOL     OW37093   4.531   8.053   1.465
12250SOL    HW137094   4.484   8.050   1.554
12250SOL    HW237095   4.480   7.998   1.399
12251SOL     OW37096   5.118   7.917   1.674
12251SOL    HW137097   5.098   7.960   1.762
12251SOL    HW237098   5.196   7.855   1.683
12252SOL     OW37099   4.697   8.338   1.572
12252SOL    HW137100   4.743   8.254   1.543
12252SOL    HW237101   4.641   8.372   1.497
12253SOL     OW37102   4.715   7.858   1.242
12253SOL    HW137103   4.638   7.892   1.296
12253SOL    HW237104   4.681   7.807   1.163
12254SOL     OW37105   4.765   8.149   0.429
12254SOL    HW137106   4.791   8.145   0.525
12254SOL    HW237107   4.680   8.098   0.415
12255SOL     OW37108   3.800   8.259   0.789
12255SOL    HW137109   3.899   8.247   0.798
12255SOL    HW237110   3.776   8.354   0.810
12256SOL     OW37111   4.589   7.796   0.195
12256SOL    HW137112   4.648   7.859   0.146
12256SOL    HW237113   4.608   7.702   0.166
12257SOL     OW37114   5.443   8.033   1.831
12257SOL    HW137115   5.417   8.122   1.795
12257SOL    HW237116   5.441   7.965   1.758
12258SOL     OW37117   5.086   8.592   0.545
12258SOL    HW137118   5.169   8.563   0.497
12258SOL    HW237119   5.037   8.659   0.489
12259SOL     OW37120   4.274   7.644   0.885
12259SOL    HW137121   4.269   7.639   0.985
12259SOL    HW237122   4.276   7.740   0.856
12260SOL     OW37123   5.519   8.514   0.873
12260SOL    HW137124   5.457   8.499   0.797
12260SOL    HW237125   5.467   8.525   0.958
12261SOL     OW37126   4.951   8.998   1.506
12261SOL    HW137127   4.957   8.921   1.570
12261SOL    HW237128   4.899   8.972   1.426
12262SOL     OW37129   4.045   8.391   0.242
12262SOL    HW137130   4.127   8.430   0.200
12262SOL    HW237131   4.018   8.309   0.193
12263SOL     OW37132   5.182   8.183   0.728
12263SOL    HW137133   5.177   8.118   0.803
12263SOL    HW237134   5.262   8.242   0.741
12264SOL     OW37135   4.185   8.714   1.727
12264SOL    HW137136   4.135   8.715   1.641
12264SOL    HW237137   4.122   8.696   1.803
12265SOL     OW37138   3.926   7.733   1.498
12265SOL    HW137139   3.846   7.793   1.485
12265SOL    HW237140   3.916   7.684   1.584
12266SOL     OW37141   5.124   7.555   0.426
12266SOL    HW137142   5.100   7.518   0.336
12266SOL    HW237143   5.223   7.571   0.430
12267SOL     OW37144   4.106   8.148   0.480
12267SOL    HW137145   4.151   8.058   0.477
12267SOL    HW237146   4.012   8.137   0.513
12268SOL     OW37147   5.271   7.670   1.729
12268SOL    HW137148   5.266   7.707   1.821
12268SOL    HW237149   5.199   7.601   1.717
12269SOL     OW37150   4.338   7.570   0.117
12269SOL    HW137151   4.436   7.548   0.124
12269SOL    HW237152   4.307   7.553   0.024
12270SOL     OW37153   4.505   7.712   1.749
12270SOL    HW137154   4.572   7.651   1.792
12270SOL    HW237155   4.432   7.731   1.814
12271SOL     OW37156   5.075   8.038   1.433
12271SOL    HW137157   5.103   7.995   1.518
12271SOL    HW237158   5.100   8.134   1.434
12272SOL     OW37159   4.527   8.850   0.924
12272SOL    HW137160   4.617   8.864   0.882
12272SOL    HW237161   4.456   8.852   0.853
12273SOL     OW37162   4.646   7.951   0.899
12273SOL    HW137163   4.621   7.942   0.803
12273SOL    HW237164   4.694   7.869   0.930
12274SOL     OW37165   4.263   7.512   0.512
12274SOL    HW137166   4.182   7.513   0.570
12274SOL    HW237167   4.266   7.595   0.457
12275SOL     OW37168   5.158   8.636   0.041
12275SOL    HW137169   5.190   8.560   0.098
12275SOL    HW237170   5.066   8.663   0.071
12276SOL     OW37171   4.021   7.483   0.171
12276SOL    HW137172   4.070   7.567   0.150
12276SOL    HW237173   4.083   7.418   0.216
12277SOL     OW37174   4.659   7.684   0.480
12277SOL    HW137175   4.611   7.725   0.402
12277SOL    HW237176   4.758   7.682   0.461
12278SOL     OW37177   4.800   8.131   1.464
12278SOL    HW137178   4.720   8.070   1.467
12278SOL    HW237179   4.881   8.078   1.440
12279SOL     OW37180   4.183   8.600   0.741
12279SOL    HW137181   4.112   8.573   0.806
12279SOL    HW237182   4.157   8.572   0.648
12280SOL     OW37183   4.756   7.997   0.016
12280SOL    HW137184   4.715   8.079  -0.023
12280SOL    HW237185   4.820   8.023   0.089
12281SOL     OW37186   3.802   8.004   1.386
12281SOL    HW137187   3.894   8.003   1.345
12281SOL    HW237188   3.796   8.078   1.453
12282SOL     OW37189   4.285   7.670   1.147
12282SOL    HW137190   4.323   7.586   1.184
12282SOL    HW237191   4.197   7.689   1.191
12283SOL     OW37192   4.590   7.902   0.642
12283SOL    HW137193   4.558   7.974   0.580
12283SOL    HW237194   4.614   7.821   0.589
12284SOL     OW37195   4.741   7.487   0.753
12284SOL    HW137196   4.669   7.492   0.684
12284SOL    HW237197   4.717   7.418   0.822
12285SOL     OW37198   5.153   8.621   0.867
12285SOL    HW137199   5.098   8.537   0.860
12285SOL    HW237200   5.179   8.650   0.775
12286SOL     OW37201   5.190   8.038   0.992
12286SOL    HW137202   5.160   7.943   0.999
12286SOL    HW237203   5.263   8.054   1.058
12287SOL     OW37204   5.581   8.281   0.377
12287SOL    HW137205   5.623   8.217   0.441
12287SOL    HW237206   5.543   8.230   0.299
12288SOL     OW37207   5.114   8.023   0.078
12288SOL    HW137208   5.060   8.002   0.159
12288SOL    HW237209   5.205   7.982   0.087
12289SOL     OW37210   4.251   7.704   0.328
12289SOL    HW137211   4.278   7.645   0.253
12289SOL    HW237212   4.251   7.799   0.297
12290SOL     OW37213   4.788   8.795   1.340
12290SOL    HW137214   4.708   8.772   1.395
12290SOL    HW237215   4.871   8.769   1.389
12291SOL     OW37216   4.835   8.643   1.100
12291SOL    HW137217   4.795   8.687   1.181
12291SOL    HW237218   4.794   8.680   1.017
12292SOL     OW37219   5.362   8.547   1.079
12292SOL    HW137220   5.367   8.628   1.138
12292SOL    HW237221   5.276   8.549   1.028
12293SOL     OW37222   4.639   7.537   1.402
12293SOL    HW137223   4.664   7.517   1.307
12293SOL    HW237224   4.711   7.593   1.444
12294SOL     OW37225   4.704   8.564   1.719
12294SOL    HW137226   4.605   8.570   1.729
12294SOL    HW237227   4.727   8.484   1.663
12295SOL     OW37228   4.429   8.498   0.368
12295SOL    HW137229   4.415   8.505   0.467
12295SOL    HW237230   4.513   8.447   0.350
12296SOL     OW37231   4.134   8.261   1.251
12296SOL    HW137232   4.220   8.273   1.301
12296SOL    HW237233   4.092   8.174   1.278
12297SOL     OW37234   4.998   7.834   1.262
12297SOL    HW137235   5.019   7.908   1.326
12297SOL    HW237236   4.909   7.851   1.219
12298SOL     OW37237   4.091   8.548   0.501
12298SOL    HW137238   4.084   8.631   0.445
12298SOL    HW237239   4.095   8.468   0.441
12299SOL     OW37240   4.290   7.985   0.865
12299SOL    HW137241   4.302   8.051   0.791
12299SOL    HW237242   4.336   8.019   0.948
12300SOL     OW37243   4.976   8.796   0.388
12300SOL    HW137244   5.026   8.873   0.428
12300SOL    HW237245   4.881   8.798   0.420
12301SOL     OW37246   5.306   8.087   0.472
12301SOL    HW137247   5.275   8.148   0.545
12301SOL    HW237248   5.356   8.139   0.403
12302SOL     OW37249   4.126   8.199   1.598
12302SOL    HW137250   4.194   8.254   1.551
12302SOL    HW237251   4.166   8.111   1.625
12303SOL     OW37252   5.311   8.227   1.670
12303SOL    HW137253   5.219   8.265   1.665
12303SOL    HW237254   5.371   8.274   1.605
12304SOL     OW37255   4.737   7.553   1.770
12304SOL    HW137256   4.743   7.638   1.718
12304SOL    HW237257   4.769   7.477   1.713
12305SOL     OW37258   4.228   7.498   1.740
12305SOL    HW137259   4.186   7.441   1.670
12305SOL    HW237260   4.162   7.567   1.772
12306SOL     OW37261   4.297   8.318   1.029
12306SOL    HW137262   4.341   8.407   1.020
12306SOL    HW237263   4.234   8.318   1.106
12307SOL     OW37264   5.084   8.310   1.045
12307SOL    HW137265   5.009   8.310   0.979
12307SOL    HW237266   5.121   8.218   1.054
12308SOL     OW37267   4.933   7.973   0.275
12308SOL    HW137268   4.946   7.889   0.329
12308SOL    HW237269   4.904   8.047   0.335
12309SOL     OW37270   4.031   7.661   1.231
12309SOL    HW137271   4.008   7.698   1.321
12309SOL    HW237272   4.001   7.566   1.225
12310SOL     OW37273   3.761   8.758   1.282
12310SOL    HW137274   3.814   8.709   1.350
12310SOL    HW237275   3.783   8.856   1.287
12311SOL     OW37276   4.456   8.082   1.064
12311SOL    HW137277   4.515   8.056   0.988
12311SOL    HW237278   4.428   8.178   1.053
12312SOL     OW37279   5.452   8.383   1.854
12312SOL    HW137280   5.406   8.376   1.765
12312SOL    HW237281   5.390   8.427   1.920
12313SOL     OW37282   4.031   7.511   0.618
12313SOL    HW137283   4.020   7.605   0.651
12313SOL    HW237284   4.026   7.448   0.695
12314SOL     OW37285   5.346   7.815   0.374
12314SOL    HW137286   5.348   7.739   0.438
12314SOL    HW237287   5.298   7.892   0.414
12315SOL     OW37288   4.747   8.214   0.966
12315SOL    HW137289   4.762   8.235   1.062
12315SOL    HW237290   4.717   8.119   0.957
12316SOL     OW37291   4.074   8.346   1.804
12316SOL    HW137292   4.150   8.390   1.852
12316SOL    HW237293   4.109   8.299   1.722
12317SOL     OW37294   5.264   7.722   0.125
12317SOL    HW137295   5.203   7.647   0.148
12317SOL    HW237296   5.286   7.774   0.208
12318SOL     OW37297   5.027   8.286   0.042
12318SOL    HW137298   5.061   8.193   0.057
12318SOL    HW237299   5.045   8.313  -0.053
12319SOL     OW37300   4.792   8.781   0.849
12319SOL    HW137301   4.799   8.697   0.794
12319SOL    HW237302   4.854   8.850   0.813
12320SOL     OW37303   4.043   8.258   0.949
12320SOL    HW137304   4.136   8.294   0.954
12320SOL    HW237305   4.037   8.173   1.001
12321SOL     OW37306   4.063   7.957   1.006
12321SOL    HW137307   4.011   7.874   0.989
12321SOL    HW237308   4.140   7.962   0.942
12322SOL     OW37309   4.862   7.828   1.678
12322SOL    HW137310   4.817   7.891   1.742
12322SOL    HW237311   4.955   7.859   1.661
12323SOL     OW37312   4.884   7.655   1.477
12323SOL    HW137313   4.884   7.719   1.554
12323SOL    HW237314   4.912   7.703   1.394
12324SOL     OW37315   3.732   8.774   0.200
12324SOL    HW137316   3.639   8.795   0.169
12324SOL    HW237317   3.742   8.675   0.213
12325SOL     OW37318   4.726   8.244   1.238
12325SOL    HW137319   4.767   8.212   1.324
12325SOL    HW237320   4.630   8.217   1.235
12326SOL     OW37321   3.764   7.992   1.114
12326SOL    HW137322   3.849   7.959   1.073
12326SOL    HW237323   3.777   8.007   1.212
12327SOL     OW37324   3.913   7.968   1.722
12327SOL    HW137325   3.972   7.928   1.652
12327SOL    HW237326   3.855   8.039   1.681
12328SOL     OW37327   5.093   8.398   1.660
12328SOL    HW137328   5.132   8.487   1.680
12328SOL    HW237329   5.103   8.378   1.563
12329SOL     OW37330   4.539   8.020   0.325
12329SOL    HW137331   4.546   7.931   0.279
12329SOL    HW237332   4.445   8.054   0.317
12330SOL     OW37333   5.381   8.052   1.206
12330SOL    HW137334   5.343   7.983   1.268
12330SOL    HW237335   5.463   8.016   1.162
12331SOL     OW37336   4.395   7.912   1.269
12331SOL    HW137337   4.361   7.823   1.239
12331SOL    HW237338   4.421   7.966   1.189
12332SOL     OW37339   4.197   7.948   0.191
12332SOL    HW137340   4.258   8.028   0.195
12332SOL    HW237341   4.102   7.979   0.198
12333SOL     OW37342   3.883   8.585   1.466
12333SOL    HW137343   3.905   8.524   1.542
12333SOL    HW237344   3.893   8.536   1.380
12334SOL     OW37345   5.071   8.507   1.234
12334SOL    HW137346   5.095   8.444   1.160
12334SOL    HW237347   4.981   8.547   1.216
12335SOL     OW37348   5.026   8.303   0.309
12335SOL    HW137349   4.940   8.272   0.351
12335SOL    HW237350   5.022   8.289   0.210
12336SOL     OW37351   3.807   8.706   1.022
12336SOL    HW137352   3.802   8.705   1.122
12336SOL    HW237353   3.724   8.665   0.984
12337SOL     OW37354   4.627   7.534   0.133
12337SOL    HW137355   4.678   7.535   0.047
12337SOL    HW237356   4.683   7.492   0.204
12338SOL     OW37357   5.450   7.583   0.523
12338SOL    HW137358   5.523   7.566   0.456
12338SOL    HW237359   5.419   7.496   0.561
12339SOL     OW37360   5.004   8.375   0.672
12339SOL    HW137361   5.064   8.294   0.674
12339SOL    HW237362   5.044   8.444   0.612
12340SOL     OW37363   4.554   8.721   1.422
12340SOL    HW137364   4.549   8.754   1.517
12340SOL    HW237365   4.468   8.740   1.376
12341SOL     OW37366   5.565   7.623   0.963
12341SOL    HW137367   5.604   7.538   0.927
12341SOL    HW237368   5.467   7.625   0.944
12342SOL     OW37369   3.987   7.774   0.720
12342SOL    HW137370   3.908   7.825   0.686
12342SOL    HW237371   3.978   7.759   0.818
12343SOL     OW37372   4.918   9.060   0.031
12343SOL    HW137373   4.924   8.967   0.068
12343SOL    HW237374   4.859   9.060  -0.049
12344SOL     OW37375   4.546   8.450   1.372
12344SOL    HW137376   4.586   8.449   1.280
12344SOL    HW237377   4.556   8.542   1.412
12345SOL     OW37378   4.640   8.358   0.291
12345SOL    HW137379   4.703   8.396   0.223
12345SOL    HW237380   4.680   8.275   0.330
12346SOL     OW37381   5.228   9.055   0.044
12346SOL    HW137382   5.136   9.092   0.051
12346SOL    HW237383   5.266   9.075  -0.046
12347SOL     OW37384   4.096   8.736   1.490
12347SOL    HW137385   4.083   8.829   1.456
12347SOL    HW237386   4.012   8.684   1.477
12348SOL     OW37387   5.338   8.740   1.289
12348SOL    HW137388   5.398   8.743   1.369
12348SOL    HW237389   5.263   8.804   1.302
12349SOL     OW37390   4.763   8.546   0.696
12349SOL    HW137391   4.693   8.499   0.750
12349SOL    HW237392   4.822   8.478   0.653
12350SOL     OW37393   4.738   7.684   0.971
12350SOL    HW137394   4.730   7.648   0.878
12350SOL    HW237395   4.736   7.608   1.036
12351SOL     OW37396   4.314   8.935   0.491
12351SOL    HW137397   4.356   8.877   0.421
12351SOL    HW237398   4.270   9.014   0.447
12352SOL     OW37399   5.433   7.833   1.381
12352SOL    HW137400   5.506   7.902   1.385
12352SOL    HW237401   5.461   7.758   1.322
12353SOL     OW37402   3.829   8.461   1.726
12353SOL    HW137403   3.752   8.428   1.780
12353SOL    HW237404   3.914   8.431   1.768
12354SOL     OW37405   4.396   7.651   1.489
12354SOL    HW137406   4.486   7.635   1.449
12354SOL    HW237407   4.404   7.656   1.588
12355SOL     OW37408   3.799   7.793   0.033
12355SOL    HW137409   3.707   7.765   0.004
12355SOL    HW237410   3.830   7.870  -0.023
12356SOL     OW37411   5.164   8.304   1.398
12356SOL    HW137412   5.107   8.356   1.335
12356SOL    HW237413   5.260   8.316   1.374
12357SOL     OW37414   3.796   7.614   0.318
12357SOL    HW137415   3.779   7.697   0.264
12357SOL    HW237416   3.886   7.577   0.296
12358SOL     OW37417   4.907   8.783   0.119
12358SOL    HW137418   4.808   8.772   0.121
12358SOL    HW237419   4.941   8.798   0.212
12359SOL     OW37420   4.337   8.290   1.431
12359SOL    HW137421   4.393   8.371   1.414
12359SOL    HW237422   4.396   8.210   1.434
12360SOL     OW37423   4.440   8.013   1.708
12360SOL    HW137424   4.459   8.078   1.782
12360SOL    HW237425   4.500   7.933   1.717
12361SOL     OW37426   5.174   8.668   1.633
12361SOL    HW137427   5.165   8.658   1.732
12361SOL    HW237428   5.270   8.661   1.607
12362SOL     OW37429   4.114   9.189   1.560
12362SOL    HW137430   4.023   9.230   1.558
12362SOL    HW237431   4.107   9.095   1.592
12363SOL     OW37432   5.398   8.331   1.254
12363SOL    HW137433   5.371   8.242   1.217
12363SOL    HW237434   5.399   8.399   1.181
12364SOL     OW37435   4.949   7.773   0.449
12364SOL    HW137436   5.014   7.699   0.438
12364SOL    HW237437   4.969   7.823   0.533
12365SOL     OW37438   4.318   8.193   0.652
12365SOL    HW137439   4.368   8.278   0.633
12365SOL    HW237440   4.230   8.195   0.604
12366SOL     OW37441   5.501   7.790   1.642
12366SOL    HW137442   5.484   7.821   1.548
12366SOL    HW237443   5.417   7.753   1.680
12367SOL     OW37444   5.454   8.382   1.517
12367SOL    HW137445   5.492   8.473   1.532
12367SOL    HW237446   5.446   8.365   1.418
12368SOL     OW37447   4.583   8.404   0.861
12368SOL    HW137448   4.637   8.335   0.909
12368SOL    HW237449   4.551   8.473   0.927
12369SOL     OW37450   4.807   8.432   0.087
12369SOL    HW137451   4.784   8.485   0.005
12369SOL    HW237452   4.888   8.376   0.068
12370SOL     OW37453   3.945   8.762   1.844
12370SOL    HW137454   3.880   8.689   1.823
12370SOL    HW237455   3.949   8.776   1.942
12371SOL     OW37456   3.803   8.688   0.653
12371SOL    HW137457   3.802   8.641   0.741
12371SOL    HW237458   3.885   8.660   0.602
12372SOL     OW37459   4.396   8.839   1.624
12372SOL    HW137460   4.318   8.789   1.662
12372SOL    HW237461   4.393   8.934   1.655
12373SOL     OW37462   5.548   7.640   1.227
12373SOL    HW137463   5.544   7.550   1.271
12373SOL    HW237464   5.551   7.629   1.128
12374SOL     OW37465   4.152   7.872   0.520
12374SOL    HW137466   4.182   7.800   0.458
12374SOL    HW237467   4.113   7.832   0.603
12375SOL     OW37468   5.429   8.935   1.104
12375SOL    HW137469   5.336   8.910   1.077
12375SOL    HW237470   5.455   8.885   1.186
12376SOL     OW37471   4.041   7.995   1.280
12376SOL    HW137472   4.079   7.936   1.352
12376SOL    HW237473   4.081   7.969   1.192
12377SOL     OW37474   4.536   9.034   0.687
12377SOL    HW137475   4.568   9.044   0.593
12377SOL    HW237476   4.457   8.972   0.689
12378SOL     OW37477   5.148   7.662   1.112
12378SOL    HW137478   5.200   7.597   1.167
12378SOL    HW237479   5.099   7.725   1.173
12379SOL     OW37480   4.725   7.482   1.154
12379SOL    HW137481   4.662   7.410   1.123
12379SOL    HW237482   4.818   7.446   1.154
12380SOL     OW37483   4.494   8.778   0.301
12380SOL    HW137484   4.448   8.691   0.318
12380SOL    HW237485   4.585   8.775   0.342
12381SOL     OW37486   5.076   7.500   0.168
12381SOL    HW137487   5.111   7.459   0.084
12381SOL    HW237488   4.986   7.462   0.188
12382SOL     OW37489   5.024   7.901   0.691
12382SOL    HW137490   4.965   7.981   0.695
12382SOL    HW237491   5.039   7.866   0.784
12383SOL     OW37492   5.317   7.669   0.882
12383SOL    HW137493   5.233   7.668   0.936
12383SOL    HW237494   5.319   7.752   0.826
12384SOL     OW37495   3.763   8.525   0.300
12384SOL    HW137496   3.862   8.514   0.291
12384SOL    HW237497   3.723   8.439   0.332
12385SOL     OW37498   3.954   8.076   1.975
12385SOL    HW137499   3.861   8.074   2.012
12385SOL    HW237500   3.955   8.037   1.883
12386SOL     OW37501   3.949   7.723   2.858
12386SOL    HW137502   3.984   7.706   2.950
12386SOL    HW237503   3.861   7.678   2.846
12387SOL     OW37504   3.743   7.816   2.509
12387SOL    HW137505   3.661   7.859   2.548
12387SOL    HW237506   3.715   7.743   2.446
12388SOL     OW37507   4.859   8.151   2.579
12388SOL    HW137508   4.916   8.229   2.554
12388SOL    HW237509   4.799   8.177   2.655
12389SOL     OW37510   5.479   8.055   2.093
12389SOL    HW137511   5.467   8.042   1.994
12389SOL    HW237512   5.449   7.974   2.142
12390SOL     OW37513   4.492   8.592   2.885
12390SOL    HW137514   4.414   8.609   2.945
12390SOL    HW237515   4.526   8.679   2.849
12391SOL     OW37516   4.574   8.246   3.685
12391SOL    HW137517   4.570   8.322   3.750
12391SOL    HW237518   4.596   8.282   3.594
12392SOL     OW37519   4.409   8.460   2.527
12392SOL    HW137520   4.478   8.444   2.597
12392SOL    HW237521   4.336   8.517   2.565
12393SOL     OW37522   4.410   8.609   3.665
12393SOL    HW137523   4.470   8.688   3.679
12393SOL    HW237524   4.324   8.640   3.624
12394SOL     OW37525   4.162   7.840   3.361
12394SOL    HW137526   4.244   7.784   3.370
12394SOL    HW237527   4.081   7.782   3.365
12395SOL     OW37528   5.327   7.895   2.599
12395SOL    HW137529   5.253   7.941   2.549
12395SOL    HW237530   5.378   7.963   2.652
12396SOL     OW37531   4.851   8.789   3.552
12396SOL    HW137532   4.898   8.789   3.640
12396SOL    HW237533   4.803   8.702   3.541
12397SOL     OW37534   3.964   8.539   2.748
12397SOL    HW137535   3.978   8.455   2.800
12397SOL    HW237536   3.909   8.603   2.803
12398SOL     OW37537   4.330   8.412   1.985
12398SOL    HW137538   4.337   8.496   1.931
12398SOL    HW237539   4.376   8.425   2.073
12399SOL     OW37540   5.318   7.562   3.342
12399SOL    HW137541   5.300   7.629   3.270
12399SOL    HW237542   5.315   7.608   3.431
12400SOL     OW37543   3.846   8.091   2.425
12400SOL    HW137544   3.801   8.003   2.442
12400SOL    HW237545   3.845   8.145   2.509
12401SOL     OW37546   5.413   8.370   2.474
12401SOL    HW137547   5.508   8.341   2.482
12401SOL    HW237548   5.405   8.435   2.399
12402SOL     OW37549   5.365   8.556   2.294
12402SOL    HW137550   5.451   8.558   2.242
12402SOL    HW237551   5.379   8.603   2.382
12403SOL     OW37552   3.837   8.185   3.459
12403SOL    HW137553   3.925   8.172   3.504
12403SOL    HW237554   3.824   8.282   3.437
12404SOL     OW37555   4.337   8.813   2.588
12404SOL    HW137556   4.288   8.726   2.597
12404SOL    HW237557   4.314   8.856   2.501
12405SOL     OW37558   5.017   8.676   3.285
12405SOL    HW137559   5.054   8.603   3.227
12405SOL    HW237560   5.069   8.681   3.370
12406SOL     OW37561   4.533   7.452   2.364
12406SOL    HW137562   4.573   7.543   2.355
12406SOL    HW237563   4.433   7.460   2.370
12407SOL     OW37564   3.921   8.424   3.126
12407SOL    HW137565   4.010   8.379   3.112
12407SOL    HW237566   3.848   8.359   3.107
12408SOL     OW37567   5.249   8.447   2.052
12408SOL    HW137568   5.186   8.371   2.065
12408SOL    HW237569   5.297   8.465   2.138
12409SOL     OW37570   4.041   7.699   3.663
12409SOL    HW137571   4.112   7.770   3.669
12409SOL    HW237572   3.953   7.738   3.691
12410SOL     OW37573   5.190   8.865   2.815
12410SOL    HW137574   5.131   8.871   2.895
12410SOL    HW237575   5.175   8.777   2.769
12411SOL     OW37576   4.322   8.177   2.132
12411SOL    HW137577   4.346   8.246   2.064
12411SOL    HW237578   4.244   8.210   2.186
12412SOL     OW37579   5.005   7.793   2.806
12412SOL    HW137580   4.919   7.743   2.793
12412SOL    HW237581   5.067   7.739   2.862
12413SOL     OW37582   4.531   8.053   3.327
12413SOL    HW137583   4.484   8.050   3.416
12413SOL    HW237584   4.480   7.998   3.261
12414SOL     OW37585   5.118   7.917   3.536
12414SOL    HW137586   5.098   7.960   3.624
12414SOL    HW237587   5.196   7.855   3.545
12415SOL     OW37588   4.697   8.338   3.434
12415SOL    HW137589   4.743   8.254   3.405
12415SOL    HW237590   4.641   8.372   3.359
12416SOL     OW37591   4.715   7.858   3.104
12416SOL    HW137592   4.638   7.892   3.158
12416SOL    HW237593   4.681   7.807   3.025
12417SOL     OW37594   4.765   8.149   2.291
12417SOL    HW137595   4.791   8.145   2.387
12417SOL    HW237596   4.680   8.098   2.277
12418SOL     OW37597   3.800   8.259   2.651
12418SOL    HW137598   3.899   8.247   2.660
12418SOL    HW237599   3.776   8.354   2.672
12419SOL     OW37600   4.589   7.796   2.057
12419SOL    HW137601   4.648   7.859   2.008
12419SOL    HW237602   4.608   7.702   2.028
12420SOL     OW37603   5.443   8.033   3.693
12420SOL    HW137604   5.417   8.122   3.657
12420SOL    HW237605   5.441   7.965   3.620
12421SOL     OW37606   5.086   8.592   2.407
12421SOL    HW137607   5.169   8.563   2.359
12421SOL    HW237608   5.037   8.659   2.351
12422SOL     OW37609   4.274   7.644   2.747
12422SOL    HW137610   4.269   7.639   2.847
12422SOL    HW237611   4.276   7.740   2.718
12423SOL     OW37612   5.519   8.514   2.735
12423SOL    HW137613   5.457   8.499   2.659
12423SOL    HW237614   5.467   8.525   2.820
12424SOL     OW37615   4.951   8.998   3.368
12424SOL    HW137616   4.957   8.921   3.432
12424SOL    HW237617   4.899   8.972   3.288
12425SOL     OW37618   4.045   8.391   2.104
12425SOL    HW137619   4.127   8.430   2.062
12425SOL    HW237620   4.018   8.309   2.055
12426SOL     OW37621   5.182   8.183   2.590
12426SOL    HW137622   5.177   8.118   2.665
12426SOL    HW237623   5.262   8.242   2.603
12427SOL     OW37624   4.185   8.714   3.589
12427SOL    HW137625   4.135   8.715   3.503
12427SOL    HW237626   4.122   8.696   3.665
12428SOL     OW37627   3.926   7.733   3.360
12428SOL    HW137628   3.846   7.793   3.347
12428SOL    HW237629   3.916   7.684   3.446
12429SOL     OW37630   5.124   7.555   2.288
12429SOL    HW137631   5.100   7.518   2.198
12429SOL    HW237632   5.223   7.571   2.292
12430SOL     OW37633   4.106   8.148   2.342
12430SOL    HW137634   4.151   8.058   2.339
12430SOL    HW237635   4.012   8.137   2.375
12431SOL     OW37636   5.271   7.670   3.591
12431SOL    HW137637   5.266   7.707   3.683
12431SOL    HW237638   5.199   7.601   3.579
12432SOL     OW37639   4.338   7.570   1.979
12432SOL    HW137640   4.436   7.548   1.986
12432SOL    HW237641   4.307   7.553   1.886
12433SOL     OW37642   4.505   7.712   3.611
12433SOL    HW137643   4.572   7.651   3.654
12433SOL    HW237644   4.432   7.731   3.676
12434SOL     OW37645   5.075   8.038   3.295
12434SOL    HW137646   5.103   7.995   3.380
12434SOL    HW237647   5.100   8.134   3.296
12435SOL     OW37648   4.527   8.850   2.786
12435SOL    HW137649   4.617   8.864   2.744
12435SOL    HW237650   4.456   8.852   2.715
12436SOL     OW37651   4.646   7.951   2.761
12436SOL    HW137652   4.621   7.942   2.665
12436SOL    HW237653   4.694   7.869   2.792
12437SOL     OW37654   4.263   7.512   2.374
12437SOL    HW137655   4.182   7.513   2.432
12437SOL    HW237656   4.266   7.595   2.319
12438SOL     OW37657   5.158   8.636   1.903
12438SOL    HW137658   5.190   8.560   1.960
12438SOL    HW237659   5.066   8.663   1.933
12439SOL     OW37660   4.021   7.483   2.033
12439SOL    HW137661   4.070   7.567   2.012
12439SOL    HW237662   4.083   7.418   2.078
12440SOL     OW37663   4.659   7.684   2.342
12440SOL    HW137664   4.611   7.725   2.264
12440SOL    HW237665   4.758   7.682   2.323
12441SOL     OW37666   4.800   8.131   3.326
12441SOL    HW137667   4.720   8.070   3.329
12441SOL    HW237668   4.881   8.078   3.302
12442SOL     OW37669   4.183   8.600   2.603
12442SOL    HW137670   4.112   8.573   2.668
12442SOL    HW237671   4.157   8.572   2.510
12443SOL     OW37672   4.756   7.997   1.878
12443SOL    HW137673   4.715   8.079   1.839
12443SOL    HW237674   4.820   8.023   1.951
12444SOL     OW37675   3.802   8.004   3.248
12444SOL    HW137676   3.894   8.003   3.207
12444SOL    HW237677   3.796   8.078   3.315
12445SOL     OW37678   4.285   7.670   3.009
12445SOL    HW137679   4.323   7.586   3.046
12445SOL    HW237680   4.197   7.689   3.053
12446SOL     OW37681   4.590   7.902   2.504
12446SOL    HW137682   4.558   7.974   2.442
12446SOL    HW237683   4.614   7.821   2.451
12447SOL     OW37684   4.741   7.487   2.615
12447SOL    HW137685   4.669   7.492   2.546
12447SOL    HW237686   4.717   7.418   2.684
12448SOL     OW37687   5.153   8.621   2.729
12448SOL    HW137688   5.098   8.537   2.722
12448SOL    HW237689   5.179   8.650   2.637
12449SOL     OW37690   5.190   8.038   2.854
12449SOL    HW137691   5.160   7.943   2.861
12449SOL    HW237692   5.263   8.054   2.920
12450SOL     OW37693   5.581   8.281   2.239
12450SOL    HW137694   5.623   8.217   2.303
12450SOL    HW237695   5.543   8.230   2.161
12451SOL     OW37696   4.212   8.833   2.036
12451SOL    HW137697   4.125   8.818   2.083
12451SOL    HW237698   4.195   8.859   1.941
12452SOL     OW37699   5.114   8.023   1.940
12452SOL    HW137700   5.060   8.002   2.021
12452SOL    HW237701   5.205   7.982   1.949
12453SOL     OW37702   4.251   7.704   2.190
12453SOL    HW137703   4.278   7.645   2.115
12453SOL    HW237704   4.251   7.799   2.159
12454SOL     OW37705   4.788   8.795   3.202
12454SOL    HW137706   4.708   8.772   3.257
12454SOL    HW237707   4.871   8.769   3.251
12455SOL     OW37708   4.835   8.643   2.962
12455SOL    HW137709   4.795   8.687   3.043
12455SOL    HW237710   4.794   8.680   2.879
12456SOL     OW37711   5.362   8.547   2.941
12456SOL    HW137712   5.367   8.628   3.000
12456SOL    HW237713   5.276   8.549   2.890
12457SOL     OW37714   4.639   7.537   3.264
12457SOL    HW137715   4.664   7.517   3.169
12457SOL    HW237716   4.711   7.593   3.306
12458SOL     OW37717   4.704   8.564   3.581
12458SOL    HW137718   4.605   8.570   3.591
12458SOL    HW237719   4.727   8.484   3.525
12459SOL     OW37720   4.429   8.498   2.230
12459SOL    HW137721   4.415   8.505   2.329
12459SOL    HW237722   4.513   8.447   2.212
12460SOL     OW37723   4.134   8.261   3.113
12460SOL    HW137724   4.220   8.273   3.163
12460SOL    HW237725   4.092   8.174   3.140
12461SOL     OW37726   4.998   7.834   3.124
12461SOL    HW137727   5.019   7.908   3.188
12461SOL    HW237728   4.909   7.851   3.081
12462SOL     OW37729   4.091   8.548   2.363
12462SOL    HW137730   4.084   8.631   2.307
12462SOL    HW237731   4.095   8.468   2.303
12463SOL     OW37732   4.290   7.985   2.727
12463SOL    HW137733   4.302   8.051   2.653
12463SOL    HW237734   4.336   8.019   2.810
12464SOL     OW37735   4.976   8.796   2.250
12464SOL    HW137736   5.026   8.873   2.290
12464SOL    HW237737   4.881   8.798   2.282
12465SOL     OW37738   5.306   8.087   2.334
12465SOL    HW137739   5.275   8.148   2.407
12465SOL    HW237740   5.356   8.139   2.265
12466SOL     OW37741   4.126   8.199   3.460
12466SOL    HW137742   4.194   8.254   3.413
12466SOL    HW237743   4.166   8.111   3.487
12467SOL     OW37744   5.311   8.227   3.532
12467SOL    HW137745   5.219   8.265   3.527
12467SOL    HW237746   5.371   8.274   3.467
12468SOL     OW37747   4.228   7.498   3.602
12468SOL    HW137748   4.186   7.441   3.532
12468SOL    HW237749   4.162   7.567   3.634
12469SOL     OW37750   4.297   8.318   2.891
12469SOL    HW137751   4.341   8.407   2.882
12469SOL    HW237752   4.234   8.318   2.968
12470SOL     OW37753   5.084   8.310   2.907
12470SOL    HW137754   5.009   8.310   2.841
12470SOL    HW237755   5.121   8.218   2.916
12471SOL     OW37756   4.933   7.973   2.137
12471SOL    HW137757   4.946   7.889   2.191
12471SOL    HW237758   4.904   8.047   2.197
12472SOL     OW37759   4.031   7.661   3.093
12472SOL    HW137760   4.008   7.698   3.183
12472SOL    HW237761   4.001   7.566   3.087
12473SOL     OW37762   3.761   8.758   3.144
12473SOL    HW137763   3.814   8.709   3.212
12473SOL    HW237764   3.783   8.856   3.149
12474SOL     OW37765   4.456   8.082   2.926
12474SOL    HW137766   4.515   8.056   2.850
12474SOL    HW237767   4.428   8.178   2.915
12475SOL     OW37768   5.452   8.383   3.716
12475SOL    HW137769   5.406   8.376   3.627
12475SOL    HW237770   5.390   8.427   3.782
12476SOL     OW37771   4.031   7.511   2.480
12476SOL    HW137772   4.020   7.605   2.513
12476SOL    HW237773   4.026   7.448   2.557
12477SOL     OW37774   5.346   7.815   2.236
12477SOL    HW137775   5.348   7.739   2.300
12477SOL    HW237776   5.298   7.892   2.276
12478SOL     OW37777   4.747   8.214   2.828
12478SOL    HW137778   4.762   8.235   2.924
12478SOL    HW237779   4.717   8.119   2.819
12479SOL     OW37780   4.074   8.346   3.666
12479SOL    HW137781   4.150   8.390   3.714
12479SOL    HW237782   4.109   8.299   3.584
12480SOL     OW37783   5.264   7.722   1.987
12480SOL    HW137784   5.203   7.647   2.010
12480SOL    HW237785   5.286   7.774   2.070
12481SOL     OW37786   5.027   8.286   1.904
12481SOL    HW137787   5.061   8.193   1.919
12481SOL    HW237788   5.045   8.313   1.809
12482SOL     OW37789   4.792   8.781   2.711
12482SOL    HW137790   4.799   8.697   2.656
12482SOL    HW237791   4.854   8.850   2.675
12483SOL     OW37792   4.043   8.258   2.811
12483SOL    HW137793   4.136   8.294   2.816
12483SOL    HW237794   4.037   8.173   2.863
12484SOL     OW37795   4.063   7.957   2.868
12484SOL    HW137796   4.011   7.874   2.851
12484SOL    HW237797   4.140   7.962   2.804
12485SOL     OW37798   4.862   7.828   3.540
12485SOL    HW137799   4.817   7.891   3.604
12485SOL    HW237800   4.955   7.859   3.523
12486SOL     OW37801   4.884   7.655   3.339
12486SOL    HW137802   4.884   7.719   3.416
12486SOL    HW237803   4.912   7.703   3.256
12487SOL     OW37804   3.732   8.774   2.062
12487SOL    HW137805   3.639   8.795   2.031
12487SOL    HW237806   3.742   8.675   2.075
12488SOL     OW37807   4.726   8.244   3.100
12488SOL    HW137808   4.767   8.212   3.186
12488SOL    HW237809   4.630   8.217   3.097
12489SOL     OW37810   3.764   7.992   2.976
12489SOL    HW137811   3.849   7.959   2.935
12489SOL    HW237812   3.777   8.007   3.074
12490SOL     OW37813   3.913   7.968   3.584
12490SOL    HW137814   3.972   7.928   3.514
12490SOL    HW237815   3.855   8.039   3.543
12491SOL     OW37816   5.093   8.398   3.522
12491SOL    HW137817   5.132   8.487   3.542
12491SOL    HW237818   5.103   8.378   3.425
12492SOL     OW37819   4.539   8.020   2.187
12492SOL    HW137820   4.546   7.931   2.141
12492SOL    HW237821   4.445   8.054   2.179
12493SOL     OW37822   5.381   8.052   3.068
12493SOL    HW137823   5.343   7.983   3.130
12493SOL    HW237824   5.463   8.016   3.024
12494SOL     OW37825   4.395   7.912   3.131
12494SOL    HW137826   4.361   7.823   3.101
12494SOL    HW237827   4.421   7.966   3.051
12495SOL     OW37828   4.197   7.948   2.053
12495SOL    HW137829   4.258   8.028   2.057
12495SOL    HW237830   4.102   7.979   2.060
12496SOL     OW37831   3.883   8.585   3.328
12496SOL    HW137832   3.905   8.524   3.404
12496SOL    HW237833   3.893   8.536   3.242
12497SOL     OW37834   5.071   8.507   3.096
12497SOL    HW137835   5.095   8.444   3.022
12497SOL    HW237836   4.981   8.547   3.078
12498SOL     OW37837   5.026   8.303   2.171
12498SOL    HW137838   4.940   8.272   2.213
12498SOL    HW237839   5.022   8.289   2.072
12499SOL     OW37840   3.807   8.706   2.884
12499SOL    HW137841   3.802   8.705   2.984
12499SOL    HW237842   3.724   8.665   2.846
12500SOL     OW37843   5.450   7.583   2.385
12500SOL    HW137844   5.523   7.566   2.318
12500SOL    HW237845   5.419   7.496   2.423
12501SOL     OW37846   5.004   8.375   2.534
12501SOL    HW137847   5.064   8.294   2.536
12501SOL    HW237848   5.044   8.444   2.474
12502SOL     OW37849   4.554   8.721   3.284
12502SOL    HW137850   4.549   8.754   3.379
12502SOL    HW237851   4.468   8.740   3.238
12503SOL     OW37852   5.565   7.623   2.825
12503SOL    HW137853   5.604   7.538   2.789
12503SOL    HW237854   5.467   7.625   2.806
12504SOL     OW37855   3.987   7.774   2.582
12504SOL    HW137856   3.908   7.825   2.548
12504SOL    HW237857   3.978   7.759   2.680
12505SOL     OW37858   4.918   9.060   1.893
12505SOL    HW137859   4.924   8.967   1.930
12505SOL    HW237860   4.859   9.060   1.813
12506SOL     OW37861   4.546   8.450   3.234
12506SOL    HW137862   4.586   8.449   3.142
12506SOL    HW237863   4.556   8.542   3.274
12507SOL     OW37864   4.640   8.358   2.153
12507SOL    HW137865   4.703   8.396   2.085
12507SOL    HW237866   4.680   8.275   2.192
12508SOL     OW37867   4.096   8.736   3.352
12508SOL    HW137868   4.083   8.829   3.318
12508SOL    HW237869   4.012   8.684   3.339
12509SOL     OW37870   5.338   8.740   3.151
12509SOL    HW137871   5.398   8.743   3.231
12509SOL    HW237872   5.263   8.804   3.164
12510SOL     OW37873   4.763   8.546   2.558
12510SOL    HW137874   4.693   8.499   2.612
12510SOL    HW237875   4.822   8.478   2.515
12511SOL     OW37876   4.738   7.684   2.833
12511SOL    HW137877   4.730   7.648   2.740
12511SOL    HW237878   4.736   7.608   2.898
12512SOL     OW37879   4.314   8.935   2.353
12512SOL    HW137880   4.356   8.877   2.283
12512SOL    HW237881   4.270   9.014   2.309
12513SOL     OW37882   5.433   7.833   3.243
12513SOL    HW137883   5.506   7.902   3.247
12513SOL    HW237884   5.461   7.758   3.184
12514SOL     OW37885   3.829   8.461   3.588
12514SOL    HW137886   3.752   8.428   3.642
12514SOL    HW237887   3.914   8.431   3.630
12515SOL     OW37888   4.396   7.651   3.351
12515SOL    HW137889   4.486   7.635   3.311
12515SOL    HW237890   4.404   7.656   3.450
12516SOL     OW37891   3.799   7.793   1.895
12516SOL    HW137892   3.707   7.765   1.866
12516SOL    HW237893   3.830   7.870   1.839
12517SOL     OW37894   5.164   8.304   3.260
12517SOL    HW137895   5.107   8.356   3.197
12517SOL    HW237896   5.260   8.316   3.236
12518SOL     OW37897   3.796   7.614   2.180
12518SOL    HW137898   3.779   7.697   2.126
12518SOL    HW237899   3.886   7.577   2.158
12519SOL     OW37900   4.907   8.783   1.981
12519SOL    HW137901   4.808   8.772   1.983
12519SOL    HW237902   4.941   8.798   2.074
12520SOL     OW37903   4.337   8.290   3.293
12520SOL    HW137904   4.393   8.371   3.276
12520SOL    HW237905   4.396   8.210   3.296
12521SOL     OW37906   4.440   8.013   3.570
12521SOL    HW137907   4.459   8.078   3.644
12521SOL    HW237908   4.500   7.933   3.579
12522SOL     OW37909   5.174   8.668   3.495
12522SOL    HW137910   5.165   8.658   3.594
12522SOL    HW237911   5.270   8.661   3.469
12523SOL     OW37912   4.114   9.189   3.422
12523SOL    HW137913   4.023   9.230   3.420
12523SOL    HW237914   4.107   9.095   3.454
12524SOL     OW37915   5.398   8.331   3.116
12524SOL    HW137916   5.371   8.242   3.079
12524SOL    HW237917   5.399   8.399   3.043
12525SOL     OW37918   4.949   7.773   2.311
12525SOL    HW137919   5.014   7.699   2.300
12525SOL    HW237920   4.969   7.823   2.395
12526SOL     OW37921   4.318   8.193   2.514
12526SOL    HW137922   4.368   8.278   2.495
12526SOL    HW237923   4.230   8.195   2.466
12527SOL     OW37924   5.501   7.790   3.504
12527SOL    HW137925   5.484   7.821   3.410
12527SOL    HW237926   5.417   7.753   3.542
12528SOL     OW37927   5.454   8.382   3.379
12528SOL    HW137928   5.492   8.473   3.394
12528SOL    HW237929   5.446   8.365   3.280
12529SOL     OW37930   4.583   8.404   2.723
12529SOL    HW137931   4.637   8.335   2.771
12529SOL    HW237932   4.551   8.473   2.789
12530SOL     OW37933   4.807   8.432   1.949
12530SOL    HW137934   4.784   8.485   1.867
12530SOL    HW237935   4.888   8.376   1.930
12531SOL     OW37936   3.945   8.762   3.706
12531SOL    HW137937   3.880   8.689   3.685
12531SOL    HW237938   3.949   8.776   3.804
12532SOL     OW37939   3.803   8.688   2.515
12532SOL    HW137940   3.802   8.641   2.603
12532SOL    HW237941   3.885   8.660   2.464
12533SOL     OW37942   4.396   8.839   3.486
12533SOL    HW137943   4.318   8.789   3.524
12533SOL    HW237944   4.393   8.934   3.517
12534SOL     OW37945   5.548   7.640   3.089
12534SOL    HW137946   5.544   7.550   3.133
12534SOL    HW237947   5.551   7.629   2.990
12535SOL     OW37948   4.152   7.872   2.382
12535SOL    HW137949   4.182   7.800   2.320
12535SOL    HW237950   4.113   7.832   2.465
12536SOL     OW37951   5.429   8.935   2.966
12536SOL    HW137952   5.336   8.910   2.939
12536SOL    HW237953   5.455   8.885   3.048
12537SOL     OW37954   4.041   7.995   3.142
12537SOL    HW137955   4.079   7.936   3.214
12537SOL    HW237956   4.081   7.969   3.054
12538SOL     OW37957   4.536   9.034   2.549
12538SOL    HW137958   4.568   9.044   2.455
12538SOL    HW237959   4.457   8.972   2.551
12539SOL     OW37960   5.148   7.662   2.974
12539SOL    HW137961   5.200   7.597   3.029
12539SOL    HW237962   5.099   7.725   3.035
12540SOL     OW37963   4.725   7.482   3.016
12540SOL    HW137964   4.662   7.410   2.985
12540SOL    HW237965   4.818   7.446   3.016
12541SOL     OW37966   4.494   8.778   2.163
12541SOL    HW137967   4.448   8.691   2.180
12541SOL    HW237968   4.585   8.775   2.204
12542SOL     OW37969   5.076   7.500   2.030
12542SOL    HW137970   5.111   7.459   1.946
12542SOL    HW237971   4.986   7.462   2.050
12543SOL     OW37972   5.024   7.901   2.553
12543SOL    HW137973   4.965   7.981   2.557
12543SOL    HW237974   5.039   7.866   2.646
12544SOL     OW37975   5.317   7.669   2.744
12544SOL    HW137976   5.233   7.668   2.798
12544SOL    HW237977   5.319   7.752   2.688
12545SOL     OW37978   3.763   8.525   2.162
12545SOL    HW137979   3.862   8.514   2.153
12545SOL    HW237980   3.723   8.439   2.194
12546SOL     OW37981   3.954   8.076   3.837
12546SOL    HW137982   3.861   8.074   3.874
12546SOL    HW237983   3.955   8.037   3.745
12547SOL     OW37984   3.743   7.816   4.371
12547SOL    HW137985   3.661   7.859   4.410
12547SOL    HW237986   3.715   7.743   4.308
12548SOL     OW37987   4.859   8.151   4.441
12548SOL    HW137988   4.916   8.229   4.416
12548SOL    HW237989   4.799   8.177   4.517
12549SOL     OW37990   5.479   8.055   3.955
12549SOL    HW137991   5.467   8.042   3.856
12549SOL    HW237992   5.449   7.974   4.004
12550SOL     OW37993   4.492   8.592   4.747
12550SOL    HW137994   4.414   8.609   4.807
12550SOL    HW237995   4.526   8.679   4.711
12551SOL     OW37996   4.574   8.246   5.547
12551SOL    HW137997   4.570   8.322   5.612
12551SOL    HW237998   4.596   8.282   5.456
12552SOL     OW37999   4.409   8.460   4.389
12552SOL    HW138000   4.478   8.444   4.459
12552SOL    HW238001   4.336   8.517   4.427
12553SOL     OW38002   4.410   8.609   5.527
12553SOL    HW138003   4.470   8.688   5.541
12553SOL    HW238004   4.324   8.640   5.486
12554SOL     OW38005   4.162   7.840   5.223
12554SOL    HW138006   4.244   7.784   5.232
12554SOL    HW238007   4.081   7.782   5.227
12555SOL     OW38008   5.327   7.895   4.461
12555SOL    HW138009   5.253   7.941   4.411
12555SOL    HW238010   5.378   7.963   4.514
12556SOL     OW38011   4.851   8.789   5.414
12556SOL    HW138012   4.898   8.789   5.502
12556SOL    HW238013   4.803   8.702   5.403
12557SOL     OW38014   3.964   8.539   4.610
12557SOL    HW138015   3.978   8.455   4.662
12557SOL    HW238016   3.909   8.603   4.665
12558SOL     OW38017   4.330   8.412   3.847
12558SOL    HW138018   4.337   8.496   3.793
12558SOL    HW238019   4.376   8.425   3.935
12559SOL     OW38020   5.318   7.562   5.204
12559SOL    HW138021   5.300   7.629   5.132
12559SOL    HW238022   5.315   7.608   5.293
12560SOL     OW38023   3.846   8.091   4.287
12560SOL    HW138024   3.801   8.003   4.304
12560SOL    HW238025   3.845   8.145   4.371
12561SOL     OW38026   5.413   8.370   4.336
12561SOL    HW138027   5.508   8.341   4.344
12561SOL    HW238028   5.405   8.435   4.261
12562SOL     OW38029   5.365   8.556   4.156
12562SOL    HW138030   5.451   8.558   4.104
12562SOL    HW238031   5.379   8.603   4.244
12563SOL     OW38032   3.837   8.185   5.321
12563SOL    HW138033   3.925   8.172   5.366
12563SOL    HW238034   3.824   8.282   5.299
12564SOL     OW38035   4.337   8.813   4.450
12564SOL    HW138036   4.288   8.726   4.459
12564SOL    HW238037   4.314   8.856   4.363
12565SOL     OW38038   5.017   8.676   5.147
12565SOL    HW138039   5.054   8.603   5.089
12565SOL    HW238040   5.069   8.681   5.232
12566SOL     OW38041   4.533   7.452   4.226
12566SOL    HW138042   4.573   7.543   4.217
12566SOL    HW238043   4.433   7.460   4.232
12567SOL     OW38044   3.921   8.424   4.988
12567SOL    HW138045   4.010   8.379   4.974
12567SOL    HW238046   3.848   8.359   4.969
12568SOL     OW38047   5.249   8.447   3.914
12568SOL    HW138048   5.186   8.371   3.927
12568SOL    HW238049   5.297   8.465   4.000
12569SOL     OW38050   4.041   7.699   5.525
12569SOL    HW138051   4.112   7.770   5.531
12569SOL    HW238052   3.953   7.738   5.553
12570SOL     OW38053   5.190   8.865   4.677
12570SOL    HW138054   5.131   8.871   4.757
12570SOL    HW238055   5.175   8.777   4.631
12571SOL     OW38056   4.322   8.177   3.994
12571SOL    HW138057   4.346   8.246   3.926
12571SOL    HW238058   4.244   8.210   4.048
12572SOL     OW38059   5.005   7.793   4.668
12572SOL    HW138060   4.919   7.743   4.655
12572SOL    HW238061   5.067   7.739   4.724
12573SOL     OW38062   4.531   8.053   5.189
12573SOL    HW138063   4.484   8.050   5.278
12573SOL    HW238064   4.480   7.998   5.123
12574SOL     OW38065   5.118   7.917   5.398
12574SOL    HW138066   5.098   7.960   5.486
12574SOL    HW238067   5.196   7.855   5.407
12575SOL     OW38068   4.697   8.338   5.296
12575SOL    HW138069   4.743   8.254   5.267
12575SOL    HW238070   4.641   8.372   5.221
12576SOL     OW38071   4.715   7.858   4.966
12576SOL    HW138072   4.638   7.892   5.020
12576SOL    HW238073   4.681   7.807   4.887
12577SOL     OW38074   4.765   8.149   4.153
12577SOL    HW138075   4.791   8.145   4.249
12577SOL    HW238076   4.680   8.098   4.139
12578SOL     OW38077   3.800   8.259   4.513
12578SOL    HW138078   3.899   8.247   4.522
12578SOL    HW238079   3.776   8.354   4.534
12579SOL     OW38080   4.589   7.796   3.919
12579SOL    HW138081   4.648   7.859   3.870
12579SOL    HW238082   4.608   7.702   3.890
12580SOL     OW38083   5.443   8.033   5.555
12580SOL    HW138084   5.417   8.122   5.519
12580SOL    HW238085   5.441   7.965   5.482
12581SOL     OW38086   5.086   8.592   4.269
12581SOL    HW138087   5.169   8.563   4.221
12581SOL    HW238088   5.037   8.659   4.213
12582SOL     OW38089   4.274   7.644   4.609
12582SOL    HW138090   4.269   7.639   4.709
12582SOL    HW238091   4.276   7.740   4.580
12583SOL     OW38092   5.519   8.514   4.597
12583SOL    HW138093   5.457   8.499   4.521
12583SOL    HW238094   5.467   8.525   4.682
12584SOL     OW38095   4.951   8.998   5.230
12584SOL    HW138096   4.957   8.921   5.294
12584SOL    HW238097   4.899   8.972   5.150
12585SOL     OW38098   4.045   8.391   3.966
12585SOL    HW138099   4.127   8.430   3.924
12585SOL    HW238100   4.018   8.309   3.917
12586SOL     OW38101   5.182   8.183   4.452
12586SOL    HW138102   5.177   8.118   4.527
12586SOL    HW238103   5.262   8.242   4.465
12587SOL     OW38104   4.185   8.714   5.451
12587SOL    HW138105   4.135   8.715   5.365
12587SOL    HW238106   4.122   8.696   5.527
12588SOL     OW38107   3.926   7.733   5.222
12588SOL    HW138108   3.846   7.793   5.209
12588SOL    HW238109   3.916   7.684   5.308
12589SOL     OW38110   5.124   7.555   4.150
12589SOL    HW138111   5.100   7.518   4.060
12589SOL    HW238112   5.223   7.571   4.154
12590SOL     OW38113   4.106   8.148   4.204
12590SOL    HW138114   4.151   8.058   4.201
12590SOL    HW238115   4.012   8.137   4.237
12591SOL     OW38116   5.271   7.670   5.453
12591SOL    HW138117   5.266   7.707   5.545
12591SOL    HW238118   5.199   7.601   5.441
12592SOL     OW38119   4.338   7.570   3.841
12592SOL    HW138120   4.436   7.548   3.848
12592SOL    HW238121   4.307   7.553   3.748
12593SOL     OW38122   4.505   7.712   5.473
12593SOL    HW138123   4.572   7.651   5.516
12593SOL    HW238124   4.432   7.731   5.538
12594SOL     OW38125   5.075   8.038   5.157
12594SOL    HW138126   5.103   7.995   5.242
12594SOL    HW238127   5.100   8.134   5.158
12595SOL     OW38128   4.527   8.850   4.648
12595SOL    HW138129   4.617   8.864   4.606
12595SOL    HW238130   4.456   8.852   4.577
12596SOL     OW38131   4.646   7.951   4.623
12596SOL    HW138132   4.621   7.942   4.527
12596SOL    HW238133   4.694   7.869   4.654
12597SOL     OW38134   4.263   7.512   4.236
12597SOL    HW138135   4.182   7.513   4.294
12597SOL    HW238136   4.266   7.595   4.181
12598SOL     OW38137   5.158   8.636   3.765
12598SOL    HW138138   5.190   8.560   3.822
12598SOL    HW238139   5.066   8.663   3.795
12599SOL     OW38140   4.021   7.483   3.895
12599SOL    HW138141   4.070   7.567   3.874
12599SOL    HW238142   4.083   7.418   3.940
12600SOL     OW38143   4.659   7.684   4.204
12600SOL    HW138144   4.611   7.725   4.126
12600SOL    HW238145   4.758   7.682   4.185
12601SOL     OW38146   4.800   8.131   5.188
12601SOL    HW138147   4.720   8.070   5.191
12601SOL    HW238148   4.881   8.078   5.164
12602SOL     OW38149   4.183   8.600   4.465
12602SOL    HW138150   4.112   8.573   4.530
12602SOL    HW238151   4.157   8.572   4.372
12603SOL     OW38152   4.756   7.997   3.740
12603SOL    HW138153   4.715   8.079   3.701
12603SOL    HW238154   4.820   8.023   3.813
12604SOL     OW38155   3.802   8.004   5.110
12604SOL    HW138156   3.894   8.003   5.069
12604SOL    HW238157   3.796   8.078   5.177
12605SOL     OW38158   4.285   7.670   4.871
12605SOL    HW138159   4.323   7.586   4.908
12605SOL    HW238160   4.197   7.689   4.915
12606SOL     OW38161   4.590   7.902   4.366
12606SOL    HW138162   4.558   7.974   4.304
12606SOL    HW238163   4.614   7.821   4.313
12607SOL     OW38164   4.741   7.487   4.477
12607SOL    HW138165   4.669   7.492   4.408
12607SOL    HW238166   4.717   7.418   4.546
12608SOL     OW38167   5.153   8.621   4.591
12608SOL    HW138168   5.098   8.537   4.584
12608SOL    HW238169   5.179   8.650   4.499
12609SOL     OW38170   5.190   8.038   4.716
12609SOL    HW138171   5.160   7.943   4.723
12609SOL    HW238172   5.263   8.054   4.782
12610SOL     OW38173   5.581   8.281   4.101
12610SOL    HW138174   5.623   8.217   4.165
12610SOL    HW238175   5.543   8.230   4.023
12611SOL     OW38176   4.212   8.833   3.898
12611SOL    HW138177   4.125   8.818   3.945
12611SOL    HW238178   4.195   8.859   3.803
12612SOL     OW38179   5.114   8.023   3.802
12612SOL    HW138180   5.060   8.002   3.883
12612SOL    HW238181   5.205   7.982   3.811
12613SOL     OW38182   4.251   7.704   4.052
12613SOL    HW138183   4.278   7.645   3.977
12613SOL    HW238184   4.251   7.799   4.021
12614SOL     OW38185   4.788   8.795   5.064
12614SOL    HW138186   4.708   8.772   5.119
12614SOL    HW238187   4.871   8.769   5.113
12615SOL     OW38188   4.835   8.643   4.824
12615SOL    HW138189   4.795   8.687   4.905
12615SOL    HW238190   4.794   8.680   4.741
12616SOL     OW38191   5.362   8.547   4.803
12616SOL    HW138192   5.367   8.628   4.862
12616SOL    HW238193   5.276   8.549   4.752
12617SOL     OW38194   4.639   7.537   5.126
12617SOL    HW138195   4.664   7.517   5.031
12617SOL    HW238196   4.711   7.593   5.168
12618SOL     OW38197   4.704   8.564   5.443
12618SOL    HW138198   4.605   8.570   5.453
12618SOL    HW238199   4.727   8.484   5.387
12619SOL     OW38200   4.429   8.498   4.092
12619SOL    HW138201   4.415   8.505   4.191
12619SOL    HW238202   4.513   8.447   4.074
12620SOL     OW38203   4.134   8.261   4.975
12620SOL    HW138204   4.220   8.273   5.025
12620SOL    HW238205   4.092   8.174   5.002
12621SOL     OW38206   4.998   7.834   4.986
12621SOL    HW138207   5.019   7.908   5.050
12621SOL    HW238208   4.909   7.851   4.943
12622SOL     OW38209   4.091   8.548   4.225
12622SOL    HW138210   4.084   8.631   4.169
12622SOL    HW238211   4.095   8.468   4.165
12623SOL     OW38212   4.290   7.985   4.589
12623SOL    HW138213   4.302   8.051   4.515
12623SOL    HW238214   4.336   8.019   4.672
12624SOL     OW38215   4.976   8.796   4.112
12624SOL    HW138216   5.026   8.873   4.152
12624SOL    HW238217   4.881   8.798   4.144
12625SOL     OW38218   5.306   8.087   4.196
12625SOL    HW138219   5.275   8.148   4.269
12625SOL    HW238220   5.356   8.139   4.127
12626SOL     OW38221   4.126   8.199   5.322
12626SOL    HW138222   4.194   8.254   5.275
12626SOL    HW238223   4.166   8.111   5.349
12627SOL     OW38224   5.311   8.227   5.394
12627SOL    HW138225   5.219   8.265   5.389
12627SOL    HW238226   5.371   8.274   5.329
12628SOL     OW38227   4.737   7.553   5.494
12628SOL    HW138228   4.743   7.638   5.442
12628SOL    HW238229   4.769   7.477   5.437
12629SOL     OW38230   4.228   7.498   5.464
12629SOL    HW138231   4.186   7.441   5.394
12629SOL    HW238232   4.162   7.567   5.496
12630SOL     OW38233   4.297   8.318   4.753
12630SOL    HW138234   4.341   8.407   4.744
12630SOL    HW238235   4.234   8.318   4.830
12631SOL     OW38236   5.084   8.310   4.769
12631SOL    HW138237   5.009   8.310   4.703
12631SOL    HW238238   5.121   8.218   4.778
12632SOL     OW38239   4.933   7.973   3.999
12632SOL    HW138240   4.946   7.889   4.053
12632SOL    HW238241   4.904   8.047   4.059
12633SOL     OW38242   4.031   7.661   4.955
12633SOL    HW138243   4.008   7.698   5.045
12633SOL    HW238244   4.001   7.566   4.949
12634SOL     OW38245   3.761   8.758   5.006
12634SOL    HW138246   3.814   8.709   5.074
12634SOL    HW238247   3.783   8.856   5.011
12635SOL     OW38248   4.456   8.082   4.788
12635SOL    HW138249   4.515   8.056   4.712
12635SOL    HW238250   4.428   8.178   4.777
12636SOL     OW38251   5.452   8.383   5.578
12636SOL    HW138252   5.406   8.376   5.489
12636SOL    HW238253   5.390   8.427   5.644
12637SOL     OW38254   4.031   7.511   4.342
12637SOL    HW138255   4.020   7.605   4.375
12637SOL    HW238256   4.026   7.448   4.419
12638SOL     OW38257   5.346   7.815   4.098
12638SOL    HW138258   5.348   7.739   4.162
12638SOL    HW238259   5.298   7.892   4.138
12639SOL     OW38260   4.747   8.214   4.690
12639SOL    HW138261   4.762   8.235   4.786
12639SOL    HW238262   4.717   8.119   4.681
12640SOL     OW38263   4.074   8.346   5.528
12640SOL    HW138264   4.150   8.390   5.576
12640SOL    HW238265   4.109   8.299   5.446
12641SOL     OW38266   5.264   7.722   3.849
12641SOL    HW138267   5.203   7.647   3.872
12641SOL    HW238268   5.286   7.774   3.932
12642SOL     OW38269   5.027   8.286   3.766
12642SOL    HW138270   5.061   8.193   3.781
12642SOL    HW238271   5.045   8.313   3.671
12643SOL     OW38272   4.792   8.781   4.573
12643SOL    HW138273   4.799   8.697   4.518
12643SOL    HW238274   4.854   8.850   4.537
12644SOL     OW38275   4.043   8.258   4.673
12644SOL    HW138276   4.136   8.294   4.678
12644SOL    HW238277   4.037   8.173   4.725
12645SOL     OW38278   4.063   7.957   4.730
12645SOL    HW138279   4.011   7.874   4.713
12645SOL    HW238280   4.140   7.962   4.666
12646SOL     OW38281   4.862   7.828   5.402
12646SOL    HW138282   4.817   7.891   5.466
12646SOL    HW238283   4.955   7.859   5.385
12647SOL     OW38284   4.884   7.655   5.201
12647SOL    HW138285   4.884   7.719   5.278
12647SOL    HW238286   4.912   7.703   5.118
12648SOL     OW38287   3.732   8.774   3.924
12648SOL    HW138288   3.639   8.795   3.893
12648SOL    HW238289   3.742   8.675   3.937
12649SOL     OW38290   4.726   8.244   4.962
12649SOL    HW138291   4.767   8.212   5.048
12649SOL    HW238292   4.630   8.217   4.959
12650SOL     OW38293   3.764   7.992   4.838
12650SOL    HW138294   3.849   7.959   4.797
12650SOL    HW238295   3.777   8.007   4.936
12651SOL     OW38296   3.913   7.968   5.446
12651SOL    HW138297   3.972   7.928   5.376
12651SOL    HW238298   3.855   8.039   5.405
12652SOL     OW38299   5.093   8.398   5.384
12652SOL    HW138300   5.132   8.487   5.404
12652SOL    HW238301   5.103   8.378   5.287
12653SOL     OW38302   4.539   8.020   4.049
12653SOL    HW138303   4.546   7.931   4.003
12653SOL    HW238304   4.445   8.054   4.041
12654SOL     OW38305   5.381   8.052   4.930
12654SOL    HW138306   5.343   7.983   4.992
12654SOL    HW238307   5.463   8.016   4.886
12655SOL     OW38308   4.395   7.912   4.993
12655SOL    HW138309   4.361   7.823   4.963
12655SOL    HW238310   4.421   7.966   4.913
12656SOL     OW38311   4.197   7.948   3.915
12656SOL    HW138312   4.258   8.028   3.919
12656SOL    HW238313   4.102   7.979   3.922
12657SOL     OW38314   3.883   8.585   5.190
12657SOL    HW138315   3.905   8.524   5.266
12657SOL    HW238316   3.893   8.536   5.104
12658SOL     OW38317   5.071   8.507   4.958
12658SOL    HW138318   5.095   8.444   4.884
12658SOL    HW238319   4.981   8.547   4.940
12659SOL     OW38320   5.026   8.303   4.033
12659SOL    HW138321   4.940   8.272   4.075
12659SOL    HW238322   5.022   8.289   3.934
12660SOL     OW38323   3.807   8.706   4.746
12660SOL    HW138324   3.802   8.705   4.846
12660SOL    HW238325   3.724   8.665   4.708
12661SOL     OW38326   5.450   7.583   4.247
12661SOL    HW138327   5.523   7.566   4.180
12661SOL    HW238328   5.419   7.496   4.285
12662SOL     OW38329   5.004   8.375   4.396
12662SOL    HW138330   5.064   8.294   4.398
12662SOL    HW238331   5.044   8.444   4.336
12663SOL     OW38332   4.554   8.721   5.146
12663SOL    HW138333   4.549   8.754   5.241
12663SOL    HW238334   4.468   8.740   5.100
12664SOL     OW38335   5.565   7.623   4.687
12664SOL    HW138336   5.604   7.538   4.651
12664SOL    HW238337   5.467   7.625   4.668
12665SOL     OW38338   3.987   7.774   4.444
12665SOL    HW138339   3.908   7.825   4.410
12665SOL    HW238340   3.978   7.759   4.542
12666SOL     OW38341   4.918   9.060   3.755
12666SOL    HW138342   4.924   8.967   3.792
12666SOL    HW238343   4.859   9.060   3.675
12667SOL     OW38344   4.546   8.450   5.096
12667SOL    HW138345   4.586   8.449   5.004
12667SOL    HW238346   4.556   8.542   5.136
12668SOL     OW38347   4.640   8.358   4.015
12668SOL    HW138348   4.703   8.396   3.947
12668SOL    HW238349   4.680   8.275   4.054
12669SOL     OW38350   4.096   8.736   5.214
12669SOL    HW138351   4.083   8.829   5.180
12669SOL    HW238352   4.012   8.684   5.201
12670SOL     OW38353   5.338   8.740   5.013
12670SOL    HW138354   5.398   8.743   5.093
12670SOL    HW238355   5.263   8.804   5.026
12671SOL     OW38356   4.763   8.546   4.420
12671SOL    HW138357   4.693   8.499   4.474
12671SOL    HW238358   4.822   8.478   4.377
12672SOL     OW38359   4.738   7.684   4.695
12672SOL    HW138360   4.730   7.648   4.602
12672SOL    HW238361   4.736   7.608   4.760
12673SOL     OW38362   4.314   8.935   4.215
12673SOL    HW138363   4.356   8.877   4.145
12673SOL    HW238364   4.270   9.014   4.171
12674SOL     OW38365   5.433   7.833   5.105
12674SOL    HW138366   5.506   7.902   5.109
12674SOL    HW238367   5.461   7.758   5.046
12675SOL     OW38368   3.829   8.461   5.450
12675SOL    HW138369   3.752   8.428   5.504
12675SOL    HW238370   3.914   8.431   5.492
12676SOL     OW38371   4.396   7.651   5.213
12676SOL    HW138372   4.486   7.635   5.173
12676SOL    HW238373   4.404   7.656   5.312
12677SOL     OW38374   3.799   7.793   3.757
12677SOL    HW138375   3.707   7.765   3.728
12677SOL    HW238376   3.830   7.870   3.701
12678SOL     OW38377   5.164   8.304   5.122
12678SOL    HW138378   5.107   8.356   5.059
12678SOL    HW238379   5.260   8.316   5.098
12679SOL     OW38380   3.796   7.614   4.042
12679SOL    HW138381   3.779   7.697   3.988
12679SOL    HW238382   3.886   7.577   4.020
12680SOL     OW38383   4.907   8.783   3.843
12680SOL    HW138384   4.808   8.772   3.845
12680SOL    HW238385   4.941   8.798   3.936
12681SOL     OW38386   4.337   8.290   5.155
12681SOL    HW138387   4.393   8.371   5.138
12681SOL    HW238388   4.396   8.210   5.158
12682SOL     OW38389   4.440   8.013   5.432
12682SOL    HW138390   4.459   8.078   5.506
12682SOL    HW238391   4.500   7.933   5.441
12683SOL     OW38392   5.174   8.668   5.357
12683SOL    HW138393   5.165   8.658   5.456
12683SOL    HW238394   5.270   8.661   5.331
12684SOL     OW38395   4.114   9.189   5.284
12684SOL    HW138396   4.023   9.230   5.282
12684SOL    HW238397   4.107   9.095   5.316
12685SOL     OW38398   5.398   8.331   4.978
12685SOL    HW138399   5.371   8.242   4.941
12685SOL    HW238400   5.399   8.399   4.905
12686SOL     OW38401   4.949   7.773   4.173
12686SOL    HW138402   5.014   7.699   4.162
12686SOL    HW238403   4.969   7.823   4.257
12687SOL     OW38404   4.318   8.193   4.376
12687SOL    HW138405   4.368   8.278   4.357
12687SOL    HW238406   4.230   8.195   4.328
12688SOL     OW38407   5.501   7.790   5.366
12688SOL    HW138408   5.484   7.821   5.272
12688SOL    HW238409   5.417   7.753   5.404
12689SOL     OW38410   5.454   8.382   5.241
12689SOL    HW138411   5.492   8.473   5.256
12689SOL    HW238412   5.446   8.365   5.142
12690SOL     OW38413   4.583   8.404   4.585
12690SOL    HW138414   4.637   8.335   4.633
12690SOL    HW238415   4.551   8.473   4.651
12691SOL     OW38416   4.807   8.432   3.811
12691SOL    HW138417   4.784   8.485   3.729
12691SOL    HW238418   4.888   8.376   3.792
12692SOL     OW38419   3.945   8.762   5.568
12692SOL    HW138420   3.880   8.689   5.547
12692SOL    HW238421   3.949   8.776   5.666
12693SOL     OW38422   3.803   8.688   4.377
12693SOL    HW138423   3.802   8.641   4.465
12693SOL    HW238424   3.885   8.660   4.326
12694SOL     OW38425   4.396   8.839   5.348
12694SOL    HW138426   4.318   8.789   5.386
12694SOL    HW238427   4.393   8.934   5.379
12695SOL     OW38428   5.548   7.640   4.951
12695SOL    HW138429   5.544   7.550   4.995
12695SOL    HW238430   5.551   7.629   4.852
12696SOL     OW38431   4.152   7.872   4.244
12696SOL    HW138432   4.182   7.800   4.182
12696SOL    HW238433   4.113   7.832   4.327
12697SOL     OW38434   5.429   8.935   4.828
12697SOL    HW138435   5.336   8.910   4.801
12697SOL    HW238436   5.455   8.885   4.910
12698SOL     OW38437   4.041   7.995   5.004
12698SOL    HW138438   4.079   7.936   5.076
12698SOL    HW238439   4.081   7.969   4.916
12699SOL     OW38440   4.536   9.034   4.411
12699SOL    HW138441   4.568   9.044   4.317
12699SOL    HW238442   4.457   8.972   4.413
12700SOL     OW38443   5.148   7.662   4.836
12700SOL    HW138444   5.200   7.597   4.891
12700SOL    HW238445   5.099   7.725   4.897
12701SOL     OW38446   4.725   7.482   4.878
12701SOL    HW138447   4.662   7.410   4.847
12701SOL    HW238448   4.818   7.446   4.878
12702SOL     OW38449   4.494   8.778   4.025
12702SOL    HW138450   4.448   8.691   4.042
12702SOL    HW238451   4.585   8.775   4.066
12703SOL     OW38452   5.076   7.500   3.892
12703SOL    HW138453   5.111   7.459   3.808
12703SOL    HW238454   4.986   7.462   3.912
12704SOL     OW38455   5.024   7.901   4.415
12704SOL    HW138456   4.965   7.981   4.419
12704SOL    HW238457   5.039   7.866   4.508
12705SOL     OW38458   5.317   7.669   4.606
12705SOL    HW138459   5.233   7.668   4.660
12705SOL    HW238460   5.319   7.752   4.550
12706SOL     OW38461   3.763   8.525   4.024
12706SOL    HW138462   3.862   8.514   4.015
12706SOL    HW238463   3.723   8.439   4.056
12707SOL     OW38464   3.954   8.076   5.699
12707SOL    HW138465   3.861   8.074   5.736
12707SOL    HW238466   3.955   8.037   5.607
12708SOL     OW38467   3.949   7.723   6.582
12708SOL    HW138468   3.984   7.706   6.674
12708SOL    HW238469   3.861   7.678   6.570
12709SOL     OW38470   3.743   7.816   6.233
12709SOL    HW138471   3.661   7.859   6.272
12709SOL    HW238472   3.715   7.743   6.170
12710SOL     OW38473   4.859   8.151   6.303
12710SOL    HW138474   4.916   8.229   6.278
12710SOL    HW238475   4.799   8.177   6.379
12711SOL     OW38476   5.479   8.055   5.817
12711SOL    HW138477   5.467   8.042   5.718
12711SOL    HW238478   5.449   7.974   5.866
12712SOL     OW38479   4.492   8.592   6.609
12712SOL    HW138480   4.414   8.609   6.669
12712SOL    HW238481   4.526   8.679   6.573
12713SOL     OW38482   4.574   8.246   7.409
12713SOL    HW138483   4.570   8.322   7.474
12713SOL    HW238484   4.596   8.282   7.318
12714SOL     OW38485   4.409   8.460   6.251
12714SOL    HW138486   4.478   8.444   6.321
12714SOL    HW238487   4.336   8.517   6.289
12715SOL     OW38488   4.410   8.609   7.389
12715SOL    HW138489   4.470   8.688   7.403
12715SOL    HW238490   4.324   8.640   7.348
12716SOL     OW38491   4.162   7.840   7.085
12716SOL    HW138492   4.244   7.784   7.094
12716SOL    HW238493   4.081   7.782   7.089
12717SOL     OW38494   5.327   7.895   6.323
12717SOL    HW138495   5.253   7.941   6.273
12717SOL    HW238496   5.378   7.963   6.376
12718SOL     OW38497   4.851   8.789   7.276
12718SOL    HW138498   4.898   8.789   7.364
12718SOL    HW238499   4.803   8.702   7.265
12719SOL     OW38500   3.964   8.539   6.472
12719SOL    HW138501   3.978   8.455   6.524
12719SOL    HW238502   3.909   8.603   6.527
12720SOL     OW38503   4.330   8.412   5.709
12720SOL    HW138504   4.337   8.496   5.655
12720SOL    HW238505   4.376   8.425   5.797
12721SOL     OW38506   5.318   7.562   7.066
12721SOL    HW138507   5.300   7.629   6.994
12721SOL    HW238508   5.315   7.608   7.155
12722SOL     OW38509   3.846   8.091   6.149
12722SOL    HW138510   3.801   8.003   6.166
12722SOL    HW238511   3.845   8.145   6.233
12723SOL     OW38512   5.413   8.370   6.198
12723SOL    HW138513   5.508   8.341   6.206
12723SOL    HW238514   5.405   8.435   6.123
12724SOL     OW38515   5.365   8.556   6.018
12724SOL    HW138516   5.451   8.558   5.966
12724SOL    HW238517   5.379   8.603   6.106
12725SOL     OW38518   3.837   8.185   7.183
12725SOL    HW138519   3.925   8.172   7.228
12725SOL    HW238520   3.824   8.282   7.161
12726SOL     OW38521   4.337   8.813   6.312
12726SOL    HW138522   4.288   8.726   6.321
12726SOL    HW238523   4.314   8.856   6.225
12727SOL     OW38524   5.017   8.676   7.009
12727SOL    HW138525   5.054   8.603   6.951
12727SOL    HW238526   5.069   8.681   7.094
12728SOL     OW38527   4.533   7.452   6.088
12728SOL    HW138528   4.573   7.543   6.079
12728SOL    HW238529   4.433   7.460   6.094
12729SOL     OW38530   3.921   8.424   6.850
12729SOL    HW138531   4.010   8.379   6.836
12729SOL    HW238532   3.848   8.359   6.831
12730SOL     OW38533   5.249   8.447   5.776
12730SOL    HW138534   5.186   8.371   5.789
12730SOL    HW238535   5.297   8.465   5.862
12731SOL     OW38536   4.041   7.699   7.387
12731SOL    HW138537   4.112   7.770   7.393
12731SOL    HW238538   3.953   7.738   7.415
12732SOL     OW38539   5.190   8.865   6.539
12732SOL    HW138540   5.131   8.871   6.619
12732SOL    HW238541   5.175   8.777   6.493
12733SOL     OW38542   4.322   8.177   5.856
12733SOL    HW138543   4.346   8.246   5.788
12733SOL    HW238544   4.244   8.210   5.910
12734SOL     OW38545   5.005   7.793   6.530
12734SOL    HW138546   4.919   7.743   6.517
12734SOL    HW238547   5.067   7.739   6.586
12735SOL     OW38548   4.531   8.053   7.051
12735SOL    HW138549   4.484   8.050   7.140
12735SOL    HW238550   4.480   7.998   6.985
12736SOL     OW38551   5.118   7.917   7.260
12736SOL    HW138552   5.098   7.960   7.348
12736SOL    HW238553   5.196   7.855   7.269
12737SOL     OW38554   4.697   8.338   7.158
12737SOL    HW138555   4.743   8.254   7.129
12737SOL    HW238556   4.641   8.372   7.083
12738SOL     OW38557   4.715   7.858   6.828
12738SOL    HW138558   4.638   7.892   6.882
12738SOL    HW238559   4.681   7.807   6.749
12739SOL     OW38560   4.765   8.149   6.015
12739SOL    HW138561   4.791   8.145   6.111
12739SOL    HW238562   4.680   8.098   6.001
12740SOL     OW38563   3.800   8.259   6.375
12740SOL    HW138564   3.899   8.247   6.384
12740SOL    HW238565   3.776   8.354   6.396
12741SOL     OW38566   4.589   7.796   5.781
12741SOL    HW138567   4.648   7.859   5.732
12741SOL    HW238568   4.608   7.702   5.752
12742SOL     OW38569   5.443   8.033   7.417
12742SOL    HW138570   5.417   8.122   7.381
12742SOL    HW238571   5.441   7.965   7.344
12743SOL     OW38572   5.086   8.592   6.131
12743SOL    HW138573   5.169   8.563   6.083
12743SOL    HW238574   5.037   8.659   6.075
12744SOL     OW38575   4.274   7.644   6.471
12744SOL    HW138576   4.269   7.639   6.571
12744SOL    HW238577   4.276   7.740   6.442
12745SOL     OW38578   5.519   8.514   6.459
12745SOL    HW138579   5.457   8.499   6.383
12745SOL    HW238580   5.467   8.525   6.544
12746SOL     OW38581   4.951   8.998   7.092
12746SOL    HW138582   4.957   8.921   7.156
12746SOL    HW238583   4.899   8.972   7.012
12747SOL     OW38584   4.045   8.391   5.828
12747SOL    HW138585   4.127   8.430   5.786
12747SOL    HW238586   4.018   8.309   5.779
12748SOL     OW38587   5.182   8.183   6.314
12748SOL    HW138588   5.177   8.118   6.389
12748SOL    HW238589   5.262   8.242   6.327
12749SOL     OW38590   4.185   8.714   7.313
12749SOL    HW138591   4.135   8.715   7.227
12749SOL    HW238592   4.122   8.696   7.389
12750SOL     OW38593   3.926   7.733   7.084
12750SOL    HW138594   3.846   7.793   7.071
12750SOL    HW238595   3.916   7.684   7.170
12751SOL     OW38596   5.124   7.555   6.012
12751SOL    HW138597   5.100   7.518   5.922
12751SOL    HW238598   5.223   7.571   6.016
12752SOL     OW38599   4.106   8.148   6.066
12752SOL    HW138600   4.151   8.058   6.063
12752SOL    HW238601   4.012   8.137   6.099
12753SOL     OW38602   5.271   7.670   7.315
12753SOL    HW138603   5.266   7.707   7.407
12753SOL    HW238604   5.199   7.601   7.303
12754SOL     OW38605   4.338   7.570   5.703
12754SOL    HW138606   4.436   7.548   5.710
12754SOL    HW238607   4.307   7.553   5.610
12755SOL     OW38608   4.505   7.712   7.335
12755SOL    HW138609   4.572   7.651   7.378
12755SOL    HW238610   4.432   7.731   7.400
12756SOL     OW38611   5.075   8.038   7.019
12756SOL    HW138612   5.103   7.995   7.104
12756SOL    HW238613   5.100   8.134   7.020
12757SOL     OW38614   4.527   8.850   6.510
12757SOL    HW138615   4.617   8.864   6.468
12757SOL    HW238616   4.456   8.852   6.439
12758SOL     OW38617   4.646   7.951   6.485
12758SOL    HW138618   4.621   7.942   6.389
12758SOL    HW238619   4.694   7.869   6.516
12759SOL     OW38620   4.263   7.512   6.098
12759SOL    HW138621   4.182   7.513   6.156
12759SOL    HW238622   4.266   7.595   6.043
12760SOL     OW38623   5.158   8.636   5.627
12760SOL    HW138624   5.190   8.560   5.684
12760SOL    HW238625   5.066   8.663   5.657
12761SOL     OW38626   4.021   7.483   5.757
12761SOL    HW138627   4.070   7.567   5.736
12761SOL    HW238628   4.083   7.418   5.802
12762SOL     OW38629   4.659   7.684   6.066
12762SOL    HW138630   4.611   7.725   5.988
12762SOL    HW238631   4.758   7.682   6.047
12763SOL     OW38632   4.800   8.131   7.050
12763SOL    HW138633   4.720   8.070   7.053
12763SOL    HW238634   4.881   8.078   7.026
12764SOL     OW38635   4.183   8.600   6.327
12764SOL    HW138636   4.112   8.573   6.392
12764SOL    HW238637   4.157   8.572   6.234
12765SOL     OW38638   4.756   7.997   5.602
12765SOL    HW138639   4.715   8.079   5.563
12765SOL    HW238640   4.820   8.023   5.675
12766SOL     OW38641   3.802   8.004   6.972
12766SOL    HW138642   3.894   8.003   6.931
12766SOL    HW238643   3.796   8.078   7.039
12767SOL     OW38644   4.285   7.670   6.733
12767SOL    HW138645   4.323   7.586   6.770
12767SOL    HW238646   4.197   7.689   6.777
12768SOL     OW38647   4.590   7.902   6.228
12768SOL    HW138648   4.558   7.974   6.166
12768SOL    HW238649   4.614   7.821   6.175
12769SOL     OW38650   4.741   7.487   6.339
12769SOL    HW138651   4.669   7.492   6.270
12769SOL    HW238652   4.717   7.418   6.408
12770SOL     OW38653   5.153   8.621   6.453
12770SOL    HW138654   5.098   8.537   6.446
12770SOL    HW238655   5.179   8.650   6.361
12771SOL     OW38656   5.190   8.038   6.578
12771SOL    HW138657   5.160   7.943   6.585
12771SOL    HW238658   5.263   8.054   6.644
12772SOL     OW38659   5.581   8.281   5.963
12772SOL    HW138660   5.623   8.217   6.027
12772SOL    HW238661   5.543   8.230   5.885
12773SOL     OW38662   4.212   8.833   5.760
12773SOL    HW138663   4.125   8.818   5.807
12773SOL    HW238664   4.195   8.859   5.665
12774SOL     OW38665   5.114   8.023   5.664
12774SOL    HW138666   5.060   8.002   5.745
12774SOL    HW238667   5.205   7.982   5.673
12775SOL     OW38668   4.251   7.704   5.914
12775SOL    HW138669   4.278   7.645   5.839
12775SOL    HW238670   4.251   7.799   5.883
12776SOL     OW38671   4.788   8.795   6.926
12776SOL    HW138672   4.708   8.772   6.981
12776SOL    HW238673   4.871   8.769   6.975
12777SOL     OW38674   4.835   8.643   6.686
12777SOL    HW138675   4.795   8.687   6.767
12777SOL    HW238676   4.794   8.680   6.603
12778SOL     OW38677   5.362   8.547   6.665
12778SOL    HW138678   5.367   8.628   6.724
12778SOL    HW238679   5.276   8.549   6.614
12779SOL     OW38680   4.639   7.537   6.988
12779SOL    HW138681   4.664   7.517   6.893
12779SOL    HW238682   4.711   7.593   7.030
12780SOL     OW38683   4.704   8.564   7.305
12780SOL    HW138684   4.605   8.570   7.315
12780SOL    HW238685   4.727   8.484   7.249
12781SOL     OW38686   4.429   8.498   5.954
12781SOL    HW138687   4.415   8.505   6.053
12781SOL    HW238688   4.513   8.447   5.936
12782SOL     OW38689   4.134   8.261   6.837
12782SOL    HW138690   4.220   8.273   6.887
12782SOL    HW238691   4.092   8.174   6.864
12783SOL     OW38692   4.998   7.834   6.848
12783SOL    HW138693   5.019   7.908   6.912
12783SOL    HW238694   4.909   7.851   6.805
12784SOL     OW38695   4.091   8.548   6.087
12784SOL    HW138696   4.084   8.631   6.031
12784SOL    HW238697   4.095   8.468   6.027
12785SOL     OW38698   4.290   7.985   6.451
12785SOL    HW138699   4.302   8.051   6.377
12785SOL    HW238700   4.336   8.019   6.534
12786SOL     OW38701   4.976   8.796   5.974
12786SOL    HW138702   5.026   8.873   6.014
12786SOL    HW238703   4.881   8.798   6.006
12787SOL     OW38704   5.306   8.087   6.058
12787SOL    HW138705   5.275   8.148   6.131
12787SOL    HW238706   5.356   8.139   5.989
12788SOL     OW38707   4.126   8.199   7.184
12788SOL    HW138708   4.194   8.254   7.137
12788SOL    HW238709   4.166   8.111   7.211
12789SOL     OW38710   5.311   8.227   7.256
12789SOL    HW138711   5.219   8.265   7.251
12789SOL    HW238712   5.371   8.274   7.191
12790SOL     OW38713   4.737   7.553   7.356
12790SOL    HW138714   4.743   7.638   7.304
12790SOL    HW238715   4.769   7.477   7.299
12791SOL     OW38716   4.228   7.498   7.326
12791SOL    HW138717   4.186   7.441   7.256
12791SOL    HW238718   4.162   7.567   7.358
12792SOL     OW38719   4.297   8.318   6.615
12792SOL    HW138720   4.341   8.407   6.606
12792SOL    HW238721   4.234   8.318   6.692
12793SOL     OW38722   5.084   8.310   6.631
12793SOL    HW138723   5.009   8.310   6.565
12793SOL    HW238724   5.121   8.218   6.640
12794SOL     OW38725   4.933   7.973   5.861
12794SOL    HW138726   4.946   7.889   5.915
12794SOL    HW238727   4.904   8.047   5.921
12795SOL     OW38728   4.031   7.661   6.817
12795SOL    HW138729   4.008   7.698   6.907
12795SOL    HW238730   4.001   7.566   6.811
12796SOL     OW38731   3.761   8.758   6.868
12796SOL    HW138732   3.814   8.709   6.936
12796SOL    HW238733   3.783   8.856   6.873
12797SOL     OW38734   4.456   8.082   6.650
12797SOL    HW138735   4.515   8.056   6.574
12797SOL    HW238736   4.428   8.178   6.639
12798SOL     OW38737   5.452   8.383   7.440
12798SOL    HW138738   5.406   8.376   7.351
12798SOL    HW238739   5.390   8.427   7.506
12799SOL     OW38740   4.031   7.511   6.204
12799SOL    HW138741   4.020   7.605   6.237
12799SOL    HW238742   4.026   7.448   6.281
12800SOL     OW38743   5.346   7.815   5.960
12800SOL    HW138744   5.348   7.739   6.024
12800SOL    HW238745   5.298   7.892   6.000
12801SOL     OW38746   4.747   8.214   6.552
12801SOL    HW138747   4.762   8.235   6.648
12801SOL    HW238748   4.717   8.119   6.543
12802SOL     OW38749   4.074   8.346   7.390
12802SOL    HW138750   4.150   8.390   7.438
12802SOL    HW238751   4.109   8.299   7.308
12803SOL     OW38752   5.264   7.722   5.711
12803SOL    HW138753   5.203   7.647   5.734
12803SOL    HW238754   5.286   7.774   5.794
12804SOL     OW38755   5.027   8.286   5.628
12804SOL    HW138756   5.061   8.193   5.643
12804SOL    HW238757   5.045   8.313   5.533
12805SOL     OW38758   4.792   8.781   6.435
12805SOL    HW138759   4.799   8.697   6.380
12805SOL    HW238760   4.854   8.850   6.399
12806SOL     OW38761   4.043   8.258   6.535
12806SOL    HW138762   4.136   8.294   6.540
12806SOL    HW238763   4.037   8.173   6.587
12807SOL     OW38764   4.063   7.957   6.592
12807SOL    HW138765   4.011   7.874   6.575
12807SOL    HW238766   4.140   7.962   6.528
12808SOL     OW38767   4.862   7.828   7.264
12808SOL    HW138768   4.817   7.891   7.328
12808SOL    HW238769   4.955   7.859   7.247
12809SOL     OW38770   4.884   7.655   7.063
12809SOL    HW138771   4.884   7.719   7.140
12809SOL    HW238772   4.912   7.703   6.980
12810SOL     OW38773   3.732   8.774   5.786
12810SOL    HW138774   3.639   8.795   5.755
12810SOL    HW238775   3.742   8.675   5.799
12811SOL     OW38776   4.726   8.244   6.824
12811SOL    HW138777   4.767   8.212   6.910
12811SOL    HW238778   4.630   8.217   6.821
12812SOL     OW38779   3.764   7.992   6.700
12812SOL    HW138780   3.849   7.959   6.659
12812SOL    HW238781   3.777   8.007   6.798
12813SOL     OW38782   3.913   7.968   7.308
12813SOL    HW138783   3.972   7.928   7.238
12813SOL    HW238784   3.855   8.039   7.267
12814SOL     OW38785   5.093   8.398   7.246
12814SOL    HW138786   5.132   8.487   7.266
12814SOL    HW238787   5.103   8.378   7.149
12815SOL     OW38788   4.539   8.020   5.911
12815SOL    HW138789   4.546   7.931   5.865
12815SOL    HW238790   4.445   8.054   5.903
12816SOL     OW38791   5.381   8.052   6.792
12816SOL    HW138792   5.343   7.983   6.854
12816SOL    HW238793   5.463   8.016   6.748
12817SOL     OW38794   4.395   7.912   6.855
12817SOL    HW138795   4.361   7.823   6.825
12817SOL    HW238796   4.421   7.966   6.775
12818SOL     OW38797   4.197   7.948   5.777
12818SOL    HW138798   4.258   8.028   5.781
12818SOL    HW238799   4.102   7.979   5.784
12819SOL     OW38800   3.883   8.585   7.052
12819SOL    HW138801   3.905   8.524   7.128
12819SOL    HW238802   3.893   8.536   6.966
12820SOL     OW38803   5.071   8.507   6.820
12820SOL    HW138804   5.095   8.444   6.746
12820SOL    HW238805   4.981   8.547   6.802
12821SOL     OW38806   5.026   8.303   5.895
12821SOL    HW138807   4.940   8.272   5.937
12821SOL    HW238808   5.022   8.289   5.796
12822SOL     OW38809   3.807   8.706   6.608
12822SOL    HW138810   3.802   8.705   6.708
12822SOL    HW238811   3.724   8.665   6.570
12823SOL     OW38812   5.450   7.583   6.109
12823SOL    HW138813   5.523   7.566   6.042
12823SOL    HW238814   5.419   7.496   6.147
12824SOL     OW38815   5.004   8.375   6.258
12824SOL    HW138816   5.064   8.294   6.260
12824SOL    HW238817   5.044   8.444   6.198
12825SOL     OW38818   4.554   8.721   7.008
12825SOL    HW138819   4.549   8.754   7.103
12825SOL    HW238820   4.468   8.740   6.962
12826SOL     OW38821   5.565   7.623   6.549
12826SOL    HW138822   5.604   7.538   6.513
12826SOL    HW238823   5.467   7.625   6.530
12827SOL     OW38824   3.987   7.774   6.306
12827SOL    HW138825   3.908   7.825   6.272
12827SOL    HW238826   3.978   7.759   6.404
12828SOL     OW38827   4.918   9.060   5.617
12828SOL    HW138828   4.924   8.967   5.654
12828SOL    HW238829   4.859   9.060   5.537
12829SOL     OW38830   4.546   8.450   6.958
12829SOL    HW138831   4.586   8.449   6.866
12829SOL    HW238832   4.556   8.542   6.998
12830SOL     OW38833   4.640   8.358   5.877
12830SOL    HW138834   4.703   8.396   5.809
12830SOL    HW238835   4.680   8.275   5.916
12831SOL     OW38836   4.096   8.736   7.076
12831SOL    HW138837   4.083   8.829   7.042
12831SOL    HW238838   4.012   8.684   7.063
12832SOL     OW38839   5.338   8.740   6.875
12832SOL    HW138840   5.398   8.743   6.955
12832SOL    HW238841   5.263   8.804   6.888
12833SOL     OW38842   4.763   8.546   6.282
12833SOL    HW138843   4.693   8.499   6.336
12833SOL    HW238844   4.822   8.478   6.239
12834SOL     OW38845   4.738   7.684   6.557
12834SOL    HW138846   4.730   7.648   6.464
12834SOL    HW238847   4.736   7.608   6.622
12835SOL     OW38848   4.314   8.935   6.077
12835SOL    HW138849   4.356   8.877   6.007
12835SOL    HW238850   4.270   9.014   6.033
12836SOL     OW38851   5.433   7.833   6.967
12836SOL    HW138852   5.506   7.902   6.971
12836SOL    HW238853   5.461   7.758   6.908
12837SOL     OW38854   3.829   8.461   7.312
12837SOL    HW138855   3.752   8.428   7.366
12837SOL    HW238856   3.914   8.431   7.354
12838SOL     OW38857   4.396   7.651   7.075
12838SOL    HW138858   4.486   7.635   7.035
12838SOL    HW238859   4.404   7.656   7.174
12839SOL     OW38860   3.799   7.793   5.619
12839SOL    HW138861   3.707   7.765   5.590
12839SOL    HW238862   3.830   7.870   5.563
12840SOL     OW38863   5.164   8.304   6.984
12840SOL    HW138864   5.107   8.356   6.921
12840SOL    HW238865   5.260   8.316   6.960
12841SOL     OW38866   3.796   7.614   5.904
12841SOL    HW138867   3.779   7.697   5.850
12841SOL    HW238868   3.886   7.577   5.882
12842SOL     OW38869   4.907   8.783   5.705
12842SOL    HW138870   4.808   8.772   5.707
12842SOL    HW238871   4.941   8.798   5.798
12843SOL     OW38872   4.337   8.290   7.017
12843SOL    HW138873   4.393   8.371   7.000
12843SOL    HW238874   4.396   8.210   7.020
12844SOL     OW38875   4.440   8.013   7.294
12844SOL    HW138876   4.459   8.078   7.368
12844SOL    HW238877   4.500   7.933   7.303
12845SOL     OW38878   5.174   8.668   7.219
12845SOL    HW138879   5.165   8.658   7.318
12845SOL    HW238880   5.270   8.661   7.193
12846SOL     OW38881   4.114   9.189   7.146
12846SOL    HW138882   4.023   9.230   7.144
12846SOL    HW238883   4.107   9.095   7.178
12847SOL     OW38884   5.398   8.331   6.840
12847SOL    HW138885   5.371   8.242   6.803
12847SOL    HW238886   5.399   8.399   6.767
12848SOL     OW38887   4.949   7.773   6.035
12848SOL    HW138888   5.014   7.699   6.024
12848SOL    HW238889   4.969   7.823   6.119
12849SOL     OW38890   4.318   8.193   6.238
12849SOL    HW138891   4.368   8.278   6.219
12849SOL    HW238892   4.230   8.195   6.190
12850SOL     OW38893   5.501   7.790   7.228
12850SOL    HW138894   5.484   7.821   7.134
12850SOL    HW238895   5.417   7.753   7.266
12851SOL     OW38896   5.454   8.382   7.103
12851SOL    HW138897   5.492   8.473   7.118
12851SOL    HW238898   5.446   8.365   7.004
12852SOL     OW38899   4.583   8.404   6.447
12852SOL    HW138900   4.637   8.335   6.495
12852SOL    HW238901   4.551   8.473   6.513
12853SOL     OW38902   4.807   8.432   5.673
12853SOL    HW138903   4.784   8.485   5.591
12853SOL    HW238904   4.888   8.376   5.654
12854SOL     OW38905   3.945   8.762   7.430
12854SOL    HW138906   3.880   8.689   7.409
12854SOL    HW238907   3.949   8.776   7.528
12855SOL     OW38908   3.803   8.688   6.239
12855SOL    HW138909   3.802   8.641   6.327
12855SOL    HW238910   3.885   8.660   6.188
12856SOL     OW38911   4.396   8.839   7.210
12856SOL    HW138912   4.318   8.789   7.248
12856SOL    HW238913   4.393   8.934   7.241
12857SOL     OW38914   5.548   7.640   6.813
12857SOL    HW138915   5.544   7.550   6.857
12857SOL    HW238916   5.551   7.629   6.714
12858SOL     OW38917   4.152   7.872   6.106
12858SOL    HW138918   4.182   7.800   6.044
12858SOL    HW238919   4.113   7.832   6.189
12859SOL     OW38920   5.429   8.935   6.690
12859SOL    HW138921   5.336   8.910   6.663
12859SOL    HW238922   5.455   8.885   6.772
12860SOL     OW38923   4.041   7.995   6.866
12860SOL    HW138924   4.079   7.936   6.938
12860SOL    HW238925   4.081   7.969   6.778
12861SOL     OW38926   4.536   9.034   6.273
12861SOL    HW138927   4.568   9.044   6.179
12861SOL    HW238928   4.457   8.972   6.275
12862SOL     OW38929   5.148   7.662   6.698
12862SOL    HW138930   5.200   7.597   6.753
12862SOL    HW238931   5.099   7.725   6.759
12863SOL     OW38932   4.725   7.482   6.740
12863SOL    HW138933   4.662   7.410   6.709
12863SOL    HW238934   4.818   7.446   6.740
12864SOL     OW38935   4.494   8.778   5.887
12864SOL    HW138936   4.448   8.691   5.904
12864SOL    HW238937   4.585   8.775   5.928
12865SOL     OW38938   5.076   7.500   5.754
12865SOL    HW138939   5.111   7.459   5.670
12865SOL    HW238940   4.986   7.462   5.774
12866SOL     OW38941   5.024   7.901   6.277
12866SOL    HW138942   4.965   7.981   6.281
12866SOL    HW238943   5.039   7.866   6.370
12867SOL     OW38944   5.317   7.669   6.468
12867SOL    HW138945   5.233   7.668   6.522
12867SOL    HW238946   5.319   7.752   6.412
12868SOL     OW38947   3.763   8.525   5.886
12868SOL    HW138948   3.862   8.514   5.877
12868SOL    HW238949   3.723   8.439   5.918
12869SOL     OW38950   3.954   8.076   7.561
12869SOL    HW138951   3.861   8.074   7.598
12869SOL    HW238952   3.955   8.037   7.469
12870SOL     OW38953   5.479   8.055   7.679
12870SOL    HW138954   5.467   8.042   7.580
12870SOL    HW238955   5.449   7.974   7.728
12871SOL     OW38956   4.330   8.412   7.571
12871SOL    HW138957   4.337   8.496   7.517
12871SOL    HW238958   4.376   8.425   7.659
12872SOL     OW38959   5.365   8.556   7.880
12872SOL    HW138960   5.451   8.558   7.828
12872SOL    HW238961   5.379   8.603   7.968
12873SOL     OW38962   4.533   7.452   7.950
12873SOL    HW138963   4.573   7.543   7.941
12873SOL    HW238964   4.433   7.460   7.956
12874SOL     OW38965   5.249   8.447   7.638
12874SOL    HW138966   5.186   8.371   7.651
12874SOL    HW238967   5.297   8.465   7.724
12875SOL     OW38968   4.322   8.177   7.718
12875SOL    HW138969   4.346   8.246   7.650
12875SOL    HW238970   4.244   8.210   7.772
12876SOL     OW38971   4.765   8.149   7.877
12876SOL    HW138972   4.791   8.145   7.973
12876SOL    HW238973   4.680   8.098   7.863
12877SOL     OW38974   4.589   7.796   7.643
12877SOL    HW138975   4.648   7.859   7.594
12877SOL    HW238976   4.608   7.702   7.614
12878SOL     OW38977   5.086   8.592   7.993
12878SOL    HW138978   5.169   8.563   7.945
12878SOL    HW238979   5.037   8.659   7.937
12879SOL     OW38980   4.045   8.391   7.690
12879SOL    HW138981   4.127   8.430   7.648
12879SOL    HW238982   4.018   8.309   7.641
12880SOL     OW38983   5.124   7.555   7.874
12880SOL    HW138984   5.100   7.518   7.784
12880SOL    HW238985   5.223   7.571   7.878
12881SOL     OW38986   4.106   8.148   7.928
12881SOL    HW138987   4.151   8.058   7.925
12881SOL    HW238988   4.012   8.137   7.961
12882SOL     OW38989   4.338   7.570   7.565
12882SOL    HW138990   4.436   7.548   7.572
12882SOL    HW238991   4.307   7.553   7.472
12883SOL     OW38992   4.263   7.512   7.960
12883SOL    HW138993   4.182   7.513   8.018
12883SOL    HW238994   4.266   7.595   7.905
12884SOL     OW38995   5.158   8.636   7.489
12884SOL    HW138996   5.190   8.560   7.546
12884SOL    HW238997   5.066   8.663   7.519
12885SOL     OW38998   4.021   7.483   7.619
12885SOL    HW138999   4.070   7.567   7.598
12885SOL    HW239000   4.083   7.418   7.664
12886SOL     OW39001   4.659   7.684   7.928
12886SOL    HW139002   4.611   7.725   7.850
12886SOL    HW239003   4.758   7.682   7.909
12887SOL     OW39004   4.756   7.997   7.464
12887SOL    HW139005   4.715   8.079   7.425
12887SOL    HW239006   4.820   8.023   7.537
12888SOL     OW39007   5.581   8.281   7.825
12888SOL    HW139008   5.623   8.217   7.889
12888SOL    HW239009   5.543   8.230   7.747
12889SOL     OW39010   4.212   8.833   7.622
12889SOL    HW139011   4.125   8.818   7.669
12889SOL    HW239012   4.195   8.859   7.527
12890SOL     OW39013   5.114   8.023   7.526
12890SOL    HW139014   5.060   8.002   7.607
12890SOL    HW239015   5.205   7.982   7.535
12891SOL     OW39016   4.251   7.704   7.776
12891SOL    HW139017   4.278   7.645   7.701
12891SOL    HW239018   4.251   7.799   7.745
12892SOL     OW39019   4.429   8.498   7.816
12892SOL    HW139020   4.415   8.505   7.915
12892SOL    HW239021   4.513   8.447   7.798
12893SOL     OW39022   4.091   8.548   7.949
12893SOL    HW139023   4.084   8.631   7.893
12893SOL    HW239024   4.095   8.468   7.889
12894SOL     OW39025   4.976   8.796   7.836
12894SOL    HW139026   5.026   8.873   7.876
12894SOL    HW239027   4.881   8.798   7.868
12895SOL     OW39028   5.306   8.087   7.920
12895SOL    HW139029   5.275   8.148   7.993
12895SOL    HW239030   5.356   8.139   7.851
12896SOL     OW39031   4.933   7.973   7.723
12896SOL    HW139032   4.946   7.889   7.777
12896SOL    HW239033   4.904   8.047   7.783
12897SOL     OW39034   5.346   7.815   7.822
12897SOL    HW139035   5.348   7.739   7.886
12897SOL    HW239036   5.298   7.892   7.862
12898SOL     OW39037   5.264   7.722   7.573
12898SOL    HW139038   5.203   7.647   7.596
12898SOL    HW239039   5.286   7.774   7.656
12899SOL     OW39040   5.027   8.286   7.490
12899SOL    HW139041   5.061   8.193   7.505
12899SOL    HW239042   5.045   8.313   7.395
12900SOL     OW39043   3.732   8.774   7.648
12900SOL    HW139044   3.639   8.795   7.617
12900SOL    HW239045   3.742   8.675   7.661
12901SOL     OW39046   4.539   8.020   7.773
12901SOL    HW139047   4.546   7.931   7.727
12901SOL    HW239048   4.445   8.054   7.765
12902SOL     OW39049   4.197   7.948   7.639
12902SOL    HW139050   4.258   8.028   7.643
12902SOL    HW239051   4.102   7.979   7.646
12903SOL     OW39052   5.026   8.303   7.757
12903SOL    HW139053   4.940   8.272   7.799
12903SOL    HW239054   5.022   8.289   7.658
12904SOL     OW39055   5.450   7.583   7.971
12904SOL    HW139056   5.523   7.566   7.904
12904SOL    HW239057   5.419   7.496   8.009
12905SOL     OW39058   4.918   9.060   7.479
12905SOL    HW139059   4.924   8.967   7.516
12905SOL    HW239060   4.859   9.060   7.399
12906SOL     OW39061   4.640   8.358   7.739
12906SOL    HW139062   4.703   8.396   7.671
12906SOL    HW239063   4.680   8.275   7.778
12907SOL     OW39064   4.314   8.935   7.939
12907SOL    HW139065   4.356   8.877   7.869
12907SOL    HW239066   4.270   9.014   7.895
12908SOL     OW39067   3.799   7.793   7.481
12908SOL    HW139068   3.707   7.765   7.452
12908SOL    HW239069   3.830   7.870   7.425
12909SOL     OW39070   3.796   7.614   7.766
12909SOL    HW139071   3.779   7.697   7.712
12909SOL    HW239072   3.886   7.577   7.744
12910SOL     OW39073   4.907   8.783   7.567
12910SOL    HW139074   4.808   8.772   7.569
12910SOL    HW239075   4.941   8.798   7.660
12911SOL     OW39076   4.949   7.773   7.897
12911SOL    HW139077   5.014   7.699   7.886
12911SOL    HW239078   4.969   7.823   7.981
12912SOL     OW39079   4.807   8.432   7.535
12912SOL    HW139080   4.784   8.485   7.453
12912SOL    HW239081   4.888   8.376   7.516
12913SOL     OW39082   4.152   7.872   7.968
12913SOL    HW139083   4.182   7.800   7.906
12913SOL    HW239084   4.113   7.832   8.051
12914SOL     OW39085   4.494   8.778   7.749
12914SOL    HW139086   4.448   8.691   7.766
12914SOL    HW239087   4.585   8.775   7.790
12915SOL     OW39088   5.076   7.500   7.616
12915SOL    HW139089   5.111   7.459   7.532
12915SOL    HW239090   4.986   7.462   7.636
12916SOL     OW39091   3.763   8.525   7.748
12916SOL    HW139092   3.862   8.514   7.739
12916SOL    HW239093   3.723   8.439   7.780
12917SOL     OW39094   5.811   0.275   0.996
12917SOL    HW139095   5.846   0.258   1.088
12917SOL    HW239096   5.723   0.230   0.984
12918SOL     OW39097   5.605   0.368   0.647
12918SOL    HW139098   5.523   0.411   0.686
12918SOL    HW239099   5.577   0.295   0.584
12919SOL     OW39100   6.155   1.275   1.165
12919SOL    HW139101   6.062   1.268   1.128
12919SOL    HW239102   6.166   1.364   1.209
12920SOL     OW39103   7.141   1.511   0.703
12920SOL    HW139104   7.084   1.495   0.784
12920SOL    HW239105   7.082   1.521   0.623
12921SOL     OW39106   6.721   0.703   0.717
12921SOL    HW139107   6.778   0.781   0.692
12921SOL    HW239108   6.661   0.729   0.793
12922SOL     OW39109   7.341   0.607   0.231
12922SOL    HW139110   7.329   0.594   0.132
12922SOL    HW239111   7.311   0.526   0.280
12923SOL     OW39112   6.354   1.144   1.023
12923SOL    HW139113   6.276   1.161   1.083
12923SOL    HW239114   6.388   1.231   0.987
12924SOL     OW39115   6.436   0.798   1.823
12924SOL    HW139116   6.432   0.874   1.888
12924SOL    HW239117   6.458   0.834   1.732
12925SOL     OW39118   6.271   1.012   0.665
12925SOL    HW139119   6.340   0.996   0.735
12925SOL    HW239120   6.198   1.069   0.703
12926SOL     OW39121   6.272   1.161   1.803
12926SOL    HW139122   6.332   1.240   1.817
12926SOL    HW239123   6.186   1.192   1.762
12927SOL     OW39124   5.921   1.435   1.061
12927SOL    HW139125   5.843   1.404   1.008
12927SOL    HW239126   5.979   1.493   1.004
12928SOL     OW39127   7.046   1.505   1.339
12928SOL    HW139128   7.070   1.599   1.365
12928SOL    HW239129   7.030   1.451   1.421
12929SOL     OW39130   6.024   0.392   1.499
12929SOL    HW139131   6.106   0.336   1.508
12929SOL    HW239132   5.943   0.334   1.503
12930SOL     OW39133   7.189   0.447   0.737
12930SOL    HW139134   7.115   0.493   0.687
12930SOL    HW239135   7.240   0.515   0.790
12931SOL     OW39136   5.817   1.713   0.483
12931SOL    HW139137   5.851   1.790   0.537
12931SOL    HW239138   5.861   1.713   0.393
12932SOL     OW39139   6.713   1.341   1.690
12932SOL    HW139140   6.760   1.341   1.778
12932SOL    HW239141   6.665   1.254   1.679
12933SOL     OW39142   5.816   1.434   0.538
12933SOL    HW139143   5.790   1.530   0.538
12933SOL    HW239144   5.745   1.380   0.583
12934SOL     OW39145   5.826   1.091   0.886
12934SOL    HW139146   5.840   1.007   0.938
12934SOL    HW239147   5.771   1.155   0.941
12935SOL     OW39148   6.206   1.786   1.439
12935SOL    HW139149   6.114   1.769   1.474
12935SOL    HW239150   6.234   1.878   1.465
12936SOL     OW39151   5.708   0.643   0.563
12936SOL    HW139152   5.663   0.555   0.580
12936SOL    HW239153   5.707   0.697   0.647
12937SOL     OW39154   7.428   1.767   0.359
12937SOL    HW139155   7.482   1.738   0.439
12937SOL    HW239156   7.458   1.857   0.330
12938SOL     OW39157   7.275   0.922   0.612
12938SOL    HW139158   7.370   0.893   0.620
12938SOL    HW239159   7.267   0.987   0.537
12939SOL     OW39160   5.699   0.737   1.597
12939SOL    HW139161   5.787   0.724   1.642
12939SOL    HW239162   5.686   0.834   1.575
12940SOL     OW39163   6.199   1.365   0.726
12940SOL    HW139164   6.150   1.278   0.735
12940SOL    HW239165   6.176   1.408   0.639
12941SOL     OW39166   6.879   1.228   1.423
12941SOL    HW139167   6.916   1.155   1.365
12941SOL    HW239168   6.931   1.233   1.508
12942SOL     OW39169   5.783   0.976   1.264
12942SOL    HW139170   5.872   0.931   1.250
12942SOL    HW239171   5.710   0.911   1.245
12943SOL     OW39172   6.773   1.792   1.616
12943SOL    HW139173   6.797   1.852   1.540
12943SOL    HW239174   6.780   1.697   1.586
12944SOL     OW39175   5.903   0.251   1.801
12944SOL    HW139176   5.974   0.322   1.807
12944SOL    HW239177   5.815   0.290   1.829
12945SOL     OW39178   7.052   1.417   0.953
12945SOL    HW139179   6.993   1.423   1.033
12945SOL    HW239180   7.037   1.329   0.907
12946SOL     OW39181   7.253   1.714   0.572
12946SOL    HW139182   7.212   1.691   0.484
12946SOL    HW239183   7.235   1.640   0.637
12947SOL     OW39184   6.393   0.605   1.465
12947SOL    HW139185   6.346   0.602   1.554
12947SOL    HW239186   6.342   0.550   1.399
12948SOL     OW39187   6.980   0.469   1.674
12948SOL    HW139188   6.960   0.512   1.762
12948SOL    HW239189   7.058   0.407   1.683
12949SOL     OW39190   6.559   0.890   1.572
12949SOL    HW139191   6.605   0.806   1.543
12949SOL    HW239192   6.503   0.924   1.497
12950SOL     OW39193   6.577   0.410   1.242
12950SOL    HW139194   6.500   0.444   1.296
12950SOL    HW239195   6.543   0.359   1.163
12951SOL     OW39196   6.627   0.701   0.429
12951SOL    HW139197   6.653   0.697   0.525
12951SOL    HW239198   6.542   0.650   0.415
12952SOL     OW39199   5.662   0.811   0.789
12952SOL    HW139200   5.761   0.799   0.798
12952SOL    HW239201   5.638   0.906   0.810
12953SOL     OW39202   5.716   1.821   1.571
12953SOL    HW139203   5.706   1.806   1.670
12953SOL    HW239204   5.630   1.857   1.535
12954SOL     OW39205   7.305   0.585   1.831
12954SOL    HW139206   7.279   0.674   1.795
12954SOL    HW239207   7.303   0.517   1.758
12955SOL     OW39208   6.948   1.144   0.545
12955SOL    HW139209   7.031   1.115   0.497
12955SOL    HW239210   6.899   1.211   0.489
12956SOL     OW39211   6.136   0.196   0.885
12956SOL    HW139212   6.131   0.191   0.985
12956SOL    HW239213   6.138   0.292   0.856
12957SOL     OW39214   6.594   1.456   0.477
12957SOL    HW139215   6.548   1.528   0.425
12957SOL    HW239216   6.590   1.476   0.575
12958SOL     OW39217   5.937   1.801   0.853
12958SOL    HW139218   5.987   1.715   0.859
12958SOL    HW239219   6.002   1.878   0.850
12959SOL     OW39220   7.381   1.066   0.873
12959SOL    HW139221   7.319   1.051   0.797
12959SOL    HW239222   7.329   1.077   0.958
12960SOL     OW39223   6.813   1.550   1.506
12960SOL    HW139224   6.819   1.473   1.570
12960SOL    HW239225   6.761   1.524   1.426
12961SOL     OW39226   7.044   0.735   0.728
12961SOL    HW139227   7.039   0.670   0.803
12961SOL    HW239228   7.124   0.794   0.741
12962SOL     OW39229   6.047   1.266   1.727
12962SOL    HW139230   5.997   1.267   1.641
12962SOL    HW239231   5.984   1.248   1.803
12963SOL     OW39232   5.788   0.285   1.498
12963SOL    HW139233   5.708   0.345   1.485
12963SOL    HW239234   5.778   0.236   1.584
12964SOL     OW39235   5.835   1.785   1.241
12964SOL    HW139236   5.892   1.720   1.291
12964SOL    HW239237   5.819   1.752   1.148
12965SOL     OW39238   6.526   1.698   0.904
12965SOL    HW139239   6.606   1.641   0.925
12965SOL    HW239240   6.477   1.658   0.827
12966SOL     OW39241   5.968   0.700   0.480
12966SOL    HW139242   6.013   0.610   0.477
12966SOL    HW239243   5.874   0.689   0.513
12967SOL     OW39244   6.474   1.514   1.195
12967SOL    HW139245   6.451   1.489   1.101
12967SOL    HW239246   6.535   1.445   1.234
12968SOL     OW39247   6.937   0.590   1.433
12968SOL    HW139248   6.965   0.547   1.518
12968SOL    HW239249   6.962   0.686   1.434
12969SOL     OW39250   6.389   1.402   0.924
12969SOL    HW139251   6.479   1.416   0.882
12969SOL    HW239252   6.318   1.404   0.853
12970SOL     OW39253   6.508   0.503   0.899
12970SOL    HW139254   6.483   0.494   0.803
12970SOL    HW239255   6.556   0.421   0.930
12971SOL     OW39256   6.125   0.064   0.512
12971SOL    HW139257   6.044   0.065   0.570
12971SOL    HW239258   6.128   0.147   0.457
12972SOL     OW39259   6.521   0.236   0.480
12972SOL    HW139260   6.473   0.277   0.402
12972SOL    HW239261   6.620   0.234   0.461
12973SOL     OW39262   6.662   0.683   1.464
12973SOL    HW139263   6.582   0.622   1.467
12973SOL    HW239264   6.743   0.630   1.440
12974SOL     OW39265   6.813   1.570   0.793
12974SOL    HW139266   6.834   1.644   0.728
12974SOL    HW239267   6.881   1.570   0.866
12975SOL     OW39268   6.045   1.152   0.741
12975SOL    HW139269   5.974   1.125   0.806
12975SOL    HW239270   6.019   1.124   0.648
12976SOL     OW39271   6.857   1.797   0.591
12976SOL    HW139272   6.901   1.861   0.527
12976SOL    HW239273   6.807   1.849   0.661
12977SOL     OW39274   6.618   0.549   0.016
12977SOL    HW139275   6.577   0.631  -0.023
12977SOL    HW239276   6.682   0.575   0.089
12978SOL     OW39277   5.664   0.556   1.386
12978SOL    HW139278   5.756   0.555   1.345
12978SOL    HW239279   5.658   0.630   1.453
12979SOL     OW39280   6.147   0.222   1.147
12979SOL    HW139281   6.185   0.138   1.184
12979SOL    HW239282   6.059   0.241   1.191
12980SOL     OW39283   6.452   0.454   0.642
12980SOL    HW139284   6.420   0.526   0.580
12980SOL    HW239285   6.476   0.373   0.589
12981SOL     OW39286   6.603   0.039   0.753
12981SOL    HW139287   6.531   0.044   0.684
12981SOL    HW239288   6.579  -0.030   0.822
12982SOL     OW39289   7.015   1.173   0.867
12982SOL    HW139290   6.960   1.089   0.860
12982SOL    HW239291   7.041   1.202   0.775
12983SOL     OW39292   7.052   0.590   0.992
12983SOL    HW139293   7.022   0.495   0.999
12983SOL    HW239294   7.125   0.606   1.058
12984SOL     OW39295   7.250   1.280   0.657
12984SOL    HW139296   7.349   1.288   0.671
12984SOL    HW239297   7.205   1.364   0.688
12985SOL     OW39298   6.113   0.256   0.328
12985SOL    HW139299   6.140   0.197   0.253
12985SOL    HW239300   6.113   0.351   0.297
12986SOL     OW39301   7.340   1.223   1.588
12986SOL    HW139302   7.431   1.184   1.575
12986SOL    HW239303   7.348   1.319   1.612
12987SOL     OW39304   6.650   1.347   1.340
12987SOL    HW139305   6.570   1.324   1.395
12987SOL    HW239306   6.733   1.321   1.389
12988SOL     OW39307   7.178   1.629   1.625
12988SOL    HW139308   7.205   1.663   1.535
12988SOL    HW239309   7.257   1.591   1.671
12989SOL     OW39310   6.697   1.195   1.100
12989SOL    HW139311   6.657   1.239   1.181
12989SOL    HW239312   6.656   1.232   1.017
12990SOL     OW39313   7.224   1.099   1.079
12990SOL    HW139314   7.229   1.180   1.138
12990SOL    HW239315   7.138   1.101   1.028
12991SOL     OW39316   6.566   1.116   1.719
12991SOL    HW139317   6.467   1.122   1.729
12991SOL    HW239318   6.589   1.036   1.663
12992SOL     OW39319   5.996   0.813   1.251
12992SOL    HW139320   6.082   0.825   1.301
12992SOL    HW239321   5.954   0.726   1.278
12993SOL     OW39322   6.860   0.386   1.262
12993SOL    HW139323   6.881   0.460   1.326
12993SOL    HW239324   6.771   0.403   1.219
12994SOL     OW39325   5.650   1.564   1.331
12994SOL    HW139326   5.604   1.646   1.297
12994SOL    HW239327   5.748   1.583   1.340
12995SOL     OW39328   5.953   1.100   0.501
12995SOL    HW139329   5.946   1.183   0.445
12995SOL    HW239330   5.957   1.020   0.441
12996SOL     OW39331   6.152   0.537   0.865
12996SOL    HW139332   6.164   0.603   0.791
12996SOL    HW239333   6.198   0.571   0.948
12997SOL     OW39334   6.838   1.348   0.388
12997SOL    HW139335   6.888   1.425   0.428
12997SOL    HW239336   6.743   1.350   0.420
12998SOL     OW39337   6.858   1.445   1.142
12998SOL    HW139338   6.905   1.458   1.229
12998SOL    HW239339   6.792   1.371   1.151
12999SOL     OW39340   7.168   0.639   0.472
12999SOL    HW139341   7.137   0.700   0.545
12999SOL    HW239342   7.218   0.691   0.403
13000SOL     OW39343   5.940   1.510   1.329
13000SOL    HW139344   5.919   1.466   1.242
13000SOL    HW239345   6.037   1.536   1.332
13001SOL     OW39346   5.988   0.751   1.598
13001SOL    HW139347   6.056   0.806   1.551
13001SOL    HW239348   6.028   0.663   1.625
13002SOL     OW39349   7.173   0.779   1.670
13002SOL    HW139350   7.081   0.817   1.665
13002SOL    HW239351   7.233   0.826   1.605
13003SOL     OW39352   6.090   0.050   1.740
13003SOL    HW139353   6.048  -0.007   1.670
13003SOL    HW239354   6.024   0.119   1.772
13004SOL     OW39355   6.159   0.870   1.029
13004SOL    HW139356   6.203   0.959   1.020
13004SOL    HW239357   6.096   0.870   1.106
13005SOL     OW39358   6.946   0.862   1.045
13005SOL    HW139359   6.871   0.862   0.979
13005SOL    HW239360   6.983   0.770   1.054
13006SOL     OW39361   6.795   0.525   0.275
13006SOL    HW139362   6.808   0.441   0.329
13006SOL    HW239363   6.766   0.599   0.335
13007SOL     OW39364   5.893   0.213   1.231
13007SOL    HW139365   5.870   0.250   1.321
13007SOL    HW239366   5.863   0.118   1.225
13008SOL     OW39367   5.623   1.310   1.282
13008SOL    HW139368   5.676   1.261   1.350
13008SOL    HW239369   5.645   1.408   1.287
13009SOL     OW39370   6.318   0.634   1.064
13009SOL    HW139371   6.377   0.608   0.988
13009SOL    HW239372   6.290   0.730   1.053
13010SOL     OW39373   7.314   0.935   1.854
13010SOL    HW139374   7.268   0.928   1.765
13010SOL    HW239375   7.252   0.979   1.920
13011SOL     OW39376   5.893   0.063   0.618
13011SOL    HW139377   5.882   0.157   0.651
13011SOL    HW239378   5.888   0.000   0.695
13012SOL     OW39379   6.609   0.766   0.966
13012SOL    HW139380   6.624   0.787   1.062
13012SOL    HW239381   6.579   0.671   0.957
13013SOL     OW39382   6.566   1.573   1.700
13013SOL    HW139383   6.546   1.617   1.612
13013SOL    HW239384   6.605   1.482   1.684
13014SOL     OW39385   7.445   1.518   1.605
13014SOL    HW139386   7.459   1.545   1.510
13014SOL    HW239387   7.528   1.540   1.658
13015SOL     OW39388   5.936   0.898   1.804
13015SOL    HW139389   6.012   0.942   1.852
13015SOL    HW239390   5.971   0.851   1.722
13016SOL     OW39391   6.654   1.333   0.849
13016SOL    HW139392   6.661   1.249   0.794
13016SOL    HW239393   6.716   1.402   0.813
13017SOL     OW39394   5.905   0.810   0.949
13017SOL    HW139395   5.998   0.846   0.954
13017SOL    HW239396   5.899   0.725   1.001
13018SOL     OW39397   5.925   0.509   1.006
13018SOL    HW139398   5.873   0.426   0.989
13018SOL    HW239399   6.002   0.514   0.942
13019SOL     OW39400   5.674   1.801   0.927
13019SOL    HW139401   5.632   1.715   0.900
13019SOL    HW239402   5.768   1.804   0.893
13020SOL     OW39403   6.090   1.568   0.910
13020SOL    HW139404   6.156   1.642   0.919
13020SOL    HW239405   6.134   1.489   0.868
13021SOL     OW39406   6.588   0.796   1.238
13021SOL    HW139407   6.629   0.764   1.324
13021SOL    HW239408   6.492   0.769   1.235
13022SOL     OW39409   5.626   0.544   1.114
13022SOL    HW139410   5.711   0.511   1.073
13022SOL    HW239411   5.639   0.559   1.212
13023SOL     OW39412   5.775   0.520   1.722
13023SOL    HW139413   5.834   0.480   1.652
13023SOL    HW239414   5.717   0.591   1.681
13024SOL     OW39415   6.955   0.950   1.660
13024SOL    HW139416   6.994   1.039   1.680
13024SOL    HW239417   6.965   0.930   1.563
13025SOL     OW39418   7.243   0.604   1.206
13025SOL    HW139419   7.205   0.535   1.268
13025SOL    HW239420   7.325   0.568   1.162
13026SOL     OW39421   5.838   1.564   1.744
13026SOL    HW139422   5.808   1.621   1.820
13026SOL    HW239423   5.831   1.467   1.770
13027SOL     OW39424   6.257   0.464   1.269
13027SOL    HW139425   6.223   0.375   1.239
13027SOL    HW239426   6.283   0.518   1.189
13028SOL     OW39427   6.516   1.678   1.465
13028SOL    HW139428   6.492   1.660   1.370
13028SOL    HW239429   6.546   1.772   1.475
13029SOL     OW39430   5.745   1.137   1.466
13029SOL    HW139431   5.767   1.076   1.542
13029SOL    HW239432   5.755   1.088   1.380
13030SOL     OW39433   6.933   1.059   1.234
13030SOL    HW139434   6.957   0.996   1.160
13030SOL    HW239435   6.843   1.099   1.216
13031SOL     OW39436   6.888   0.855   0.309
13031SOL    HW139437   6.802   0.824   0.351
13031SOL    HW239438   6.884   0.841   0.210
13032SOL     OW39439   7.345   1.747   1.154
13032SOL    HW139440   7.406   1.777   1.081
13032SOL    HW239441   7.307   1.658   1.132
13033SOL     OW39442   6.838   1.731   1.128
13033SOL    HW139443   6.922   1.736   1.074
13033SOL    HW239444   6.815   1.635   1.146
13034SOL     OW39445   5.669   1.258   1.022
13034SOL    HW139446   5.664   1.257   1.122
13034SOL    HW239447   5.586   1.217   0.984
13035SOL     OW39448   6.274   1.662   1.716
13035SOL    HW139449   6.218   1.743   1.725
13035SOL    HW239450   6.326   1.666   1.630
13036SOL     OW39451   6.489   0.086   0.133
13036SOL    HW139452   6.540   0.087   0.047
13036SOL    HW239453   6.545   0.044   0.204
13037SOL     OW39454   6.974   1.573   0.477
13037SOL    HW139455   7.041   1.585   0.403
13037SOL    HW239456   6.934   1.662   0.500
13038SOL     OW39457   5.716   1.794   1.851
13038SOL    HW139458   5.675   1.720   1.904
13038SOL    HW239459   5.780   1.845   1.909
13039SOL     OW39460   6.866   0.927   0.672
13039SOL    HW139461   6.926   0.846   0.674
13039SOL    HW239462   6.906   0.996   0.612
13040SOL     OW39463   6.416   1.273   1.422
13040SOL    HW139464   6.411   1.306   1.517
13040SOL    HW239465   6.330   1.292   1.376
13041SOL     OW39466   7.236   1.720   1.394
13041SOL    HW139467   7.289   1.730   1.310
13041SOL    HW239468   7.209   1.810   1.428
13042SOL     OW39469   5.849   0.326   0.720
13042SOL    HW139470   5.770   0.377   0.686
13042SOL    HW239471   5.840   0.311   0.818
13043SOL     OW39472   6.408   1.002   1.372
13043SOL    HW139473   6.448   1.001   1.280
13043SOL    HW239474   6.418   1.094   1.412
13044SOL     OW39475   5.958   1.288   1.490
13044SOL    HW139476   5.945   1.381   1.456
13044SOL    HW239477   5.874   1.236   1.477
13045SOL     OW39478   7.200   1.292   1.289
13045SOL    HW139479   7.260   1.295   1.369
13045SOL    HW239480   7.125   1.356   1.302
13046SOL     OW39481   6.625   1.098   0.696
13046SOL    HW139482   6.555   1.051   0.750
13046SOL    HW239483   6.684   1.030   0.653
13047SOL     OW39484   6.600   0.236   0.971
13047SOL    HW139485   6.592   0.200   0.878
13047SOL    HW239486   6.598   0.160   1.036
13048SOL     OW39487   6.176   1.487   0.491
13048SOL    HW139488   6.218   1.429   0.421
13048SOL    HW239489   6.132   1.566   0.447
13049SOL     OW39490   5.691   1.013   1.726
13049SOL    HW139491   5.614   0.980   1.780
13049SOL    HW239492   5.776   0.983   1.768
13050SOL     OW39493   7.026   0.856   1.398
13050SOL    HW139494   6.969   0.908   1.335
13050SOL    HW239495   7.122   0.868   1.374
13051SOL     OW39496   6.199   0.842   1.431
13051SOL    HW139497   6.255   0.923   1.414
13051SOL    HW239498   6.258   0.762   1.434
13052SOL     OW39499   7.079   1.767   0.959
13052SOL    HW139500   7.112   1.831   0.890
13052SOL    HW239501   7.145   1.761   1.034
13053SOL     OW39502   6.302   0.565   1.708
13053SOL    HW139503   6.321   0.630   1.782
13053SOL    HW239504   6.362   0.485   1.717
13054SOL     OW39505   7.036   1.220   1.633
13054SOL    HW139506   7.027   1.210   1.732
13054SOL    HW239507   7.132   1.213   1.607
13055SOL     OW39508   5.976   1.741   1.560
13055SOL    HW139509   5.885   1.782   1.558
13055SOL    HW239510   5.969   1.647   1.592
13056SOL     OW39511   7.260   0.883   1.254
13056SOL    HW139512   7.233   0.794   1.217
13056SOL    HW239513   7.261   0.951   1.181
13057SOL     OW39514   6.811   0.325   0.449
13057SOL    HW139515   6.876   0.251   0.438
13057SOL    HW239516   6.831   0.375   0.533
13058SOL     OW39517   6.180   0.745   0.652
13058SOL    HW139518   6.230   0.830   0.633
13058SOL    HW239519   6.092   0.747   0.604
13059SOL     OW39520   7.316   0.934   1.517
13059SOL    HW139521   7.354   1.025   1.532
13059SOL    HW239522   7.308   0.917   1.418
13060SOL     OW39523   6.247   1.790   0.953
13060SOL    HW139524   6.201   1.878   0.940
13060SOL    HW239525   6.346   1.802   0.946
13061SOL     OW39526   6.445   0.956   0.861
13061SOL    HW139527   6.499   0.887   0.909
13061SOL    HW239528   6.413   1.025   0.927
13062SOL     OW39529   7.447   1.569   0.851
13062SOL    HW139530   7.376   1.557   0.781
13062SOL    HW239531   7.448   1.490   0.911
13063SOL     OW39532   5.807   1.314   1.844
13063SOL    HW139533   5.742   1.241   1.823
13063SOL    HW239534   5.811   1.328   1.942
13064SOL     OW39535   5.665   1.240   0.653
13064SOL    HW139536   5.664   1.193   0.741
13064SOL    HW239537   5.747   1.212   0.602
13065SOL     OW39538   6.258   1.391   1.624
13065SOL    HW139539   6.180   1.341   1.662
13065SOL    HW239540   6.255   1.486   1.655
13066SOL     OW39541   6.014   0.424   0.520
13066SOL    HW139542   6.044   0.352   0.458
13066SOL    HW239543   5.975   0.384   0.603
13067SOL     OW39544   7.291   1.487   1.104
13067SOL    HW139545   7.198   1.462   1.077
13067SOL    HW239546   7.317   1.437   1.186
13068SOL     OW39547   5.903   0.547   1.280
13068SOL    HW139548   5.941   0.488   1.352
13068SOL    HW239549   5.943   0.521   1.192
13069SOL     OW39550   6.398   1.586   0.687
13069SOL    HW139551   6.430   1.596   0.593
13069SOL    HW239552   6.319   1.524   0.689
13070SOL     OW39553   6.204   1.567   1.284
13070SOL    HW139554   6.199   1.649   1.341
13070SOL    HW239555   6.293   1.564   1.239
13071SOL     OW39556   6.886   0.453   0.691
13071SOL    HW139557   6.827   0.533   0.695
13071SOL    HW239558   6.901   0.418   0.784
13072SOL     OW39559   6.461   1.646   0.337
13072SOL    HW139560   6.384   1.611   0.283
13072SOL    HW239561   6.429   1.717   0.399
13073SOL     OW39562   5.816   0.628   1.975
13073SOL    HW139563   5.723   0.626   2.012
13073SOL    HW239564   5.817   0.589   1.883
13074SOL     OW39565   5.811   0.275   2.858
13074SOL    HW139566   5.846   0.258   2.950
13074SOL    HW239567   5.723   0.230   2.846
13075SOL     OW39568   5.605   0.368   2.509
13075SOL    HW139569   5.523   0.411   2.548
13075SOL    HW239570   5.577   0.295   2.446
13076SOL     OW39571   6.155   1.275   3.027
13076SOL    HW139572   6.062   1.268   2.990
13076SOL    HW239573   6.166   1.364   3.071
13077SOL     OW39574   7.141   1.511   2.565
13077SOL    HW139575   7.084   1.495   2.646
13077SOL    HW239576   7.082   1.521   2.485
13078SOL     OW39577   6.721   0.703   2.579
13078SOL    HW139578   6.778   0.781   2.554
13078SOL    HW239579   6.661   0.729   2.655
13079SOL     OW39580   7.341   0.607   2.093
13079SOL    HW139581   7.329   0.594   1.994
13079SOL    HW239582   7.311   0.526   2.142
13080SOL     OW39583   6.354   1.144   2.885
13080SOL    HW139584   6.276   1.161   2.945
13080SOL    HW239585   6.388   1.231   2.849
13081SOL     OW39586   6.436   0.798   3.685
13081SOL    HW139587   6.432   0.874   3.750
13081SOL    HW239588   6.458   0.834   3.594
13082SOL     OW39589   6.271   1.012   2.527
13082SOL    HW139590   6.340   0.996   2.597
13082SOL    HW239591   6.198   1.069   2.565
13083SOL     OW39592   6.272   1.161   3.665
13083SOL    HW139593   6.332   1.240   3.679
13083SOL    HW239594   6.186   1.192   3.624
13084SOL     OW39595   5.921   1.435   2.923
13084SOL    HW139596   5.843   1.404   2.870
13084SOL    HW239597   5.979   1.493   2.866
13085SOL     OW39598   7.046   1.505   3.201
13085SOL    HW139599   7.070   1.599   3.227
13085SOL    HW239600   7.030   1.451   3.283
13086SOL     OW39601   6.024   0.392   3.361
13086SOL    HW139602   6.106   0.336   3.370
13086SOL    HW239603   5.943   0.334   3.365
13087SOL     OW39604   7.189   0.447   2.599
13087SOL    HW139605   7.115   0.493   2.549
13087SOL    HW239606   7.240   0.515   2.652
13088SOL     OW39607   5.817   1.713   2.345
13088SOL    HW139608   5.851   1.790   2.399
13088SOL    HW239609   5.861   1.713   2.255
13089SOL     OW39610   6.713   1.341   3.552
13089SOL    HW139611   6.760   1.341   3.640
13089SOL    HW239612   6.665   1.254   3.541
13090SOL     OW39613   5.816   1.434   2.400
13090SOL    HW139614   5.790   1.530   2.400
13090SOL    HW239615   5.745   1.380   2.445
13091SOL     OW39616   5.826   1.091   2.748
13091SOL    HW139617   5.840   1.007   2.800
13091SOL    HW239618   5.771   1.155   2.803
13092SOL     OW39619   6.206   1.786   3.301
13092SOL    HW139620   6.114   1.769   3.336
13092SOL    HW239621   6.234   1.878   3.327
13093SOL     OW39622   6.192   0.964   1.985
13093SOL    HW139623   6.199   1.048   1.931
13093SOL    HW239624   6.238   0.977   2.073
13094SOL     OW39625   5.708   0.643   2.425
13094SOL    HW139626   5.663   0.555   2.442
13094SOL    HW239627   5.707   0.697   2.509
13095SOL     OW39628   7.428   1.767   2.221
13095SOL    HW139629   7.482   1.738   2.301
13095SOL    HW239630   7.458   1.857   2.192
13096SOL     OW39631   5.613   1.596   1.979
13096SOL    HW139632   5.594   1.500   2.000
13096SOL    HW239633   5.580   1.654   2.054
13097SOL     OW39634   7.275   0.922   2.474
13097SOL    HW139635   7.370   0.893   2.482
13097SOL    HW239636   7.267   0.987   2.399
13098SOL     OW39637   7.227   1.108   2.294
13098SOL    HW139638   7.313   1.110   2.242
13098SOL    HW239639   7.241   1.155   2.382
13099SOL     OW39640   5.699   0.737   3.459
13099SOL    HW139641   5.787   0.724   3.504
13099SOL    HW239642   5.686   0.834   3.437
13100SOL     OW39643   6.199   1.365   2.588
13100SOL    HW139644   6.150   1.278   2.597
13100SOL    HW239645   6.176   1.408   2.501
13101SOL     OW39646   6.879   1.228   3.285
13101SOL    HW139647   6.916   1.155   3.227
13101SOL    HW239648   6.931   1.233   3.370
13102SOL     OW39649   5.783   0.976   3.126
13102SOL    HW139650   5.872   0.931   3.112
13102SOL    HW239651   5.710   0.911   3.107
13103SOL     OW39652   7.111   0.999   2.052
13103SOL    HW139653   7.048   0.923   2.065
13103SOL    HW239654   7.159   1.017   2.138
13104SOL     OW39655   6.773   1.792   3.478
13104SOL    HW139656   6.797   1.852   3.402
13104SOL    HW239657   6.780   1.697   3.448
13105SOL     OW39658   5.903   0.251   3.663
13105SOL    HW139659   5.974   0.322   3.669
13105SOL    HW239660   5.815   0.290   3.691
13106SOL     OW39661   7.052   1.417   2.815
13106SOL    HW139662   6.993   1.423   2.895
13106SOL    HW239663   7.037   1.329   2.769
13107SOL     OW39664   7.253   1.714   2.434
13107SOL    HW139665   7.212   1.691   2.346
13107SOL    HW239666   7.235   1.640   2.499
13108SOL     OW39667   6.184   0.729   2.132
13108SOL    HW139668   6.208   0.798   2.064
13108SOL    HW239669   6.106   0.762   2.186
13109SOL     OW39670   7.162   1.662   2.169
13109SOL    HW139671   7.251   1.708   2.172
13109SOL    HW239672   7.141   1.638   2.074
13110SOL     OW39673   6.393   0.605   3.327
13110SOL    HW139674   6.346   0.602   3.416
13110SOL    HW239675   6.342   0.550   3.261
13111SOL     OW39676   6.980   0.469   3.536
13111SOL    HW139677   6.960   0.512   3.624
13111SOL    HW239678   7.058   0.407   3.545
13112SOL     OW39679   6.559   0.890   3.434
13112SOL    HW139680   6.605   0.806   3.405
13112SOL    HW239681   6.503   0.924   3.359
13113SOL     OW39682   6.577   0.410   3.104
13113SOL    HW139683   6.500   0.444   3.158
13113SOL    HW239684   6.543   0.359   3.025
13114SOL     OW39685   6.627   0.701   2.291
13114SOL    HW139686   6.653   0.697   2.387
13114SOL    HW239687   6.542   0.650   2.277
13115SOL     OW39688   5.662   0.811   2.651
13115SOL    HW139689   5.761   0.799   2.660
13115SOL    HW239690   5.638   0.906   2.672
13116SOL     OW39691   5.716   1.821   3.433
13116SOL    HW139692   5.706   1.806   3.532
13116SOL    HW239693   5.630   1.857   3.397
13117SOL     OW39694   6.451   0.348   2.057
13117SOL    HW139695   6.510   0.411   2.008
13117SOL    HW239696   6.470   0.254   2.028
13118SOL     OW39697   7.305   0.585   3.693
13118SOL    HW139698   7.279   0.674   3.657
13118SOL    HW239699   7.303   0.517   3.620
13119SOL     OW39700   6.948   1.144   2.407
13119SOL    HW139701   7.031   1.115   2.359
13119SOL    HW239702   6.899   1.211   2.351
13120SOL     OW39703   6.136   0.196   2.747
13120SOL    HW139704   6.131   0.191   2.847
13120SOL    HW239705   6.138   0.292   2.718
13121SOL     OW39706   6.594   1.456   2.339
13121SOL    HW139707   6.548   1.528   2.287
13121SOL    HW239708   6.590   1.476   2.437
13122SOL     OW39709   5.937   1.801   2.715
13122SOL    HW139710   5.987   1.715   2.721
13122SOL    HW239711   6.002   1.878   2.712
13123SOL     OW39712   7.381   1.066   2.735
13123SOL    HW139713   7.319   1.051   2.659
13123SOL    HW239714   7.329   1.077   2.820
13124SOL     OW39715   6.813   1.550   3.368
13124SOL    HW139716   6.819   1.473   3.432
13124SOL    HW239717   6.761   1.524   3.288
13125SOL     OW39718   5.907   0.943   2.104
13125SOL    HW139719   5.989   0.982   2.062
13125SOL    HW239720   5.880   0.861   2.055
13126SOL     OW39721   7.044   0.735   2.590
13126SOL    HW139722   7.039   0.670   2.665
13126SOL    HW239723   7.124   0.794   2.603
13127SOL     OW39724   6.047   1.266   3.589
13127SOL    HW139725   5.997   1.267   3.503
13127SOL    HW239726   5.984   1.248   3.665
13128SOL     OW39727   6.697   1.776   2.099
13128SOL    HW139728   6.637   1.714   2.149
13128SOL    HW239729   6.728   1.732   2.014
13129SOL     OW39730   5.788   0.285   3.360
13129SOL    HW139731   5.708   0.345   3.347
13129SOL    HW239732   5.778   0.236   3.446
13130SOL     OW39733   7.218   1.377   1.943
13130SOL    HW139734   7.186   1.471   1.933
13130SOL    HW239735   7.142   1.314   1.931
13131SOL     OW39736   6.050   1.743   2.185
13131SOL    HW139737   6.083   1.782   2.271
13131SOL    HW239738   6.126   1.736   2.120
13132SOL     OW39739   5.835   1.785   3.103
13132SOL    HW139740   5.892   1.720   3.153
13132SOL    HW239741   5.819   1.752   3.010
13133SOL     OW39742   6.526   1.698   2.766
13133SOL    HW139743   6.606   1.641   2.787
13133SOL    HW239744   6.477   1.658   2.689
13134SOL     OW39745   5.968   0.700   2.342
13134SOL    HW139746   6.013   0.610   2.339
13134SOL    HW239747   5.874   0.689   2.375
13135SOL     OW39748   6.474   1.514   3.057
13135SOL    HW139749   6.451   1.489   2.963
13135SOL    HW239750   6.535   1.445   3.096
13136SOL     OW39751   6.937   0.590   3.295
13136SOL    HW139752   6.965   0.547   3.380
13136SOL    HW239753   6.962   0.686   3.296
13137SOL     OW39754   6.389   1.402   2.786
13137SOL    HW139755   6.479   1.416   2.744
13137SOL    HW239756   6.318   1.404   2.715
13138SOL     OW39757   6.508   0.503   2.761
13138SOL    HW139758   6.483   0.494   2.665
13138SOL    HW239759   6.556   0.421   2.792
13139SOL     OW39760   6.125   0.064   2.374
13139SOL    HW139761   6.044   0.065   2.432
13139SOL    HW239762   6.128   0.147   2.319
13140SOL     OW39763   7.020   1.188   1.903
13140SOL    HW139764   7.052   1.112   1.960
13140SOL    HW239765   6.928   1.215   1.933
13141SOL     OW39766   5.883   0.035   2.033
13141SOL    HW139767   5.932   0.119   2.012
13141SOL    HW239768   5.945  -0.030   2.078
13142SOL     OW39769   6.521   0.236   2.342
13142SOL    HW139770   6.473   0.277   2.264
13142SOL    HW239771   6.620   0.234   2.323
13143SOL     OW39772   6.662   0.683   3.326
13143SOL    HW139773   6.582   0.622   3.329
13143SOL    HW239774   6.743   0.630   3.302
13144SOL     OW39775   6.813   1.570   2.655
13144SOL    HW139776   6.834   1.644   2.590
13144SOL    HW239777   6.881   1.570   2.728
13145SOL     OW39778   6.045   1.152   2.603
13145SOL    HW139779   5.974   1.125   2.668
13145SOL    HW239780   6.019   1.124   2.510
13146SOL     OW39781   6.857   1.797   2.453
13146SOL    HW139782   6.901   1.861   2.389
13146SOL    HW239783   6.807   1.849   2.523
13147SOL     OW39784   6.618   0.549   1.878
13147SOL    HW139785   6.577   0.631   1.839
13147SOL    HW239786   6.682   0.575   1.951
13148SOL     OW39787   5.664   0.556   3.248
13148SOL    HW139788   5.756   0.555   3.207
13148SOL    HW239789   5.658   0.630   3.315
13149SOL     OW39790   6.147   0.222   3.009
13149SOL    HW139791   6.185   0.138   3.046
13149SOL    HW239792   6.059   0.241   3.053
13150SOL     OW39793   6.452   0.454   2.504
13150SOL    HW139794   6.420   0.526   2.442
13150SOL    HW239795   6.476   0.373   2.451
13151SOL     OW39796   6.603   0.039   2.615
13151SOL    HW139797   6.531   0.044   2.546
13151SOL    HW239798   6.579  -0.030   2.684
13152SOL     OW39799   7.015   1.173   2.729
13152SOL    HW139800   6.960   1.089   2.722
13152SOL    HW239801   7.041   1.202   2.637
13153SOL     OW39802   7.052   0.590   2.854
13153SOL    HW139803   7.022   0.495   2.861
13153SOL    HW239804   7.125   0.606   2.920
13154SOL     OW39805   7.443   0.833   2.239
13154SOL    HW139806   7.485   0.769   2.303
13154SOL    HW239807   7.405   0.782   2.161
13155SOL     OW39808   6.074   1.385   2.036
13155SOL    HW139809   5.987   1.370   2.083
13155SOL    HW239810   6.057   1.411   1.941
13156SOL     OW39811   7.250   1.280   2.519
13156SOL    HW139812   7.349   1.288   2.533
13156SOL    HW239813   7.205   1.364   2.550
13157SOL     OW39814   6.976   0.575   1.940
13157SOL    HW139815   6.922   0.554   2.021
13157SOL    HW239816   7.067   0.534   1.949
13158SOL     OW39817   6.113   0.256   2.190
13158SOL    HW139818   6.140   0.197   2.115
13158SOL    HW239819   6.113   0.351   2.159
13159SOL     OW39820   7.340   1.223   3.450
13159SOL    HW139821   7.431   1.184   3.437
13159SOL    HW239822   7.348   1.319   3.474
13160SOL     OW39823   6.650   1.347   3.202
13160SOL    HW139824   6.570   1.324   3.257
13160SOL    HW239825   6.733   1.321   3.251
13161SOL     OW39826   7.178   1.629   3.487
13161SOL    HW139827   7.205   1.663   3.397
13161SOL    HW239828   7.257   1.591   3.533
13162SOL     OW39829   6.697   1.195   2.962
13162SOL    HW139830   6.657   1.239   3.043
13162SOL    HW239831   6.656   1.232   2.879
13163SOL     OW39832   7.224   1.099   2.941
13163SOL    HW139833   7.229   1.180   3.000
13163SOL    HW239834   7.138   1.101   2.890
13164SOL     OW39835   6.566   1.116   3.581
13164SOL    HW139836   6.467   1.122   3.591
13164SOL    HW239837   6.589   1.036   3.525
13165SOL     OW39838   6.291   1.050   2.230
13165SOL    HW139839   6.277   1.057   2.329
13165SOL    HW239840   6.375   0.999   2.212
13166SOL     OW39841   5.996   0.813   3.113
13166SOL    HW139842   6.082   0.825   3.163
13166SOL    HW239843   5.954   0.726   3.140
13167SOL     OW39844   6.860   0.386   3.124
13167SOL    HW139845   6.881   0.460   3.188
13167SOL    HW239846   6.771   0.403   3.081
13168SOL     OW39847   5.650   1.564   3.193
13168SOL    HW139848   5.604   1.646   3.159
13168SOL    HW239849   5.748   1.583   3.202
13169SOL     OW39850   5.953   1.100   2.363
13169SOL    HW139851   5.946   1.183   2.307
13169SOL    HW239852   5.957   1.020   2.303
13170SOL     OW39853   6.152   0.537   2.727
13170SOL    HW139854   6.164   0.603   2.653
13170SOL    HW239855   6.198   0.571   2.810
13171SOL     OW39856   6.838   1.348   2.250
13171SOL    HW139857   6.888   1.425   2.290
13171SOL    HW239858   6.743   1.350   2.282
13172SOL     OW39859   6.858   1.445   3.004
13172SOL    HW139860   6.905   1.458   3.091
13172SOL    HW239861   6.792   1.371   3.013
13173SOL     OW39862   7.168   0.639   2.334
13173SOL    HW139863   7.137   0.700   2.407
13173SOL    HW239864   7.218   0.691   2.265
13174SOL     OW39865   5.940   1.510   3.191
13174SOL    HW139866   5.919   1.466   3.104
13174SOL    HW239867   6.037   1.536   3.194
13175SOL     OW39868   5.988   0.751   3.460
13175SOL    HW139869   6.056   0.806   3.413
13175SOL    HW239870   6.028   0.663   3.487
13176SOL     OW39871   7.173   0.779   3.532
13176SOL    HW139872   7.081   0.817   3.527
13176SOL    HW239873   7.233   0.826   3.467
13177SOL     OW39874   6.090   0.050   3.602
13177SOL    HW139875   6.048  -0.007   3.532
13177SOL    HW239876   6.024   0.119   3.634
13178SOL     OW39877   6.159   0.870   2.891
13178SOL    HW139878   6.203   0.959   2.882
13178SOL    HW239879   6.096   0.870   2.968
13179SOL     OW39880   6.946   0.862   2.907
13179SOL    HW139881   6.871   0.862   2.841
13179SOL    HW239882   6.983   0.770   2.916
13180SOL     OW39883   6.795   0.525   2.137
13180SOL    HW139884   6.808   0.441   2.191
13180SOL    HW239885   6.766   0.599   2.197
13181SOL     OW39886   5.893   0.213   3.093
13181SOL    HW139887   5.870   0.250   3.183
13181SOL    HW239888   5.863   0.118   3.087
13182SOL     OW39889   5.623   1.310   3.144
13182SOL    HW139890   5.676   1.261   3.212
13182SOL    HW239891   5.645   1.408   3.149
13183SOL     OW39892   6.318   0.634   2.926
13183SOL    HW139893   6.377   0.608   2.850
13183SOL    HW239894   6.290   0.730   2.915
13184SOL     OW39895   7.314   0.935   3.716
13184SOL    HW139896   7.268   0.928   3.627
13184SOL    HW239897   7.252   0.979   3.782
13185SOL     OW39898   5.893   0.063   2.480
13185SOL    HW139899   5.882   0.157   2.513
13185SOL    HW239900   5.888   0.000   2.557
13186SOL     OW39901   6.609   0.766   2.828
13186SOL    HW139902   6.624   0.787   2.924
13186SOL    HW239903   6.579   0.671   2.819
13187SOL     OW39904   6.566   1.573   3.562
13187SOL    HW139905   6.546   1.617   3.474
13187SOL    HW239906   6.605   1.482   3.546
13188SOL     OW39907   7.445   1.518   3.467
13188SOL    HW139908   7.459   1.545   3.372
13188SOL    HW239909   7.528   1.540   3.520
13189SOL     OW39910   5.936   0.898   3.666
13189SOL    HW139911   6.012   0.942   3.714
13189SOL    HW239912   5.971   0.851   3.584
13190SOL     OW39913   6.889   0.838   1.904
13190SOL    HW139914   6.923   0.745   1.919
13190SOL    HW239915   6.907   0.865   1.809
13191SOL     OW39916   6.654   1.333   2.711
13191SOL    HW139917   6.661   1.249   2.656
13191SOL    HW239918   6.716   1.402   2.675
13192SOL     OW39919   5.905   0.810   2.811
13192SOL    HW139920   5.998   0.846   2.816
13192SOL    HW239921   5.899   0.725   2.863
13193SOL     OW39922   5.925   0.509   2.868
13193SOL    HW139923   5.873   0.426   2.851
13193SOL    HW239924   6.002   0.514   2.804
13194SOL     OW39925   5.594   1.326   2.062
13194SOL    HW139926   5.501   1.347   2.031
13194SOL    HW239927   5.604   1.227   2.075
13195SOL     OW39928   5.674   1.801   2.789
13195SOL    HW139929   5.632   1.715   2.762
13195SOL    HW239930   5.768   1.804   2.755
13196SOL     OW39931   6.090   1.568   2.772
13196SOL    HW139932   6.156   1.642   2.781
13196SOL    HW239933   6.134   1.489   2.730
13197SOL     OW39934   6.588   0.796   3.100
13197SOL    HW139935   6.629   0.764   3.186
13197SOL    HW239936   6.492   0.769   3.097
13198SOL     OW39937   5.626   0.544   2.976
13198SOL    HW139938   5.711   0.511   2.935
13198SOL    HW239939   5.639   0.559   3.074
13199SOL     OW39940   5.775   0.520   3.584
13199SOL    HW139941   5.834   0.480   3.514
13199SOL    HW239942   5.717   0.591   3.543
13200SOL     OW39943   6.955   0.950   3.522
13200SOL    HW139944   6.994   1.039   3.542
13200SOL    HW239945   6.965   0.930   3.425
13201SOL     OW39946   6.401   0.572   2.187
13201SOL    HW139947   6.408   0.483   2.141
13201SOL    HW239948   6.307   0.606   2.179
13202SOL     OW39949   7.243   0.604   3.068
13202SOL    HW139950   7.205   0.535   3.130
13202SOL    HW239951   7.325   0.568   3.024
13203SOL     OW39952   5.838   1.564   3.606
13203SOL    HW139953   5.808   1.621   3.682
13203SOL    HW239954   5.831   1.467   3.632
13204SOL     OW39955   6.257   0.464   3.131
13204SOL    HW139956   6.223   0.375   3.101
13204SOL    HW239957   6.283   0.518   3.051
13205SOL     OW39958   6.516   1.678   3.327
13205SOL    HW139959   6.492   1.660   3.232
13205SOL    HW239960   6.546   1.772   3.337
13206SOL     OW39961   6.059   0.500   2.053
13206SOL    HW139962   6.120   0.580   2.057
13206SOL    HW239963   5.964   0.531   2.060
13207SOL     OW39964   5.745   1.137   3.328
13207SOL    HW139965   5.767   1.076   3.404
13207SOL    HW239966   5.755   1.088   3.242
13208SOL     OW39967   6.933   1.059   3.096
13208SOL    HW139968   6.957   0.996   3.022
13208SOL    HW239969   6.843   1.099   3.078
13209SOL     OW39970   6.888   0.855   2.171
13209SOL    HW139971   6.802   0.824   2.213
13209SOL    HW239972   6.884   0.841   2.072
13210SOL     OW39973   7.345   1.747   3.016
13210SOL    HW139974   7.406   1.777   2.943
13210SOL    HW239975   7.307   1.658   2.994
13211SOL     OW39976   6.838   1.731   2.990
13211SOL    HW139977   6.922   1.736   2.936
13211SOL    HW239978   6.815   1.635   3.008
13212SOL     OW39979   5.669   1.258   2.884
13212SOL    HW139980   5.664   1.257   2.984
13212SOL    HW239981   5.586   1.217   2.846
13213SOL     OW39982   6.274   1.662   3.578
13213SOL    HW139983   6.218   1.743   3.587
13213SOL    HW239984   6.326   1.666   3.492
13214SOL     OW39985   6.974   1.573   2.339
13214SOL    HW139986   7.041   1.585   2.265
13214SOL    HW239987   6.934   1.662   2.362
13215SOL     OW39988   5.716   1.794   3.713
13215SOL    HW139989   5.675   1.720   3.766
13215SOL    HW239990   5.780   1.845   3.771
13216SOL     OW39991   6.866   0.927   2.534
13216SOL    HW139992   6.926   0.846   2.536
13216SOL    HW239993   6.906   0.996   2.474
13217SOL     OW39994   6.416   1.273   3.284
13217SOL    HW139995   6.411   1.306   3.379
13217SOL    HW239996   6.330   1.292   3.238
13218SOL     OW39997   6.258   1.616   2.016
13218SOL    HW139998   6.267   1.626   1.917
13218SOL    HW239999   6.218   1.527   2.037
13219SOL     OW40000   7.236   1.720   3.256
13219SOL    HW140001   7.289   1.730   3.172
13219SOL    HW240002   7.209   1.810   3.290
13220SOL     OW40003   5.849   0.326   2.582
13220SOL    HW140004   5.770   0.377   2.548
13220SOL    HW240005   5.840   0.311   2.680
13221SOL     OW40006   6.780   1.612   1.893
13221SOL    HW140007   6.786   1.519   1.930
13221SOL    HW240008   6.721   1.612   1.813
13222SOL     OW40009   6.408   1.002   3.234
13222SOL    HW140010   6.448   1.001   3.142
13222SOL    HW240011   6.418   1.094   3.274
13223SOL     OW40012   6.502   0.910   2.153
13223SOL    HW140013   6.565   0.948   2.085
13223SOL    HW240014   6.542   0.827   2.192
13224SOL     OW40015   7.090   1.607   1.906
13224SOL    HW140016   6.998   1.644   1.913
13224SOL    HW240017   7.128   1.627   1.816
13225SOL     OW40018   5.958   1.288   3.352
13225SOL    HW140019   5.945   1.381   3.318
13225SOL    HW240020   5.874   1.236   3.339
13226SOL     OW40021   7.200   1.292   3.151
13226SOL    HW140022   7.260   1.295   3.231
13226SOL    HW240023   7.125   1.356   3.164
13227SOL     OW40024   6.625   1.098   2.558
13227SOL    HW140025   6.555   1.051   2.612
13227SOL    HW240026   6.684   1.030   2.515
13228SOL     OW40027   6.600   0.236   2.833
13228SOL    HW140028   6.592   0.200   2.740
13228SOL    HW240029   6.598   0.160   2.898
13229SOL     OW40030   6.176   1.487   2.353
13229SOL    HW140031   6.218   1.429   2.283
13229SOL    HW240032   6.132   1.566   2.309
13230SOL     OW40033   5.841   1.348   2.152
13230SOL    HW140034   5.745   1.349   2.125
13230SOL    HW240035   5.853   1.401   2.236
13231SOL     OW40036   5.691   1.013   3.588
13231SOL    HW140037   5.614   0.980   3.642
13231SOL    HW240038   5.776   0.983   3.630
13232SOL     OW40039   5.661   0.345   1.895
13232SOL    HW140040   5.569   0.317   1.866
13232SOL    HW240041   5.692   0.422   1.839
13233SOL     OW40042   7.026   0.856   3.260
13233SOL    HW140043   6.969   0.908   3.197
13233SOL    HW240044   7.122   0.868   3.236
13234SOL     OW40045   5.658   0.166   2.180
13234SOL    HW140046   5.641   0.249   2.126
13234SOL    HW240047   5.748   0.129   2.158
13235SOL     OW40048   6.769   1.335   1.981
13235SOL    HW140049   6.670   1.324   1.983
13235SOL    HW240050   6.803   1.350   2.074
13236SOL     OW40051   6.199   0.842   3.293
13236SOL    HW140052   6.255   0.923   3.276
13236SOL    HW240053   6.258   0.762   3.296
13237SOL     OW40054   7.079   1.767   2.821
13237SOL    HW140055   7.112   1.831   2.752
13237SOL    HW240056   7.145   1.761   2.896
13238SOL     OW40057   6.302   0.565   3.570
13238SOL    HW140058   6.321   0.630   3.644
13238SOL    HW240059   6.362   0.485   3.579
13239SOL     OW40060   7.036   1.220   3.495
13239SOL    HW140061   7.027   1.210   3.594
13239SOL    HW240062   7.132   1.213   3.469
13240SOL     OW40063   5.976   1.741   3.422
13240SOL    HW140064   5.885   1.782   3.420
13240SOL    HW240065   5.969   1.647   3.454
13241SOL     OW40066   7.260   0.883   3.116
13241SOL    HW140067   7.233   0.794   3.079
13241SOL    HW240068   7.261   0.951   3.043
13242SOL     OW40069   6.811   0.325   2.311
13242SOL    HW140070   6.876   0.251   2.300
13242SOL    HW240071   6.831   0.375   2.395
13243SOL     OW40072   6.180   0.745   2.514
13243SOL    HW140073   6.230   0.830   2.495
13243SOL    HW240074   6.092   0.747   2.466
13244SOL     OW40075   7.316   0.934   3.379
13244SOL    HW140076   7.354   1.025   3.394
13244SOL    HW240077   7.308   0.917   3.280
13245SOL     OW40078   6.445   1.374   1.878
13245SOL    HW140079   6.399   1.389   1.966
13245SOL    HW240080   6.489   1.459   1.848
13246SOL     OW40081   6.247   1.790   2.815
13246SOL    HW140082   6.201   1.878   2.802
13246SOL    HW240083   6.346   1.802   2.808
13247SOL     OW40084   6.445   0.956   2.723
13247SOL    HW140085   6.499   0.887   2.771
13247SOL    HW240086   6.413   1.025   2.789
13248SOL     OW40087   6.669   0.984   1.949
13248SOL    HW140088   6.646   1.037   1.867
13248SOL    HW240089   6.750   0.928   1.930
13249SOL     OW40090   7.447   1.569   2.713
13249SOL    HW140091   7.376   1.557   2.643
13249SOL    HW240092   7.448   1.490   2.773
13250SOL     OW40093   5.807   1.314   3.706
13250SOL    HW140094   5.742   1.241   3.685
13250SOL    HW240095   5.811   1.328   3.804
13251SOL     OW40096   5.665   1.240   2.515
13251SOL    HW140097   5.664   1.193   2.603
13251SOL    HW240098   5.747   1.212   2.464
13252SOL     OW40099   6.258   1.391   3.486
13252SOL    HW140100   6.180   1.341   3.524
13252SOL    HW240101   6.255   1.486   3.517
13253SOL     OW40102   6.014   0.424   2.382
13253SOL    HW140103   6.044   0.352   2.320
13253SOL    HW240104   5.975   0.384   2.465
13254SOL     OW40105   7.291   1.487   2.966
13254SOL    HW140106   7.198   1.462   2.939
13254SOL    HW240107   7.317   1.437   3.048
13255SOL     OW40108   5.903   0.547   3.142
13255SOL    HW140109   5.941   0.488   3.214
13255SOL    HW240110   5.943   0.521   3.054
13256SOL     OW40111   6.398   1.586   2.549
13256SOL    HW140112   6.430   1.596   2.455
13256SOL    HW240113   6.319   1.524   2.551
13257SOL     OW40114   6.356   1.330   2.163
13257SOL    HW140115   6.310   1.243   2.180
13257SOL    HW240116   6.447   1.327   2.204
13258SOL     OW40117   6.204   1.567   3.146
13258SOL    HW140118   6.199   1.649   3.203
13258SOL    HW240119   6.293   1.564   3.101
13259SOL     OW40120   6.886   0.453   2.553
13259SOL    HW140121   6.827   0.533   2.557
13259SOL    HW240122   6.901   0.418   2.646
13260SOL     OW40123   5.625   1.077   2.162
13260SOL    HW140124   5.724   1.066   2.153
13260SOL    HW240125   5.585   0.991   2.194
13261SOL     OW40126   6.461   1.646   2.199
13261SOL    HW140127   6.384   1.611   2.145
13261SOL    HW240128   6.429   1.717   2.261
13262SOL     OW40129   5.816   0.628   3.837
13262SOL    HW140130   5.723   0.626   3.874
13262SOL    HW240131   5.817   0.589   3.745
13263SOL     OW40132   5.811   0.275   4.720
13263SOL    HW140133   5.846   0.258   4.812
13263SOL    HW240134   5.723   0.230   4.708
13264SOL     OW40135   5.605   0.368   4.371
13264SOL    HW140136   5.523   0.411   4.410
13264SOL    HW240137   5.577   0.295   4.308
13265SOL     OW40138   6.155   1.275   4.889
13265SOL    HW140139   6.062   1.268   4.852
13265SOL    HW240140   6.166   1.364   4.933
13266SOL     OW40141   7.141   1.511   4.427
13266SOL    HW140142   7.084   1.495   4.508
13266SOL    HW240143   7.082   1.521   4.347
13267SOL     OW40144   6.721   0.703   4.441
13267SOL    HW140145   6.778   0.781   4.416
13267SOL    HW240146   6.661   0.729   4.517
13268SOL     OW40147   7.341   0.607   3.955
13268SOL    HW140148   7.329   0.594   3.856
13268SOL    HW240149   7.311   0.526   4.004
13269SOL     OW40150   6.354   1.144   4.747
13269SOL    HW140151   6.276   1.161   4.807
13269SOL    HW240152   6.388   1.231   4.711
13270SOL     OW40153   6.436   0.798   5.547
13270SOL    HW140154   6.432   0.874   5.612
13270SOL    HW240155   6.458   0.834   5.456
13271SOL     OW40156   6.271   1.012   4.389
13271SOL    HW140157   6.340   0.996   4.459
13271SOL    HW240158   6.198   1.069   4.427
13272SOL     OW40159   6.272   1.161   5.527
13272SOL    HW140160   6.332   1.240   5.541
13272SOL    HW240161   6.186   1.192   5.486
13273SOL     OW40162   5.921   1.435   4.785
13273SOL    HW140163   5.843   1.404   4.732
13273SOL    HW240164   5.979   1.493   4.728
13274SOL     OW40165   7.046   1.505   5.063
13274SOL    HW140166   7.070   1.599   5.089
13274SOL    HW240167   7.030   1.451   5.145
13275SOL     OW40168   6.024   0.392   5.223
13275SOL    HW140169   6.106   0.336   5.232
13275SOL    HW240170   5.943   0.334   5.227
13276SOL     OW40171   7.189   0.447   4.461
13276SOL    HW140172   7.115   0.493   4.411
13276SOL    HW240173   7.240   0.515   4.514
13277SOL     OW40174   5.817   1.713   4.207
13277SOL    HW140175   5.851   1.790   4.261
13277SOL    HW240176   5.861   1.713   4.117
13278SOL     OW40177   6.713   1.341   5.414
13278SOL    HW140178   6.760   1.341   5.502
13278SOL    HW240179   6.665   1.254   5.403
13279SOL     OW40180   5.816   1.434   4.262
13279SOL    HW140181   5.790   1.530   4.262
13279SOL    HW240182   5.745   1.380   4.307
13280SOL     OW40183   5.826   1.091   4.610
13280SOL    HW140184   5.840   1.007   4.662
13280SOL    HW240185   5.771   1.155   4.665
13281SOL     OW40186   6.206   1.786   5.163
13281SOL    HW140187   6.114   1.769   5.198
13281SOL    HW240188   6.234   1.878   5.189
13282SOL     OW40189   6.192   0.964   3.847
13282SOL    HW140190   6.199   1.048   3.793
13282SOL    HW240191   6.238   0.977   3.935
13283SOL     OW40192   5.708   0.643   4.287
13283SOL    HW140193   5.663   0.555   4.304
13283SOL    HW240194   5.707   0.697   4.371
13284SOL     OW40195   7.428   1.767   4.083
13284SOL    HW140196   7.482   1.738   4.163
13284SOL    HW240197   7.458   1.857   4.054
13285SOL     OW40198   5.613   1.596   3.841
13285SOL    HW140199   5.594   1.500   3.862
13285SOL    HW240200   5.580   1.654   3.916
13286SOL     OW40201   7.275   0.922   4.336
13286SOL    HW140202   7.370   0.893   4.344
13286SOL    HW240203   7.267   0.987   4.261
13287SOL     OW40204   7.227   1.108   4.156
13287SOL    HW140205   7.313   1.110   4.104
13287SOL    HW240206   7.241   1.155   4.244
13288SOL     OW40207   5.699   0.737   5.321
13288SOL    HW140208   5.787   0.724   5.366
13288SOL    HW240209   5.686   0.834   5.299
13289SOL     OW40210   6.199   1.365   4.450
13289SOL    HW140211   6.150   1.278   4.459
13289SOL    HW240212   6.176   1.408   4.363
13290SOL     OW40213   6.879   1.228   5.147
13290SOL    HW140214   6.916   1.155   5.089
13290SOL    HW240215   6.931   1.233   5.232
13291SOL     OW40216   5.783   0.976   4.988
13291SOL    HW140217   5.872   0.931   4.974
13291SOL    HW240218   5.710   0.911   4.969
13292SOL     OW40219   7.111   0.999   3.914
13292SOL    HW140220   7.048   0.923   3.927
13292SOL    HW240221   7.159   1.017   4.000
13293SOL     OW40222   6.773   1.792   5.340
13293SOL    HW140223   6.797   1.852   5.264
13293SOL    HW240224   6.780   1.697   5.310
13294SOL     OW40225   5.903   0.251   5.525
13294SOL    HW140226   5.974   0.322   5.531
13294SOL    HW240227   5.815   0.290   5.553
13295SOL     OW40228   7.052   1.417   4.677
13295SOL    HW140229   6.993   1.423   4.757
13295SOL    HW240230   7.037   1.329   4.631
13296SOL     OW40231   7.253   1.714   4.296
13296SOL    HW140232   7.212   1.691   4.208
13296SOL    HW240233   7.235   1.640   4.361
13297SOL     OW40234   6.184   0.729   3.994
13297SOL    HW140235   6.208   0.798   3.926
13297SOL    HW240236   6.106   0.762   4.048
13298SOL     OW40237   7.162   1.662   4.031
13298SOL    HW140238   7.251   1.708   4.034
13298SOL    HW240239   7.141   1.638   3.936
13299SOL     OW40240   6.393   0.605   5.189
13299SOL    HW140241   6.346   0.602   5.278
13299SOL    HW240242   6.342   0.550   5.123
13300SOL     OW40243   6.980   0.469   5.398
13300SOL    HW140244   6.960   0.512   5.486
13300SOL    HW240245   7.058   0.407   5.407
13301SOL     OW40246   6.559   0.890   5.296
13301SOL    HW140247   6.605   0.806   5.267
13301SOL    HW240248   6.503   0.924   5.221
13302SOL     OW40249   6.577   0.410   4.966
13302SOL    HW140250   6.500   0.444   5.020
13302SOL    HW240251   6.543   0.359   4.887
13303SOL     OW40252   6.627   0.701   4.153
13303SOL    HW140253   6.653   0.697   4.249
13303SOL    HW240254   6.542   0.650   4.139
13304SOL     OW40255   5.662   0.811   4.513
13304SOL    HW140256   5.761   0.799   4.522
13304SOL    HW240257   5.638   0.906   4.534
13305SOL     OW40258   5.716   1.821   5.295
13305SOL    HW140259   5.706   1.806   5.394
13305SOL    HW240260   5.630   1.857   5.259
13306SOL     OW40261   6.451   0.348   3.919
13306SOL    HW140262   6.510   0.411   3.870
13306SOL    HW240263   6.470   0.254   3.890
13307SOL     OW40264   7.305   0.585   5.555
13307SOL    HW140265   7.279   0.674   5.519
13307SOL    HW240266   7.303   0.517   5.482
13308SOL     OW40267   6.948   1.144   4.269
13308SOL    HW140268   7.031   1.115   4.221
13308SOL    HW240269   6.899   1.211   4.213
13309SOL     OW40270   6.136   0.196   4.609
13309SOL    HW140271   6.131   0.191   4.709
13309SOL    HW240272   6.138   0.292   4.580
13310SOL     OW40273   6.594   1.456   4.201
13310SOL    HW140274   6.548   1.528   4.149
13310SOL    HW240275   6.590   1.476   4.299
13311SOL     OW40276   5.937   1.801   4.577
13311SOL    HW140277   5.987   1.715   4.583
13311SOL    HW240278   6.002   1.878   4.574
13312SOL     OW40279   7.381   1.066   4.597
13312SOL    HW140280   7.319   1.051   4.521
13312SOL    HW240281   7.329   1.077   4.682
13313SOL     OW40282   6.813   1.550   5.230
13313SOL    HW140283   6.819   1.473   5.294
13313SOL    HW240284   6.761   1.524   5.150
13314SOL     OW40285   5.907   0.943   3.966
13314SOL    HW140286   5.989   0.982   3.924
13314SOL    HW240287   5.880   0.861   3.917
13315SOL     OW40288   7.044   0.735   4.452
13315SOL    HW140289   7.039   0.670   4.527
13315SOL    HW240290   7.124   0.794   4.465
13316SOL     OW40291   6.047   1.266   5.451
13316SOL    HW140292   5.997   1.267   5.365
13316SOL    HW240293   5.984   1.248   5.527
13317SOL     OW40294   6.697   1.776   3.961
13317SOL    HW140295   6.637   1.714   4.011
13317SOL    HW240296   6.728   1.732   3.876
13318SOL     OW40297   5.788   0.285   5.222
13318SOL    HW140298   5.708   0.345   5.209
13318SOL    HW240299   5.778   0.236   5.308
13319SOL     OW40300   7.218   1.377   3.805
13319SOL    HW140301   7.186   1.471   3.795
13319SOL    HW240302   7.142   1.314   3.793
13320SOL     OW40303   6.050   1.743   4.047
13320SOL    HW140304   6.083   1.782   4.133
13320SOL    HW240305   6.126   1.736   3.982
13321SOL     OW40306   5.835   1.785   4.965
13321SOL    HW140307   5.892   1.720   5.015
13321SOL    HW240308   5.819   1.752   4.872
13322SOL     OW40309   6.526   1.698   4.628
13322SOL    HW140310   6.606   1.641   4.649
13322SOL    HW240311   6.477   1.658   4.551
13323SOL     OW40312   5.968   0.700   4.204
13323SOL    HW140313   6.013   0.610   4.201
13323SOL    HW240314   5.874   0.689   4.237
13324SOL     OW40315   6.474   1.514   4.919
13324SOL    HW140316   6.451   1.489   4.825
13324SOL    HW240317   6.535   1.445   4.958
13325SOL     OW40318   6.937   0.590   5.157
13325SOL    HW140319   6.965   0.547   5.242
13325SOL    HW240320   6.962   0.686   5.158
13326SOL     OW40321   6.389   1.402   4.648
13326SOL    HW140322   6.479   1.416   4.606
13326SOL    HW240323   6.318   1.404   4.577
13327SOL     OW40324   6.508   0.503   4.623
13327SOL    HW140325   6.483   0.494   4.527
13327SOL    HW240326   6.556   0.421   4.654
13328SOL     OW40327   6.125   0.064   4.236
13328SOL    HW140328   6.044   0.065   4.294
13328SOL    HW240329   6.128   0.147   4.181
13329SOL     OW40330   7.020   1.188   3.765
13329SOL    HW140331   7.052   1.112   3.822
13329SOL    HW240332   6.928   1.215   3.795
13330SOL     OW40333   5.883   0.035   3.895
13330SOL    HW140334   5.932   0.119   3.874
13330SOL    HW240335   5.945  -0.030   3.940
13331SOL     OW40336   6.521   0.236   4.204
13331SOL    HW140337   6.473   0.277   4.126
13331SOL    HW240338   6.620   0.234   4.185
13332SOL     OW40339   6.662   0.683   5.188
13332SOL    HW140340   6.582   0.622   5.191
13332SOL    HW240341   6.743   0.630   5.164
13333SOL     OW40342   6.813   1.570   4.517
13333SOL    HW140343   6.834   1.644   4.452
13333SOL    HW240344   6.881   1.570   4.590
13334SOL     OW40345   6.045   1.152   4.465
13334SOL    HW140346   5.974   1.125   4.530
13334SOL    HW240347   6.019   1.124   4.372
13335SOL     OW40348   6.857   1.797   4.315
13335SOL    HW140349   6.901   1.861   4.251
13335SOL    HW240350   6.807   1.849   4.385
13336SOL     OW40351   6.618   0.549   3.740
13336SOL    HW140352   6.577   0.631   3.701
13336SOL    HW240353   6.682   0.575   3.813
13337SOL     OW40354   5.664   0.556   5.110
13337SOL    HW140355   5.756   0.555   5.069
13337SOL    HW240356   5.658   0.630   5.177
13338SOL     OW40357   6.147   0.222   4.871
13338SOL    HW140358   6.185   0.138   4.908
13338SOL    HW240359   6.059   0.241   4.915
13339SOL     OW40360   6.452   0.454   4.366
13339SOL    HW140361   6.420   0.526   4.304
13339SOL    HW240362   6.476   0.373   4.313
13340SOL     OW40363   6.603   0.039   4.477
13340SOL    HW140364   6.531   0.044   4.408
13340SOL    HW240365   6.579  -0.030   4.546
13341SOL     OW40366   7.015   1.173   4.591
13341SOL    HW140367   6.960   1.089   4.584
13341SOL    HW240368   7.041   1.202   4.499
13342SOL     OW40369   7.052   0.590   4.716
13342SOL    HW140370   7.022   0.495   4.723
13342SOL    HW240371   7.125   0.606   4.782
13343SOL     OW40372   7.443   0.833   4.101
13343SOL    HW140373   7.485   0.769   4.165
13343SOL    HW240374   7.405   0.782   4.023
13344SOL     OW40375   6.074   1.385   3.898
13344SOL    HW140376   5.987   1.370   3.945
13344SOL    HW240377   6.057   1.411   3.803
13345SOL     OW40378   7.250   1.280   4.381
13345SOL    HW140379   7.349   1.288   4.395
13345SOL    HW240380   7.205   1.364   4.412
13346SOL     OW40381   6.976   0.575   3.802
13346SOL    HW140382   6.922   0.554   3.883
13346SOL    HW240383   7.067   0.534   3.811
13347SOL     OW40384   6.113   0.256   4.052
13347SOL    HW140385   6.140   0.197   3.977
13347SOL    HW240386   6.113   0.351   4.021
13348SOL     OW40387   7.340   1.223   5.312
13348SOL    HW140388   7.431   1.184   5.299
13348SOL    HW240389   7.348   1.319   5.336
13349SOL     OW40390   6.650   1.347   5.064
13349SOL    HW140391   6.570   1.324   5.119
13349SOL    HW240392   6.733   1.321   5.113
13350SOL     OW40393   7.178   1.629   5.349
13350SOL    HW140394   7.205   1.663   5.259
13350SOL    HW240395   7.257   1.591   5.395
13351SOL     OW40396   6.697   1.195   4.824
13351SOL    HW140397   6.657   1.239   4.905
13351SOL    HW240398   6.656   1.232   4.741
13352SOL     OW40399   7.224   1.099   4.803
13352SOL    HW140400   7.229   1.180   4.862
13352SOL    HW240401   7.138   1.101   4.752
13353SOL     OW40402   6.566   1.116   5.443
13353SOL    HW140403   6.467   1.122   5.453
13353SOL    HW240404   6.589   1.036   5.387
13354SOL     OW40405   6.291   1.050   4.092
13354SOL    HW140406   6.277   1.057   4.191
13354SOL    HW240407   6.375   0.999   4.074
13355SOL     OW40408   5.996   0.813   4.975
13355SOL    HW140409   6.082   0.825   5.025
13355SOL    HW240410   5.954   0.726   5.002
13356SOL     OW40411   6.860   0.386   4.986
13356SOL    HW140412   6.881   0.460   5.050
13356SOL    HW240413   6.771   0.403   4.943
13357SOL     OW40414   5.650   1.564   5.055
13357SOL    HW140415   5.604   1.646   5.021
13357SOL    HW240416   5.748   1.583   5.064
13358SOL     OW40417   5.953   1.100   4.225
13358SOL    HW140418   5.946   1.183   4.169
13358SOL    HW240419   5.957   1.020   4.165
13359SOL     OW40420   6.152   0.537   4.589
13359SOL    HW140421   6.164   0.603   4.515
13359SOL    HW240422   6.198   0.571   4.672
13360SOL     OW40423   6.838   1.348   4.112
13360SOL    HW140424   6.888   1.425   4.152
13360SOL    HW240425   6.743   1.350   4.144
13361SOL     OW40426   6.858   1.445   4.866
13361SOL    HW140427   6.905   1.458   4.953
13361SOL    HW240428   6.792   1.371   4.875
13362SOL     OW40429   7.168   0.639   4.196
13362SOL    HW140430   7.137   0.700   4.269
13362SOL    HW240431   7.218   0.691   4.127
13363SOL     OW40432   5.940   1.510   5.053
13363SOL    HW140433   5.919   1.466   4.966
13363SOL    HW240434   6.037   1.536   5.056
13364SOL     OW40435   5.988   0.751   5.322
13364SOL    HW140436   6.056   0.806   5.275
13364SOL    HW240437   6.028   0.663   5.349
13365SOL     OW40438   7.173   0.779   5.394
13365SOL    HW140439   7.081   0.817   5.389
13365SOL    HW240440   7.233   0.826   5.329
13366SOL     OW40441   6.090   0.050   5.464
13366SOL    HW140442   6.048  -0.007   5.394
13366SOL    HW240443   6.024   0.119   5.496
13367SOL     OW40444   6.159   0.870   4.753
13367SOL    HW140445   6.203   0.959   4.744
13367SOL    HW240446   6.096   0.870   4.830
13368SOL     OW40447   6.946   0.862   4.769
13368SOL    HW140448   6.871   0.862   4.703
13368SOL    HW240449   6.983   0.770   4.778
13369SOL     OW40450   6.795   0.525   3.999
13369SOL    HW140451   6.808   0.441   4.053
13369SOL    HW240452   6.766   0.599   4.059
13370SOL     OW40453   5.893   0.213   4.955
13370SOL    HW140454   5.870   0.250   5.045
13370SOL    HW240455   5.863   0.118   4.949
13371SOL     OW40456   5.623   1.310   5.006
13371SOL    HW140457   5.676   1.261   5.074
13371SOL    HW240458   5.645   1.408   5.011
13372SOL     OW40459   6.318   0.634   4.788
13372SOL    HW140460   6.377   0.608   4.712
13372SOL    HW240461   6.290   0.730   4.777
13373SOL     OW40462   7.314   0.935   5.578
13373SOL    HW140463   7.268   0.928   5.489
13373SOL    HW240464   7.252   0.979   5.644
13374SOL     OW40465   5.893   0.063   4.342
13374SOL    HW140466   5.882   0.157   4.375
13374SOL    HW240467   5.888   0.000   4.419
13375SOL     OW40468   6.609   0.766   4.690
13375SOL    HW140469   6.624   0.787   4.786
13375SOL    HW240470   6.579   0.671   4.681
13376SOL     OW40471   6.566   1.573   5.424
13376SOL    HW140472   6.546   1.617   5.336
13376SOL    HW240473   6.605   1.482   5.408
13377SOL     OW40474   7.445   1.518   5.329
13377SOL    HW140475   7.459   1.545   5.234
13377SOL    HW240476   7.528   1.540   5.382
13378SOL     OW40477   5.936   0.898   5.528
13378SOL    HW140478   6.012   0.942   5.576
13378SOL    HW240479   5.971   0.851   5.446
13379SOL     OW40480   6.889   0.838   3.766
13379SOL    HW140481   6.923   0.745   3.781
13379SOL    HW240482   6.907   0.865   3.671
13380SOL     OW40483   6.654   1.333   4.573
13380SOL    HW140484   6.661   1.249   4.518
13380SOL    HW240485   6.716   1.402   4.537
13381SOL     OW40486   5.905   0.810   4.673
13381SOL    HW140487   5.998   0.846   4.678
13381SOL    HW240488   5.899   0.725   4.725
13382SOL     OW40489   5.925   0.509   4.730
13382SOL    HW140490   5.873   0.426   4.713
13382SOL    HW240491   6.002   0.514   4.666
13383SOL     OW40492   5.594   1.326   3.924
13383SOL    HW140493   5.501   1.347   3.893
13383SOL    HW240494   5.604   1.227   3.937
13384SOL     OW40495   5.674   1.801   4.651
13384SOL    HW140496   5.632   1.715   4.624
13384SOL    HW240497   5.768   1.804   4.617
13385SOL     OW40498   6.090   1.568   4.634
13385SOL    HW140499   6.156   1.642   4.643
13385SOL    HW240500   6.134   1.489   4.592
13386SOL     OW40501   6.588   0.796   4.962
13386SOL    HW140502   6.629   0.764   5.048
13386SOL    HW240503   6.492   0.769   4.959
13387SOL     OW40504   5.626   0.544   4.838
13387SOL    HW140505   5.711   0.511   4.797
13387SOL    HW240506   5.639   0.559   4.936
13388SOL     OW40507   5.775   0.520   5.446
13388SOL    HW140508   5.834   0.480   5.376
13388SOL    HW240509   5.717   0.591   5.405
13389SOL     OW40510   6.955   0.950   5.384
13389SOL    HW140511   6.994   1.039   5.404
13389SOL    HW240512   6.965   0.930   5.287
13390SOL     OW40513   6.401   0.572   4.049
13390SOL    HW140514   6.408   0.483   4.003
13390SOL    HW240515   6.307   0.606   4.041
13391SOL     OW40516   7.243   0.604   4.930
13391SOL    HW140517   7.205   0.535   4.992
13391SOL    HW240518   7.325   0.568   4.886
13392SOL     OW40519   5.838   1.564   5.468
13392SOL    HW140520   5.808   1.621   5.544
13392SOL    HW240521   5.831   1.467   5.494
13393SOL     OW40522   6.257   0.464   4.993
13393SOL    HW140523   6.223   0.375   4.963
13393SOL    HW240524   6.283   0.518   4.913
13394SOL     OW40525   6.516   1.678   5.189
13394SOL    HW140526   6.492   1.660   5.094
13394SOL    HW240527   6.546   1.772   5.199
13395SOL     OW40528   6.059   0.500   3.915
13395SOL    HW140529   6.120   0.580   3.919
13395SOL    HW240530   5.964   0.531   3.922
13396SOL     OW40531   5.745   1.137   5.190
13396SOL    HW140532   5.767   1.076   5.266
13396SOL    HW240533   5.755   1.088   5.104
13397SOL     OW40534   6.933   1.059   4.958
13397SOL    HW140535   6.957   0.996   4.884
13397SOL    HW240536   6.843   1.099   4.940
13398SOL     OW40537   6.888   0.855   4.033
13398SOL    HW140538   6.802   0.824   4.075
13398SOL    HW240539   6.884   0.841   3.934
13399SOL     OW40540   7.345   1.747   4.878
13399SOL    HW140541   7.406   1.777   4.805
13399SOL    HW240542   7.307   1.658   4.856
13400SOL     OW40543   6.838   1.731   4.852
13400SOL    HW140544   6.922   1.736   4.798
13400SOL    HW240545   6.815   1.635   4.870
13401SOL     OW40546   5.669   1.258   4.746
13401SOL    HW140547   5.664   1.257   4.846
13401SOL    HW240548   5.586   1.217   4.708
13402SOL     OW40549   6.274   1.662   5.440
13402SOL    HW140550   6.218   1.743   5.449
13402SOL    HW240551   6.326   1.666   5.354
13403SOL     OW40552   6.974   1.573   4.201
13403SOL    HW140553   7.041   1.585   4.127
13403SOL    HW240554   6.934   1.662   4.224
13404SOL     OW40555   5.716   1.794   5.575
13404SOL    HW140556   5.675   1.720   5.628
13404SOL    HW240557   5.780   1.845   5.633
13405SOL     OW40558   6.866   0.927   4.396
13405SOL    HW140559   6.926   0.846   4.398
13405SOL    HW240560   6.906   0.996   4.336
13406SOL     OW40561   6.416   1.273   5.146
13406SOL    HW140562   6.411   1.306   5.241
13406SOL    HW240563   6.330   1.292   5.100
13407SOL     OW40564   6.258   1.616   3.878
13407SOL    HW140565   6.267   1.626   3.779
13407SOL    HW240566   6.218   1.527   3.899
13408SOL     OW40567   7.236   1.720   5.118
13408SOL    HW140568   7.289   1.730   5.034
13408SOL    HW240569   7.209   1.810   5.152
13409SOL     OW40570   5.849   0.326   4.444
13409SOL    HW140571   5.770   0.377   4.410
13409SOL    HW240572   5.840   0.311   4.542
13410SOL     OW40573   6.780   1.612   3.755
13410SOL    HW140574   6.786   1.519   3.792
13410SOL    HW240575   6.721   1.612   3.675
13411SOL     OW40576   6.408   1.002   5.096
13411SOL    HW140577   6.448   1.001   5.004
13411SOL    HW240578   6.418   1.094   5.136
13412SOL     OW40579   6.502   0.910   4.015
13412SOL    HW140580   6.565   0.948   3.947
13412SOL    HW240581   6.542   0.827   4.054
13413SOL     OW40582   7.090   1.607   3.768
13413SOL    HW140583   6.998   1.644   3.775
13413SOL    HW240584   7.128   1.627   3.678
13414SOL     OW40585   5.958   1.288   5.214
13414SOL    HW140586   5.945   1.381   5.180
13414SOL    HW240587   5.874   1.236   5.201
13415SOL     OW40588   7.200   1.292   5.013
13415SOL    HW140589   7.260   1.295   5.093
13415SOL    HW240590   7.125   1.356   5.026
13416SOL     OW40591   6.625   1.098   4.420
13416SOL    HW140592   6.555   1.051   4.474
13416SOL    HW240593   6.684   1.030   4.377
13417SOL     OW40594   6.600   0.236   4.695
13417SOL    HW140595   6.592   0.200   4.602
13417SOL    HW240596   6.598   0.160   4.760
13418SOL     OW40597   6.176   1.487   4.215
13418SOL    HW140598   6.218   1.429   4.145
13418SOL    HW240599   6.132   1.566   4.171
13419SOL     OW40600   5.841   1.348   4.014
13419SOL    HW140601   5.745   1.349   3.987
13419SOL    HW240602   5.853   1.401   4.098
13420SOL     OW40603   5.691   1.013   5.450
13420SOL    HW140604   5.614   0.980   5.504
13420SOL    HW240605   5.776   0.983   5.492
13421SOL     OW40606   5.661   0.345   3.757
13421SOL    HW140607   5.569   0.317   3.728
13421SOL    HW240608   5.692   0.422   3.701
13422SOL     OW40609   7.026   0.856   5.122
13422SOL    HW140610   6.969   0.908   5.059
13422SOL    HW240611   7.122   0.868   5.098
13423SOL     OW40612   5.658   0.166   4.042
13423SOL    HW140613   5.641   0.249   3.988
13423SOL    HW240614   5.748   0.129   4.020
13424SOL     OW40615   6.769   1.335   3.843
13424SOL    HW140616   6.670   1.324   3.845
13424SOL    HW240617   6.803   1.350   3.936
13425SOL     OW40618   6.199   0.842   5.155
13425SOL    HW140619   6.255   0.923   5.138
13425SOL    HW240620   6.258   0.762   5.158
13426SOL     OW40621   7.079   1.767   4.683
13426SOL    HW140622   7.112   1.831   4.614
13426SOL    HW240623   7.145   1.761   4.758
13427SOL     OW40624   6.302   0.565   5.432
13427SOL    HW140625   6.321   0.630   5.506
13427SOL    HW240626   6.362   0.485   5.441
13428SOL     OW40627   7.036   1.220   5.357
13428SOL    HW140628   7.027   1.210   5.456
13428SOL    HW240629   7.132   1.213   5.331
13429SOL     OW40630   5.976   1.741   5.284
13429SOL    HW140631   5.885   1.782   5.282
13429SOL    HW240632   5.969   1.647   5.316
13430SOL     OW40633   7.260   0.883   4.978
13430SOL    HW140634   7.233   0.794   4.941
13430SOL    HW240635   7.261   0.951   4.905
13431SOL     OW40636   6.811   0.325   4.173
13431SOL    HW140637   6.876   0.251   4.162
13431SOL    HW240638   6.831   0.375   4.257
13432SOL     OW40639   6.180   0.745   4.376
13432SOL    HW140640   6.230   0.830   4.357
13432SOL    HW240641   6.092   0.747   4.328
13433SOL     OW40642   7.316   0.934   5.241
13433SOL    HW140643   7.354   1.025   5.256
13433SOL    HW240644   7.308   0.917   5.142
13434SOL     OW40645   6.445   1.374   3.740
13434SOL    HW140646   6.399   1.389   3.828
13434SOL    HW240647   6.489   1.459   3.710
13435SOL     OW40648   6.247   1.790   4.677
13435SOL    HW140649   6.201   1.878   4.664
13435SOL    HW240650   6.346   1.802   4.670
13436SOL     OW40651   6.445   0.956   4.585
13436SOL    HW140652   6.499   0.887   4.633
13436SOL    HW240653   6.413   1.025   4.651
13437SOL     OW40654   6.669   0.984   3.811
13437SOL    HW140655   6.646   1.037   3.729
13437SOL    HW240656   6.750   0.928   3.792
13438SOL     OW40657   7.447   1.569   4.575
13438SOL    HW140658   7.376   1.557   4.505
13438SOL    HW240659   7.448   1.490   4.635
13439SOL     OW40660   5.807   1.314   5.568
13439SOL    HW140661   5.742   1.241   5.547
13439SOL    HW240662   5.811   1.328   5.666
13440SOL     OW40663   5.665   1.240   4.377
13440SOL    HW140664   5.664   1.193   4.465
13440SOL    HW240665   5.747   1.212   4.326
13441SOL     OW40666   6.258   1.391   5.348
13441SOL    HW140667   6.180   1.341   5.386
13441SOL    HW240668   6.255   1.486   5.379
13442SOL     OW40669   6.014   0.424   4.244
13442SOL    HW140670   6.044   0.352   4.182
13442SOL    HW240671   5.975   0.384   4.327
13443SOL     OW40672   7.291   1.487   4.828
13443SOL    HW140673   7.198   1.462   4.801
13443SOL    HW240674   7.317   1.437   4.910
13444SOL     OW40675   5.903   0.547   5.004
13444SOL    HW140676   5.941   0.488   5.076
13444SOL    HW240677   5.943   0.521   4.916
13445SOL     OW40678   6.398   1.586   4.411
13445SOL    HW140679   6.430   1.596   4.317
13445SOL    HW240680   6.319   1.524   4.413
13446SOL     OW40681   6.356   1.330   4.025
13446SOL    HW140682   6.310   1.243   4.042
13446SOL    HW240683   6.447   1.327   4.066
13447SOL     OW40684   6.204   1.567   5.008
13447SOL    HW140685   6.199   1.649   5.065
13447SOL    HW240686   6.293   1.564   4.963
13448SOL     OW40687   6.886   0.453   4.415
13448SOL    HW140688   6.827   0.533   4.419
13448SOL    HW240689   6.901   0.418   4.508
13449SOL     OW40690   5.625   1.077   4.024
13449SOL    HW140691   5.724   1.066   4.015
13449SOL    HW240692   5.585   0.991   4.056
13450SOL     OW40693   6.461   1.646   4.061
13450SOL    HW140694   6.384   1.611   4.007
13450SOL    HW240695   6.429   1.717   4.123
13451SOL     OW40696   5.816   0.628   5.699
13451SOL    HW140697   5.723   0.626   5.736
13451SOL    HW240698   5.817   0.589   5.607
13452SOL     OW40699   5.811   0.275   6.582
13452SOL    HW140700   5.846   0.258   6.674
13452SOL    HW240701   5.723   0.230   6.570
13453SOL     OW40702   5.605   0.368   6.233
13453SOL    HW140703   5.523   0.411   6.272
13453SOL    HW240704   5.577   0.295   6.170
13454SOL     OW40705   6.155   1.275   6.751
13454SOL    HW140706   6.062   1.268   6.714
13454SOL    HW240707   6.166   1.364   6.795
13455SOL     OW40708   7.141   1.511   6.289
13455SOL    HW140709   7.084   1.495   6.370
13455SOL    HW240710   7.082   1.521   6.209
13456SOL     OW40711   6.721   0.703   6.303
13456SOL    HW140712   6.778   0.781   6.278
13456SOL    HW240713   6.661   0.729   6.379
13457SOL     OW40714   7.341   0.607   5.817
13457SOL    HW140715   7.329   0.594   5.718
13457SOL    HW240716   7.311   0.526   5.866
13458SOL     OW40717   6.354   1.144   6.609
13458SOL    HW140718   6.276   1.161   6.669
13458SOL    HW240719   6.388   1.231   6.573
13459SOL     OW40720   6.436   0.798   7.409
13459SOL    HW140721   6.432   0.874   7.474
13459SOL    HW240722   6.458   0.834   7.318
13460SOL     OW40723   6.271   1.012   6.251
13460SOL    HW140724   6.340   0.996   6.321
13460SOL    HW240725   6.198   1.069   6.289
13461SOL     OW40726   6.272   1.161   7.389
13461SOL    HW140727   6.332   1.240   7.403
13461SOL    HW240728   6.186   1.192   7.348
13462SOL     OW40729   5.921   1.435   6.647
13462SOL    HW140730   5.843   1.404   6.594
13462SOL    HW240731   5.979   1.493   6.590
13463SOL     OW40732   7.046   1.505   6.925
13463SOL    HW140733   7.070   1.599   6.951
13463SOL    HW240734   7.030   1.451   7.007
13464SOL     OW40735   6.024   0.392   7.085
13464SOL    HW140736   6.106   0.336   7.094
13464SOL    HW240737   5.943   0.334   7.089
13465SOL     OW40738   7.189   0.447   6.323
13465SOL    HW140739   7.115   0.493   6.273
13465SOL    HW240740   7.240   0.515   6.376
13466SOL     OW40741   5.817   1.713   6.069
13466SOL    HW140742   5.851   1.790   6.123
13466SOL    HW240743   5.861   1.713   5.979
13467SOL     OW40744   6.713   1.341   7.276
13467SOL    HW140745   6.760   1.341   7.364
13467SOL    HW240746   6.665   1.254   7.265
13468SOL     OW40747   5.816   1.434   6.124
13468SOL    HW140748   5.790   1.530   6.124
13468SOL    HW240749   5.745   1.380   6.169
13469SOL     OW40750   5.826   1.091   6.472
13469SOL    HW140751   5.840   1.007   6.524
13469SOL    HW240752   5.771   1.155   6.527
13470SOL     OW40753   6.206   1.786   7.025
13470SOL    HW140754   6.114   1.769   7.060
13470SOL    HW240755   6.234   1.878   7.051
13471SOL     OW40756   6.192   0.964   5.709
13471SOL    HW140757   6.199   1.048   5.655
13471SOL    HW240758   6.238   0.977   5.797
13472SOL     OW40759   5.708   0.643   6.149
13472SOL    HW140760   5.663   0.555   6.166
13472SOL    HW240761   5.707   0.697   6.233
13473SOL     OW40762   7.428   1.767   5.945
13473SOL    HW140763   7.482   1.738   6.025
13473SOL    HW240764   7.458   1.857   5.916
13474SOL     OW40765   5.613   1.596   5.703
13474SOL    HW140766   5.594   1.500   5.724
13474SOL    HW240767   5.580   1.654   5.778
13475SOL     OW40768   7.275   0.922   6.198
13475SOL    HW140769   7.370   0.893   6.206
13475SOL    HW240770   7.267   0.987   6.123
13476SOL     OW40771   7.227   1.108   6.018
13476SOL    HW140772   7.313   1.110   5.966
13476SOL    HW240773   7.241   1.155   6.106
13477SOL     OW40774   5.699   0.737   7.183
13477SOL    HW140775   5.787   0.724   7.228
13477SOL    HW240776   5.686   0.834   7.161
13478SOL     OW40777   6.199   1.365   6.312
13478SOL    HW140778   6.150   1.278   6.321
13478SOL    HW240779   6.176   1.408   6.225
13479SOL     OW40780   6.879   1.228   7.009
13479SOL    HW140781   6.916   1.155   6.951
13479SOL    HW240782   6.931   1.233   7.094
13480SOL     OW40783   5.783   0.976   6.850
13480SOL    HW140784   5.872   0.931   6.836
13480SOL    HW240785   5.710   0.911   6.831
13481SOL     OW40786   7.111   0.999   5.776
13481SOL    HW140787   7.048   0.923   5.789
13481SOL    HW240788   7.159   1.017   5.862
13482SOL     OW40789   6.773   1.792   7.202
13482SOL    HW140790   6.797   1.852   7.126
13482SOL    HW240791   6.780   1.697   7.172
13483SOL     OW40792   5.903   0.251   7.387
13483SOL    HW140793   5.974   0.322   7.393
13483SOL    HW240794   5.815   0.290   7.415
13484SOL     OW40795   7.052   1.417   6.539
13484SOL    HW140796   6.993   1.423   6.619
13484SOL    HW240797   7.037   1.329   6.493
13485SOL     OW40798   7.253   1.714   6.158
13485SOL    HW140799   7.212   1.691   6.070
13485SOL    HW240800   7.235   1.640   6.223
13486SOL     OW40801   6.184   0.729   5.856
13486SOL    HW140802   6.208   0.798   5.788
13486SOL    HW240803   6.106   0.762   5.910
13487SOL     OW40804   7.162   1.662   5.893
13487SOL    HW140805   7.251   1.708   5.896
13487SOL    HW240806   7.141   1.638   5.798
13488SOL     OW40807   6.393   0.605   7.051
13488SOL    HW140808   6.346   0.602   7.140
13488SOL    HW240809   6.342   0.550   6.985
13489SOL     OW40810   6.980   0.469   7.260
13489SOL    HW140811   6.960   0.512   7.348
13489SOL    HW240812   7.058   0.407   7.269
13490SOL     OW40813   6.559   0.890   7.158
13490SOL    HW140814   6.605   0.806   7.129
13490SOL    HW240815   6.503   0.924   7.083
13491SOL     OW40816   6.577   0.410   6.828
13491SOL    HW140817   6.500   0.444   6.882
13491SOL    HW240818   6.543   0.359   6.749
13492SOL     OW40819   6.627   0.701   6.015
13492SOL    HW140820   6.653   0.697   6.111
13492SOL    HW240821   6.542   0.650   6.001
13493SOL     OW40822   5.662   0.811   6.375
13493SOL    HW140823   5.761   0.799   6.384
13493SOL    HW240824   5.638   0.906   6.396
13494SOL     OW40825   5.716   1.821   7.157
13494SOL    HW140826   5.706   1.806   7.256
13494SOL    HW240827   5.630   1.857   7.121
13495SOL     OW40828   6.451   0.348   5.781
13495SOL    HW140829   6.510   0.411   5.732
13495SOL    HW240830   6.470   0.254   5.752
13496SOL     OW40831   7.305   0.585   7.417
13496SOL    HW140832   7.279   0.674   7.381
13496SOL    HW240833   7.303   0.517   7.344
13497SOL     OW40834   6.948   1.144   6.131
13497SOL    HW140835   7.031   1.115   6.083
13497SOL    HW240836   6.899   1.211   6.075
13498SOL     OW40837   6.136   0.196   6.471
13498SOL    HW140838   6.131   0.191   6.571
13498SOL    HW240839   6.138   0.292   6.442
13499SOL     OW40840   6.594   1.456   6.063
13499SOL    HW140841   6.548   1.528   6.011
13499SOL    HW240842   6.590   1.476   6.161
13500SOL     OW40843   5.937   1.801   6.439
13500SOL    HW140844   5.987   1.715   6.445
13500SOL    HW240845   6.002   1.878   6.436
13501SOL     OW40846   7.381   1.066   6.459
13501SOL    HW140847   7.319   1.051   6.383
13501SOL    HW240848   7.329   1.077   6.544
13502SOL     OW40849   6.813   1.550   7.092
13502SOL    HW140850   6.819   1.473   7.156
13502SOL    HW240851   6.761   1.524   7.012
13503SOL     OW40852   5.907   0.943   5.828
13503SOL    HW140853   5.989   0.982   5.786
13503SOL    HW240854   5.880   0.861   5.779
13504SOL     OW40855   7.044   0.735   6.314
13504SOL    HW140856   7.039   0.670   6.389
13504SOL    HW240857   7.124   0.794   6.327
13505SOL     OW40858   6.047   1.266   7.313
13505SOL    HW140859   5.997   1.267   7.227
13505SOL    HW240860   5.984   1.248   7.389
13506SOL     OW40861   6.697   1.776   5.823
13506SOL    HW140862   6.637   1.714   5.873
13506SOL    HW240863   6.728   1.732   5.738
13507SOL     OW40864   5.788   0.285   7.084
13507SOL    HW140865   5.708   0.345   7.071
13507SOL    HW240866   5.778   0.236   7.170
13508SOL     OW40867   7.218   1.377   5.667
13508SOL    HW140868   7.186   1.471   5.657
13508SOL    HW240869   7.142   1.314   5.655
13509SOL     OW40870   6.050   1.743   5.909
13509SOL    HW140871   6.083   1.782   5.995
13509SOL    HW240872   6.126   1.736   5.844
13510SOL     OW40873   5.835   1.785   6.827
13510SOL    HW140874   5.892   1.720   6.877
13510SOL    HW240875   5.819   1.752   6.734
13511SOL     OW40876   6.526   1.698   6.490
13511SOL    HW140877   6.606   1.641   6.511
13511SOL    HW240878   6.477   1.658   6.413
13512SOL     OW40879   5.968   0.700   6.066
13512SOL    HW140880   6.013   0.610   6.063
13512SOL    HW240881   5.874   0.689   6.099
13513SOL     OW40882   6.474   1.514   6.781
13513SOL    HW140883   6.451   1.489   6.687
13513SOL    HW240884   6.535   1.445   6.820
13514SOL     OW40885   6.937   0.590   7.019
13514SOL    HW140886   6.965   0.547   7.104
13514SOL    HW240887   6.962   0.686   7.020
13515SOL     OW40888   6.389   1.402   6.510
13515SOL    HW140889   6.479   1.416   6.468
13515SOL    HW240890   6.318   1.404   6.439
13516SOL     OW40891   6.508   0.503   6.485
13516SOL    HW140892   6.483   0.494   6.389
13516SOL    HW240893   6.556   0.421   6.516
13517SOL     OW40894   6.125   0.064   6.098
13517SOL    HW140895   6.044   0.065   6.156
13517SOL    HW240896   6.128   0.147   6.043
13518SOL     OW40897   7.020   1.188   5.627
13518SOL    HW140898   7.052   1.112   5.684
13518SOL    HW240899   6.928   1.215   5.657
13519SOL     OW40900   5.883   0.035   5.757
13519SOL    HW140901   5.932   0.119   5.736
13519SOL    HW240902   5.945  -0.030   5.802
13520SOL     OW40903   6.521   0.236   6.066
13520SOL    HW140904   6.473   0.277   5.988
13520SOL    HW240905   6.620   0.234   6.047
13521SOL     OW40906   6.662   0.683   7.050
13521SOL    HW140907   6.582   0.622   7.053
13521SOL    HW240908   6.743   0.630   7.026
13522SOL     OW40909   6.813   1.570   6.379
13522SOL    HW140910   6.834   1.644   6.314
13522SOL    HW240911   6.881   1.570   6.452
13523SOL     OW40912   6.045   1.152   6.327
13523SOL    HW140913   5.974   1.125   6.392
13523SOL    HW240914   6.019   1.124   6.234
13524SOL     OW40915   6.857   1.797   6.177
13524SOL    HW140916   6.901   1.861   6.113
13524SOL    HW240917   6.807   1.849   6.247
13525SOL     OW40918   6.618   0.549   5.602
13525SOL    HW140919   6.577   0.631   5.563
13525SOL    HW240920   6.682   0.575   5.675
13526SOL     OW40921   5.664   0.556   6.972
13526SOL    HW140922   5.756   0.555   6.931
13526SOL    HW240923   5.658   0.630   7.039
13527SOL     OW40924   6.147   0.222   6.733
13527SOL    HW140925   6.185   0.138   6.770
13527SOL    HW240926   6.059   0.241   6.777
13528SOL     OW40927   6.452   0.454   6.228
13528SOL    HW140928   6.420   0.526   6.166
13528SOL    HW240929   6.476   0.373   6.175
13529SOL     OW40930   6.603   0.039   6.339
13529SOL    HW140931   6.531   0.044   6.270
13529SOL    HW240932   6.579  -0.030   6.408
13530SOL     OW40933   7.015   1.173   6.453
13530SOL    HW140934   6.960   1.089   6.446
13530SOL    HW240935   7.041   1.202   6.361
13531SOL     OW40936   7.052   0.590   6.578
13531SOL    HW140937   7.022   0.495   6.585
13531SOL    HW240938   7.125   0.606   6.644
13532SOL     OW40939   7.443   0.833   5.963
13532SOL    HW140940   7.485   0.769   6.027
13532SOL    HW240941   7.405   0.782   5.885
13533SOL     OW40942   6.074   1.385   5.760
13533SOL    HW140943   5.987   1.370   5.807
13533SOL    HW240944   6.057   1.411   5.665
13534SOL     OW40945   7.250   1.280   6.243
13534SOL    HW140946   7.349   1.288   6.257
13534SOL    HW240947   7.205   1.364   6.274
13535SOL     OW40948   6.976   0.575   5.664
13535SOL    HW140949   6.922   0.554   5.745
13535SOL    HW240950   7.067   0.534   5.673
13536SOL     OW40951   6.113   0.256   5.914
13536SOL    HW140952   6.140   0.197   5.839
13536SOL    HW240953   6.113   0.351   5.883
13537SOL     OW40954   7.340   1.223   7.174
13537SOL    HW140955   7.431   1.184   7.161
13537SOL    HW240956   7.348   1.319   7.198
13538SOL     OW40957   6.650   1.347   6.926
13538SOL    HW140958   6.570   1.324   6.981
13538SOL    HW240959   6.733   1.321   6.975
13539SOL     OW40960   7.178   1.629   7.211
13539SOL    HW140961   7.205   1.663   7.121
13539SOL    HW240962   7.257   1.591   7.257
13540SOL     OW40963   6.697   1.195   6.686
13540SOL    HW140964   6.657   1.239   6.767
13540SOL    HW240965   6.656   1.232   6.603
13541SOL     OW40966   7.224   1.099   6.665
13541SOL    HW140967   7.229   1.180   6.724
13541SOL    HW240968   7.138   1.101   6.614
13542SOL     OW40969   6.566   1.116   7.305
13542SOL    HW140970   6.467   1.122   7.315
13542SOL    HW240971   6.589   1.036   7.249
13543SOL     OW40972   6.291   1.050   5.954
13543SOL    HW140973   6.277   1.057   6.053
13543SOL    HW240974   6.375   0.999   5.936
13544SOL     OW40975   5.996   0.813   6.837
13544SOL    HW140976   6.082   0.825   6.887
13544SOL    HW240977   5.954   0.726   6.864
13545SOL     OW40978   6.860   0.386   6.848
13545SOL    HW140979   6.881   0.460   6.912
13545SOL    HW240980   6.771   0.403   6.805
13546SOL     OW40981   5.650   1.564   6.917
13546SOL    HW140982   5.604   1.646   6.883
13546SOL    HW240983   5.748   1.583   6.926
13547SOL     OW40984   5.953   1.100   6.087
13547SOL    HW140985   5.946   1.183   6.031
13547SOL    HW240986   5.957   1.020   6.027
13548SOL     OW40987   6.152   0.537   6.451
13548SOL    HW140988   6.164   0.603   6.377
13548SOL    HW240989   6.198   0.571   6.534
13549SOL     OW40990   6.838   1.348   5.974
13549SOL    HW140991   6.888   1.425   6.014
13549SOL    HW240992   6.743   1.350   6.006
13550SOL     OW40993   6.858   1.445   6.728
13550SOL    HW140994   6.905   1.458   6.815
13550SOL    HW240995   6.792   1.371   6.737
13551SOL     OW40996   7.168   0.639   6.058
13551SOL    HW140997   7.137   0.700   6.131
13551SOL    HW240998   7.218   0.691   5.989
13552SOL     OW40999   5.940   1.510   6.915
13552SOL    HW141000   5.919   1.466   6.828
13552SOL    HW241001   6.037   1.536   6.918
13553SOL     OW41002   5.988   0.751   7.184
13553SOL    HW141003   6.056   0.806   7.137
13553SOL    HW241004   6.028   0.663   7.211
13554SOL     OW41005   7.173   0.779   7.256
13554SOL    HW141006   7.081   0.817   7.251
13554SOL    HW241007   7.233   0.826   7.191
13555SOL     OW41008   6.090   0.050   7.326
13555SOL    HW141009   6.048  -0.007   7.256
13555SOL    HW241010   6.024   0.119   7.358
13556SOL     OW41011   6.159   0.870   6.615
13556SOL    HW141012   6.203   0.959   6.606
13556SOL    HW241013   6.096   0.870   6.692
13557SOL     OW41014   6.946   0.862   6.631
13557SOL    HW141015   6.871   0.862   6.565
13557SOL    HW241016   6.983   0.770   6.640
13558SOL     OW41017   6.795   0.525   5.861
13558SOL    HW141018   6.808   0.441   5.915
13558SOL    HW241019   6.766   0.599   5.921
13559SOL     OW41020   5.893   0.213   6.817
13559SOL    HW141021   5.870   0.250   6.907
13559SOL    HW241022   5.863   0.118   6.811
13560SOL     OW41023   5.623   1.310   6.868
13560SOL    HW141024   5.676   1.261   6.936
13560SOL    HW241025   5.645   1.408   6.873
13561SOL     OW41026   6.318   0.634   6.650
13561SOL    HW141027   6.377   0.608   6.574
13561SOL    HW241028   6.290   0.730   6.639
13562SOL     OW41029   7.314   0.935   7.440
13562SOL    HW141030   7.268   0.928   7.351
13562SOL    HW241031   7.252   0.979   7.506
13563SOL     OW41032   5.893   0.063   6.204
13563SOL    HW141033   5.882   0.157   6.237
13563SOL    HW241034   5.888   0.000   6.281
13564SOL     OW41035   6.609   0.766   6.552
13564SOL    HW141036   6.624   0.787   6.648
13564SOL    HW241037   6.579   0.671   6.543
13565SOL     OW41038   6.566   1.573   7.286
13565SOL    HW141039   6.546   1.617   7.198
13565SOL    HW241040   6.605   1.482   7.270
13566SOL     OW41041   7.445   1.518   7.191
13566SOL    HW141042   7.459   1.545   7.096
13566SOL    HW241043   7.528   1.540   7.244
13567SOL     OW41044   5.936   0.898   7.390
13567SOL    HW141045   6.012   0.942   7.438
13567SOL    HW241046   5.971   0.851   7.308
13568SOL     OW41047   6.889   0.838   5.628
13568SOL    HW141048   6.923   0.745   5.643
13568SOL    HW241049   6.907   0.865   5.533
13569SOL     OW41050   6.654   1.333   6.435
13569SOL    HW141051   6.661   1.249   6.380
13569SOL    HW241052   6.716   1.402   6.399
13570SOL     OW41053   5.905   0.810   6.535
13570SOL    HW141054   5.998   0.846   6.540
13570SOL    HW241055   5.899   0.725   6.587
13571SOL     OW41056   5.925   0.509   6.592
13571SOL    HW141057   5.873   0.426   6.575
13571SOL    HW241058   6.002   0.514   6.528
13572SOL     OW41059   5.594   1.326   5.786
13572SOL    HW141060   5.501   1.347   5.755
13572SOL    HW241061   5.604   1.227   5.799
13573SOL     OW41062   5.674   1.801   6.513
13573SOL    HW141063   5.632   1.715   6.486
13573SOL    HW241064   5.768   1.804   6.479
13574SOL     OW41065   6.090   1.568   6.496
13574SOL    HW141066   6.156   1.642   6.505
13574SOL    HW241067   6.134   1.489   6.454
13575SOL     OW41068   6.588   0.796   6.824
13575SOL    HW141069   6.629   0.764   6.910
13575SOL    HW241070   6.492   0.769   6.821
13576SOL     OW41071   5.626   0.544   6.700
13576SOL    HW141072   5.711   0.511   6.659
13576SOL    HW241073   5.639   0.559   6.798
13577SOL     OW41074   5.775   0.520   7.308
13577SOL    HW141075   5.834   0.480   7.238
13577SOL    HW241076   5.717   0.591   7.267
13578SOL     OW41077   6.955   0.950   7.246
13578SOL    HW141078   6.994   1.039   7.266
13578SOL    HW241079   6.965   0.930   7.149
13579SOL     OW41080   6.401   0.572   5.911
13579SOL    HW141081   6.408   0.483   5.865
13579SOL    HW241082   6.307   0.606   5.903
13580SOL     OW41083   7.243   0.604   6.792
13580SOL    HW141084   7.205   0.535   6.854
13580SOL    HW241085   7.325   0.568   6.748
13581SOL     OW41086   5.838   1.564   7.330
13581SOL    HW141087   5.808   1.621   7.406
13581SOL    HW241088   5.831   1.467   7.356
13582SOL     OW41089   6.257   0.464   6.855
13582SOL    HW141090   6.223   0.375   6.825
13582SOL    HW241091   6.283   0.518   6.775
13583SOL     OW41092   6.516   1.678   7.051
13583SOL    HW141093   6.492   1.660   6.956
13583SOL    HW241094   6.546   1.772   7.061
13584SOL     OW41095   6.059   0.500   5.777
13584SOL    HW141096   6.120   0.580   5.781
13584SOL    HW241097   5.964   0.531   5.784
13585SOL     OW41098   5.745   1.137   7.052
13585SOL    HW141099   5.767   1.076   7.128
13585SOL    HW241100   5.755   1.088   6.966
13586SOL     OW41101   6.933   1.059   6.820
13586SOL    HW141102   6.957   0.996   6.746
13586SOL    HW241103   6.843   1.099   6.802
13587SOL     OW41104   6.888   0.855   5.895
13587SOL    HW141105   6.802   0.824   5.937
13587SOL    HW241106   6.884   0.841   5.796
13588SOL     OW41107   7.345   1.747   6.740
13588SOL    HW141108   7.406   1.777   6.667
13588SOL    HW241109   7.307   1.658   6.718
13589SOL     OW41110   6.838   1.731   6.714
13589SOL    HW141111   6.922   1.736   6.660
13589SOL    HW241112   6.815   1.635   6.732
13590SOL     OW41113   5.669   1.258   6.608
13590SOL    HW141114   5.664   1.257   6.708
13590SOL    HW241115   5.586   1.217   6.570
13591SOL     OW41116   6.274   1.662   7.302
13591SOL    HW141117   6.218   1.743   7.311
13591SOL    HW241118   6.326   1.666   7.216
13592SOL     OW41119   6.974   1.573   6.063
13592SOL    HW141120   7.041   1.585   5.989
13592SOL    HW241121   6.934   1.662   6.086
13593SOL     OW41122   5.716   1.794   7.437
13593SOL    HW141123   5.675   1.720   7.490
13593SOL    HW241124   5.780   1.845   7.495
13594SOL     OW41125   6.866   0.927   6.258
13594SOL    HW141126   6.926   0.846   6.260
13594SOL    HW241127   6.906   0.996   6.198
13595SOL     OW41128   6.416   1.273   7.008
13595SOL    HW141129   6.411   1.306   7.103
13595SOL    HW241130   6.330   1.292   6.962
13596SOL     OW41131   6.258   1.616   5.740
13596SOL    HW141132   6.267   1.626   5.641
13596SOL    HW241133   6.218   1.527   5.761
13597SOL     OW41134   7.236   1.720   6.980
13597SOL    HW141135   7.289   1.730   6.896
13597SOL    HW241136   7.209   1.810   7.014
13598SOL     OW41137   5.849   0.326   6.306
13598SOL    HW141138   5.770   0.377   6.272
13598SOL    HW241139   5.840   0.311   6.404
13599SOL     OW41140   6.780   1.612   5.617
13599SOL    HW141141   6.786   1.519   5.654
13599SOL    HW241142   6.721   1.612   5.537
13600SOL     OW41143   6.408   1.002   6.958
13600SOL    HW141144   6.448   1.001   6.866
13600SOL    HW241145   6.418   1.094   6.998
13601SOL     OW41146   6.502   0.910   5.877
13601SOL    HW141147   6.565   0.948   5.809
13601SOL    HW241148   6.542   0.827   5.916
13602SOL     OW41149   7.090   1.607   5.630
13602SOL    HW141150   6.998   1.644   5.637
13602SOL    HW241151   7.128   1.627   5.540
13603SOL     OW41152   5.958   1.288   7.076
13603SOL    HW141153   5.945   1.381   7.042
13603SOL    HW241154   5.874   1.236   7.063
13604SOL     OW41155   7.200   1.292   6.875
13604SOL    HW141156   7.260   1.295   6.955
13604SOL    HW241157   7.125   1.356   6.888
13605SOL     OW41158   6.625   1.098   6.282
13605SOL    HW141159   6.555   1.051   6.336
13605SOL    HW241160   6.684   1.030   6.239
13606SOL     OW41161   6.600   0.236   6.557
13606SOL    HW141162   6.592   0.200   6.464
13606SOL    HW241163   6.598   0.160   6.622
13607SOL     OW41164   6.176   1.487   6.077
13607SOL    HW141165   6.218   1.429   6.007
13607SOL    HW241166   6.132   1.566   6.033
13608SOL     OW41167   5.841   1.348   5.876
13608SOL    HW141168   5.745   1.349   5.849
13608SOL    HW241169   5.853   1.401   5.960
13609SOL     OW41170   5.691   1.013   7.312
13609SOL    HW141171   5.614   0.980   7.366
13609SOL    HW241172   5.776   0.983   7.354
13610SOL     OW41173   5.661   0.345   5.619
13610SOL    HW141174   5.569   0.317   5.590
13610SOL    HW241175   5.692   0.422   5.563
13611SOL     OW41176   7.026   0.856   6.984
13611SOL    HW141177   6.969   0.908   6.921
13611SOL    HW241178   7.122   0.868   6.960
13612SOL     OW41179   5.658   0.166   5.904
13612SOL    HW141180   5.641   0.249   5.850
13612SOL    HW241181   5.748   0.129   5.882
13613SOL     OW41182   6.769   1.335   5.705
13613SOL    HW141183   6.670   1.324   5.707
13613SOL    HW241184   6.803   1.350   5.798
13614SOL     OW41185   6.199   0.842   7.017
13614SOL    HW141186   6.255   0.923   7.000
13614SOL    HW241187   6.258   0.762   7.020
13615SOL     OW41188   7.079   1.767   6.545
13615SOL    HW141189   7.112   1.831   6.476
13615SOL    HW241190   7.145   1.761   6.620
13616SOL     OW41191   6.302   0.565   7.294
13616SOL    HW141192   6.321   0.630   7.368
13616SOL    HW241193   6.362   0.485   7.303
13617SOL     OW41194   7.036   1.220   7.219
13617SOL    HW141195   7.027   1.210   7.318
13617SOL    HW241196   7.132   1.213   7.193
13618SOL     OW41197   5.976   1.741   7.146
13618SOL    HW141198   5.885   1.782   7.144
13618SOL    HW241199   5.969   1.647   7.178
13619SOL     OW41200   7.260   0.883   6.840
13619SOL    HW141201   7.233   0.794   6.803
13619SOL    HW241202   7.261   0.951   6.767
13620SOL     OW41203   6.811   0.325   6.035
13620SOL    HW141204   6.876   0.251   6.024
13620SOL    HW241205   6.831   0.375   6.119
13621SOL     OW41206   6.180   0.745   6.238
13621SOL    HW141207   6.230   0.830   6.219
13621SOL    HW241208   6.092   0.747   6.190
13622SOL     OW41209   7.316   0.934   7.103
13622SOL    HW141210   7.354   1.025   7.118
13622SOL    HW241211   7.308   0.917   7.004
13623SOL     OW41212   6.445   1.374   5.602
13623SOL    HW141213   6.399   1.389   5.690
13623SOL    HW241214   6.489   1.459   5.572
13624SOL     OW41215   6.247   1.790   6.539
13624SOL    HW141216   6.201   1.878   6.526
13624SOL    HW241217   6.346   1.802   6.532
13625SOL     OW41218   6.445   0.956   6.447
13625SOL    HW141219   6.499   0.887   6.495
13625SOL    HW241220   6.413   1.025   6.513
13626SOL     OW41221   6.669   0.984   5.673
13626SOL    HW141222   6.646   1.037   5.591
13626SOL    HW241223   6.750   0.928   5.654
13627SOL     OW41224   7.447   1.569   6.437
13627SOL    HW141225   7.376   1.557   6.367
13627SOL    HW241226   7.448   1.490   6.497
13628SOL     OW41227   5.807   1.314   7.430
13628SOL    HW141228   5.742   1.241   7.409
13628SOL    HW241229   5.811   1.328   7.528
13629SOL     OW41230   5.665   1.240   6.239
13629SOL    HW141231   5.664   1.193   6.327
13629SOL    HW241232   5.747   1.212   6.188
13630SOL     OW41233   6.258   1.391   7.210
13630SOL    HW141234   6.180   1.341   7.248
13630SOL    HW241235   6.255   1.486   7.241
13631SOL     OW41236   6.014   0.424   6.106
13631SOL    HW141237   6.044   0.352   6.044
13631SOL    HW241238   5.975   0.384   6.189
13632SOL     OW41239   7.291   1.487   6.690
13632SOL    HW141240   7.198   1.462   6.663
13632SOL    HW241241   7.317   1.437   6.772
13633SOL     OW41242   5.903   0.547   6.866
13633SOL    HW141243   5.941   0.488   6.938
13633SOL    HW241244   5.943   0.521   6.778
13634SOL     OW41245   6.398   1.586   6.273
13634SOL    HW141246   6.430   1.596   6.179
13634SOL    HW241247   6.319   1.524   6.275
13635SOL     OW41248   6.356   1.330   5.887
13635SOL    HW141249   6.310   1.243   5.904
13635SOL    HW241250   6.447   1.327   5.928
13636SOL     OW41251   6.204   1.567   6.870
13636SOL    HW141252   6.199   1.649   6.927
13636SOL    HW241253   6.293   1.564   6.825
13637SOL     OW41254   6.886   0.453   6.277
13637SOL    HW141255   6.827   0.533   6.281
13637SOL    HW241256   6.901   0.418   6.370
13638SOL     OW41257   5.625   1.077   5.886
13638SOL    HW141258   5.724   1.066   5.877
13638SOL    HW241259   5.585   0.991   5.918
13639SOL     OW41260   6.461   1.646   5.923
13639SOL    HW141261   6.384   1.611   5.869
13639SOL    HW241262   6.429   1.717   5.985
13640SOL     OW41263   5.613   1.596   7.565
13640SOL    HW141264   5.594   1.500   7.586
13640SOL    HW241265   5.580   1.654   7.640
13641SOL     OW41266   7.111   0.999   7.638
13641SOL    HW141267   7.048   0.923   7.651
13641SOL    HW241268   7.159   1.017   7.724
13642SOL     OW41269   5.907   0.943   7.690
13642SOL    HW141270   5.989   0.982   7.648
13642SOL    HW241271   5.880   0.861   7.641
13643SOL     OW41272   6.697   1.776   7.685
13643SOL    HW141273   6.637   1.714   7.735
13643SOL    HW241274   6.728   1.732   7.600
13644SOL     OW41275   7.218   1.377   7.529
13644SOL    HW141276   7.186   1.471   7.519
13644SOL    HW241277   7.142   1.314   7.517
13645SOL     OW41278   7.020   1.188   7.489
13645SOL    HW141279   7.052   1.112   7.546
13645SOL    HW241280   6.928   1.215   7.519
13646SOL     OW41281   6.618   0.549   7.464
13646SOL    HW141282   6.577   0.631   7.425
13646SOL    HW241283   6.682   0.575   7.537
13647SOL     OW41284   6.074   1.385   7.622
13647SOL    HW141285   5.987   1.370   7.669
13647SOL    HW241286   6.057   1.411   7.527
13648SOL     OW41287   6.976   0.575   7.526
13648SOL    HW141288   6.922   0.554   7.607
13648SOL    HW241289   7.067   0.534   7.535
13649SOL     OW41290   6.889   0.838   7.490
13649SOL    HW141291   6.923   0.745   7.505
13649SOL    HW241292   6.907   0.865   7.395
13650SOL     OW41293   6.059   0.500   7.639
13650SOL    HW141294   6.120   0.580   7.643
13650SOL    HW241295   5.964   0.531   7.646
13651SOL     OW41296   6.974   1.573   7.925
13651SOL    HW141297   7.041   1.585   7.851
13651SOL    HW241298   6.934   1.662   7.948
13652SOL     OW41299   6.258   1.616   7.602
13652SOL    HW141300   6.267   1.626   7.503
13652SOL    HW241301   6.218   1.527   7.623
13653SOL     OW41302   6.780   1.612   7.479
13653SOL    HW141303   6.786   1.519   7.516
13653SOL    HW241304   6.721   1.612   7.399
13654SOL     OW41305   7.090   1.607   7.492
13654SOL    HW141306   6.998   1.644   7.499
13654SOL    HW241307   7.128   1.627   7.402
13655SOL     OW41308   5.661   0.345   7.481
13655SOL    HW141309   5.569   0.317   7.452
13655SOL    HW241310   5.692   0.422   7.425
13656SOL     OW41311   6.445   1.374   7.464
13656SOL    HW141312   6.399   1.389   7.552
13656SOL    HW241313   6.489   1.459   7.434
13657SOL     OW41314   6.669   0.984   7.535
13657SOL    HW141315   6.646   1.037   7.453
13657SOL    HW241316   6.750   0.928   7.516
13658SOL     OW41317   5.625   1.077   7.748
13658SOL    HW141318   5.724   1.066   7.739
13658SOL    HW241319   5.585   0.991   7.780
13659SOL     OW41320   5.811   2.137   0.996
13659SOL    HW141321   5.846   2.120   1.088
13659SOL    HW241322   5.723   2.092   0.984
13660SOL     OW41323   5.605   2.230   0.647
13660SOL    HW141324   5.523   2.273   0.686
13660SOL    HW241325   5.577   2.157   0.584
13661SOL     OW41326   6.155   3.137   1.165
13661SOL    HW141327   6.062   3.130   1.128
13661SOL    HW241328   6.166   3.226   1.209
13662SOL     OW41329   7.141   3.373   0.703
13662SOL    HW141330   7.084   3.357   0.784
13662SOL    HW241331   7.082   3.383   0.623
13663SOL     OW41332   6.721   2.565   0.717
13663SOL    HW141333   6.778   2.643   0.692
13663SOL    HW241334   6.661   2.591   0.793
13664SOL     OW41335   7.341   2.469   0.231
13664SOL    HW141336   7.329   2.456   0.132
13664SOL    HW241337   7.311   2.388   0.280
13665SOL     OW41338   6.354   3.006   1.023
13665SOL    HW141339   6.276   3.023   1.083
13665SOL    HW241340   6.388   3.093   0.987
13666SOL     OW41341   6.436   2.660   1.823
13666SOL    HW141342   6.432   2.736   1.888
13666SOL    HW241343   6.458   2.696   1.732
13667SOL     OW41344   6.271   2.874   0.665
13667SOL    HW141345   6.340   2.858   0.735
13667SOL    HW241346   6.198   2.931   0.703
13668SOL     OW41347   6.272   3.023   1.803
13668SOL    HW141348   6.332   3.102   1.817
13668SOL    HW241349   6.186   3.054   1.762
13669SOL     OW41350   5.921   3.297   1.061
13669SOL    HW141351   5.843   3.266   1.008
13669SOL    HW241352   5.979   3.355   1.004
13670SOL     OW41353   7.046   3.367   1.339
13670SOL    HW141354   7.070   3.461   1.365
13670SOL    HW241355   7.030   3.313   1.421
13671SOL     OW41356   6.024   2.254   1.499
13671SOL    HW141357   6.106   2.198   1.508
13671SOL    HW241358   5.943   2.196   1.503
13672SOL     OW41359   7.189   2.309   0.737
13672SOL    HW141360   7.115   2.355   0.687
13672SOL    HW241361   7.240   2.377   0.790
13673SOL     OW41362   5.817   3.575   0.483
13673SOL    HW141363   5.851   3.652   0.537
13673SOL    HW241364   5.861   3.575   0.393
13674SOL     OW41365   6.713   3.203   1.690
13674SOL    HW141366   6.760   3.203   1.778
13674SOL    HW241367   6.665   3.116   1.679
13675SOL     OW41368   5.816   3.296   0.538
13675SOL    HW141369   5.790   3.392   0.538
13675SOL    HW241370   5.745   3.242   0.583
13676SOL     OW41371   5.826   2.953   0.886
13676SOL    HW141372   5.840   2.869   0.938
13676SOL    HW241373   5.771   3.017   0.941
13677SOL     OW41374   6.206   3.648   1.439
13677SOL    HW141375   6.114   3.631   1.474
13677SOL    HW241376   6.234   3.740   1.465
13678SOL     OW41377   7.180   1.976   1.480
13678SOL    HW141378   7.162   2.043   1.408
13678SOL    HW241379   7.177   2.022   1.569
13679SOL     OW41380   5.708   2.505   0.563
13679SOL    HW141381   5.663   2.417   0.580
13679SOL    HW241382   5.707   2.559   0.647
13680SOL     OW41383   7.428   3.629   0.359
13680SOL    HW141384   7.482   3.600   0.439
13680SOL    HW241385   7.458   3.719   0.330
13681SOL     OW41386   7.275   2.784   0.612
13681SOL    HW141387   7.370   2.755   0.620
13681SOL    HW241388   7.267   2.849   0.537
13682SOL     OW41389   5.699   2.599   1.597
13682SOL    HW141390   5.787   2.586   1.642
13682SOL    HW241391   5.686   2.696   1.575
13683SOL     OW41392   6.199   3.227   0.726
13683SOL    HW141393   6.150   3.140   0.735
13683SOL    HW241394   6.176   3.270   0.639
13684SOL     OW41395   6.879   3.090   1.423
13684SOL    HW141396   6.916   3.017   1.365
13684SOL    HW241397   6.931   3.095   1.508
13685SOL     OW41398   6.395   1.866   0.502
13685SOL    HW141399   6.435   1.957   0.493
13685SOL    HW241400   6.295   1.874   0.508
13686SOL     OW41401   5.783   2.838   1.264
13686SOL    HW141402   5.872   2.793   1.250
13686SOL    HW241403   5.710   2.773   1.245
13687SOL     OW41404   6.773   3.654   1.616
13687SOL    HW141405   6.797   3.714   1.540
13687SOL    HW241406   6.780   3.559   1.586
13688SOL     OW41407   5.903   2.113   1.801
13688SOL    HW141408   5.974   2.184   1.807
13688SOL    HW241409   5.815   2.152   1.829
13689SOL     OW41410   7.052   3.279   0.953
13689SOL    HW141411   6.993   3.285   1.033
13689SOL    HW241412   7.037   3.191   0.907
13690SOL     OW41413   7.253   3.576   0.572
13690SOL    HW141414   7.212   3.553   0.484
13690SOL    HW241415   7.235   3.502   0.637
13691SOL     OW41416   6.867   2.207   0.944
13691SOL    HW141417   6.781   2.157   0.931
13691SOL    HW241418   6.929   2.153   1.000
13692SOL     OW41419   6.393   2.467   1.465
13692SOL    HW141420   6.346   2.464   1.554
13692SOL    HW241421   6.342   2.412   1.399
13693SOL     OW41422   6.980   2.331   1.674
13693SOL    HW141423   6.960   2.374   1.762
13693SOL    HW241424   7.058   2.269   1.683
13694SOL     OW41425   6.559   2.752   1.572
13694SOL    HW141426   6.605   2.668   1.543
13694SOL    HW241427   6.503   2.786   1.497
13695SOL     OW41428   6.577   2.272   1.242
13695SOL    HW141429   6.500   2.306   1.296
13695SOL    HW241430   6.543   2.221   1.163
13696SOL     OW41431   6.627   2.563   0.429
13696SOL    HW141432   6.653   2.559   0.525
13696SOL    HW241433   6.542   2.512   0.415
13697SOL     OW41434   5.662   2.673   0.789
13697SOL    HW141435   5.761   2.661   0.798
13697SOL    HW241436   5.638   2.768   0.810
13698SOL     OW41437   5.716   3.683   1.571
13698SOL    HW141438   5.706   3.668   1.670
13698SOL    HW241439   5.630   3.719   1.535
13699SOL     OW41440   7.305   2.447   1.831
13699SOL    HW141441   7.279   2.536   1.795
13699SOL    HW241442   7.303   2.379   1.758
13700SOL     OW41443   6.948   3.006   0.545
13700SOL    HW141444   7.031   2.977   0.497
13700SOL    HW241445   6.899   3.073   0.489
13701SOL     OW41446   6.136   2.058   0.885
13701SOL    HW141447   6.131   2.053   0.985
13701SOL    HW241448   6.138   2.154   0.856
13702SOL     OW41449   6.594   3.318   0.477
13702SOL    HW141450   6.548   3.390   0.425
13702SOL    HW241451   6.590   3.338   0.575
13703SOL     OW41452   5.937   3.663   0.853
13703SOL    HW141453   5.987   3.577   0.859
13703SOL    HW241454   6.002   3.740   0.850
13704SOL     OW41455   7.381   2.928   0.873
13704SOL    HW141456   7.319   2.913   0.797
13704SOL    HW241457   7.329   2.939   0.958
13705SOL     OW41458   6.813   3.412   1.506
13705SOL    HW141459   6.819   3.335   1.570
13705SOL    HW241460   6.761   3.386   1.426
13706SOL     OW41461   7.044   2.597   0.728
13706SOL    HW141462   7.039   2.532   0.803
13706SOL    HW241463   7.124   2.656   0.741
13707SOL     OW41464   6.047   3.128   1.727
13707SOL    HW141465   5.997   3.129   1.641
13707SOL    HW241466   5.984   3.110   1.803
13708SOL     OW41467   5.788   2.147   1.498
13708SOL    HW141468   5.708   2.207   1.485
13708SOL    HW241469   5.778   2.098   1.584
13709SOL     OW41470   6.986   1.969   0.426
13709SOL    HW141471   6.962   1.932   0.336
13709SOL    HW241472   7.085   1.985   0.430
13710SOL     OW41473   5.835   3.647   1.241
13710SOL    HW141474   5.892   3.582   1.291
13710SOL    HW241475   5.819   3.614   1.148
13711SOL     OW41476   6.526   3.560   0.904
13711SOL    HW141477   6.606   3.503   0.925
13711SOL    HW241478   6.477   3.520   0.827
13712SOL     OW41479   5.968   2.562   0.480
13712SOL    HW141480   6.013   2.472   0.477
13712SOL    HW241481   5.874   2.551   0.513
13713SOL     OW41482   7.133   2.084   1.729
13713SOL    HW141483   7.128   2.121   1.821
13713SOL    HW241484   7.061   2.015   1.717
13714SOL     OW41485   6.367   2.126   1.749
13714SOL    HW141486   6.434   2.065   1.792
13714SOL    HW241487   6.294   2.145   1.814
13715SOL     OW41488   6.474   3.376   1.195
13715SOL    HW141489   6.451   3.351   1.101
13715SOL    HW241490   6.535   3.307   1.234
13716SOL     OW41491   6.937   2.452   1.433
13716SOL    HW141492   6.965   2.409   1.518
13716SOL    HW241493   6.962   2.548   1.434
13717SOL     OW41494   6.389   3.264   0.924
13717SOL    HW141495   6.479   3.278   0.882
13717SOL    HW241496   6.318   3.266   0.853
13718SOL     OW41497   6.508   2.365   0.899
13718SOL    HW141498   6.483   2.356   0.803
13718SOL    HW241499   6.556   2.283   0.930
13719SOL     OW41500   6.125   1.926   0.512
13719SOL    HW141501   6.044   1.927   0.570
13719SOL    HW241502   6.128   2.009   0.457
13720SOL     OW41503   6.521   2.098   0.480
13720SOL    HW141504   6.473   2.139   0.402
13720SOL    HW241505   6.620   2.096   0.461
13721SOL     OW41506   6.662   2.545   1.464
13721SOL    HW141507   6.582   2.484   1.467
13721SOL    HW241508   6.743   2.492   1.440
13722SOL     OW41509   6.813   3.432   0.793
13722SOL    HW141510   6.834   3.506   0.728
13722SOL    HW241511   6.881   3.432   0.866
13723SOL     OW41512   6.045   3.014   0.741
13723SOL    HW141513   5.974   2.987   0.806
13723SOL    HW241514   6.019   2.986   0.648
13724SOL     OW41515   6.857   3.659   0.591
13724SOL    HW141516   6.901   3.723   0.527
13724SOL    HW241517   6.807   3.711   0.661
13725SOL     OW41518   6.618   2.411   0.016
13725SOL    HW141519   6.577   2.493  -0.023
13725SOL    HW241520   6.682   2.437   0.089
13726SOL     OW41521   5.664   2.418   1.386
13726SOL    HW141522   5.756   2.417   1.345
13726SOL    HW241523   5.658   2.492   1.453
13727SOL     OW41524   6.147   2.084   1.147
13727SOL    HW141525   6.185   2.000   1.184
13727SOL    HW241526   6.059   2.103   1.191
13728SOL     OW41527   6.452   2.316   0.642
13728SOL    HW141528   6.420   2.388   0.580
13728SOL    HW241529   6.476   2.235   0.589
13729SOL     OW41530   6.603   1.901   0.753
13729SOL    HW141531   6.531   1.906   0.684
13729SOL    HW241532   6.579   1.832   0.822
13730SOL     OW41533   7.015   3.035   0.867
13730SOL    HW141534   6.960   2.951   0.860
13730SOL    HW241535   7.041   3.064   0.775
13731SOL     OW41536   7.052   2.452   0.992
13731SOL    HW141537   7.022   2.357   0.999
13731SOL    HW241538   7.125   2.468   1.058
13732SOL     OW41539   7.250   3.142   0.657
13732SOL    HW141540   7.349   3.150   0.671
13732SOL    HW241541   7.205   3.226   0.688
13733SOL     OW41542   6.113   2.118   0.328
13733SOL    HW141543   6.140   2.059   0.253
13733SOL    HW241544   6.113   2.213   0.297
13734SOL     OW41545   7.340   3.085   1.588
13734SOL    HW141546   7.431   3.046   1.575
13734SOL    HW241547   7.348   3.181   1.612
13735SOL     OW41548   6.650   3.209   1.340
13735SOL    HW141549   6.570   3.186   1.395
13735SOL    HW241550   6.733   3.183   1.389
13736SOL     OW41551   7.178   3.491   1.625
13736SOL    HW141552   7.205   3.525   1.535
13736SOL    HW241553   7.257   3.453   1.671
13737SOL     OW41554   6.697   3.057   1.100
13737SOL    HW141555   6.657   3.101   1.181
13737SOL    HW241556   6.656   3.094   1.017
13738SOL     OW41557   7.224   2.961   1.079
13738SOL    HW141558   7.229   3.042   1.138
13738SOL    HW241559   7.138   2.963   1.028
13739SOL     OW41560   6.501   1.951   1.402
13739SOL    HW141561   6.526   1.931   1.307
13739SOL    HW241562   6.573   2.007   1.444
13740SOL     OW41563   6.566   2.978   1.719
13740SOL    HW141564   6.467   2.984   1.729
13740SOL    HW241565   6.589   2.898   1.663
13741SOL     OW41566   5.996   2.675   1.251
13741SOL    HW141567   6.082   2.687   1.301
13741SOL    HW241568   5.954   2.588   1.278
13742SOL     OW41569   6.860   2.248   1.262
13742SOL    HW141570   6.881   2.322   1.326
13742SOL    HW241571   6.771   2.265   1.219
13743SOL     OW41572   5.650   3.426   1.331
13743SOL    HW141573   5.604   3.508   1.297
13743SOL    HW241574   5.748   3.445   1.340
13744SOL     OW41575   5.953   2.962   0.501
13744SOL    HW141576   5.946   3.045   0.445
13744SOL    HW241577   5.957   2.882   0.441
13745SOL     OW41578   6.152   2.399   0.865
13745SOL    HW141579   6.164   2.465   0.791
13745SOL    HW241580   6.198   2.433   0.948
13746SOL     OW41581   6.838   3.210   0.388
13746SOL    HW141582   6.888   3.287   0.428
13746SOL    HW241583   6.743   3.212   0.420
13747SOL     OW41584   6.858   3.307   1.142
13747SOL    HW141585   6.905   3.320   1.229
13747SOL    HW241586   6.792   3.233   1.151
13748SOL     OW41587   7.168   2.501   0.472
13748SOL    HW141588   7.137   2.562   0.545
13748SOL    HW241589   7.218   2.553   0.403
13749SOL     OW41590   5.940   3.372   1.329
13749SOL    HW141591   5.919   3.328   1.242
13749SOL    HW241592   6.037   3.398   1.332
13750SOL     OW41593   5.988   2.613   1.598
13750SOL    HW141594   6.056   2.668   1.551
13750SOL    HW241595   6.028   2.525   1.625
13751SOL     OW41596   7.173   2.641   1.670
13751SOL    HW141597   7.081   2.679   1.665
13751SOL    HW241598   7.233   2.688   1.605
13752SOL     OW41599   6.599   1.967   1.770
13752SOL    HW141600   6.605   2.052   1.718
13752SOL    HW241601   6.631   1.891   1.713
13753SOL     OW41602   6.090   1.912   1.740
13753SOL    HW141603   6.048   1.855   1.670
13753SOL    HW241604   6.024   1.981   1.772
13754SOL     OW41605   6.159   2.732   1.029
13754SOL    HW141606   6.203   2.821   1.020
13754SOL    HW241607   6.096   2.732   1.106
13755SOL     OW41608   6.946   2.724   1.045
13755SOL    HW141609   6.871   2.724   0.979
13755SOL    HW241610   6.983   2.632   1.054
13756SOL     OW41611   6.795   2.387   0.275
13756SOL    HW141612   6.808   2.303   0.329
13756SOL    HW241613   6.766   2.461   0.335
13757SOL     OW41614   5.893   2.075   1.231
13757SOL    HW141615   5.870   2.112   1.321
13757SOL    HW241616   5.863   1.980   1.225
13758SOL     OW41617   5.623   3.172   1.282
13758SOL    HW141618   5.676   3.123   1.350
13758SOL    HW241619   5.645   3.270   1.287
13759SOL     OW41620   6.318   2.496   1.064
13759SOL    HW141621   6.377   2.470   0.988
13759SOL    HW241622   6.290   2.592   1.053
13760SOL     OW41623   7.314   2.797   1.854
13760SOL    HW141624   7.268   2.790   1.765
13760SOL    HW241625   7.252   2.841   1.920
13761SOL     OW41626   5.893   1.925   0.618
13761SOL    HW141627   5.882   2.019   0.651
13761SOL    HW241628   5.888   1.862   0.695
13762SOL     OW41629   6.609   2.628   0.966
13762SOL    HW141630   6.624   2.649   1.062
13762SOL    HW241631   6.579   2.533   0.957
13763SOL     OW41632   6.566   3.435   1.700
13763SOL    HW141633   6.546   3.479   1.612
13763SOL    HW241634   6.605   3.344   1.684
13764SOL     OW41635   7.445   3.380   1.605
13764SOL    HW141636   7.459   3.407   1.510
13764SOL    HW241637   7.528   3.402   1.658
13765SOL     OW41638   5.936   2.760   1.804
13765SOL    HW141639   6.012   2.804   1.852
13765SOL    HW241640   5.971   2.713   1.722
13766SOL     OW41641   6.654   3.195   0.849
13766SOL    HW141642   6.661   3.111   0.794
13766SOL    HW241643   6.716   3.264   0.813
13767SOL     OW41644   5.905   2.672   0.949
13767SOL    HW141645   5.998   2.708   0.954
13767SOL    HW241646   5.899   2.587   1.001
13768SOL     OW41647   5.925   2.371   1.006
13768SOL    HW141648   5.873   2.288   0.989
13768SOL    HW241649   6.002   2.376   0.942
13769SOL     OW41650   6.724   2.242   1.678
13769SOL    HW141651   6.679   2.305   1.742
13769SOL    HW241652   6.817   2.273   1.661
13770SOL     OW41653   6.746   2.069   1.477
13770SOL    HW141654   6.746   2.133   1.554
13770SOL    HW241655   6.774   2.117   1.394
13771SOL     OW41656   5.674   3.663   0.927
13771SOL    HW141657   5.632   3.577   0.900
13771SOL    HW241658   5.768   3.666   0.893
13772SOL     OW41659   6.090   3.430   0.910
13772SOL    HW141660   6.156   3.504   0.919
13772SOL    HW241661   6.134   3.351   0.868
13773SOL     OW41662   6.588   2.658   1.238
13773SOL    HW141663   6.629   2.626   1.324
13773SOL    HW241664   6.492   2.631   1.235
13774SOL     OW41665   5.626   2.406   1.114
13774SOL    HW141666   5.711   2.373   1.073
13774SOL    HW241667   5.639   2.421   1.212
13775SOL     OW41668   5.775   2.382   1.722
13775SOL    HW141669   5.834   2.342   1.652
13775SOL    HW241670   5.717   2.453   1.681
13776SOL     OW41671   6.955   2.812   1.660
13776SOL    HW141672   6.994   2.901   1.680
13776SOL    HW241673   6.965   2.792   1.563
13777SOL     OW41674   7.243   2.466   1.206
13777SOL    HW141675   7.205   2.397   1.268
13777SOL    HW241676   7.325   2.430   1.162
13778SOL     OW41677   5.838   3.426   1.744
13778SOL    HW141678   5.808   3.483   1.820
13778SOL    HW241679   5.831   3.329   1.770
13779SOL     OW41680   6.257   2.326   1.269
13779SOL    HW141681   6.223   2.237   1.239
13779SOL    HW241682   6.283   2.380   1.189
13780SOL     OW41683   6.516   3.540   1.465
13780SOL    HW141684   6.492   3.522   1.370
13780SOL    HW241685   6.546   3.634   1.475
13781SOL     OW41686   5.745   2.999   1.466
13781SOL    HW141687   5.767   2.938   1.542
13781SOL    HW241688   5.755   2.950   1.380
13782SOL     OW41689   6.933   2.921   1.234
13782SOL    HW141690   6.957   2.858   1.160
13782SOL    HW241691   6.843   2.961   1.216
13783SOL     OW41692   6.888   2.717   0.309
13783SOL    HW141693   6.802   2.686   0.351
13783SOL    HW241694   6.884   2.703   0.210
13784SOL     OW41695   7.345   3.609   1.154
13784SOL    HW141696   7.406   3.639   1.081
13784SOL    HW241697   7.307   3.520   1.132
13785SOL     OW41698   6.838   3.593   1.128
13785SOL    HW141699   6.922   3.598   1.074
13785SOL    HW241700   6.815   3.497   1.146
13786SOL     OW41701   5.669   3.120   1.022
13786SOL    HW141702   5.664   3.119   1.122
13786SOL    HW241703   5.586   3.079   0.984
13787SOL     OW41704   6.274   3.524   1.716
13787SOL    HW141705   6.218   3.605   1.725
13787SOL    HW241706   6.326   3.528   1.630
13788SOL     OW41707   7.312   1.997   0.523
13788SOL    HW141708   7.385   1.980   0.456
13788SOL    HW241709   7.281   1.910   0.561
13789SOL     OW41710   6.974   3.435   0.477
13789SOL    HW141711   7.041   3.447   0.403
13789SOL    HW241712   6.934   3.524   0.500
13790SOL     OW41713   5.716   3.656   1.851
13790SOL    HW141714   5.675   3.582   1.904
13790SOL    HW241715   5.780   3.707   1.909
13791SOL     OW41716   6.866   2.789   0.672
13791SOL    HW141717   6.926   2.708   0.674
13791SOL    HW241718   6.906   2.858   0.612
13792SOL     OW41719   6.416   3.135   1.422
13792SOL    HW141720   6.411   3.168   1.517
13792SOL    HW241721   6.330   3.154   1.376
13793SOL     OW41722   7.236   3.582   1.394
13793SOL    HW141723   7.289   3.592   1.310
13793SOL    HW241724   7.209   3.672   1.428
13794SOL     OW41725   7.427   2.037   0.963
13794SOL    HW141726   7.466   1.952   0.927
13794SOL    HW241727   7.329   2.039   0.944
13795SOL     OW41728   5.849   2.188   0.720
13795SOL    HW141729   5.770   2.239   0.686
13795SOL    HW241730   5.840   2.173   0.818
13796SOL     OW41731   6.408   2.864   1.372
13796SOL    HW141732   6.448   2.863   1.280
13796SOL    HW241733   6.418   2.956   1.412
13797SOL     OW41734   5.958   3.150   1.490
13797SOL    HW141735   5.945   3.243   1.456
13797SOL    HW241736   5.874   3.098   1.477
13798SOL     OW41737   7.200   3.154   1.289
13798SOL    HW141738   7.260   3.157   1.369
13798SOL    HW241739   7.125   3.218   1.302
13799SOL     OW41740   6.625   2.960   0.696
13799SOL    HW141741   6.555   2.913   0.750
13799SOL    HW241742   6.684   2.892   0.653
13800SOL     OW41743   6.600   2.098   0.971
13800SOL    HW141744   6.592   2.062   0.878
13800SOL    HW241745   6.598   2.022   1.036
13801SOL     OW41746   6.176   3.349   0.491
13801SOL    HW141747   6.218   3.291   0.421
13801SOL    HW241748   6.132   3.428   0.447
13802SOL     OW41749   7.295   2.247   1.381
13802SOL    HW141750   7.368   2.316   1.385
13802SOL    HW241751   7.323   2.172   1.322
13803SOL     OW41752   5.691   2.875   1.726
13803SOL    HW141753   5.614   2.842   1.780
13803SOL    HW241754   5.776   2.845   1.768
13804SOL     OW41755   6.258   2.065   1.489
13804SOL    HW141756   6.348   2.049   1.449
13804SOL    HW241757   6.266   2.070   1.588
13805SOL     OW41758   7.026   2.718   1.398
13805SOL    HW141759   6.969   2.770   1.335
13805SOL    HW241760   7.122   2.730   1.374
13806SOL     OW41761   6.199   2.704   1.431
13806SOL    HW141762   6.255   2.785   1.414
13806SOL    HW241763   6.258   2.624   1.434
13807SOL     OW41764   7.079   3.629   0.959
13807SOL    HW141765   7.112   3.693   0.890
13807SOL    HW241766   7.145   3.623   1.034
13808SOL     OW41767   6.302   2.427   1.708
13808SOL    HW141768   6.321   2.492   1.782
13808SOL    HW241769   6.362   2.347   1.717
13809SOL     OW41770   7.036   3.082   1.633
13809SOL    HW141771   7.027   3.072   1.732
13809SOL    HW241772   7.132   3.075   1.607
13810SOL     OW41773   5.976   3.603   1.560
13810SOL    HW141774   5.885   3.644   1.558
13810SOL    HW241775   5.969   3.509   1.592
13811SOL     OW41776   7.260   2.745   1.254
13811SOL    HW141777   7.233   2.656   1.217
13811SOL    HW241778   7.261   2.813   1.181
13812SOL     OW41779   6.811   2.187   0.449
13812SOL    HW141780   6.876   2.113   0.438
13812SOL    HW241781   6.831   2.237   0.533
13813SOL     OW41782   6.180   2.607   0.652
13813SOL    HW141783   6.230   2.692   0.633
13813SOL    HW241784   6.092   2.609   0.604
13814SOL     OW41785   7.363   2.204   1.642
13814SOL    HW141786   7.346   2.235   1.548
13814SOL    HW241787   7.279   2.167   1.680
13815SOL     OW41788   7.316   2.796   1.517
13815SOL    HW141789   7.354   2.887   1.532
13815SOL    HW241790   7.308   2.779   1.418
13816SOL     OW41791   6.247   3.652   0.953
13816SOL    HW141792   6.201   3.740   0.940
13816SOL    HW241793   6.346   3.664   0.946
13817SOL     OW41794   6.445   2.818   0.861
13817SOL    HW141795   6.499   2.749   0.909
13817SOL    HW241796   6.413   2.887   0.927
13818SOL     OW41797   7.447   3.431   0.851
13818SOL    HW141798   7.376   3.419   0.781
13818SOL    HW241799   7.448   3.352   0.911
13819SOL     OW41800   5.807   3.176   1.844
13819SOL    HW141801   5.742   3.103   1.823
13819SOL    HW241802   5.811   3.190   1.942
13820SOL     OW41803   5.665   3.102   0.653
13820SOL    HW141804   5.664   3.055   0.741
13820SOL    HW241805   5.747   3.074   0.602
13821SOL     OW41806   6.258   3.253   1.624
13821SOL    HW141807   6.180   3.203   1.662
13821SOL    HW241808   6.255   3.348   1.655
13822SOL     OW41809   7.410   2.054   1.227
13822SOL    HW141810   7.406   1.964   1.271
13822SOL    HW241811   7.413   2.043   1.128
13823SOL     OW41812   6.014   2.286   0.520
13823SOL    HW141813   6.044   2.214   0.458
13823SOL    HW241814   5.975   2.246   0.603
13824SOL     OW41815   7.291   3.349   1.104
13824SOL    HW141816   7.198   3.324   1.077
13824SOL    HW241817   7.317   3.299   1.186
13825SOL     OW41818   5.903   2.409   1.280
13825SOL    HW141819   5.941   2.350   1.352
13825SOL    HW241820   5.943   2.383   1.192
13826SOL     OW41821   6.398   3.448   0.687
13826SOL    HW141822   6.430   3.458   0.593
13826SOL    HW241823   6.319   3.386   0.689
13827SOL     OW41824   7.010   2.076   1.112
13827SOL    HW141825   7.062   2.011   1.167
13827SOL    HW241826   6.961   2.139   1.173
13828SOL     OW41827   6.587   1.896   1.154
13828SOL    HW141828   6.524   1.824   1.123
13828SOL    HW241829   6.680   1.860   1.154
13829SOL     OW41830   6.204   3.429   1.284
13829SOL    HW141831   6.199   3.511   1.341
13829SOL    HW241832   6.293   3.426   1.239
13830SOL     OW41833   6.886   2.315   0.691
13830SOL    HW141834   6.827   2.395   0.695
13830SOL    HW241835   6.901   2.280   0.784
13831SOL     OW41836   7.179   2.083   0.882
13831SOL    HW141837   7.095   2.082   0.936
13831SOL    HW241838   7.181   2.166   0.826
13832SOL     OW41839   6.461   3.508   0.337
13832SOL    HW141840   6.384   3.473   0.283
13832SOL    HW241841   6.429   3.579   0.399
13833SOL     OW41842   5.816   2.490   1.975
13833SOL    HW141843   5.723   2.488   2.012
13833SOL    HW241844   5.817   2.451   1.883
13834SOL     OW41845   5.811   2.137   2.858
13834SOL    HW141846   5.846   2.120   2.950
13834SOL    HW241847   5.723   2.092   2.846
13835SOL     OW41848   5.605   2.230   2.509
13835SOL    HW141849   5.523   2.273   2.548
13835SOL    HW241850   5.577   2.157   2.446
13836SOL     OW41851   6.155   3.137   3.027
13836SOL    HW141852   6.062   3.130   2.990
13836SOL    HW241853   6.166   3.226   3.071
13837SOL     OW41854   7.141   3.373   2.565
13837SOL    HW141855   7.084   3.357   2.646
13837SOL    HW241856   7.082   3.383   2.485
13838SOL     OW41857   6.721   2.565   2.579
13838SOL    HW141858   6.778   2.643   2.554
13838SOL    HW241859   6.661   2.591   2.655
13839SOL     OW41860   7.341   2.469   2.093
13839SOL    HW141861   7.329   2.456   1.994
13839SOL    HW241862   7.311   2.388   2.142
13840SOL     OW41863   6.354   3.006   2.885
13840SOL    HW141864   6.276   3.023   2.945
13840SOL    HW241865   6.388   3.093   2.849
13841SOL     OW41866   6.436   2.660   3.685
13841SOL    HW141867   6.432   2.736   3.750
13841SOL    HW241868   6.458   2.696   3.594
13842SOL     OW41869   6.271   2.874   2.527
13842SOL    HW141870   6.340   2.858   2.597
13842SOL    HW241871   6.198   2.931   2.565
13843SOL     OW41872   6.272   3.023   3.665
13843SOL    HW141873   6.332   3.102   3.679
13843SOL    HW241874   6.186   3.054   3.624
13844SOL     OW41875   5.921   3.297   2.923
13844SOL    HW141876   5.843   3.266   2.870
13844SOL    HW241877   5.979   3.355   2.866
13845SOL     OW41878   7.046   3.367   3.201
13845SOL    HW141879   7.070   3.461   3.227
13845SOL    HW241880   7.030   3.313   3.283
13846SOL     OW41881   6.024   2.254   3.361
13846SOL    HW141882   6.106   2.198   3.370
13846SOL    HW241883   5.943   2.196   3.365
13847SOL     OW41884   7.189   2.309   2.599
13847SOL    HW141885   7.115   2.355   2.549
13847SOL    HW241886   7.240   2.377   2.652
13848SOL     OW41887   5.817   3.575   2.345
13848SOL    HW141888   5.851   3.652   2.399
13848SOL    HW241889   5.861   3.575   2.255
13849SOL     OW41890   6.713   3.203   3.552
13849SOL    HW141891   6.760   3.203   3.640
13849SOL    HW241892   6.665   3.116   3.541
13850SOL     OW41893   5.816   3.296   2.400
13850SOL    HW141894   5.790   3.392   2.400
13850SOL    HW241895   5.745   3.242   2.445
13851SOL     OW41896   5.826   2.953   2.748
13851SOL    HW141897   5.840   2.869   2.800
13851SOL    HW241898   5.771   3.017   2.803
13852SOL     OW41899   6.206   3.648   3.301
13852SOL    HW141900   6.114   3.631   3.336
13852SOL    HW241901   6.234   3.740   3.327
13853SOL     OW41902   6.192   2.826   1.985
13853SOL    HW141903   6.199   2.910   1.931
13853SOL    HW241904   6.238   2.839   2.073
13854SOL     OW41905   7.180   1.976   3.342
13854SOL    HW141906   7.162   2.043   3.270
13854SOL    HW241907   7.177   2.022   3.431
13855SOL     OW41908   5.708   2.505   2.425
13855SOL    HW141909   5.663   2.417   2.442
13855SOL    HW241910   5.707   2.559   2.509
13856SOL     OW41911   7.428   3.629   2.221
13856SOL    HW141912   7.482   3.600   2.301
13856SOL    HW241913   7.458   3.719   2.192
13857SOL     OW41914   5.613   3.458   1.979
13857SOL    HW141915   5.594   3.362   2.000
13857SOL    HW241916   5.580   3.516   2.054
13858SOL     OW41917   7.275   2.784   2.474
13858SOL    HW141918   7.370   2.755   2.482
13858SOL    HW241919   7.267   2.849   2.399
13859SOL     OW41920   7.227   2.970   2.294
13859SOL    HW141921   7.313   2.972   2.242
13859SOL    HW241922   7.241   3.017   2.382
13860SOL     OW41923   5.699   2.599   3.459
13860SOL    HW141924   5.787   2.586   3.504
13860SOL    HW241925   5.686   2.696   3.437
13861SOL     OW41926   6.199   3.227   2.588
13861SOL    HW141927   6.150   3.140   2.597
13861SOL    HW241928   6.176   3.270   2.501
13862SOL     OW41929   6.879   3.090   3.285
13862SOL    HW141930   6.916   3.017   3.227
13862SOL    HW241931   6.931   3.095   3.370
13863SOL     OW41932   6.395   1.866   2.364
13863SOL    HW141933   6.435   1.957   2.355
13863SOL    HW241934   6.295   1.874   2.370
13864SOL     OW41935   5.783   2.838   3.126
13864SOL    HW141936   5.872   2.793   3.112
13864SOL    HW241937   5.710   2.773   3.107
13865SOL     OW41938   7.111   2.861   2.052
13865SOL    HW141939   7.048   2.785   2.065
13865SOL    HW241940   7.159   2.879   2.138
13866SOL     OW41941   6.773   3.654   3.478
13866SOL    HW141942   6.797   3.714   3.402
13866SOL    HW241943   6.780   3.559   3.448
13867SOL     OW41944   5.903   2.113   3.663
13867SOL    HW141945   5.974   2.184   3.669
13867SOL    HW241946   5.815   2.152   3.691
13868SOL     OW41947   7.052   3.279   2.815
13868SOL    HW141948   6.993   3.285   2.895
13868SOL    HW241949   7.037   3.191   2.769
13869SOL     OW41950   7.253   3.576   2.434
13869SOL    HW141951   7.212   3.553   2.346
13869SOL    HW241952   7.235   3.502   2.499
13870SOL     OW41953   6.184   2.591   2.132
13870SOL    HW141954   6.208   2.660   2.064
13870SOL    HW241955   6.106   2.624   2.186
13871SOL     OW41956   6.867   2.207   2.806
13871SOL    HW141957   6.781   2.157   2.793
13871SOL    HW241958   6.929   2.153   2.862
13872SOL     OW41959   7.162   3.524   2.169
13872SOL    HW141960   7.251   3.570   2.172
13872SOL    HW241961   7.141   3.500   2.074
13873SOL     OW41962   6.393   2.467   3.327
13873SOL    HW141963   6.346   2.464   3.416
13873SOL    HW241964   6.342   2.412   3.261
13874SOL     OW41965   6.980   2.331   3.536
13874SOL    HW141966   6.960   2.374   3.624
13874SOL    HW241967   7.058   2.269   3.545
13875SOL     OW41968   6.559   2.752   3.434
13875SOL    HW141969   6.605   2.668   3.405
13875SOL    HW241970   6.503   2.786   3.359
13876SOL     OW41971   6.577   2.272   3.104
13876SOL    HW141972   6.500   2.306   3.158
13876SOL    HW241973   6.543   2.221   3.025
13877SOL     OW41974   6.627   2.563   2.291
13877SOL    HW141975   6.653   2.559   2.387
13877SOL    HW241976   6.542   2.512   2.277
13878SOL     OW41977   5.662   2.673   2.651
13878SOL    HW141978   5.761   2.661   2.660
13878SOL    HW241979   5.638   2.768   2.672
13879SOL     OW41980   5.716   3.683   3.433
13879SOL    HW141981   5.706   3.668   3.532
13879SOL    HW241982   5.630   3.719   3.397
13880SOL     OW41983   6.451   2.210   2.057
13880SOL    HW141984   6.510   2.273   2.008
13880SOL    HW241985   6.470   2.116   2.028
13881SOL     OW41986   7.305   2.447   3.693
13881SOL    HW141987   7.279   2.536   3.657
13881SOL    HW241988   7.303   2.379   3.620
13882SOL     OW41989   6.948   3.006   2.407
13882SOL    HW141990   7.031   2.977   2.359
13882SOL    HW241991   6.899   3.073   2.351
13883SOL     OW41992   6.136   2.058   2.747
13883SOL    HW141993   6.131   2.053   2.847
13883SOL    HW241994   6.138   2.154   2.718
13884SOL     OW41995   6.594   3.318   2.339
13884SOL    HW141996   6.548   3.390   2.287
13884SOL    HW241997   6.590   3.338   2.437
13885SOL     OW41998   5.937   3.663   2.715
13885SOL    HW141999   5.987   3.577   2.721
13885SOL    HW242000   6.002   3.740   2.712
13886SOL     OW42001   7.381   2.928   2.735
13886SOL    HW142002   7.319   2.913   2.659
13886SOL    HW242003   7.329   2.939   2.820
13887SOL     OW42004   6.813   3.412   3.368
13887SOL    HW142005   6.819   3.335   3.432
13887SOL    HW242006   6.761   3.386   3.288
13888SOL     OW42007   5.907   2.805   2.104
13888SOL    HW142008   5.989   2.844   2.062
13888SOL    HW242009   5.880   2.723   2.055
13889SOL     OW42010   7.044   2.597   2.590
13889SOL    HW142011   7.039   2.532   2.665
13889SOL    HW242012   7.124   2.656   2.603
13890SOL     OW42013   6.047   3.128   3.589
13890SOL    HW142014   5.997   3.129   3.503
13890SOL    HW242015   5.984   3.110   3.665
13891SOL     OW42016   6.697   3.638   2.099
13891SOL    HW142017   6.637   3.576   2.149
13891SOL    HW242018   6.728   3.594   2.014
13892SOL     OW42019   5.788   2.147   3.360
13892SOL    HW142020   5.708   2.207   3.347
13892SOL    HW242021   5.778   2.098   3.446
13893SOL     OW42022   7.218   3.239   1.943
13893SOL    HW142023   7.186   3.333   1.933
13893SOL    HW242024   7.142   3.176   1.931
13894SOL     OW42025   6.050   3.605   2.185
13894SOL    HW142026   6.083   3.644   2.271
13894SOL    HW242027   6.126   3.598   2.120
13895SOL     OW42028   6.986   1.969   2.288
13895SOL    HW142029   6.962   1.932   2.198
13895SOL    HW242030   7.085   1.985   2.292
13896SOL     OW42031   5.835   3.647   3.103
13896SOL    HW142032   5.892   3.582   3.153
13896SOL    HW242033   5.819   3.614   3.010
13897SOL     OW42034   6.526   3.560   2.766
13897SOL    HW142035   6.606   3.503   2.787
13897SOL    HW242036   6.477   3.520   2.689
13898SOL     OW42037   5.968   2.562   2.342
13898SOL    HW142038   6.013   2.472   2.339
13898SOL    HW242039   5.874   2.551   2.375
13899SOL     OW42040   7.133   2.084   3.591
13899SOL    HW142041   7.128   2.121   3.683
13899SOL    HW242042   7.061   2.015   3.579
13900SOL     OW42043   6.200   1.984   1.979
13900SOL    HW142044   6.298   1.962   1.986
13900SOL    HW242045   6.169   1.967   1.886
13901SOL     OW42046   6.367   2.126   3.611
13901SOL    HW142047   6.434   2.065   3.654
13901SOL    HW242048   6.294   2.145   3.676
13902SOL     OW42049   6.474   3.376   3.057
13902SOL    HW142050   6.451   3.351   2.963
13902SOL    HW242051   6.535   3.307   3.096
13903SOL     OW42052   6.937   2.452   3.295
13903SOL    HW142053   6.965   2.409   3.380
13903SOL    HW242054   6.962   2.548   3.296
13904SOL     OW42055   6.389   3.264   2.786
13904SOL    HW142056   6.479   3.278   2.744
13904SOL    HW242057   6.318   3.266   2.715
13905SOL     OW42058   6.508   2.365   2.761
13905SOL    HW142059   6.483   2.356   2.665
13905SOL    HW242060   6.556   2.283   2.792
13906SOL     OW42061   6.125   1.926   2.374
13906SOL    HW142062   6.044   1.927   2.432
13906SOL    HW242063   6.128   2.009   2.319
13907SOL     OW42064   7.020   3.050   1.903
13907SOL    HW142065   7.052   2.974   1.960
13907SOL    HW242066   6.928   3.077   1.933
13908SOL     OW42067   5.883   1.897   2.033
13908SOL    HW142068   5.932   1.981   2.012
13908SOL    HW242069   5.945   1.832   2.078
13909SOL     OW42070   6.521   2.098   2.342
13909SOL    HW142071   6.473   2.139   2.264
13909SOL    HW242072   6.620   2.096   2.323
13910SOL     OW42073   6.662   2.545   3.326
13910SOL    HW142074   6.582   2.484   3.329
13910SOL    HW242075   6.743   2.492   3.302
13911SOL     OW42076   6.813   3.432   2.655
13911SOL    HW142077   6.834   3.506   2.590
13911SOL    HW242078   6.881   3.432   2.728
13912SOL     OW42079   6.045   3.014   2.603
13912SOL    HW142080   5.974   2.987   2.668
13912SOL    HW242081   6.019   2.986   2.510
13913SOL     OW42082   6.857   3.659   2.453
13913SOL    HW142083   6.901   3.723   2.389
13913SOL    HW242084   6.807   3.711   2.523
13914SOL     OW42085   6.618   2.411   1.878
13914SOL    HW142086   6.577   2.493   1.839
13914SOL    HW242087   6.682   2.437   1.951
13915SOL     OW42088   5.664   2.418   3.248
13915SOL    HW142089   5.756   2.417   3.207
13915SOL    HW242090   5.658   2.492   3.315
13916SOL     OW42091   6.147   2.084   3.009
13916SOL    HW142092   6.185   2.000   3.046
13916SOL    HW242093   6.059   2.103   3.053
13917SOL     OW42094   6.452   2.316   2.504
13917SOL    HW142095   6.420   2.388   2.442
13917SOL    HW242096   6.476   2.235   2.451
13918SOL     OW42097   6.603   1.901   2.615
13918SOL    HW142098   6.531   1.906   2.546
13918SOL    HW242099   6.579   1.832   2.684
13919SOL     OW42100   7.015   3.035   2.729
13919SOL    HW142101   6.960   2.951   2.722
13919SOL    HW242102   7.041   3.064   2.637
13920SOL     OW42103   7.052   2.452   2.854
13920SOL    HW142104   7.022   2.357   2.861
13920SOL    HW242105   7.125   2.468   2.920
13921SOL     OW42106   7.443   2.695   2.239
13921SOL    HW142107   7.485   2.631   2.303
13921SOL    HW242108   7.405   2.644   2.161
13922SOL     OW42109   6.074   3.247   2.036
13922SOL    HW142110   5.987   3.232   2.083
13922SOL    HW242111   6.057   3.273   1.941
13923SOL     OW42112   7.250   3.142   2.519
13923SOL    HW142113   7.349   3.150   2.533
13923SOL    HW242114   7.205   3.226   2.550
13924SOL     OW42115   6.976   2.437   1.940
13924SOL    HW142116   6.922   2.416   2.021
13924SOL    HW242117   7.067   2.396   1.949
13925SOL     OW42118   6.113   2.118   2.190
13925SOL    HW142119   6.140   2.059   2.115
13925SOL    HW242120   6.113   2.213   2.159
13926SOL     OW42121   7.340   3.085   3.450
13926SOL    HW142122   7.431   3.046   3.437
13926SOL    HW242123   7.348   3.181   3.474
13927SOL     OW42124   6.650   3.209   3.202
13927SOL    HW142125   6.570   3.186   3.257
13927SOL    HW242126   6.733   3.183   3.251
13928SOL     OW42127   7.178   3.491   3.487
13928SOL    HW142128   7.205   3.525   3.397
13928SOL    HW242129   7.257   3.453   3.533
13929SOL     OW42130   6.697   3.057   2.962
13929SOL    HW142131   6.657   3.101   3.043
13929SOL    HW242132   6.656   3.094   2.879
13930SOL     OW42133   7.224   2.961   2.941
13930SOL    HW142134   7.229   3.042   3.000
13930SOL    HW242135   7.138   2.963   2.890
13931SOL     OW42136   6.501   1.951   3.264
13931SOL    HW142137   6.526   1.931   3.169
13931SOL    HW242138   6.573   2.007   3.306
13932SOL     OW42139   6.566   2.978   3.581
13932SOL    HW142140   6.467   2.984   3.591
13932SOL    HW242141   6.589   2.898   3.525
13933SOL     OW42142   6.291   2.912   2.230
13933SOL    HW142143   6.277   2.919   2.329
13933SOL    HW242144   6.375   2.861   2.212
13934SOL     OW42145   5.996   2.675   3.113
13934SOL    HW142146   6.082   2.687   3.163
13934SOL    HW242147   5.954   2.588   3.140
13935SOL     OW42148   6.860   2.248   3.124
13935SOL    HW142149   6.881   2.322   3.188
13935SOL    HW242150   6.771   2.265   3.081
13936SOL     OW42151   5.650   3.426   3.193
13936SOL    HW142152   5.604   3.508   3.159
13936SOL    HW242153   5.748   3.445   3.202
13937SOL     OW42154   5.953   2.962   2.363
13937SOL    HW142155   5.946   3.045   2.307
13937SOL    HW242156   5.957   2.882   2.303
13938SOL     OW42157   6.152   2.399   2.727
13938SOL    HW142158   6.164   2.465   2.653
13938SOL    HW242159   6.198   2.433   2.810
13939SOL     OW42160   6.838   3.210   2.250
13939SOL    HW142161   6.888   3.287   2.290
13939SOL    HW242162   6.743   3.212   2.282
13940SOL     OW42163   6.858   3.307   3.004
13940SOL    HW142164   6.905   3.320   3.091
13940SOL    HW242165   6.792   3.233   3.013
13941SOL     OW42166   7.168   2.501   2.334
13941SOL    HW142167   7.137   2.562   2.407
13941SOL    HW242168   7.218   2.553   2.265
13942SOL     OW42169   5.940   3.372   3.191
13942SOL    HW142170   5.919   3.328   3.104
13942SOL    HW242171   6.037   3.398   3.194
13943SOL     OW42172   5.988   2.613   3.460
13943SOL    HW142173   6.056   2.668   3.413
13943SOL    HW242174   6.028   2.525   3.487
13944SOL     OW42175   7.173   2.641   3.532
13944SOL    HW142176   7.081   2.679   3.527
13944SOL    HW242177   7.233   2.688   3.467
13945SOL     OW42178   6.599   1.967   3.632
13945SOL    HW142179   6.605   2.052   3.580
13945SOL    HW242180   6.631   1.891   3.575
13946SOL     OW42181   6.090   1.912   3.602
13946SOL    HW142182   6.048   1.855   3.532
13946SOL    HW242183   6.024   1.981   3.634
13947SOL     OW42184   6.159   2.732   2.891
13947SOL    HW142185   6.203   2.821   2.882
13947SOL    HW242186   6.096   2.732   2.968
13948SOL     OW42187   6.946   2.724   2.907
13948SOL    HW142188   6.871   2.724   2.841
13948SOL    HW242189   6.983   2.632   2.916
13949SOL     OW42190   6.795   2.387   2.137
13949SOL    HW142191   6.808   2.303   2.191
13949SOL    HW242192   6.766   2.461   2.197
13950SOL     OW42193   5.893   2.075   3.093
13950SOL    HW142194   5.870   2.112   3.183
13950SOL    HW242195   5.863   1.980   3.087
13951SOL     OW42196   5.623   3.172   3.144
13951SOL    HW142197   5.676   3.123   3.212
13951SOL    HW242198   5.645   3.270   3.149
13952SOL     OW42199   6.318   2.496   2.926
13952SOL    HW142200   6.377   2.470   2.850
13952SOL    HW242201   6.290   2.592   2.915
13953SOL     OW42202   7.314   2.797   3.716
13953SOL    HW142203   7.268   2.790   3.627
13953SOL    HW242204   7.252   2.841   3.782
13954SOL     OW42205   5.893   1.925   2.480
13954SOL    HW142206   5.882   2.019   2.513
13954SOL    HW242207   5.888   1.862   2.557
13955SOL     OW42208   7.208   2.229   2.236
13955SOL    HW142209   7.210   2.153   2.300
13955SOL    HW242210   7.160   2.306   2.276
13956SOL     OW42211   6.609   2.628   2.828
13956SOL    HW142212   6.624   2.649   2.924
13956SOL    HW242213   6.579   2.533   2.819
13957SOL     OW42214   6.566   3.435   3.562
13957SOL    HW142215   6.546   3.479   3.474
13957SOL    HW242216   6.605   3.344   3.546
13958SOL     OW42217   7.445   3.380   3.467
13958SOL    HW142218   7.459   3.407   3.372
13958SOL    HW242219   7.528   3.402   3.520
13959SOL     OW42220   5.936   2.760   3.666
13959SOL    HW142221   6.012   2.804   3.714
13959SOL    HW242222   5.971   2.713   3.584
13960SOL     OW42223   7.126   2.136   1.987
13960SOL    HW142224   7.065   2.061   2.010
13960SOL    HW242225   7.148   2.188   2.070
13961SOL     OW42226   6.889   2.700   1.904
13961SOL    HW142227   6.923   2.607   1.919
13961SOL    HW242228   6.907   2.727   1.809
13962SOL     OW42229   6.654   3.195   2.711
13962SOL    HW142230   6.661   3.111   2.656
13962SOL    HW242231   6.716   3.264   2.675
13963SOL     OW42232   5.905   2.672   2.811
13963SOL    HW142233   5.998   2.708   2.816
13963SOL    HW242234   5.899   2.587   2.863
13964SOL     OW42235   5.925   2.371   2.868
13964SOL    HW142236   5.873   2.288   2.851
13964SOL    HW242237   6.002   2.376   2.804
13965SOL     OW42238   6.724   2.242   3.540
13965SOL    HW142239   6.679   2.305   3.604
13965SOL    HW242240   6.817   2.273   3.523
13966SOL     OW42241   6.746   2.069   3.339
13966SOL    HW142242   6.746   2.133   3.416
13966SOL    HW242243   6.774   2.117   3.256
13967SOL     OW42244   5.594   3.188   2.062
13967SOL    HW142245   5.501   3.209   2.031
13967SOL    HW242246   5.604   3.089   2.075
13968SOL     OW42247   5.674   3.663   2.789
13968SOL    HW142248   5.632   3.577   2.762
13968SOL    HW242249   5.768   3.666   2.755
13969SOL     OW42250   6.090   3.430   2.772
13969SOL    HW142251   6.156   3.504   2.781
13969SOL    HW242252   6.134   3.351   2.730
13970SOL     OW42253   6.588   2.658   3.100
13970SOL    HW142254   6.629   2.626   3.186
13970SOL    HW242255   6.492   2.631   3.097
13971SOL     OW42256   5.626   2.406   2.976
13971SOL    HW142257   5.711   2.373   2.935
13971SOL    HW242258   5.639   2.421   3.074
13972SOL     OW42259   5.775   2.382   3.584
13972SOL    HW142260   5.834   2.342   3.514
13972SOL    HW242261   5.717   2.453   3.543
13973SOL     OW42262   6.955   2.812   3.522
13973SOL    HW142263   6.994   2.901   3.542
13973SOL    HW242264   6.965   2.792   3.425
13974SOL     OW42265   6.401   2.434   2.187
13974SOL    HW142266   6.408   2.345   2.141
13974SOL    HW242267   6.307   2.468   2.179
13975SOL     OW42268   7.243   2.466   3.068
13975SOL    HW142269   7.205   2.397   3.130
13975SOL    HW242270   7.325   2.430   3.024
13976SOL     OW42271   5.838   3.426   3.606
13976SOL    HW142272   5.808   3.483   3.682
13976SOL    HW242273   5.831   3.329   3.632
13977SOL     OW42274   6.257   2.326   3.131
13977SOL    HW142275   6.223   2.237   3.101
13977SOL    HW242276   6.283   2.380   3.051
13978SOL     OW42277   6.516   3.540   3.327
13978SOL    HW142278   6.492   3.522   3.232
13978SOL    HW242279   6.546   3.634   3.337
13979SOL     OW42280   6.059   2.362   2.053
13979SOL    HW142281   6.120   2.442   2.057
13979SOL    HW242282   5.964   2.393   2.060
13980SOL     OW42283   5.745   2.999   3.328
13980SOL    HW142284   5.767   2.938   3.404
13980SOL    HW242285   5.755   2.950   3.242
13981SOL     OW42286   6.933   2.921   3.096
13981SOL    HW142287   6.957   2.858   3.022
13981SOL    HW242288   6.843   2.961   3.078
13982SOL     OW42289   6.888   2.717   2.171
13982SOL    HW142290   6.802   2.686   2.213
13982SOL    HW242291   6.884   2.703   2.072
13983SOL     OW42292   7.345   3.609   3.016
13983SOL    HW142293   7.406   3.639   2.943
13983SOL    HW242294   7.307   3.520   2.994
13984SOL     OW42295   6.838   3.593   2.990
13984SOL    HW142296   6.922   3.598   2.936
13984SOL    HW242297   6.815   3.497   3.008
13985SOL     OW42298   5.669   3.120   2.884
13985SOL    HW142299   5.664   3.119   2.984
13985SOL    HW242300   5.586   3.079   2.846
13986SOL     OW42301   6.274   3.524   3.578
13986SOL    HW142302   6.218   3.605   3.587
13986SOL    HW242303   6.326   3.528   3.492
13987SOL     OW42304   7.312   1.997   2.385
13987SOL    HW142305   7.385   1.980   2.318
13987SOL    HW242306   7.281   1.910   2.423
13988SOL     OW42307   6.974   3.435   2.339
13988SOL    HW142308   7.041   3.447   2.265
13988SOL    HW242309   6.934   3.524   2.362
13989SOL     OW42310   5.716   3.656   3.713
13989SOL    HW142311   5.675   3.582   3.766
13989SOL    HW242312   5.780   3.707   3.771
13990SOL     OW42313   6.866   2.789   2.534
13990SOL    HW142314   6.926   2.708   2.536
13990SOL    HW242315   6.906   2.858   2.474
13991SOL     OW42316   6.416   3.135   3.284
13991SOL    HW142317   6.411   3.168   3.379
13991SOL    HW242318   6.330   3.154   3.238
13992SOL     OW42319   6.258   3.478   2.016
13992SOL    HW142320   6.267   3.488   1.917
13992SOL    HW242321   6.218   3.389   2.037
13993SOL     OW42322   7.236   3.582   3.256
13993SOL    HW142323   7.289   3.592   3.172
13993SOL    HW242324   7.209   3.672   3.290
13994SOL     OW42325   7.427   2.037   2.825
13994SOL    HW142326   7.466   1.952   2.789
13994SOL    HW242327   7.329   2.039   2.806
13995SOL     OW42328   5.849   2.188   2.582
13995SOL    HW142329   5.770   2.239   2.548
13995SOL    HW242330   5.840   2.173   2.680
13996SOL     OW42331   6.780   3.474   1.893
13996SOL    HW142332   6.786   3.381   1.930
13996SOL    HW242333   6.721   3.474   1.813
13997SOL     OW42334   6.408   2.864   3.234
13997SOL    HW142335   6.448   2.863   3.142
13997SOL    HW242336   6.418   2.956   3.274
13998SOL     OW42337   6.502   2.772   2.153
13998SOL    HW142338   6.565   2.810   2.085
13998SOL    HW242339   6.542   2.689   2.192
13999SOL     OW42340   7.090   3.469   1.906
13999SOL    HW142341   6.998   3.506   1.913
13999SOL    HW242342   7.128   3.489   1.816
14000SOL     OW42343   5.958   3.150   3.352
14000SOL    HW142344   5.945   3.243   3.318
14000SOL    HW242345   5.874   3.098   3.339
14001SOL     OW42346   7.200   3.154   3.151
14001SOL    HW142347   7.260   3.157   3.231
14001SOL    HW242348   7.125   3.218   3.164
14002SOL     OW42349   6.625   2.960   2.558
14002SOL    HW142350   6.555   2.913   2.612
14002SOL    HW242351   6.684   2.892   2.515
14003SOL     OW42352   6.600   2.098   2.833
14003SOL    HW142353   6.592   2.062   2.740
14003SOL    HW242354   6.598   2.022   2.898
14004SOL     OW42355   6.176   3.349   2.353
14004SOL    HW142356   6.218   3.291   2.283
14004SOL    HW242357   6.132   3.428   2.309
14005SOL     OW42358   7.295   2.247   3.243
14005SOL    HW142359   7.368   2.316   3.247
14005SOL    HW242360   7.323   2.172   3.184
14006SOL     OW42361   5.841   3.210   2.152
14006SOL    HW142362   5.745   3.211   2.125
14006SOL    HW242363   5.853   3.263   2.236
14007SOL     OW42364   5.691   2.875   3.588
14007SOL    HW142365   5.614   2.842   3.642
14007SOL    HW242366   5.776   2.845   3.630
14008SOL     OW42367   6.258   2.065   3.351
14008SOL    HW142368   6.348   2.049   3.311
14008SOL    HW242369   6.266   2.070   3.450
14009SOL     OW42370   5.661   2.207   1.895
14009SOL    HW142371   5.569   2.179   1.866
14009SOL    HW242372   5.692   2.284   1.839
14010SOL     OW42373   7.026   2.718   3.260
14010SOL    HW142374   6.969   2.770   3.197
14010SOL    HW242375   7.122   2.730   3.236
14011SOL     OW42376   5.658   2.028   2.180
14011SOL    HW142377   5.641   2.111   2.126
14011SOL    HW242378   5.748   1.991   2.158
14012SOL     OW42379   6.769   3.197   1.981
14012SOL    HW142380   6.670   3.186   1.983
14012SOL    HW242381   6.803   3.212   2.074
14013SOL     OW42382   6.199   2.704   3.293
14013SOL    HW142383   6.255   2.785   3.276
14013SOL    HW242384   6.258   2.624   3.296
14014SOL     OW42385   7.079   3.629   2.821
14014SOL    HW142386   7.112   3.693   2.752
14014SOL    HW242387   7.145   3.623   2.896
14015SOL     OW42388   6.302   2.427   3.570
14015SOL    HW142389   6.321   2.492   3.644
14015SOL    HW242390   6.362   2.347   3.579
14016SOL     OW42391   7.036   3.082   3.495
14016SOL    HW142392   7.027   3.072   3.594
14016SOL    HW242393   7.132   3.075   3.469
14017SOL     OW42394   5.976   3.603   3.422
14017SOL    HW142395   5.885   3.644   3.420
14017SOL    HW242396   5.969   3.509   3.454
14018SOL     OW42397   7.260   2.745   3.116
14018SOL    HW142398   7.233   2.656   3.079
14018SOL    HW242399   7.261   2.813   3.043
14019SOL     OW42400   6.811   2.187   2.311
14019SOL    HW142401   6.876   2.113   2.300
14019SOL    HW242402   6.831   2.237   2.395
14020SOL     OW42403   6.180   2.607   2.514
14020SOL    HW142404   6.230   2.692   2.495
14020SOL    HW242405   6.092   2.609   2.466
14021SOL     OW42406   7.363   2.204   3.504
14021SOL    HW142407   7.346   2.235   3.410
14021SOL    HW242408   7.279   2.167   3.542
14022SOL     OW42409   7.316   2.796   3.379
14022SOL    HW142410   7.354   2.887   3.394
14022SOL    HW242411   7.308   2.779   3.280
14023SOL     OW42412   6.445   3.236   1.878
14023SOL    HW142413   6.399   3.251   1.966
14023SOL    HW242414   6.489   3.321   1.848
14024SOL     OW42415   6.247   3.652   2.815
14024SOL    HW142416   6.201   3.740   2.802
14024SOL    HW242417   6.346   3.664   2.808
14025SOL     OW42418   6.445   2.818   2.723
14025SOL    HW142419   6.499   2.749   2.771
14025SOL    HW242420   6.413   2.887   2.789
14026SOL     OW42421   6.669   2.846   1.949
14026SOL    HW142422   6.646   2.899   1.867
14026SOL    HW242423   6.750   2.790   1.930
14027SOL     OW42424   7.447   3.431   2.713
14027SOL    HW142425   7.376   3.419   2.643
14027SOL    HW242426   7.448   3.352   2.773
14028SOL     OW42427   5.807   3.176   3.706
14028SOL    HW142428   5.742   3.103   3.685
14028SOL    HW242429   5.811   3.190   3.804
14029SOL     OW42430   5.665   3.102   2.515
14029SOL    HW142431   5.664   3.055   2.603
14029SOL    HW242432   5.747   3.074   2.464
14030SOL     OW42433   6.258   3.253   3.486
14030SOL    HW142434   6.180   3.203   3.524
14030SOL    HW242435   6.255   3.348   3.517
14031SOL     OW42436   7.410   2.054   3.089
14031SOL    HW142437   7.406   1.964   3.133
14031SOL    HW242438   7.413   2.043   2.990
14032SOL     OW42439   6.014   2.286   2.382
14032SOL    HW142440   6.044   2.214   2.320
14032SOL    HW242441   5.975   2.246   2.465
14033SOL     OW42442   7.291   3.349   2.966
14033SOL    HW142443   7.198   3.324   2.939
14033SOL    HW242444   7.317   3.299   3.048
14034SOL     OW42445   5.903   2.409   3.142
14034SOL    HW142446   5.941   2.350   3.214
14034SOL    HW242447   5.943   2.383   3.054
14035SOL     OW42448   6.398   3.448   2.549
14035SOL    HW142449   6.430   3.458   2.455
14035SOL    HW242450   6.319   3.386   2.551
14036SOL     OW42451   7.010   2.076   2.974
14036SOL    HW142452   7.062   2.011   3.029
14036SOL    HW242453   6.961   2.139   3.035
14037SOL     OW42454   6.587   1.896   3.016
14037SOL    HW142455   6.524   1.824   2.985
14037SOL    HW242456   6.680   1.860   3.016
14038SOL     OW42457   6.356   3.192   2.163
14038SOL    HW142458   6.310   3.105   2.180
14038SOL    HW242459   6.447   3.189   2.204
14039SOL     OW42460   6.204   3.429   3.146
14039SOL    HW142461   6.199   3.511   3.203
14039SOL    HW242462   6.293   3.426   3.101
14040SOL     OW42463   6.938   1.914   2.030
14040SOL    HW142464   6.973   1.873   1.946
14040SOL    HW242465   6.848   1.876   2.050
14041SOL     OW42466   6.886   2.315   2.553
14041SOL    HW142467   6.827   2.395   2.557
14041SOL    HW242468   6.901   2.280   2.646
14042SOL     OW42469   7.179   2.083   2.744
14042SOL    HW142470   7.095   2.082   2.798
14042SOL    HW242471   7.181   2.166   2.688
14043SOL     OW42472   5.625   2.939   2.162
14043SOL    HW142473   5.724   2.928   2.153
14043SOL    HW242474   5.585   2.853   2.194
14044SOL     OW42475   6.461   3.508   2.199
14044SOL    HW142476   6.384   3.473   2.145
14044SOL    HW242477   6.429   3.579   2.261
14045SOL     OW42478   5.816   2.490   3.837
14045SOL    HW142479   5.723   2.488   3.874
14045SOL    HW242480   5.817   2.451   3.745
14046SOL     OW42481   5.811   2.137   4.720
14046SOL    HW142482   5.846   2.120   4.812
14046SOL    HW242483   5.723   2.092   4.708
14047SOL     OW42484   5.605   2.230   4.371
14047SOL    HW142485   5.523   2.273   4.410
14047SOL    HW242486   5.577   2.157   4.308
14048SOL     OW42487   6.155   3.137   4.889
14048SOL    HW142488   6.062   3.130   4.852
14048SOL    HW242489   6.166   3.226   4.933
14049SOL     OW42490   7.141   3.373   4.427
14049SOL    HW142491   7.084   3.357   4.508
14049SOL    HW242492   7.082   3.383   4.347
14050SOL     OW42493   6.721   2.565   4.441
14050SOL    HW142494   6.778   2.643   4.416
14050SOL    HW242495   6.661   2.591   4.517
14051SOL     OW42496   7.341   2.469   3.955
14051SOL    HW142497   7.329   2.456   3.856
14051SOL    HW242498   7.311   2.388   4.004
14052SOL     OW42499   6.354   3.006   4.747
14052SOL    HW142500   6.276   3.023   4.807
14052SOL    HW242501   6.388   3.093   4.711
14053SOL     OW42502   6.436   2.660   5.547
14053SOL    HW142503   6.432   2.736   5.612
14053SOL    HW242504   6.458   2.696   5.456
14054SOL     OW42505   6.271   2.874   4.389
14054SOL    HW142506   6.340   2.858   4.459
14054SOL    HW242507   6.198   2.931   4.427
14055SOL     OW42508   6.272   3.023   5.527
14055SOL    HW142509   6.332   3.102   5.541
14055SOL    HW242510   6.186   3.054   5.486
14056SOL     OW42511   5.921   3.297   4.785
14056SOL    HW142512   5.843   3.266   4.732
14056SOL    HW242513   5.979   3.355   4.728
14057SOL     OW42514   7.046   3.367   5.063
14057SOL    HW142515   7.070   3.461   5.089
14057SOL    HW242516   7.030   3.313   5.145
14058SOL     OW42517   6.024   2.254   5.223
14058SOL    HW142518   6.106   2.198   5.232
14058SOL    HW242519   5.943   2.196   5.227
14059SOL     OW42520   7.189   2.309   4.461
14059SOL    HW142521   7.115   2.355   4.411
14059SOL    HW242522   7.240   2.377   4.514
14060SOL     OW42523   5.817   3.575   4.207
14060SOL    HW142524   5.851   3.652   4.261
14060SOL    HW242525   5.861   3.575   4.117
14061SOL     OW42526   6.713   3.203   5.414
14061SOL    HW142527   6.760   3.203   5.502
14061SOL    HW242528   6.665   3.116   5.403
14062SOL     OW42529   5.816   3.296   4.262
14062SOL    HW142530   5.790   3.392   4.262
14062SOL    HW242531   5.745   3.242   4.307
14063SOL     OW42532   5.826   2.953   4.610
14063SOL    HW142533   5.840   2.869   4.662
14063SOL    HW242534   5.771   3.017   4.665
14064SOL     OW42535   6.206   3.648   5.163
14064SOL    HW142536   6.114   3.631   5.198
14064SOL    HW242537   6.234   3.740   5.189
14065SOL     OW42538   6.192   2.826   3.847
14065SOL    HW142539   6.199   2.910   3.793
14065SOL    HW242540   6.238   2.839   3.935
14066SOL     OW42541   7.180   1.976   5.204
14066SOL    HW142542   7.162   2.043   5.132
14066SOL    HW242543   7.177   2.022   5.293
14067SOL     OW42544   5.708   2.505   4.287
14067SOL    HW142545   5.663   2.417   4.304
14067SOL    HW242546   5.707   2.559   4.371
14068SOL     OW42547   7.428   3.629   4.083
14068SOL    HW142548   7.482   3.600   4.163
14068SOL    HW242549   7.458   3.719   4.054
14069SOL     OW42550   5.613   3.458   3.841
14069SOL    HW142551   5.594   3.362   3.862
14069SOL    HW242552   5.580   3.516   3.916
14070SOL     OW42553   7.275   2.784   4.336
14070SOL    HW142554   7.370   2.755   4.344
14070SOL    HW242555   7.267   2.849   4.261
14071SOL     OW42556   7.227   2.970   4.156
14071SOL    HW142557   7.313   2.972   4.104
14071SOL    HW242558   7.241   3.017   4.244
14072SOL     OW42559   5.699   2.599   5.321
14072SOL    HW142560   5.787   2.586   5.366
14072SOL    HW242561   5.686   2.696   5.299
14073SOL     OW42562   6.199   3.227   4.450
14073SOL    HW142563   6.150   3.140   4.459
14073SOL    HW242564   6.176   3.270   4.363
14074SOL     OW42565   6.879   3.090   5.147
14074SOL    HW142566   6.916   3.017   5.089
14074SOL    HW242567   6.931   3.095   5.232
14075SOL     OW42568   6.395   1.866   4.226
14075SOL    HW142569   6.435   1.957   4.217
14075SOL    HW242570   6.295   1.874   4.232
14076SOL     OW42571   5.783   2.838   4.988
14076SOL    HW142572   5.872   2.793   4.974
14076SOL    HW242573   5.710   2.773   4.969
14077SOL     OW42574   7.111   2.861   3.914
14077SOL    HW142575   7.048   2.785   3.927
14077SOL    HW242576   7.159   2.879   4.000
14078SOL     OW42577   6.773   3.654   5.340
14078SOL    HW142578   6.797   3.714   5.264
14078SOL    HW242579   6.780   3.559   5.310
14079SOL     OW42580   5.903   2.113   5.525
14079SOL    HW142581   5.974   2.184   5.531
14079SOL    HW242582   5.815   2.152   5.553
14080SOL     OW42583   7.052   3.279   4.677
14080SOL    HW142584   6.993   3.285   4.757
14080SOL    HW242585   7.037   3.191   4.631
14081SOL     OW42586   7.253   3.576   4.296
14081SOL    HW142587   7.212   3.553   4.208
14081SOL    HW242588   7.235   3.502   4.361
14082SOL     OW42589   6.184   2.591   3.994
14082SOL    HW142590   6.208   2.660   3.926
14082SOL    HW242591   6.106   2.624   4.048
14083SOL     OW42592   6.867   2.207   4.668
14083SOL    HW142593   6.781   2.157   4.655
14083SOL    HW242594   6.929   2.153   4.724
14084SOL     OW42595   7.162   3.524   4.031
14084SOL    HW142596   7.251   3.570   4.034
14084SOL    HW242597   7.141   3.500   3.936
14085SOL     OW42598   6.393   2.467   5.189
14085SOL    HW142599   6.346   2.464   5.278
14085SOL    HW242600   6.342   2.412   5.123
14086SOL     OW42601   6.980   2.331   5.398
14086SOL    HW142602   6.960   2.374   5.486
14086SOL    HW242603   7.058   2.269   5.407
14087SOL     OW42604   6.559   2.752   5.296
14087SOL    HW142605   6.605   2.668   5.267
14087SOL    HW242606   6.503   2.786   5.221
14088SOL     OW42607   6.577   2.272   4.966
14088SOL    HW142608   6.500   2.306   5.020
14088SOL    HW242609   6.543   2.221   4.887
14089SOL     OW42610   6.627   2.563   4.153
14089SOL    HW142611   6.653   2.559   4.249
14089SOL    HW242612   6.542   2.512   4.139
14090SOL     OW42613   5.662   2.673   4.513
14090SOL    HW142614   5.761   2.661   4.522
14090SOL    HW242615   5.638   2.768   4.534
14091SOL     OW42616   5.716   3.683   5.295
14091SOL    HW142617   5.706   3.668   5.394
14091SOL    HW242618   5.630   3.719   5.259
14092SOL     OW42619   6.451   2.210   3.919
14092SOL    HW142620   6.510   2.273   3.870
14092SOL    HW242621   6.470   2.116   3.890
14093SOL     OW42622   7.305   2.447   5.555
14093SOL    HW142623   7.279   2.536   5.519
14093SOL    HW242624   7.303   2.379   5.482
14094SOL     OW42625   6.948   3.006   4.269
14094SOL    HW142626   7.031   2.977   4.221
14094SOL    HW242627   6.899   3.073   4.213
14095SOL     OW42628   6.136   2.058   4.609
14095SOL    HW142629   6.131   2.053   4.709
14095SOL    HW242630   6.138   2.154   4.580
14096SOL     OW42631   6.594   3.318   4.201
14096SOL    HW142632   6.548   3.390   4.149
14096SOL    HW242633   6.590   3.338   4.299
14097SOL     OW42634   5.937   3.663   4.577
14097SOL    HW142635   5.987   3.577   4.583
14097SOL    HW242636   6.002   3.740   4.574
14098SOL     OW42637   7.381   2.928   4.597
14098SOL    HW142638   7.319   2.913   4.521
14098SOL    HW242639   7.329   2.939   4.682
14099SOL     OW42640   6.813   3.412   5.230
14099SOL    HW142641   6.819   3.335   5.294
14099SOL    HW242642   6.761   3.386   5.150
14100SOL     OW42643   5.907   2.805   3.966
14100SOL    HW142644   5.989   2.844   3.924
14100SOL    HW242645   5.880   2.723   3.917
14101SOL     OW42646   7.044   2.597   4.452
14101SOL    HW142647   7.039   2.532   4.527
14101SOL    HW242648   7.124   2.656   4.465
14102SOL     OW42649   6.047   3.128   5.451
14102SOL    HW142650   5.997   3.129   5.365
14102SOL    HW242651   5.984   3.110   5.527
14103SOL     OW42652   6.697   3.638   3.961
14103SOL    HW142653   6.637   3.576   4.011
14103SOL    HW242654   6.728   3.594   3.876
14104SOL     OW42655   5.788   2.147   5.222
14104SOL    HW142656   5.708   2.207   5.209
14104SOL    HW242657   5.778   2.098   5.308
14105SOL     OW42658   7.218   3.239   3.805
14105SOL    HW142659   7.186   3.333   3.795
14105SOL    HW242660   7.142   3.176   3.793
14106SOL     OW42661   6.050   3.605   4.047
14106SOL    HW142662   6.083   3.644   4.133
14106SOL    HW242663   6.126   3.598   3.982
14107SOL     OW42664   6.986   1.969   4.150
14107SOL    HW142665   6.962   1.932   4.060
14107SOL    HW242666   7.085   1.985   4.154
14108SOL     OW42667   5.835   3.647   4.965
14108SOL    HW142668   5.892   3.582   5.015
14108SOL    HW242669   5.819   3.614   4.872
14109SOL     OW42670   6.526   3.560   4.628
14109SOL    HW142671   6.606   3.503   4.649
14109SOL    HW242672   6.477   3.520   4.551
14110SOL     OW42673   5.968   2.562   4.204
14110SOL    HW142674   6.013   2.472   4.201
14110SOL    HW242675   5.874   2.551   4.237
14111SOL     OW42676   7.133   2.084   5.453
14111SOL    HW142677   7.128   2.121   5.545
14111SOL    HW242678   7.061   2.015   5.441
14112SOL     OW42679   6.200   1.984   3.841
14112SOL    HW142680   6.298   1.962   3.848
14112SOL    HW242681   6.169   1.967   3.748
14113SOL     OW42682   6.367   2.126   5.473
14113SOL    HW142683   6.434   2.065   5.516
14113SOL    HW242684   6.294   2.145   5.538
14114SOL     OW42685   6.474   3.376   4.919
14114SOL    HW142686   6.451   3.351   4.825
14114SOL    HW242687   6.535   3.307   4.958
14115SOL     OW42688   6.937   2.452   5.157
14115SOL    HW142689   6.965   2.409   5.242
14115SOL    HW242690   6.962   2.548   5.158
14116SOL     OW42691   6.389   3.264   4.648
14116SOL    HW142692   6.479   3.278   4.606
14116SOL    HW242693   6.318   3.266   4.577
14117SOL     OW42694   6.508   2.365   4.623
14117SOL    HW142695   6.483   2.356   4.527
14117SOL    HW242696   6.556   2.283   4.654
14118SOL     OW42697   6.125   1.926   4.236
14118SOL    HW142698   6.044   1.927   4.294
14118SOL    HW242699   6.128   2.009   4.181
14119SOL     OW42700   7.020   3.050   3.765
14119SOL    HW142701   7.052   2.974   3.822
14119SOL    HW242702   6.928   3.077   3.795
14120SOL     OW42703   5.883   1.897   3.895
14120SOL    HW142704   5.932   1.981   3.874
14120SOL    HW242705   5.945   1.832   3.940
14121SOL     OW42706   6.521   2.098   4.204
14121SOL    HW142707   6.473   2.139   4.126
14121SOL    HW242708   6.620   2.096   4.185
14122SOL     OW42709   6.662   2.545   5.188
14122SOL    HW142710   6.582   2.484   5.191
14122SOL    HW242711   6.743   2.492   5.164
14123SOL     OW42712   6.813   3.432   4.517
14123SOL    HW142713   6.834   3.506   4.452
14123SOL    HW242714   6.881   3.432   4.590
14124SOL     OW42715   6.045   3.014   4.465
14124SOL    HW142716   5.974   2.987   4.530
14124SOL    HW242717   6.019   2.986   4.372
14125SOL     OW42718   6.857   3.659   4.315
14125SOL    HW142719   6.901   3.723   4.251
14125SOL    HW242720   6.807   3.711   4.385
14126SOL     OW42721   6.618   2.411   3.740
14126SOL    HW142722   6.577   2.493   3.701
14126SOL    HW242723   6.682   2.437   3.813
14127SOL     OW42724   5.664   2.418   5.110
14127SOL    HW142725   5.756   2.417   5.069
14127SOL    HW242726   5.658   2.492   5.177
14128SOL     OW42727   6.147   2.084   4.871
14128SOL    HW142728   6.185   2.000   4.908
14128SOL    HW242729   6.059   2.103   4.915
14129SOL     OW42730   6.452   2.316   4.366
14129SOL    HW142731   6.420   2.388   4.304
14129SOL    HW242732   6.476   2.235   4.313
14130SOL     OW42733   6.603   1.901   4.477
14130SOL    HW142734   6.531   1.906   4.408
14130SOL    HW242735   6.579   1.832   4.546
14131SOL     OW42736   7.015   3.035   4.591
14131SOL    HW142737   6.960   2.951   4.584
14131SOL    HW242738   7.041   3.064   4.499
14132SOL     OW42739   7.052   2.452   4.716
14132SOL    HW142740   7.022   2.357   4.723
14132SOL    HW242741   7.125   2.468   4.782
14133SOL     OW42742   7.443   2.695   4.101
14133SOL    HW142743   7.485   2.631   4.165
14133SOL    HW242744   7.405   2.644   4.023
14134SOL     OW42745   6.074   3.247   3.898
14134SOL    HW142746   5.987   3.232   3.945
14134SOL    HW242747   6.057   3.273   3.803
14135SOL     OW42748   7.250   3.142   4.381
14135SOL    HW142749   7.349   3.150   4.395
14135SOL    HW242750   7.205   3.226   4.412
14136SOL     OW42751   6.976   2.437   3.802
14136SOL    HW142752   6.922   2.416   3.883
14136SOL    HW242753   7.067   2.396   3.811
14137SOL     OW42754   6.113   2.118   4.052
14137SOL    HW142755   6.140   2.059   3.977
14137SOL    HW242756   6.113   2.213   4.021
14138SOL     OW42757   7.340   3.085   5.312
14138SOL    HW142758   7.431   3.046   5.299
14138SOL    HW242759   7.348   3.181   5.336
14139SOL     OW42760   6.650   3.209   5.064
14139SOL    HW142761   6.570   3.186   5.119
14139SOL    HW242762   6.733   3.183   5.113
14140SOL     OW42763   7.178   3.491   5.349
14140SOL    HW142764   7.205   3.525   5.259
14140SOL    HW242765   7.257   3.453   5.395
14141SOL     OW42766   6.697   3.057   4.824
14141SOL    HW142767   6.657   3.101   4.905
14141SOL    HW242768   6.656   3.094   4.741
14142SOL     OW42769   7.224   2.961   4.803
14142SOL    HW142770   7.229   3.042   4.862
14142SOL    HW242771   7.138   2.963   4.752
14143SOL     OW42772   6.501   1.951   5.126
14143SOL    HW142773   6.526   1.931   5.031
14143SOL    HW242774   6.573   2.007   5.168
14144SOL     OW42775   6.566   2.978   5.443
14144SOL    HW142776   6.467   2.984   5.453
14144SOL    HW242777   6.589   2.898   5.387
14145SOL     OW42778   6.291   2.912   4.092
14145SOL    HW142779   6.277   2.919   4.191
14145SOL    HW242780   6.375   2.861   4.074
14146SOL     OW42781   5.996   2.675   4.975
14146SOL    HW142782   6.082   2.687   5.025
14146SOL    HW242783   5.954   2.588   5.002
14147SOL     OW42784   6.860   2.248   4.986
14147SOL    HW142785   6.881   2.322   5.050
14147SOL    HW242786   6.771   2.265   4.943
14148SOL     OW42787   5.650   3.426   5.055
14148SOL    HW142788   5.604   3.508   5.021
14148SOL    HW242789   5.748   3.445   5.064
14149SOL     OW42790   5.953   2.962   4.225
14149SOL    HW142791   5.946   3.045   4.169
14149SOL    HW242792   5.957   2.882   4.165
14150SOL     OW42793   6.152   2.399   4.589
14150SOL    HW142794   6.164   2.465   4.515
14150SOL    HW242795   6.198   2.433   4.672
14151SOL     OW42796   6.838   3.210   4.112
14151SOL    HW142797   6.888   3.287   4.152
14151SOL    HW242798   6.743   3.212   4.144
14152SOL     OW42799   6.858   3.307   4.866
14152SOL    HW142800   6.905   3.320   4.953
14152SOL    HW242801   6.792   3.233   4.875
14153SOL     OW42802   7.168   2.501   4.196
14153SOL    HW142803   7.137   2.562   4.269
14153SOL    HW242804   7.218   2.553   4.127
14154SOL     OW42805   5.940   3.372   5.053
14154SOL    HW142806   5.919   3.328   4.966
14154SOL    HW242807   6.037   3.398   5.056
14155SOL     OW42808   5.988   2.613   5.322
14155SOL    HW142809   6.056   2.668   5.275
14155SOL    HW242810   6.028   2.525   5.349
14156SOL     OW42811   7.173   2.641   5.394
14156SOL    HW142812   7.081   2.679   5.389
14156SOL    HW242813   7.233   2.688   5.329
14157SOL     OW42814   6.599   1.967   5.494
14157SOL    HW142815   6.605   2.052   5.442
14157SOL    HW242816   6.631   1.891   5.437
14158SOL     OW42817   6.090   1.912   5.464
14158SOL    HW142818   6.048   1.855   5.394
14158SOL    HW242819   6.024   1.981   5.496
14159SOL     OW42820   6.159   2.732   4.753
14159SOL    HW142821   6.203   2.821   4.744
14159SOL    HW242822   6.096   2.732   4.830
14160SOL     OW42823   6.946   2.724   4.769
14160SOL    HW142824   6.871   2.724   4.703
14160SOL    HW242825   6.983   2.632   4.778
14161SOL     OW42826   6.795   2.387   3.999
14161SOL    HW142827   6.808   2.303   4.053
14161SOL    HW242828   6.766   2.461   4.059
14162SOL     OW42829   5.893   2.075   4.955
14162SOL    HW142830   5.870   2.112   5.045
14162SOL    HW242831   5.863   1.980   4.949
14163SOL     OW42832   5.623   3.172   5.006
14163SOL    HW142833   5.676   3.123   5.074
14163SOL    HW242834   5.645   3.270   5.011
14164SOL     OW42835   6.318   2.496   4.788
14164SOL    HW142836   6.377   2.470   4.712
14164SOL    HW242837   6.290   2.592   4.777
14165SOL     OW42838   7.314   2.797   5.578
14165SOL    HW142839   7.268   2.790   5.489
14165SOL    HW242840   7.252   2.841   5.644
14166SOL     OW42841   5.893   1.925   4.342
14166SOL    HW142842   5.882   2.019   4.375
14166SOL    HW242843   5.888   1.862   4.419
14167SOL     OW42844   7.208   2.229   4.098
14167SOL    HW142845   7.210   2.153   4.162
14167SOL    HW242846   7.160   2.306   4.138
14168SOL     OW42847   6.609   2.628   4.690
14168SOL    HW142848   6.624   2.649   4.786
14168SOL    HW242849   6.579   2.533   4.681
14169SOL     OW42850   6.566   3.435   5.424
14169SOL    HW142851   6.546   3.479   5.336
14169SOL    HW242852   6.605   3.344   5.408
14170SOL     OW42853   7.445   3.380   5.329
14170SOL    HW142854   7.459   3.407   5.234
14170SOL    HW242855   7.528   3.402   5.382
14171SOL     OW42856   5.936   2.760   5.528
14171SOL    HW142857   6.012   2.804   5.576
14171SOL    HW242858   5.971   2.713   5.446
14172SOL     OW42859   7.126   2.136   3.849
14172SOL    HW142860   7.065   2.061   3.872
14172SOL    HW242861   7.148   2.188   3.932
14173SOL     OW42862   6.889   2.700   3.766
14173SOL    HW142863   6.923   2.607   3.781
14173SOL    HW242864   6.907   2.727   3.671
14174SOL     OW42865   6.654   3.195   4.573
14174SOL    HW142866   6.661   3.111   4.518
14174SOL    HW242867   6.716   3.264   4.537
14175SOL     OW42868   5.905   2.672   4.673
14175SOL    HW142869   5.998   2.708   4.678
14175SOL    HW242870   5.899   2.587   4.725
14176SOL     OW42871   5.925   2.371   4.730
14176SOL    HW142872   5.873   2.288   4.713
14176SOL    HW242873   6.002   2.376   4.666
14177SOL     OW42874   6.724   2.242   5.402
14177SOL    HW142875   6.679   2.305   5.466
14177SOL    HW242876   6.817   2.273   5.385
14178SOL     OW42877   6.746   2.069   5.201
14178SOL    HW142878   6.746   2.133   5.278
14178SOL    HW242879   6.774   2.117   5.118
14179SOL     OW42880   5.594   3.188   3.924
14179SOL    HW142881   5.501   3.209   3.893
14179SOL    HW242882   5.604   3.089   3.937
14180SOL     OW42883   5.674   3.663   4.651
14180SOL    HW142884   5.632   3.577   4.624
14180SOL    HW242885   5.768   3.666   4.617
14181SOL     OW42886   6.090   3.430   4.634
14181SOL    HW142887   6.156   3.504   4.643
14181SOL    HW242888   6.134   3.351   4.592
14182SOL     OW42889   6.588   2.658   4.962
14182SOL    HW142890   6.629   2.626   5.048
14182SOL    HW242891   6.492   2.631   4.959
14183SOL     OW42892   5.626   2.406   4.838
14183SOL    HW142893   5.711   2.373   4.797
14183SOL    HW242894   5.639   2.421   4.936
14184SOL     OW42895   5.775   2.382   5.446
14184SOL    HW142896   5.834   2.342   5.376
14184SOL    HW242897   5.717   2.453   5.405
14185SOL     OW42898   6.955   2.812   5.384
14185SOL    HW142899   6.994   2.901   5.404
14185SOL    HW242900   6.965   2.792   5.287
14186SOL     OW42901   6.401   2.434   4.049
14186SOL    HW142902   6.408   2.345   4.003
14186SOL    HW242903   6.307   2.468   4.041
14187SOL     OW42904   7.243   2.466   4.930
14187SOL    HW142905   7.205   2.397   4.992
14187SOL    HW242906   7.325   2.430   4.886
14188SOL     OW42907   5.838   3.426   5.468
14188SOL    HW142908   5.808   3.483   5.544
14188SOL    HW242909   5.831   3.329   5.494
14189SOL     OW42910   6.257   2.326   4.993
14189SOL    HW142911   6.223   2.237   4.963
14189SOL    HW242912   6.283   2.380   4.913
14190SOL     OW42913   6.516   3.540   5.189
14190SOL    HW142914   6.492   3.522   5.094
14190SOL    HW242915   6.546   3.634   5.199
14191SOL     OW42916   6.059   2.362   3.915
14191SOL    HW142917   6.120   2.442   3.919
14191SOL    HW242918   5.964   2.393   3.922
14192SOL     OW42919   5.745   2.999   5.190
14192SOL    HW142920   5.767   2.938   5.266
14192SOL    HW242921   5.755   2.950   5.104
14193SOL     OW42922   6.933   2.921   4.958
14193SOL    HW142923   6.957   2.858   4.884
14193SOL    HW242924   6.843   2.961   4.940
14194SOL     OW42925   6.888   2.717   4.033
14194SOL    HW142926   6.802   2.686   4.075
14194SOL    HW242927   6.884   2.703   3.934
14195SOL     OW42928   7.345   3.609   4.878
14195SOL    HW142929   7.406   3.639   4.805
14195SOL    HW242930   7.307   3.520   4.856
14196SOL     OW42931   6.838   3.593   4.852
14196SOL    HW142932   6.922   3.598   4.798
14196SOL    HW242933   6.815   3.497   4.870
14197SOL     OW42934   5.669   3.120   4.746
14197SOL    HW142935   5.664   3.119   4.846
14197SOL    HW242936   5.586   3.079   4.708
14198SOL     OW42937   6.274   3.524   5.440
14198SOL    HW142938   6.218   3.605   5.449
14198SOL    HW242939   6.326   3.528   5.354
14199SOL     OW42940   7.312   1.997   4.247
14199SOL    HW142941   7.385   1.980   4.180
14199SOL    HW242942   7.281   1.910   4.285
14200SOL     OW42943   6.974   3.435   4.201
14200SOL    HW142944   7.041   3.447   4.127
14200SOL    HW242945   6.934   3.524   4.224
14201SOL     OW42946   5.716   3.656   5.575
14201SOL    HW142947   5.675   3.582   5.628
14201SOL    HW242948   5.780   3.707   5.633
14202SOL     OW42949   6.866   2.789   4.396
14202SOL    HW142950   6.926   2.708   4.398
14202SOL    HW242951   6.906   2.858   4.336
14203SOL     OW42952   6.416   3.135   5.146
14203SOL    HW142953   6.411   3.168   5.241
14203SOL    HW242954   6.330   3.154   5.100
14204SOL     OW42955   6.258   3.478   3.878
14204SOL    HW142956   6.267   3.488   3.779
14204SOL    HW242957   6.218   3.389   3.899
14205SOL     OW42958   7.236   3.582   5.118
14205SOL    HW142959   7.289   3.592   5.034
14205SOL    HW242960   7.209   3.672   5.152
14206SOL     OW42961   7.427   2.037   4.687
14206SOL    HW142962   7.466   1.952   4.651
14206SOL    HW242963   7.329   2.039   4.668
14207SOL     OW42964   5.849   2.188   4.444
14207SOL    HW142965   5.770   2.239   4.410
14207SOL    HW242966   5.840   2.173   4.542
14208SOL     OW42967   6.780   3.474   3.755
14208SOL    HW142968   6.786   3.381   3.792
14208SOL    HW242969   6.721   3.474   3.675
14209SOL     OW42970   6.408   2.864   5.096
14209SOL    HW142971   6.448   2.863   5.004
14209SOL    HW242972   6.418   2.956   5.136
14210SOL     OW42973   6.502   2.772   4.015
14210SOL    HW142974   6.565   2.810   3.947
14210SOL    HW242975   6.542   2.689   4.054
14211SOL     OW42976   7.090   3.469   3.768
14211SOL    HW142977   6.998   3.506   3.775
14211SOL    HW242978   7.128   3.489   3.678
14212SOL     OW42979   5.958   3.150   5.214
14212SOL    HW142980   5.945   3.243   5.180
14212SOL    HW242981   5.874   3.098   5.201
14213SOL     OW42982   7.200   3.154   5.013
14213SOL    HW142983   7.260   3.157   5.093
14213SOL    HW242984   7.125   3.218   5.026
14214SOL     OW42985   6.625   2.960   4.420
14214SOL    HW142986   6.555   2.913   4.474
14214SOL    HW242987   6.684   2.892   4.377
14215SOL     OW42988   6.600   2.098   4.695
14215SOL    HW142989   6.592   2.062   4.602
14215SOL    HW242990   6.598   2.022   4.760
14216SOL     OW42991   6.176   3.349   4.215
14216SOL    HW142992   6.218   3.291   4.145
14216SOL    HW242993   6.132   3.428   4.171
14217SOL     OW42994   7.295   2.247   5.105
14217SOL    HW142995   7.368   2.316   5.109
14217SOL    HW242996   7.323   2.172   5.046
14218SOL     OW42997   5.841   3.210   4.014
14218SOL    HW142998   5.745   3.211   3.987
14218SOL    HW242999   5.853   3.263   4.098
14219SOL     OW43000   5.691   2.875   5.450
14219SOL    HW143001   5.614   2.842   5.504
14219SOL    HW243002   5.776   2.845   5.492
14220SOL     OW43003   6.258   2.065   5.213
14220SOL    HW143004   6.348   2.049   5.173
14220SOL    HW243005   6.266   2.070   5.312
14221SOL     OW43006   5.661   2.207   3.757
14221SOL    HW143007   5.569   2.179   3.728
14221SOL    HW243008   5.692   2.284   3.701
14222SOL     OW43009   7.026   2.718   5.122
14222SOL    HW143010   6.969   2.770   5.059
14222SOL    HW243011   7.122   2.730   5.098
14223SOL     OW43012   5.658   2.028   4.042
14223SOL    HW143013   5.641   2.111   3.988
14223SOL    HW243014   5.748   1.991   4.020
14224SOL     OW43015   6.769   3.197   3.843
14224SOL    HW143016   6.670   3.186   3.845
14224SOL    HW243017   6.803   3.212   3.936
14225SOL     OW43018   6.199   2.704   5.155
14225SOL    HW143019   6.255   2.785   5.138
14225SOL    HW243020   6.258   2.624   5.158
14226SOL     OW43021   7.079   3.629   4.683
14226SOL    HW143022   7.112   3.693   4.614
14226SOL    HW243023   7.145   3.623   4.758
14227SOL     OW43024   6.302   2.427   5.432
14227SOL    HW143025   6.321   2.492   5.506
14227SOL    HW243026   6.362   2.347   5.441
14228SOL     OW43027   7.036   3.082   5.357
14228SOL    HW143028   7.027   3.072   5.456
14228SOL    HW243029   7.132   3.075   5.331
14229SOL     OW43030   5.976   3.603   5.284
14229SOL    HW143031   5.885   3.644   5.282
14229SOL    HW243032   5.969   3.509   5.316
14230SOL     OW43033   7.260   2.745   4.978
14230SOL    HW143034   7.233   2.656   4.941
14230SOL    HW243035   7.261   2.813   4.905
14231SOL     OW43036   6.811   2.187   4.173
14231SOL    HW143037   6.876   2.113   4.162
14231SOL    HW243038   6.831   2.237   4.257
14232SOL     OW43039   6.180   2.607   4.376
14232SOL    HW143040   6.230   2.692   4.357
14232SOL    HW243041   6.092   2.609   4.328
14233SOL     OW43042   7.363   2.204   5.366
14233SOL    HW143043   7.346   2.235   5.272
14233SOL    HW243044   7.279   2.167   5.404
14234SOL     OW43045   7.316   2.796   5.241
14234SOL    HW143046   7.354   2.887   5.256
14234SOL    HW243047   7.308   2.779   5.142
14235SOL     OW43048   6.445   3.236   3.740
14235SOL    HW143049   6.399   3.251   3.828
14235SOL    HW243050   6.489   3.321   3.710
14236SOL     OW43051   6.247   3.652   4.677
14236SOL    HW143052   6.201   3.740   4.664
14236SOL    HW243053   6.346   3.664   4.670
14237SOL     OW43054   6.445   2.818   4.585
14237SOL    HW143055   6.499   2.749   4.633
14237SOL    HW243056   6.413   2.887   4.651
14238SOL     OW43057   6.669   2.846   3.811
14238SOL    HW143058   6.646   2.899   3.729
14238SOL    HW243059   6.750   2.790   3.792
14239SOL     OW43060   7.447   3.431   4.575
14239SOL    HW143061   7.376   3.419   4.505
14239SOL    HW243062   7.448   3.352   4.635
14240SOL     OW43063   5.807   3.176   5.568
14240SOL    HW143064   5.742   3.103   5.547
14240SOL    HW243065   5.811   3.190   5.666
14241SOL     OW43066   5.665   3.102   4.377
14241SOL    HW143067   5.664   3.055   4.465
14241SOL    HW243068   5.747   3.074   4.326
14242SOL     OW43069   6.258   3.253   5.348
14242SOL    HW143070   6.180   3.203   5.386
14242SOL    HW243071   6.255   3.348   5.379
14243SOL     OW43072   7.410   2.054   4.951
14243SOL    HW143073   7.406   1.964   4.995
14243SOL    HW243074   7.413   2.043   4.852
14244SOL     OW43075   6.014   2.286   4.244
14244SOL    HW143076   6.044   2.214   4.182
14244SOL    HW243077   5.975   2.246   4.327
14245SOL     OW43078   7.291   3.349   4.828
14245SOL    HW143079   7.198   3.324   4.801
14245SOL    HW243080   7.317   3.299   4.910
14246SOL     OW43081   5.903   2.409   5.004
14246SOL    HW143082   5.941   2.350   5.076
14246SOL    HW243083   5.943   2.383   4.916
14247SOL     OW43084   6.398   3.448   4.411
14247SOL    HW143085   6.430   3.458   4.317
14247SOL    HW243086   6.319   3.386   4.413
14248SOL     OW43087   7.010   2.076   4.836
14248SOL    HW143088   7.062   2.011   4.891
14248SOL    HW243089   6.961   2.139   4.897
14249SOL     OW43090   6.587   1.896   4.878
14249SOL    HW143091   6.524   1.824   4.847
14249SOL    HW243092   6.680   1.860   4.878
14250SOL     OW43093   6.356   3.192   4.025
14250SOL    HW143094   6.310   3.105   4.042
14250SOL    HW243095   6.447   3.189   4.066
14251SOL     OW43096   6.204   3.429   5.008
14251SOL    HW143097   6.199   3.511   5.065
14251SOL    HW243098   6.293   3.426   4.963
14252SOL     OW43099   6.938   1.914   3.892
14252SOL    HW143100   6.973   1.873   3.808
14252SOL    HW243101   6.848   1.876   3.912
14253SOL     OW43102   6.886   2.315   4.415
14253SOL    HW143103   6.827   2.395   4.419
14253SOL    HW243104   6.901   2.280   4.508
14254SOL     OW43105   7.179   2.083   4.606
14254SOL    HW143106   7.095   2.082   4.660
14254SOL    HW243107   7.181   2.166   4.550
14255SOL     OW43108   5.625   2.939   4.024
14255SOL    HW143109   5.724   2.928   4.015
14255SOL    HW243110   5.585   2.853   4.056
14256SOL     OW43111   6.461   3.508   4.061
14256SOL    HW143112   6.384   3.473   4.007
14256SOL    HW243113   6.429   3.579   4.123
14257SOL     OW43114   5.816   2.490   5.699
14257SOL    HW143115   5.723   2.488   5.736
14257SOL    HW243116   5.817   2.451   5.607
14258SOL     OW43117   5.811   2.137   6.582
14258SOL    HW143118   5.846   2.120   6.674
14258SOL    HW243119   5.723   2.092   6.570
14259SOL     OW43120   5.605   2.230   6.233
14259SOL    HW143121   5.523   2.273   6.272
14259SOL    HW243122   5.577   2.157   6.170
14260SOL     OW43123   6.155   3.137   6.751
14260SOL    HW143124   6.062   3.130   6.714
14260SOL    HW243125   6.166   3.226   6.795
14261SOL     OW43126   7.141   3.373   6.289
14261SOL    HW143127   7.084   3.357   6.370
14261SOL    HW243128   7.082   3.383   6.209
14262SOL     OW43129   6.721   2.565   6.303
14262SOL    HW143130   6.778   2.643   6.278
14262SOL    HW243131   6.661   2.591   6.379
14263SOL     OW43132   7.341   2.469   5.817
14263SOL    HW143133   7.329   2.456   5.718
14263SOL    HW243134   7.311   2.388   5.866
14264SOL     OW43135   6.354   3.006   6.609
14264SOL    HW143136   6.276   3.023   6.669
14264SOL    HW243137   6.388   3.093   6.573
14265SOL     OW43138   6.436   2.660   7.409
14265SOL    HW143139   6.432   2.736   7.474
14265SOL    HW243140   6.458   2.696   7.318
14266SOL     OW43141   6.271   2.874   6.251
14266SOL    HW143142   6.340   2.858   6.321
14266SOL    HW243143   6.198   2.931   6.289
14267SOL     OW43144   6.272   3.023   7.389
14267SOL    HW143145   6.332   3.102   7.403
14267SOL    HW243146   6.186   3.054   7.348
14268SOL     OW43147   5.921   3.297   6.647
14268SOL    HW143148   5.843   3.266   6.594
14268SOL    HW243149   5.979   3.355   6.590
14269SOL     OW43150   7.046   3.367   6.925
14269SOL    HW143151   7.070   3.461   6.951
14269SOL    HW243152   7.030   3.313   7.007
14270SOL     OW43153   6.024   2.254   7.085
14270SOL    HW143154   6.106   2.198   7.094
14270SOL    HW243155   5.943   2.196   7.089
14271SOL     OW43156   7.189   2.309   6.323
14271SOL    HW143157   7.115   2.355   6.273
14271SOL    HW243158   7.240   2.377   6.376
14272SOL     OW43159   5.817   3.575   6.069
14272SOL    HW143160   5.851   3.652   6.123
14272SOL    HW243161   5.861   3.575   5.979
14273SOL     OW43162   6.713   3.203   7.276
14273SOL    HW143163   6.760   3.203   7.364
14273SOL    HW243164   6.665   3.116   7.265
14274SOL     OW43165   5.816   3.296   6.124
14274SOL    HW143166   5.790   3.392   6.124
14274SOL    HW243167   5.745   3.242   6.169
14275SOL     OW43168   5.826   2.953   6.472
14275SOL    HW143169   5.840   2.869   6.524
14275SOL    HW243170   5.771   3.017   6.527
14276SOL     OW43171   6.206   3.648   7.025
14276SOL    HW143172   6.114   3.631   7.060
14276SOL    HW243173   6.234   3.740   7.051
14277SOL     OW43174   6.192   2.826   5.709
14277SOL    HW143175   6.199   2.910   5.655
14277SOL    HW243176   6.238   2.839   5.797
14278SOL     OW43177   7.180   1.976   7.066
14278SOL    HW143178   7.162   2.043   6.994
14278SOL    HW243179   7.177   2.022   7.155
14279SOL     OW43180   5.708   2.505   6.149
14279SOL    HW143181   5.663   2.417   6.166
14279SOL    HW243182   5.707   2.559   6.233
14280SOL     OW43183   7.428   3.629   5.945
14280SOL    HW143184   7.482   3.600   6.025
14280SOL    HW243185   7.458   3.719   5.916
14281SOL     OW43186   5.613   3.458   5.703
14281SOL    HW143187   5.594   3.362   5.724
14281SOL    HW243188   5.580   3.516   5.778
14282SOL     OW43189   7.275   2.784   6.198
14282SOL    HW143190   7.370   2.755   6.206
14282SOL    HW243191   7.267   2.849   6.123
14283SOL     OW43192   7.227   2.970   6.018
14283SOL    HW143193   7.313   2.972   5.966
14283SOL    HW243194   7.241   3.017   6.106
14284SOL     OW43195   5.699   2.599   7.183
14284SOL    HW143196   5.787   2.586   7.228
14284SOL    HW243197   5.686   2.696   7.161
14285SOL     OW43198   6.199   3.227   6.312
14285SOL    HW143199   6.150   3.140   6.321
14285SOL    HW243200   6.176   3.270   6.225
14286SOL     OW43201   6.879   3.090   7.009
14286SOL    HW143202   6.916   3.017   6.951
14286SOL    HW243203   6.931   3.095   7.094
14287SOL     OW43204   6.395   1.866   6.088
14287SOL    HW143205   6.435   1.957   6.079
14287SOL    HW243206   6.295   1.874   6.094
14288SOL     OW43207   5.783   2.838   6.850
14288SOL    HW143208   5.872   2.793   6.836
14288SOL    HW243209   5.710   2.773   6.831
14289SOL     OW43210   7.111   2.861   5.776
14289SOL    HW143211   7.048   2.785   5.789
14289SOL    HW243212   7.159   2.879   5.862
14290SOL     OW43213   6.773   3.654   7.202
14290SOL    HW143214   6.797   3.714   7.126
14290SOL    HW243215   6.780   3.559   7.172
14291SOL     OW43216   5.903   2.113   7.387
14291SOL    HW143217   5.974   2.184   7.393
14291SOL    HW243218   5.815   2.152   7.415
14292SOL     OW43219   7.052   3.279   6.539
14292SOL    HW143220   6.993   3.285   6.619
14292SOL    HW243221   7.037   3.191   6.493
14293SOL     OW43222   7.253   3.576   6.158
14293SOL    HW143223   7.212   3.553   6.070
14293SOL    HW243224   7.235   3.502   6.223
14294SOL     OW43225   6.184   2.591   5.856
14294SOL    HW143226   6.208   2.660   5.788
14294SOL    HW243227   6.106   2.624   5.910
14295SOL     OW43228   6.867   2.207   6.530
14295SOL    HW143229   6.781   2.157   6.517
14295SOL    HW243230   6.929   2.153   6.586
14296SOL     OW43231   7.162   3.524   5.893
14296SOL    HW143232   7.251   3.570   5.896
14296SOL    HW243233   7.141   3.500   5.798
14297SOL     OW43234   6.393   2.467   7.051
14297SOL    HW143235   6.346   2.464   7.140
14297SOL    HW243236   6.342   2.412   6.985
14298SOL     OW43237   6.980   2.331   7.260
14298SOL    HW143238   6.960   2.374   7.348
14298SOL    HW243239   7.058   2.269   7.269
14299SOL     OW43240   6.559   2.752   7.158
14299SOL    HW143241   6.605   2.668   7.129
14299SOL    HW243242   6.503   2.786   7.083
14300SOL     OW43243   6.577   2.272   6.828
14300SOL    HW143244   6.500   2.306   6.882
14300SOL    HW243245   6.543   2.221   6.749
14301SOL     OW43246   6.627   2.563   6.015
14301SOL    HW143247   6.653   2.559   6.111
14301SOL    HW243248   6.542   2.512   6.001
14302SOL     OW43249   5.662   2.673   6.375
14302SOL    HW143250   5.761   2.661   6.384
14302SOL    HW243251   5.638   2.768   6.396
14303SOL     OW43252   5.716   3.683   7.157
14303SOL    HW143253   5.706   3.668   7.256
14303SOL    HW243254   5.630   3.719   7.121
14304SOL     OW43255   6.451   2.210   5.781
14304SOL    HW143256   6.510   2.273   5.732
14304SOL    HW243257   6.470   2.116   5.752
14305SOL     OW43258   7.305   2.447   7.417
14305SOL    HW143259   7.279   2.536   7.381
14305SOL    HW243260   7.303   2.379   7.344
14306SOL     OW43261   6.948   3.006   6.131
14306SOL    HW143262   7.031   2.977   6.083
14306SOL    HW243263   6.899   3.073   6.075
14307SOL     OW43264   6.136   2.058   6.471
14307SOL    HW143265   6.131   2.053   6.571
14307SOL    HW243266   6.138   2.154   6.442
14308SOL     OW43267   6.594   3.318   6.063
14308SOL    HW143268   6.548   3.390   6.011
14308SOL    HW243269   6.590   3.338   6.161
14309SOL     OW43270   5.937   3.663   6.439
14309SOL    HW143271   5.987   3.577   6.445
14309SOL    HW243272   6.002   3.740   6.436
14310SOL     OW43273   7.381   2.928   6.459
14310SOL    HW143274   7.319   2.913   6.383
14310SOL    HW243275   7.329   2.939   6.544
14311SOL     OW43276   6.813   3.412   7.092
14311SOL    HW143277   6.819   3.335   7.156
14311SOL    HW243278   6.761   3.386   7.012
14312SOL     OW43279   5.907   2.805   5.828
14312SOL    HW143280   5.989   2.844   5.786
14312SOL    HW243281   5.880   2.723   5.779
14313SOL     OW43282   7.044   2.597   6.314
14313SOL    HW143283   7.039   2.532   6.389
14313SOL    HW243284   7.124   2.656   6.327
14314SOL     OW43285   6.047   3.128   7.313
14314SOL    HW143286   5.997   3.129   7.227
14314SOL    HW243287   5.984   3.110   7.389
14315SOL     OW43288   6.697   3.638   5.823
14315SOL    HW143289   6.637   3.576   5.873
14315SOL    HW243290   6.728   3.594   5.738
14316SOL     OW43291   5.788   2.147   7.084
14316SOL    HW143292   5.708   2.207   7.071
14316SOL    HW243293   5.778   2.098   7.170
14317SOL     OW43294   7.218   3.239   5.667
14317SOL    HW143295   7.186   3.333   5.657
14317SOL    HW243296   7.142   3.176   5.655
14318SOL     OW43297   6.050   3.605   5.909
14318SOL    HW143298   6.083   3.644   5.995
14318SOL    HW243299   6.126   3.598   5.844
14319SOL     OW43300   6.986   1.969   6.012
14319SOL    HW143301   6.962   1.932   5.922
14319SOL    HW243302   7.085   1.985   6.016
14320SOL     OW43303   5.835   3.647   6.827
14320SOL    HW143304   5.892   3.582   6.877
14320SOL    HW243305   5.819   3.614   6.734
14321SOL     OW43306   6.526   3.560   6.490
14321SOL    HW143307   6.606   3.503   6.511
14321SOL    HW243308   6.477   3.520   6.413
14322SOL     OW43309   5.968   2.562   6.066
14322SOL    HW143310   6.013   2.472   6.063
14322SOL    HW243311   5.874   2.551   6.099
14323SOL     OW43312   7.133   2.084   7.315
14323SOL    HW143313   7.128   2.121   7.407
14323SOL    HW243314   7.061   2.015   7.303
14324SOL     OW43315   6.200   1.984   5.703
14324SOL    HW143316   6.298   1.962   5.710
14324SOL    HW243317   6.169   1.967   5.610
14325SOL     OW43318   6.367   2.126   7.335
14325SOL    HW143319   6.434   2.065   7.378
14325SOL    HW243320   6.294   2.145   7.400
14326SOL     OW43321   6.474   3.376   6.781
14326SOL    HW143322   6.451   3.351   6.687
14326SOL    HW243323   6.535   3.307   6.820
14327SOL     OW43324   6.937   2.452   7.019
14327SOL    HW143325   6.965   2.409   7.104
14327SOL    HW243326   6.962   2.548   7.020
14328SOL     OW43327   6.389   3.264   6.510
14328SOL    HW143328   6.479   3.278   6.468
14328SOL    HW243329   6.318   3.266   6.439
14329SOL     OW43330   6.508   2.365   6.485
14329SOL    HW143331   6.483   2.356   6.389
14329SOL    HW243332   6.556   2.283   6.516
14330SOL     OW43333   6.125   1.926   6.098
14330SOL    HW143334   6.044   1.927   6.156
14330SOL    HW243335   6.128   2.009   6.043
14331SOL     OW43336   7.020   3.050   5.627
14331SOL    HW143337   7.052   2.974   5.684
14331SOL    HW243338   6.928   3.077   5.657
14332SOL     OW43339   5.883   1.897   5.757
14332SOL    HW143340   5.932   1.981   5.736
14332SOL    HW243341   5.945   1.832   5.802
14333SOL     OW43342   6.521   2.098   6.066
14333SOL    HW143343   6.473   2.139   5.988
14333SOL    HW243344   6.620   2.096   6.047
14334SOL     OW43345   6.662   2.545   7.050
14334SOL    HW143346   6.582   2.484   7.053
14334SOL    HW243347   6.743   2.492   7.026
14335SOL     OW43348   6.813   3.432   6.379
14335SOL    HW143349   6.834   3.506   6.314
14335SOL    HW243350   6.881   3.432   6.452
14336SOL     OW43351   6.045   3.014   6.327
14336SOL    HW143352   5.974   2.987   6.392
14336SOL    HW243353   6.019   2.986   6.234
14337SOL     OW43354   6.857   3.659   6.177
14337SOL    HW143355   6.901   3.723   6.113
14337SOL    HW243356   6.807   3.711   6.247
14338SOL     OW43357   6.618   2.411   5.602
14338SOL    HW143358   6.577   2.493   5.563
14338SOL    HW243359   6.682   2.437   5.675
14339SOL     OW43360   5.664   2.418   6.972
14339SOL    HW143361   5.756   2.417   6.931
14339SOL    HW243362   5.658   2.492   7.039
14340SOL     OW43363   6.147   2.084   6.733
14340SOL    HW143364   6.185   2.000   6.770
14340SOL    HW243365   6.059   2.103   6.777
14341SOL     OW43366   6.452   2.316   6.228
14341SOL    HW143367   6.420   2.388   6.166
14341SOL    HW243368   6.476   2.235   6.175
14342SOL     OW43369   6.603   1.901   6.339
14342SOL    HW143370   6.531   1.906   6.270
14342SOL    HW243371   6.579   1.832   6.408
14343SOL     OW43372   7.015   3.035   6.453
14343SOL    HW143373   6.960   2.951   6.446
14343SOL    HW243374   7.041   3.064   6.361
14344SOL     OW43375   7.052   2.452   6.578
14344SOL    HW143376   7.022   2.357   6.585
14344SOL    HW243377   7.125   2.468   6.644
14345SOL     OW43378   7.443   2.695   5.963
14345SOL    HW143379   7.485   2.631   6.027
14345SOL    HW243380   7.405   2.644   5.885
14346SOL     OW43381   6.074   3.247   5.760
14346SOL    HW143382   5.987   3.232   5.807
14346SOL    HW243383   6.057   3.273   5.665
14347SOL     OW43384   7.250   3.142   6.243
14347SOL    HW143385   7.349   3.150   6.257
14347SOL    HW243386   7.205   3.226   6.274
14348SOL     OW43387   6.976   2.437   5.664
14348SOL    HW143388   6.922   2.416   5.745
14348SOL    HW243389   7.067   2.396   5.673
14349SOL     OW43390   6.113   2.118   5.914
14349SOL    HW143391   6.140   2.059   5.839
14349SOL    HW243392   6.113   2.213   5.883
14350SOL     OW43393   7.340   3.085   7.174
14350SOL    HW143394   7.431   3.046   7.161
14350SOL    HW243395   7.348   3.181   7.198
14351SOL     OW43396   6.650   3.209   6.926
14351SOL    HW143397   6.570   3.186   6.981
14351SOL    HW243398   6.733   3.183   6.975
14352SOL     OW43399   7.178   3.491   7.211
14352SOL    HW143400   7.205   3.525   7.121
14352SOL    HW243401   7.257   3.453   7.257
14353SOL     OW43402   6.697   3.057   6.686
14353SOL    HW143403   6.657   3.101   6.767
14353SOL    HW243404   6.656   3.094   6.603
14354SOL     OW43405   7.224   2.961   6.665
14354SOL    HW143406   7.229   3.042   6.724
14354SOL    HW243407   7.138   2.963   6.614
14355SOL     OW43408   6.501   1.951   6.988
14355SOL    HW143409   6.526   1.931   6.893
14355SOL    HW243410   6.573   2.007   7.030
14356SOL     OW43411   6.566   2.978   7.305
14356SOL    HW143412   6.467   2.984   7.315
14356SOL    HW243413   6.589   2.898   7.249
14357SOL     OW43414   6.291   2.912   5.954
14357SOL    HW143415   6.277   2.919   6.053
14357SOL    HW243416   6.375   2.861   5.936
14358SOL     OW43417   5.996   2.675   6.837
14358SOL    HW143418   6.082   2.687   6.887
14358SOL    HW243419   5.954   2.588   6.864
14359SOL     OW43420   6.860   2.248   6.848
14359SOL    HW143421   6.881   2.322   6.912
14359SOL    HW243422   6.771   2.265   6.805
14360SOL     OW43423   5.650   3.426   6.917
14360SOL    HW143424   5.604   3.508   6.883
14360SOL    HW243425   5.748   3.445   6.926
14361SOL     OW43426   5.953   2.962   6.087
14361SOL    HW143427   5.946   3.045   6.031
14361SOL    HW243428   5.957   2.882   6.027
14362SOL     OW43429   6.152   2.399   6.451
14362SOL    HW143430   6.164   2.465   6.377
14362SOL    HW243431   6.198   2.433   6.534
14363SOL     OW43432   6.838   3.210   5.974
14363SOL    HW143433   6.888   3.287   6.014
14363SOL    HW243434   6.743   3.212   6.006
14364SOL     OW43435   6.858   3.307   6.728
14364SOL    HW143436   6.905   3.320   6.815
14364SOL    HW243437   6.792   3.233   6.737
14365SOL     OW43438   7.168   2.501   6.058
14365SOL    HW143439   7.137   2.562   6.131
14365SOL    HW243440   7.218   2.553   5.989
14366SOL     OW43441   5.940   3.372   6.915
14366SOL    HW143442   5.919   3.328   6.828
14366SOL    HW243443   6.037   3.398   6.918
14367SOL     OW43444   5.988   2.613   7.184
14367SOL    HW143445   6.056   2.668   7.137
14367SOL    HW243446   6.028   2.525   7.211
14368SOL     OW43447   7.173   2.641   7.256
14368SOL    HW143448   7.081   2.679   7.251
14368SOL    HW243449   7.233   2.688   7.191
14369SOL     OW43450   6.599   1.967   7.356
14369SOL    HW143451   6.605   2.052   7.304
14369SOL    HW243452   6.631   1.891   7.299
14370SOL     OW43453   6.090   1.912   7.326
14370SOL    HW143454   6.048   1.855   7.256
14370SOL    HW243455   6.024   1.981   7.358
14371SOL     OW43456   6.159   2.732   6.615
14371SOL    HW143457   6.203   2.821   6.606
14371SOL    HW243458   6.096   2.732   6.692
14372SOL     OW43459   6.946   2.724   6.631
14372SOL    HW143460   6.871   2.724   6.565
14372SOL    HW243461   6.983   2.632   6.640
14373SOL     OW43462   6.795   2.387   5.861
14373SOL    HW143463   6.808   2.303   5.915
14373SOL    HW243464   6.766   2.461   5.921
14374SOL     OW43465   5.893   2.075   6.817
14374SOL    HW143466   5.870   2.112   6.907
14374SOL    HW243467   5.863   1.980   6.811
14375SOL     OW43468   5.623   3.172   6.868
14375SOL    HW143469   5.676   3.123   6.936
14375SOL    HW243470   5.645   3.270   6.873
14376SOL     OW43471   6.318   2.496   6.650
14376SOL    HW143472   6.377   2.470   6.574
14376SOL    HW243473   6.290   2.592   6.639
14377SOL     OW43474   7.314   2.797   7.440
14377SOL    HW143475   7.268   2.790   7.351
14377SOL    HW243476   7.252   2.841   7.506
14378SOL     OW43477   5.893   1.925   6.204
14378SOL    HW143478   5.882   2.019   6.237
14378SOL    HW243479   5.888   1.862   6.281
14379SOL     OW43480   7.208   2.229   5.960
14379SOL    HW143481   7.210   2.153   6.024
14379SOL    HW243482   7.160   2.306   6.000
14380SOL     OW43483   6.609   2.628   6.552
14380SOL    HW143484   6.624   2.649   6.648
14380SOL    HW243485   6.579   2.533   6.543
14381SOL     OW43486   6.566   3.435   7.286
14381SOL    HW143487   6.546   3.479   7.198
14381SOL    HW243488   6.605   3.344   7.270
14382SOL     OW43489   7.445   3.380   7.191
14382SOL    HW143490   7.459   3.407   7.096
14382SOL    HW243491   7.528   3.402   7.244
14383SOL     OW43492   5.936   2.760   7.390
14383SOL    HW143493   6.012   2.804   7.438
14383SOL    HW243494   5.971   2.713   7.308
14384SOL     OW43495   7.126   2.136   5.711
14384SOL    HW143496   7.065   2.061   5.734
14384SOL    HW243497   7.148   2.188   5.794
14385SOL     OW43498   6.889   2.700   5.628
14385SOL    HW143499   6.923   2.607   5.643
14385SOL    HW243500   6.907   2.727   5.533
14386SOL     OW43501   6.654   3.195   6.435
14386SOL    HW143502   6.661   3.111   6.380
14386SOL    HW243503   6.716   3.264   6.399
14387SOL     OW43504   5.905   2.672   6.535
14387SOL    HW143505   5.998   2.708   6.540
14387SOL    HW243506   5.899   2.587   6.587
14388SOL     OW43507   5.925   2.371   6.592
14388SOL    HW143508   5.873   2.288   6.575
14388SOL    HW243509   6.002   2.376   6.528
14389SOL     OW43510   6.724   2.242   7.264
14389SOL    HW143511   6.679   2.305   7.328
14389SOL    HW243512   6.817   2.273   7.247
14390SOL     OW43513   6.746   2.069   7.063
14390SOL    HW143514   6.746   2.133   7.140
14390SOL    HW243515   6.774   2.117   6.980
14391SOL     OW43516   5.594   3.188   5.786
14391SOL    HW143517   5.501   3.209   5.755
14391SOL    HW243518   5.604   3.089   5.799
14392SOL     OW43519   5.674   3.663   6.513
14392SOL    HW143520   5.632   3.577   6.486
14392SOL    HW243521   5.768   3.666   6.479
14393SOL     OW43522   6.090   3.430   6.496
14393SOL    HW143523   6.156   3.504   6.505
14393SOL    HW243524   6.134   3.351   6.454
14394SOL     OW43525   6.588   2.658   6.824
14394SOL    HW143526   6.629   2.626   6.910
14394SOL    HW243527   6.492   2.631   6.821
14395SOL     OW43528   5.626   2.406   6.700
14395SOL    HW143529   5.711   2.373   6.659
14395SOL    HW243530   5.639   2.421   6.798
14396SOL     OW43531   5.775   2.382   7.308
14396SOL    HW143532   5.834   2.342   7.238
14396SOL    HW243533   5.717   2.453   7.267
14397SOL     OW43534   6.955   2.812   7.246
14397SOL    HW143535   6.994   2.901   7.266
14397SOL    HW243536   6.965   2.792   7.149
14398SOL     OW43537   6.401   2.434   5.911
14398SOL    HW143538   6.408   2.345   5.865
14398SOL    HW243539   6.307   2.468   5.903
14399SOL     OW43540   7.243   2.466   6.792
14399SOL    HW143541   7.205   2.397   6.854
14399SOL    HW243542   7.325   2.430   6.748
14400SOL     OW43543   5.838   3.426   7.330
14400SOL    HW143544   5.808   3.483   7.406
14400SOL    HW243545   5.831   3.329   7.356
14401SOL     OW43546   6.257   2.326   6.855
14401SOL    HW143547   6.223   2.237   6.825
14401SOL    HW243548   6.283   2.380   6.775
14402SOL     OW43549   6.516   3.540   7.051
14402SOL    HW143550   6.492   3.522   6.956
14402SOL    HW243551   6.546   3.634   7.061
14403SOL     OW43552   6.059   2.362   5.777
14403SOL    HW143553   6.120   2.442   5.781
14403SOL    HW243554   5.964   2.393   5.784
14404SOL     OW43555   5.745   2.999   7.052
14404SOL    HW143556   5.767   2.938   7.128
14404SOL    HW243557   5.755   2.950   6.966
14405SOL     OW43558   6.933   2.921   6.820
14405SOL    HW143559   6.957   2.858   6.746
14405SOL    HW243560   6.843   2.961   6.802
14406SOL     OW43561   6.888   2.717   5.895
14406SOL    HW143562   6.802   2.686   5.937
14406SOL    HW243563   6.884   2.703   5.796
14407SOL     OW43564   7.345   3.609   6.740
14407SOL    HW143565   7.406   3.639   6.667
14407SOL    HW243566   7.307   3.520   6.718
14408SOL     OW43567   6.838   3.593   6.714
14408SOL    HW143568   6.922   3.598   6.660
14408SOL    HW243569   6.815   3.497   6.732
14409SOL     OW43570   5.669   3.120   6.608
14409SOL    HW143571   5.664   3.119   6.708
14409SOL    HW243572   5.586   3.079   6.570
14410SOL     OW43573   6.274   3.524   7.302
14410SOL    HW143574   6.218   3.605   7.311
14410SOL    HW243575   6.326   3.528   7.216
14411SOL     OW43576   7.312   1.997   6.109
14411SOL    HW143577   7.385   1.980   6.042
14411SOL    HW243578   7.281   1.910   6.147
14412SOL     OW43579   6.974   3.435   6.063
14412SOL    HW143580   7.041   3.447   5.989
14412SOL    HW243581   6.934   3.524   6.086
14413SOL     OW43582   5.716   3.656   7.437
14413SOL    HW143583   5.675   3.582   7.490
14413SOL    HW243584   5.780   3.707   7.495
14414SOL     OW43585   6.866   2.789   6.258
14414SOL    HW143586   6.926   2.708   6.260
14414SOL    HW243587   6.906   2.858   6.198
14415SOL     OW43588   6.416   3.135   7.008
14415SOL    HW143589   6.411   3.168   7.103
14415SOL    HW243590   6.330   3.154   6.962
14416SOL     OW43591   6.258   3.478   5.740
14416SOL    HW143592   6.267   3.488   5.641
14416SOL    HW243593   6.218   3.389   5.761
14417SOL     OW43594   7.236   3.582   6.980
14417SOL    HW143595   7.289   3.592   6.896
14417SOL    HW243596   7.209   3.672   7.014
14418SOL     OW43597   7.427   2.037   6.549
14418SOL    HW143598   7.466   1.952   6.513
14418SOL    HW243599   7.329   2.039   6.530
14419SOL     OW43600   5.849   2.188   6.306
14419SOL    HW143601   5.770   2.239   6.272
14419SOL    HW243602   5.840   2.173   6.404
14420SOL     OW43603   6.780   3.474   5.617
14420SOL    HW143604   6.786   3.381   5.654
14420SOL    HW243605   6.721   3.474   5.537
14421SOL     OW43606   6.408   2.864   6.958
14421SOL    HW143607   6.448   2.863   6.866
14421SOL    HW243608   6.418   2.956   6.998
14422SOL     OW43609   6.502   2.772   5.877
14422SOL    HW143610   6.565   2.810   5.809
14422SOL    HW243611   6.542   2.689   5.916
14423SOL     OW43612   7.090   3.469   5.630
14423SOL    HW143613   6.998   3.506   5.637
14423SOL    HW243614   7.128   3.489   5.540
14424SOL     OW43615   5.958   3.150   7.076
14424SOL    HW143616   5.945   3.243   7.042
14424SOL    HW243617   5.874   3.098   7.063
14425SOL     OW43618   7.200   3.154   6.875
14425SOL    HW143619   7.260   3.157   6.955
14425SOL    HW243620   7.125   3.218   6.888
14426SOL     OW43621   6.625   2.960   6.282
14426SOL    HW143622   6.555   2.913   6.336
14426SOL    HW243623   6.684   2.892   6.239
14427SOL     OW43624   6.600   2.098   6.557
14427SOL    HW143625   6.592   2.062   6.464
14427SOL    HW243626   6.598   2.022   6.622
14428SOL     OW43627   6.176   3.349   6.077
14428SOL    HW143628   6.218   3.291   6.007
14428SOL    HW243629   6.132   3.428   6.033
14429SOL     OW43630   7.295   2.247   6.967
14429SOL    HW143631   7.368   2.316   6.971
14429SOL    HW243632   7.323   2.172   6.908
14430SOL     OW43633   5.841   3.210   5.876
14430SOL    HW143634   5.745   3.211   5.849
14430SOL    HW243635   5.853   3.263   5.960
14431SOL     OW43636   5.691   2.875   7.312
14431SOL    HW143637   5.614   2.842   7.366
14431SOL    HW243638   5.776   2.845   7.354
14432SOL     OW43639   6.258   2.065   7.075
14432SOL    HW143640   6.348   2.049   7.035
14432SOL    HW243641   6.266   2.070   7.174
14433SOL     OW43642   5.661   2.207   5.619
14433SOL    HW143643   5.569   2.179   5.590
14433SOL    HW243644   5.692   2.284   5.563
14434SOL     OW43645   7.026   2.718   6.984
14434SOL    HW143646   6.969   2.770   6.921
14434SOL    HW243647   7.122   2.730   6.960
14435SOL     OW43648   5.658   2.028   5.904
14435SOL    HW143649   5.641   2.111   5.850
14435SOL    HW243650   5.748   1.991   5.882
14436SOL     OW43651   6.769   3.197   5.705
14436SOL    HW143652   6.670   3.186   5.707
14436SOL    HW243653   6.803   3.212   5.798
14437SOL     OW43654   6.199   2.704   7.017
14437SOL    HW143655   6.255   2.785   7.000
14437SOL    HW243656   6.258   2.624   7.020
14438SOL     OW43657   7.079   3.629   6.545
14438SOL    HW143658   7.112   3.693   6.476
14438SOL    HW243659   7.145   3.623   6.620
14439SOL     OW43660   6.302   2.427   7.294
14439SOL    HW143661   6.321   2.492   7.368
14439SOL    HW243662   6.362   2.347   7.303
14440SOL     OW43663   7.036   3.082   7.219
14440SOL    HW143664   7.027   3.072   7.318
14440SOL    HW243665   7.132   3.075   7.193
14441SOL     OW43666   5.976   3.603   7.146
14441SOL    HW143667   5.885   3.644   7.144
14441SOL    HW243668   5.969   3.509   7.178
14442SOL     OW43669   7.260   2.745   6.840
14442SOL    HW143670   7.233   2.656   6.803
14442SOL    HW243671   7.261   2.813   6.767
14443SOL     OW43672   6.811   2.187   6.035
14443SOL    HW143673   6.876   2.113   6.024
14443SOL    HW243674   6.831   2.237   6.119
14444SOL     OW43675   6.180   2.607   6.238
14444SOL    HW143676   6.230   2.692   6.219
14444SOL    HW243677   6.092   2.609   6.190
14445SOL     OW43678   7.363   2.204   7.228
14445SOL    HW143679   7.346   2.235   7.134
14445SOL    HW243680   7.279   2.167   7.266
14446SOL     OW43681   7.316   2.796   7.103
14446SOL    HW143682   7.354   2.887   7.118
14446SOL    HW243683   7.308   2.779   7.004
14447SOL     OW43684   6.445   3.236   5.602
14447SOL    HW143685   6.399   3.251   5.690
14447SOL    HW243686   6.489   3.321   5.572
14448SOL     OW43687   6.247   3.652   6.539
14448SOL    HW143688   6.201   3.740   6.526
14448SOL    HW243689   6.346   3.664   6.532
14449SOL     OW43690   6.445   2.818   6.447
14449SOL    HW143691   6.499   2.749   6.495
14449SOL    HW243692   6.413   2.887   6.513
14450SOL     OW43693   6.669   2.846   5.673
14450SOL    HW143694   6.646   2.899   5.591
14450SOL    HW243695   6.750   2.790   5.654
14451SOL     OW43696   7.447   3.431   6.437
14451SOL    HW143697   7.376   3.419   6.367
14451SOL    HW243698   7.448   3.352   6.497
14452SOL     OW43699   5.807   3.176   7.430
14452SOL    HW143700   5.742   3.103   7.409
14452SOL    HW243701   5.811   3.190   7.528
14453SOL     OW43702   5.665   3.102   6.239
14453SOL    HW143703   5.664   3.055   6.327
14453SOL    HW243704   5.747   3.074   6.188
14454SOL     OW43705   6.258   3.253   7.210
14454SOL    HW143706   6.180   3.203   7.248
14454SOL    HW243707   6.255   3.348   7.241
14455SOL     OW43708   7.410   2.054   6.813
14455SOL    HW143709   7.406   1.964   6.857
14455SOL    HW243710   7.413   2.043   6.714
14456SOL     OW43711   6.014   2.286   6.106
14456SOL    HW143712   6.044   2.214   6.044
14456SOL    HW243713   5.975   2.246   6.189
14457SOL     OW43714   7.291   3.349   6.690
14457SOL    HW143715   7.198   3.324   6.663
14457SOL    HW243716   7.317   3.299   6.772
14458SOL     OW43717   5.903   2.409   6.866
14458SOL    HW143718   5.941   2.350   6.938
14458SOL    HW243719   5.943   2.383   6.778
14459SOL     OW43720   6.398   3.448   6.273
14459SOL    HW143721   6.430   3.458   6.179
14459SOL    HW243722   6.319   3.386   6.275
14460SOL     OW43723   7.010   2.076   6.698
14460SOL    HW143724   7.062   2.011   6.753
14460SOL    HW243725   6.961   2.139   6.759
14461SOL     OW43726   6.587   1.896   6.740
14461SOL    HW143727   6.524   1.824   6.709
14461SOL    HW243728   6.680   1.860   6.740
14462SOL     OW43729   6.356   3.192   5.887
14462SOL    HW143730   6.310   3.105   5.904
14462SOL    HW243731   6.447   3.189   5.928
14463SOL     OW43732   6.204   3.429   6.870
14463SOL    HW143733   6.199   3.511   6.927
14463SOL    HW243734   6.293   3.426   6.825
14464SOL     OW43735   6.938   1.914   5.754
14464SOL    HW143736   6.973   1.873   5.670
14464SOL    HW243737   6.848   1.876   5.774
14465SOL     OW43738   6.886   2.315   6.277
14465SOL    HW143739   6.827   2.395   6.281
14465SOL    HW243740   6.901   2.280   6.370
14466SOL     OW43741   7.179   2.083   6.468
14466SOL    HW143742   7.095   2.082   6.522
14466SOL    HW243743   7.181   2.166   6.412
14467SOL     OW43744   5.625   2.939   5.886
14467SOL    HW143745   5.724   2.928   5.877
14467SOL    HW243746   5.585   2.853   5.918
14468SOL     OW43747   6.461   3.508   5.923
14468SOL    HW143748   6.384   3.473   5.869
14468SOL    HW243749   6.429   3.579   5.985
14469SOL     OW43750   5.613   3.458   7.565
14469SOL    HW143751   5.594   3.362   7.586
14469SOL    HW243752   5.580   3.516   7.640
14470SOL     OW43753   7.111   2.861   7.638
14470SOL    HW143754   7.048   2.785   7.651
14470SOL    HW243755   7.159   2.879   7.724
14471SOL     OW43756   5.907   2.805   7.690
14471SOL    HW143757   5.989   2.844   7.648
14471SOL    HW243758   5.880   2.723   7.641
14472SOL     OW43759   6.697   3.638   7.685
14472SOL    HW143760   6.637   3.576   7.735
14472SOL    HW243761   6.728   3.594   7.600
14473SOL     OW43762   7.218   3.239   7.529
14473SOL    HW143763   7.186   3.333   7.519
14473SOL    HW243764   7.142   3.176   7.517
14474SOL     OW43765   7.020   3.050   7.489
14474SOL    HW143766   7.052   2.974   7.546
14474SOL    HW243767   6.928   3.077   7.519
14475SOL     OW43768   6.618   2.411   7.464
14475SOL    HW143769   6.577   2.493   7.425
14475SOL    HW243770   6.682   2.437   7.537
14476SOL     OW43771   6.074   3.247   7.622
14476SOL    HW143772   5.987   3.232   7.669
14476SOL    HW243773   6.057   3.273   7.527
14477SOL     OW43774   6.976   2.437   7.526
14477SOL    HW143775   6.922   2.416   7.607
14477SOL    HW243776   7.067   2.396   7.535
14478SOL     OW43777   7.126   2.136   7.573
14478SOL    HW143778   7.065   2.061   7.596
14478SOL    HW243779   7.148   2.188   7.656
14479SOL     OW43780   6.889   2.700   7.490
14479SOL    HW143781   6.923   2.607   7.505
14479SOL    HW243782   6.907   2.727   7.395
14480SOL     OW43783   6.059   2.362   7.639
14480SOL    HW143784   6.120   2.442   7.643
14480SOL    HW243785   5.964   2.393   7.646
14481SOL     OW43786   6.974   3.435   7.925
14481SOL    HW143787   7.041   3.447   7.851
14481SOL    HW243788   6.934   3.524   7.948
14482SOL     OW43789   6.258   3.478   7.602
14482SOL    HW143790   6.267   3.488   7.503
14482SOL    HW243791   6.218   3.389   7.623
14483SOL     OW43792   6.780   3.474   7.479
14483SOL    HW143793   6.786   3.381   7.516
14483SOL    HW243794   6.721   3.474   7.399
14484SOL     OW43795   7.090   3.469   7.492
14484SOL    HW143796   6.998   3.506   7.499
14484SOL    HW243797   7.128   3.489   7.402
14485SOL     OW43798   5.661   2.207   7.481
14485SOL    HW143799   5.569   2.179   7.452
14485SOL    HW243800   5.692   2.284   7.425
14486SOL     OW43801   6.445   3.236   7.464
14486SOL    HW143802   6.399   3.251   7.552
14486SOL    HW243803   6.489   3.321   7.434
14487SOL     OW43804   6.669   2.846   7.535
14487SOL    HW143805   6.646   2.899   7.453
14487SOL    HW243806   6.750   2.790   7.516
14488SOL     OW43807   6.938   1.914   7.616
14488SOL    HW143808   6.973   1.873   7.532
14488SOL    HW243809   6.848   1.876   7.636
14489SOL     OW43810   5.625   2.939   7.748
14489SOL    HW143811   5.724   2.928   7.739
14489SOL    HW243812   5.585   2.853   7.780
14490SOL     OW43813   5.811   3.999   0.996
14490SOL    HW143814   5.846   3.982   1.088
14490SOL    HW243815   5.723   3.954   0.984
14491SOL     OW43816   5.605   4.092   0.647
14491SOL    HW143817   5.523   4.135   0.686
14491SOL    HW243818   5.577   4.019   0.584
14492SOL     OW43819   6.155   4.999   1.165
14492SOL    HW143820   6.062   4.992   1.128
14492SOL    HW243821   6.166   5.088   1.209
14493SOL     OW43822   7.141   5.235   0.703
14493SOL    HW143823   7.084   5.219   0.784
14493SOL    HW243824   7.082   5.245   0.623
14494SOL     OW43825   6.721   4.427   0.717
14494SOL    HW143826   6.778   4.505   0.692
14494SOL    HW243827   6.661   4.453   0.793
14495SOL     OW43828   7.341   4.331   0.231
14495SOL    HW143829   7.329   4.318   0.132
14495SOL    HW243830   7.311   4.250   0.280
14496SOL     OW43831   6.354   4.868   1.023
14496SOL    HW143832   6.276   4.885   1.083
14496SOL    HW243833   6.388   4.955   0.987
14497SOL     OW43834   6.436   4.522   1.823
14497SOL    HW143835   6.432   4.598   1.888
14497SOL    HW243836   6.458   4.558   1.732
14498SOL     OW43837   6.271   4.736   0.665
14498SOL    HW143838   6.340   4.720   0.735
14498SOL    HW243839   6.198   4.793   0.703
14499SOL     OW43840   6.272   4.885   1.803
14499SOL    HW143841   6.332   4.964   1.817
14499SOL    HW243842   6.186   4.916   1.762
14500SOL     OW43843   5.921   5.159   1.061
14500SOL    HW143844   5.843   5.128   1.008
14500SOL    HW243845   5.979   5.217   1.004
14501SOL     OW43846   7.046   5.229   1.339
14501SOL    HW143847   7.070   5.323   1.365
14501SOL    HW243848   7.030   5.175   1.421
14502SOL     OW43849   6.024   4.116   1.499
14502SOL    HW143850   6.106   4.060   1.508
14502SOL    HW243851   5.943   4.058   1.503
14503SOL     OW43852   7.189   4.171   0.737
14503SOL    HW143853   7.115   4.217   0.687
14503SOL    HW243854   7.240   4.239   0.790
14504SOL     OW43855   5.817   5.437   0.483
14504SOL    HW143856   5.851   5.514   0.537
14504SOL    HW243857   5.861   5.437   0.393
14505SOL     OW43858   6.713   5.065   1.690
14505SOL    HW143859   6.760   5.065   1.778
14505SOL    HW243860   6.665   4.978   1.679
14506SOL     OW43861   5.816   5.158   0.538
14506SOL    HW143862   5.790   5.254   0.538
14506SOL    HW243863   5.745   5.104   0.583
14507SOL     OW43864   5.826   4.815   0.886
14507SOL    HW143865   5.840   4.731   0.938
14507SOL    HW243866   5.771   4.879   0.941
14508SOL     OW43867   6.206   5.510   1.439
14508SOL    HW143868   6.114   5.493   1.474
14508SOL    HW243869   6.234   5.602   1.465
14509SOL     OW43870   6.192   4.688   0.123
14509SOL    HW143871   6.199   4.772   0.069
14509SOL    HW243872   6.238   4.701   0.211
14510SOL     OW43873   7.180   3.838   1.480
14510SOL    HW143874   7.162   3.905   1.408
14510SOL    HW243875   7.177   3.884   1.569
14511SOL     OW43876   5.708   4.367   0.563
14511SOL    HW143877   5.663   4.279   0.580
14511SOL    HW243878   5.707   4.421   0.647
14512SOL     OW43879   7.428   5.491   0.359
14512SOL    HW143880   7.482   5.462   0.439
14512SOL    HW243881   7.458   5.581   0.330
14513SOL     OW43882   5.613   5.320   0.117
14513SOL    HW143883   5.594   5.224   0.138
14513SOL    HW243884   5.580   5.378   0.192
14514SOL     OW43885   7.275   4.646   0.612
14514SOL    HW143886   7.370   4.617   0.620
14514SOL    HW243887   7.267   4.711   0.537
14515SOL     OW43888   7.227   4.832   0.432
14515SOL    HW143889   7.313   4.834   0.380
14515SOL    HW243890   7.241   4.879   0.520
14516SOL     OW43891   5.699   4.461   1.597
14516SOL    HW143892   5.787   4.448   1.642
14516SOL    HW243893   5.686   4.558   1.575
14517SOL     OW43894   6.199   5.089   0.726
14517SOL    HW143895   6.150   5.002   0.735
14517SOL    HW243896   6.176   5.132   0.639
14518SOL     OW43897   6.879   4.952   1.423
14518SOL    HW143898   6.916   4.879   1.365
14518SOL    HW243899   6.931   4.957   1.508
14519SOL     OW43900   6.395   3.728   0.502
14519SOL    HW143901   6.435   3.819   0.493
14519SOL    HW243902   6.295   3.736   0.508
14520SOL     OW43903   5.783   4.700   1.264
14520SOL    HW143904   5.872   4.655   1.250
14520SOL    HW243905   5.710   4.635   1.245
14521SOL     OW43906   6.773   5.516   1.616
14521SOL    HW143907   6.797   5.576   1.540
14521SOL    HW243908   6.780   5.421   1.586
14522SOL     OW43909   5.903   3.975   1.801
14522SOL    HW143910   5.974   4.046   1.807
14522SOL    HW243911   5.815   4.014   1.829
14523SOL     OW43912   7.052   5.141   0.953
14523SOL    HW143913   6.993   5.147   1.033
14523SOL    HW243914   7.037   5.053   0.907
14524SOL     OW43915   7.253   5.438   0.572
14524SOL    HW143916   7.212   5.415   0.484
14524SOL    HW243917   7.235   5.364   0.637
14525SOL     OW43918   6.867   4.069   0.944
14525SOL    HW143919   6.781   4.019   0.931
14525SOL    HW243920   6.929   4.015   1.000
14526SOL     OW43921   7.162   5.386   0.307
14526SOL    HW143922   7.251   5.432   0.310
14526SOL    HW243923   7.141   5.362   0.212
14527SOL     OW43924   6.393   4.329   1.465
14527SOL    HW143925   6.346   4.326   1.554
14527SOL    HW243926   6.342   4.274   1.399
14528SOL     OW43927   6.980   4.193   1.674
14528SOL    HW143928   6.960   4.236   1.762
14528SOL    HW243929   7.058   4.131   1.683
14529SOL     OW43930   6.559   4.614   1.572
14529SOL    HW143931   6.605   4.530   1.543
14529SOL    HW243932   6.503   4.648   1.497
14530SOL     OW43933   6.577   4.134   1.242
14530SOL    HW143934   6.500   4.168   1.296
14530SOL    HW243935   6.543   4.083   1.163
14531SOL     OW43936   6.627   4.425   0.429
14531SOL    HW143937   6.653   4.421   0.525
14531SOL    HW243938   6.542   4.374   0.415
14532SOL     OW43939   5.662   4.535   0.789
14532SOL    HW143940   5.761   4.523   0.798
14532SOL    HW243941   5.638   4.630   0.810
14533SOL     OW43942   5.716   5.545   1.571
14533SOL    HW143943   5.706   5.530   1.670
14533SOL    HW243944   5.630   5.581   1.535
14534SOL     OW43945   7.305   4.309   1.831
14534SOL    HW143946   7.279   4.398   1.795
14534SOL    HW243947   7.303   4.241   1.758
14535SOL     OW43948   6.948   4.868   0.545
14535SOL    HW143949   7.031   4.839   0.497
14535SOL    HW243950   6.899   4.935   0.489
14536SOL     OW43951   6.136   3.920   0.885
14536SOL    HW143952   6.131   3.915   0.985
14536SOL    HW243953   6.138   4.016   0.856
14537SOL     OW43954   6.594   5.180   0.477
14537SOL    HW143955   6.548   5.252   0.425
14537SOL    HW243956   6.590   5.200   0.575
14538SOL     OW43957   5.937   5.525   0.853
14538SOL    HW143958   5.987   5.439   0.859
14538SOL    HW243959   6.002   5.602   0.850
14539SOL     OW43960   7.381   4.790   0.873
14539SOL    HW143961   7.319   4.775   0.797
14539SOL    HW243962   7.329   4.801   0.958
14540SOL     OW43963   6.813   5.274   1.506
14540SOL    HW143964   6.819   5.197   1.570
14540SOL    HW243965   6.761   5.248   1.426
14541SOL     OW43966   7.044   4.459   0.728
14541SOL    HW143967   7.039   4.394   0.803
14541SOL    HW243968   7.124   4.518   0.741
14542SOL     OW43969   6.047   4.990   1.727
14542SOL    HW143970   5.997   4.991   1.641
14542SOL    HW243971   5.984   4.972   1.803
14543SOL     OW43972   5.788   4.009   1.498
14543SOL    HW143973   5.708   4.069   1.485
14543SOL    HW243974   5.778   3.960   1.584
14544SOL     OW43975   6.050   5.467   0.323
14544SOL    HW143976   6.083   5.506   0.409
14544SOL    HW243977   6.126   5.460   0.258
14545SOL     OW43978   6.986   3.831   0.426
14545SOL    HW143979   6.962   3.794   0.336
14545SOL    HW243980   7.085   3.847   0.430
14546SOL     OW43981   5.835   5.509   1.241
14546SOL    HW143982   5.892   5.444   1.291
14546SOL    HW243983   5.819   5.476   1.148
14547SOL     OW43984   6.526   5.422   0.904
14547SOL    HW143985   6.606   5.365   0.925
14547SOL    HW243986   6.477   5.382   0.827
14548SOL     OW43987   5.968   4.424   0.480
14548SOL    HW143988   6.013   4.334   0.477
14548SOL    HW243989   5.874   4.413   0.513
14549SOL     OW43990   7.133   3.946   1.729
14549SOL    HW143991   7.128   3.983   1.821
14549SOL    HW243992   7.061   3.877   1.717
14550SOL     OW43993   6.367   3.988   1.749
14550SOL    HW143994   6.434   3.927   1.792
14550SOL    HW243995   6.294   4.007   1.814
14551SOL     OW43996   6.474   5.238   1.195
14551SOL    HW143997   6.451   5.213   1.101
14551SOL    HW243998   6.535   5.169   1.234
14552SOL     OW43999   6.937   4.314   1.433
14552SOL    HW144000   6.965   4.271   1.518
14552SOL    HW244001   6.962   4.410   1.434
14553SOL     OW44002   6.389   5.126   0.924
14553SOL    HW144003   6.479   5.140   0.882
14553SOL    HW244004   6.318   5.128   0.853
14554SOL     OW44005   6.508   4.227   0.899
14554SOL    HW144006   6.483   4.218   0.803
14554SOL    HW244007   6.556   4.145   0.930
14555SOL     OW44008   6.125   3.788   0.512
14555SOL    HW144009   6.044   3.789   0.570
14555SOL    HW244010   6.128   3.871   0.457
14556SOL     OW44011   6.521   3.960   0.480
14556SOL    HW144012   6.473   4.001   0.402
14556SOL    HW244013   6.620   3.958   0.461
14557SOL     OW44014   6.662   4.407   1.464
14557SOL    HW144015   6.582   4.346   1.467
14557SOL    HW244016   6.743   4.354   1.440
14558SOL     OW44017   6.813   5.294   0.793
14558SOL    HW144018   6.834   5.368   0.728
14558SOL    HW244019   6.881   5.294   0.866
14559SOL     OW44020   6.045   4.876   0.741
14559SOL    HW144021   5.974   4.849   0.806
14559SOL    HW244022   6.019   4.848   0.648
14560SOL     OW44023   6.857   5.521   0.591
14560SOL    HW144024   6.901   5.585   0.527
14560SOL    HW244025   6.807   5.573   0.661
14561SOL     OW44026   5.664   4.280   1.386
14561SOL    HW144027   5.756   4.279   1.345
14561SOL    HW244028   5.658   4.354   1.453
14562SOL     OW44029   6.147   3.946   1.147
14562SOL    HW144030   6.185   3.862   1.184
14562SOL    HW244031   6.059   3.965   1.191
14563SOL     OW44032   6.452   4.178   0.642
14563SOL    HW144033   6.420   4.250   0.580
14563SOL    HW244034   6.476   4.097   0.589
14564SOL     OW44035   6.603   3.763   0.753
14564SOL    HW144036   6.531   3.768   0.684
14564SOL    HW244037   6.579   3.694   0.822
14565SOL     OW44038   7.015   4.897   0.867
14565SOL    HW144039   6.960   4.813   0.860
14565SOL    HW244040   7.041   4.926   0.775
14566SOL     OW44041   7.052   4.314   0.992
14566SOL    HW144042   7.022   4.219   0.999
14566SOL    HW244043   7.125   4.330   1.058
14567SOL     OW44044   6.074   5.109   0.174
14567SOL    HW144045   5.987   5.094   0.221
14567SOL    HW244046   6.057   5.135   0.079
14568SOL     OW44047   7.250   5.004   0.657
14568SOL    HW144048   7.349   5.012   0.671
14568SOL    HW244049   7.205   5.088   0.688
14569SOL     OW44050   6.113   3.980   0.328
14569SOL    HW144051   6.140   3.921   0.253
14569SOL    HW244052   6.113   4.075   0.297
14570SOL     OW44053   7.340   4.947   1.588
14570SOL    HW144054   7.431   4.908   1.575
14570SOL    HW244055   7.348   5.043   1.612
14571SOL     OW44056   6.650   5.071   1.340
14571SOL    HW144057   6.570   5.048   1.395
14571SOL    HW244058   6.733   5.045   1.389
14572SOL     OW44059   7.178   5.353   1.625
14572SOL    HW144060   7.205   5.387   1.535
14572SOL    HW244061   7.257   5.315   1.671
14573SOL     OW44062   6.697   4.919   1.100
14573SOL    HW144063   6.657   4.963   1.181
14573SOL    HW244064   6.656   4.956   1.017
14574SOL     OW44065   7.224   4.823   1.079
14574SOL    HW144066   7.229   4.904   1.138
14574SOL    HW244067   7.138   4.825   1.028
14575SOL     OW44068   6.501   3.813   1.402
14575SOL    HW144069   6.526   3.793   1.307
14575SOL    HW244070   6.573   3.869   1.444
14576SOL     OW44071   6.566   4.840   1.719
14576SOL    HW144072   6.467   4.846   1.729
14576SOL    HW244073   6.589   4.760   1.663
14577SOL     OW44074   6.291   4.774   0.368
14577SOL    HW144075   6.277   4.781   0.467
14577SOL    HW244076   6.375   4.723   0.350
14578SOL     OW44077   5.996   4.537   1.251
14578SOL    HW144078   6.082   4.549   1.301
14578SOL    HW244079   5.954   4.450   1.278
14579SOL     OW44080   6.860   4.110   1.262
14579SOL    HW144081   6.881   4.184   1.326
14579SOL    HW244082   6.771   4.127   1.219
14580SOL     OW44083   5.650   5.288   1.331
14580SOL    HW144084   5.604   5.370   1.297
14580SOL    HW244085   5.748   5.307   1.340
14581SOL     OW44086   5.953   4.824   0.501
14581SOL    HW144087   5.946   4.907   0.445
14581SOL    HW244088   5.957   4.744   0.441
14582SOL     OW44089   6.152   4.261   0.865
14582SOL    HW144090   6.164   4.327   0.791
14582SOL    HW244091   6.198   4.295   0.948
14583SOL     OW44092   6.838   5.072   0.388
14583SOL    HW144093   6.888   5.149   0.428
14583SOL    HW244094   6.743   5.074   0.420
14584SOL     OW44095   6.858   5.169   1.142
14584SOL    HW144096   6.905   5.182   1.229
14584SOL    HW244097   6.792   5.095   1.151
14585SOL     OW44098   7.168   4.363   0.472
14585SOL    HW144099   7.137   4.424   0.545
14585SOL    HW244100   7.218   4.415   0.403
14586SOL     OW44101   5.940   5.234   1.329
14586SOL    HW144102   5.919   5.190   1.242
14586SOL    HW244103   6.037   5.260   1.332
14587SOL     OW44104   5.988   4.475   1.598
14587SOL    HW144105   6.056   4.530   1.551
14587SOL    HW244106   6.028   4.387   1.625
14588SOL     OW44107   7.173   4.503   1.670
14588SOL    HW144108   7.081   4.541   1.665
14588SOL    HW244109   7.233   4.550   1.605
14589SOL     OW44110   6.599   3.829   1.770
14589SOL    HW144111   6.605   3.914   1.718
14589SOL    HW244112   6.631   3.753   1.713
14590SOL     OW44113   6.090   3.774   1.740
14590SOL    HW144114   6.048   3.717   1.670
14590SOL    HW244115   6.024   3.843   1.772
14591SOL     OW44116   6.159   4.594   1.029
14591SOL    HW144117   6.203   4.683   1.020
14591SOL    HW244118   6.096   4.594   1.106
14592SOL     OW44119   6.946   4.586   1.045
14592SOL    HW144120   6.871   4.586   0.979
14592SOL    HW244121   6.983   4.494   1.054
14593SOL     OW44122   6.795   4.249   0.275
14593SOL    HW144123   6.808   4.165   0.329
14593SOL    HW244124   6.766   4.323   0.335
14594SOL     OW44125   5.893   3.937   1.231
14594SOL    HW144126   5.870   3.974   1.321
14594SOL    HW244127   5.863   3.842   1.225
14595SOL     OW44128   5.623   5.034   1.282
14595SOL    HW144129   5.676   4.985   1.350
14595SOL    HW244130   5.645   5.132   1.287
14596SOL     OW44131   6.318   4.358   1.064
14596SOL    HW144132   6.377   4.332   0.988
14596SOL    HW244133   6.290   4.454   1.053
14597SOL     OW44134   7.314   4.659   1.854
14597SOL    HW144135   7.268   4.652   1.765
14597SOL    HW244136   7.252   4.703   1.920
14598SOL     OW44137   5.893   3.787   0.618
14598SOL    HW144138   5.882   3.881   0.651
14598SOL    HW244139   5.888   3.724   0.695
14599SOL     OW44140   6.609   4.490   0.966
14599SOL    HW144141   6.624   4.511   1.062
14599SOL    HW244142   6.579   4.395   0.957
14600SOL     OW44143   6.566   5.297   1.700
14600SOL    HW144144   6.546   5.341   1.612
14600SOL    HW244145   6.605   5.206   1.684
14601SOL     OW44146   7.445   5.242   1.605
14601SOL    HW144147   7.459   5.269   1.510
14601SOL    HW244148   7.528   5.264   1.658
14602SOL     OW44149   5.936   4.622   1.804
14602SOL    HW144150   6.012   4.666   1.852
14602SOL    HW244151   5.971   4.575   1.722
14603SOL     OW44152   6.654   5.057   0.849
14603SOL    HW144153   6.661   4.973   0.794
14603SOL    HW244154   6.716   5.126   0.813
14604SOL     OW44155   5.905   4.534   0.949
14604SOL    HW144156   5.998   4.570   0.954
14604SOL    HW244157   5.899   4.449   1.001
14605SOL     OW44158   5.925   4.233   1.006
14605SOL    HW144159   5.873   4.150   0.989
14605SOL    HW244160   6.002   4.238   0.942
14606SOL     OW44161   6.724   4.104   1.678
14606SOL    HW144162   6.679   4.167   1.742
14606SOL    HW244163   6.817   4.135   1.661
14607SOL     OW44164   6.746   3.931   1.477
14607SOL    HW144165   6.746   3.995   1.554
14607SOL    HW244166   6.774   3.979   1.394
14608SOL     OW44167   5.594   5.050   0.200
14608SOL    HW144168   5.501   5.071   0.169
14608SOL    HW244169   5.604   4.951   0.213
14609SOL     OW44170   5.674   5.525   0.927
14609SOL    HW144171   5.632   5.439   0.900
14609SOL    HW244172   5.768   5.528   0.893
14610SOL     OW44173   6.090   5.292   0.910
14610SOL    HW144174   6.156   5.366   0.919
14610SOL    HW244175   6.134   5.213   0.868
14611SOL     OW44176   6.588   4.520   1.238
14611SOL    HW144177   6.629   4.488   1.324
14611SOL    HW244178   6.492   4.493   1.235
14612SOL     OW44179   5.626   4.268   1.114
14612SOL    HW144180   5.711   4.235   1.073
14612SOL    HW244181   5.639   4.283   1.212
14613SOL     OW44182   5.775   4.244   1.722
14613SOL    HW144183   5.834   4.204   1.652
14613SOL    HW244184   5.717   4.315   1.681
14614SOL     OW44185   6.955   4.674   1.660
14614SOL    HW144186   6.994   4.763   1.680
14614SOL    HW244187   6.965   4.654   1.563
14615SOL     OW44188   7.243   4.328   1.206
14615SOL    HW144189   7.205   4.259   1.268
14615SOL    HW244190   7.325   4.292   1.162
14616SOL     OW44191   5.838   5.288   1.744
14616SOL    HW144192   5.808   5.345   1.820
14616SOL    HW244193   5.831   5.191   1.770
14617SOL     OW44194   6.257   4.188   1.269
14617SOL    HW144195   6.223   4.099   1.239
14617SOL    HW244196   6.283   4.242   1.189
14618SOL     OW44197   6.516   5.402   1.465
14618SOL    HW144198   6.492   5.384   1.370
14618SOL    HW244199   6.546   5.496   1.475
14619SOL     OW44200   5.745   4.861   1.466
14619SOL    HW144201   5.767   4.800   1.542
14619SOL    HW244202   5.755   4.812   1.380
14620SOL     OW44203   6.933   4.783   1.234
14620SOL    HW144204   6.957   4.720   1.160
14620SOL    HW244205   6.843   4.823   1.216
14621SOL     OW44206   7.345   5.471   1.154
14621SOL    HW144207   7.406   5.501   1.081
14621SOL    HW244208   7.307   5.382   1.132
14622SOL     OW44209   6.838   5.455   1.128
14622SOL    HW144210   6.922   5.460   1.074
14622SOL    HW244211   6.815   5.359   1.146
14623SOL     OW44212   5.669   4.982   1.022
14623SOL    HW144213   5.664   4.981   1.122
14623SOL    HW244214   5.586   4.941   0.984
14624SOL     OW44215   6.274   5.386   1.716
14624SOL    HW144216   6.218   5.467   1.725
14624SOL    HW244217   6.326   5.390   1.630
14625SOL     OW44218   7.312   3.859   0.523
14625SOL    HW144219   7.385   3.842   0.456
14625SOL    HW244220   7.281   3.772   0.561
14626SOL     OW44221   6.974   5.297   0.477
14626SOL    HW144222   7.041   5.309   0.403
14626SOL    HW244223   6.934   5.386   0.500
14627SOL     OW44224   5.716   5.518   1.851
14627SOL    HW144225   5.675   5.444   1.904
14627SOL    HW244226   5.780   5.569   1.909
14628SOL     OW44227   6.866   4.651   0.672
14628SOL    HW144228   6.926   4.570   0.674
14628SOL    HW244229   6.906   4.720   0.612
14629SOL     OW44230   6.416   4.997   1.422
14629SOL    HW144231   6.411   5.030   1.517
14629SOL    HW244232   6.330   5.016   1.376
14630SOL     OW44233   7.236   5.444   1.394
14630SOL    HW144234   7.289   5.454   1.310
14630SOL    HW244235   7.209   5.534   1.428
14631SOL     OW44236   7.427   3.899   0.963
14631SOL    HW144237   7.466   3.814   0.927
14631SOL    HW244238   7.329   3.901   0.944
14632SOL     OW44239   5.849   4.050   0.720
14632SOL    HW144240   5.770   4.101   0.686
14632SOL    HW244241   5.840   4.035   0.818
14633SOL     OW44242   6.408   4.726   1.372
14633SOL    HW144243   6.448   4.725   1.280
14633SOL    HW244244   6.418   4.818   1.412
14634SOL     OW44245   6.502   4.634   0.291
14634SOL    HW144246   6.565   4.672   0.223
14634SOL    HW244247   6.542   4.551   0.330
14635SOL     OW44248   5.958   5.012   1.490
14635SOL    HW144249   5.945   5.105   1.456
14635SOL    HW244250   5.874   4.960   1.477
14636SOL     OW44251   7.200   5.016   1.289
14636SOL    HW144252   7.260   5.019   1.369
14636SOL    HW244253   7.125   5.080   1.302
14637SOL     OW44254   6.625   4.822   0.696
14637SOL    HW144255   6.555   4.775   0.750
14637SOL    HW244256   6.684   4.754   0.653
14638SOL     OW44257   6.600   3.960   0.971
14638SOL    HW144258   6.592   3.924   0.878
14638SOL    HW244259   6.598   3.884   1.036
14639SOL     OW44260   6.176   5.211   0.491
14639SOL    HW144261   6.218   5.153   0.421
14639SOL    HW244262   6.132   5.290   0.447
14640SOL     OW44263   7.295   4.109   1.381
14640SOL    HW144264   7.368   4.178   1.385
14640SOL    HW244265   7.323   4.034   1.322
14641SOL     OW44266   5.841   5.072   0.290
14641SOL    HW144267   5.745   5.073   0.263
14641SOL    HW244268   5.853   5.125   0.374
14642SOL     OW44269   5.691   4.737   1.726
14642SOL    HW144270   5.614   4.704   1.780
14642SOL    HW244271   5.776   4.707   1.768
14643SOL     OW44272   6.258   3.927   1.489
14643SOL    HW144273   6.348   3.911   1.449
14643SOL    HW244274   6.266   3.932   1.588
14644SOL     OW44275   7.026   4.580   1.398
14644SOL    HW144276   6.969   4.632   1.335
14644SOL    HW244277   7.122   4.592   1.374
14645SOL     OW44278   6.199   4.566   1.431
14645SOL    HW144279   6.255   4.647   1.414
14645SOL    HW244280   6.258   4.486   1.434
14646SOL     OW44281   7.079   5.491   0.959
14646SOL    HW144282   7.112   5.555   0.890
14646SOL    HW244283   7.145   5.485   1.034
14647SOL     OW44284   6.302   4.289   1.708
14647SOL    HW144285   6.321   4.354   1.782
14647SOL    HW244286   6.362   4.209   1.717
14648SOL     OW44287   7.036   4.944   1.633
14648SOL    HW144288   7.027   4.934   1.732
14648SOL    HW244289   7.132   4.937   1.607
14649SOL     OW44290   5.976   5.465   1.560
14649SOL    HW144291   5.885   5.506   1.558
14649SOL    HW244292   5.969   5.371   1.592
14650SOL     OW44293   7.260   4.607   1.254
14650SOL    HW144294   7.233   4.518   1.217
14650SOL    HW244295   7.261   4.675   1.181
14651SOL     OW44296   6.811   4.049   0.449
14651SOL    HW144297   6.876   3.975   0.438
14651SOL    HW244298   6.831   4.099   0.533
14652SOL     OW44299   6.180   4.469   0.652
14652SOL    HW144300   6.230   4.554   0.633
14652SOL    HW244301   6.092   4.471   0.604
14653SOL     OW44302   7.363   4.066   1.642
14653SOL    HW144303   7.346   4.097   1.548
14653SOL    HW244304   7.279   4.029   1.680
14654SOL     OW44305   7.316   4.658   1.517
14654SOL    HW144306   7.354   4.749   1.532
14654SOL    HW244307   7.308   4.641   1.418
14655SOL     OW44308   6.247   5.514   0.953
14655SOL    HW144309   6.201   5.602   0.940
14655SOL    HW244310   6.346   5.526   0.946
14656SOL     OW44311   6.445   4.680   0.861
14656SOL    HW144312   6.499   4.611   0.909
14656SOL    HW244313   6.413   4.749   0.927
14657SOL     OW44314   7.447   5.293   0.851
14657SOL    HW144315   7.376   5.281   0.781
14657SOL    HW244316   7.448   5.214   0.911
14658SOL     OW44317   5.807   5.038   1.844
14658SOL    HW144318   5.742   4.965   1.823
14658SOL    HW244319   5.811   5.052   1.942
14659SOL     OW44320   5.665   4.964   0.653
14659SOL    HW144321   5.664   4.917   0.741
14659SOL    HW244322   5.747   4.936   0.602
14660SOL     OW44323   6.258   5.115   1.624
14660SOL    HW144324   6.180   5.065   1.662
14660SOL    HW244325   6.255   5.210   1.655
14661SOL     OW44326   7.410   3.916   1.227
14661SOL    HW144327   7.406   3.826   1.271
14661SOL    HW244328   7.413   3.905   1.128
14662SOL     OW44329   6.014   4.148   0.520
14662SOL    HW144330   6.044   4.076   0.458
14662SOL    HW244331   5.975   4.108   0.603
14663SOL     OW44332   7.291   5.211   1.104
14663SOL    HW144333   7.198   5.186   1.077
14663SOL    HW244334   7.317   5.161   1.186
14664SOL     OW44335   5.903   4.271   1.280
14664SOL    HW144336   5.941   4.212   1.352
14664SOL    HW244337   5.943   4.245   1.192
14665SOL     OW44338   6.398   5.310   0.687
14665SOL    HW144339   6.430   5.320   0.593
14665SOL    HW244340   6.319   5.248   0.689
14666SOL     OW44341   7.010   3.938   1.112
14666SOL    HW144342   7.062   3.873   1.167
14666SOL    HW244343   6.961   4.001   1.173
14667SOL     OW44344   6.587   3.758   1.154
14667SOL    HW144345   6.524   3.686   1.123
14667SOL    HW244346   6.680   3.722   1.154
14668SOL     OW44347   6.356   5.054   0.301
14668SOL    HW144348   6.310   4.967   0.318
14668SOL    HW244349   6.447   5.051   0.342
14669SOL     OW44350   6.204   5.291   1.284
14669SOL    HW144351   6.199   5.373   1.341
14669SOL    HW244352   6.293   5.288   1.239
14670SOL     OW44353   6.886   4.177   0.691
14670SOL    HW144354   6.827   4.257   0.695
14670SOL    HW244355   6.901   4.142   0.784
14671SOL     OW44356   7.179   3.945   0.882
14671SOL    HW144357   7.095   3.944   0.936
14671SOL    HW244358   7.181   4.028   0.826
14672SOL     OW44359   5.625   4.801   0.300
14672SOL    HW144360   5.724   4.790   0.291
14672SOL    HW244361   5.585   4.715   0.332
14673SOL     OW44362   6.461   5.370   0.337
14673SOL    HW144363   6.384   5.335   0.283
14673SOL    HW244364   6.429   5.441   0.399
14674SOL     OW44365   5.816   4.352   1.975
14674SOL    HW144366   5.723   4.350   2.012
14674SOL    HW244367   5.817   4.313   1.883
14675SOL     OW44368   5.811   3.999   2.858
14675SOL    HW144369   5.846   3.982   2.950
14675SOL    HW244370   5.723   3.954   2.846
14676SOL     OW44371   5.605   4.092   2.509
14676SOL    HW144372   5.523   4.135   2.548
14676SOL    HW244373   5.577   4.019   2.446
14677SOL     OW44374   6.155   4.999   3.027
14677SOL    HW144375   6.062   4.992   2.990
14677SOL    HW244376   6.166   5.088   3.071
14678SOL     OW44377   7.141   5.235   2.565
14678SOL    HW144378   7.084   5.219   2.646
14678SOL    HW244379   7.082   5.245   2.485
14679SOL     OW44380   6.721   4.427   2.579
14679SOL    HW144381   6.778   4.505   2.554
14679SOL    HW244382   6.661   4.453   2.655
14680SOL     OW44383   7.341   4.331   2.093
14680SOL    HW144384   7.329   4.318   1.994
14680SOL    HW244385   7.311   4.250   2.142
14681SOL     OW44386   6.354   4.868   2.885
14681SOL    HW144387   6.276   4.885   2.945
14681SOL    HW244388   6.388   4.955   2.849
14682SOL     OW44389   6.436   4.522   3.685
14682SOL    HW144390   6.432   4.598   3.750
14682SOL    HW244391   6.458   4.558   3.594
14683SOL     OW44392   6.271   4.736   2.527
14683SOL    HW144393   6.340   4.720   2.597
14683SOL    HW244394   6.198   4.793   2.565
14684SOL     OW44395   6.272   4.885   3.665
14684SOL    HW144396   6.332   4.964   3.679
14684SOL    HW244397   6.186   4.916   3.624
14685SOL     OW44398   5.921   5.159   2.923
14685SOL    HW144399   5.843   5.128   2.870
14685SOL    HW244400   5.979   5.217   2.866
14686SOL     OW44401   7.046   5.229   3.201
14686SOL    HW144402   7.070   5.323   3.227
14686SOL    HW244403   7.030   5.175   3.283
14687SOL     OW44404   6.024   4.116   3.361
14687SOL    HW144405   6.106   4.060   3.370
14687SOL    HW244406   5.943   4.058   3.365
14688SOL     OW44407   7.189   4.171   2.599
14688SOL    HW144408   7.115   4.217   2.549
14688SOL    HW244409   7.240   4.239   2.652
14689SOL     OW44410   5.817   5.437   2.345
14689SOL    HW144411   5.851   5.514   2.399
14689SOL    HW244412   5.861   5.437   2.255
14690SOL     OW44413   6.713   5.065   3.552
14690SOL    HW144414   6.760   5.065   3.640
14690SOL    HW244415   6.665   4.978   3.541
14691SOL     OW44416   5.816   5.158   2.400
14691SOL    HW144417   5.790   5.254   2.400
14691SOL    HW244418   5.745   5.104   2.445
14692SOL     OW44419   5.826   4.815   2.748
14692SOL    HW144420   5.840   4.731   2.800
14692SOL    HW244421   5.771   4.879   2.803
14693SOL     OW44422   6.206   5.510   3.301
14693SOL    HW144423   6.114   5.493   3.336
14693SOL    HW244424   6.234   5.602   3.327
14694SOL     OW44425   6.192   4.688   1.985
14694SOL    HW144426   6.199   4.772   1.931
14694SOL    HW244427   6.238   4.701   2.073
14695SOL     OW44428   7.180   3.838   3.342
14695SOL    HW144429   7.162   3.905   3.270
14695SOL    HW244430   7.177   3.884   3.431
14696SOL     OW44431   5.708   4.367   2.425
14696SOL    HW144432   5.663   4.279   2.442
14696SOL    HW244433   5.707   4.421   2.509
14697SOL     OW44434   7.428   5.491   2.221
14697SOL    HW144435   7.482   5.462   2.301
14697SOL    HW244436   7.458   5.581   2.192
14698SOL     OW44437   5.613   5.320   1.979
14698SOL    HW144438   5.594   5.224   2.000
14698SOL    HW244439   5.580   5.378   2.054
14699SOL     OW44440   7.275   4.646   2.474
14699SOL    HW144441   7.370   4.617   2.482
14699SOL    HW244442   7.267   4.711   2.399
14700SOL     OW44443   7.227   4.832   2.294
14700SOL    HW144444   7.313   4.834   2.242
14700SOL    HW244445   7.241   4.879   2.382
14701SOL     OW44446   5.699   4.461   3.459
14701SOL    HW144447   5.787   4.448   3.504
14701SOL    HW244448   5.686   4.558   3.437
14702SOL     OW44449   6.199   5.089   2.588
14702SOL    HW144450   6.150   5.002   2.597
14702SOL    HW244451   6.176   5.132   2.501
14703SOL     OW44452   6.879   4.952   3.285
14703SOL    HW144453   6.916   4.879   3.227
14703SOL    HW244454   6.931   4.957   3.370
14704SOL     OW44455   6.395   3.728   2.364
14704SOL    HW144456   6.435   3.819   2.355
14704SOL    HW244457   6.295   3.736   2.370
14705SOL     OW44458   5.783   4.700   3.126
14705SOL    HW144459   5.872   4.655   3.112
14705SOL    HW244460   5.710   4.635   3.107
14706SOL     OW44461   7.111   4.723   2.052
14706SOL    HW144462   7.048   4.647   2.065
14706SOL    HW244463   7.159   4.741   2.138
14707SOL     OW44464   6.773   5.516   3.478
14707SOL    HW144465   6.797   5.576   3.402
14707SOL    HW244466   6.780   5.421   3.448
14708SOL     OW44467   5.903   3.975   3.663
14708SOL    HW144468   5.974   4.046   3.669
14708SOL    HW244469   5.815   4.014   3.691
14709SOL     OW44470   7.052   5.141   2.815
14709SOL    HW144471   6.993   5.147   2.895
14709SOL    HW244472   7.037   5.053   2.769
14710SOL     OW44473   7.253   5.438   2.434
14710SOL    HW144474   7.212   5.415   2.346
14710SOL    HW244475   7.235   5.364   2.499
14711SOL     OW44476   6.184   4.453   2.132
14711SOL    HW144477   6.208   4.522   2.064
14711SOL    HW244478   6.106   4.486   2.186
14712SOL     OW44479   6.867   4.069   2.806
14712SOL    HW144480   6.781   4.019   2.793
14712SOL    HW244481   6.929   4.015   2.862
14713SOL     OW44482   7.162   5.386   2.169
14713SOL    HW144483   7.251   5.432   2.172
14713SOL    HW244484   7.141   5.362   2.074
14714SOL     OW44485   6.393   4.329   3.327
14714SOL    HW144486   6.346   4.326   3.416
14714SOL    HW244487   6.342   4.274   3.261
14715SOL     OW44488   6.980   4.193   3.536
14715SOL    HW144489   6.960   4.236   3.624
14715SOL    HW244490   7.058   4.131   3.545
14716SOL     OW44491   6.559   4.614   3.434
14716SOL    HW144492   6.605   4.530   3.405
14716SOL    HW244493   6.503   4.648   3.359
14717SOL     OW44494   6.577   4.134   3.104
14717SOL    HW144495   6.500   4.168   3.158
14717SOL    HW244496   6.543   4.083   3.025
14718SOL     OW44497   6.627   4.425   2.291
14718SOL    HW144498   6.653   4.421   2.387
14718SOL    HW244499   6.542   4.374   2.277
14719SOL     OW44500   5.662   4.535   2.651
14719SOL    HW144501   5.761   4.523   2.660
14719SOL    HW244502   5.638   4.630   2.672
14720SOL     OW44503   5.716   5.545   3.433
14720SOL    HW144504   5.706   5.530   3.532
14720SOL    HW244505   5.630   5.581   3.397
14721SOL     OW44506   6.451   4.072   2.057
14721SOL    HW144507   6.510   4.135   2.008
14721SOL    HW244508   6.470   3.978   2.028
14722SOL     OW44509   7.305   4.309   3.693
14722SOL    HW144510   7.279   4.398   3.657
14722SOL    HW244511   7.303   4.241   3.620
14723SOL     OW44512   6.948   4.868   2.407
14723SOL    HW144513   7.031   4.839   2.359
14723SOL    HW244514   6.899   4.935   2.351
14724SOL     OW44515   6.136   3.920   2.747
14724SOL    HW144516   6.131   3.915   2.847
14724SOL    HW244517   6.138   4.016   2.718
14725SOL     OW44518   6.594   5.180   2.339
14725SOL    HW144519   6.548   5.252   2.287
14725SOL    HW244520   6.590   5.200   2.437
14726SOL     OW44521   5.937   5.525   2.715
14726SOL    HW144522   5.987   5.439   2.721
14726SOL    HW244523   6.002   5.602   2.712
14727SOL     OW44524   7.381   4.790   2.735
14727SOL    HW144525   7.319   4.775   2.659
14727SOL    HW244526   7.329   4.801   2.820
14728SOL     OW44527   6.813   5.274   3.368
14728SOL    HW144528   6.819   5.197   3.432
14728SOL    HW244529   6.761   5.248   3.288
14729SOL     OW44530   5.907   4.667   2.104
14729SOL    HW144531   5.989   4.706   2.062
14729SOL    HW244532   5.880   4.585   2.055
14730SOL     OW44533   7.044   4.459   2.590
14730SOL    HW144534   7.039   4.394   2.665
14730SOL    HW244535   7.124   4.518   2.603
14731SOL     OW44536   6.047   4.990   3.589
14731SOL    HW144537   5.997   4.991   3.503
14731SOL    HW244538   5.984   4.972   3.665
14732SOL     OW44539   6.697   5.500   2.099
14732SOL    HW144540   6.637   5.438   2.149
14732SOL    HW244541   6.728   5.456   2.014
14733SOL     OW44542   5.788   4.009   3.360
14733SOL    HW144543   5.708   4.069   3.347
14733SOL    HW244544   5.778   3.960   3.446
14734SOL     OW44545   7.218   5.101   1.943
14734SOL    HW144546   7.186   5.195   1.933
14734SOL    HW244547   7.142   5.038   1.931
14735SOL     OW44548   6.050   5.467   2.185
14735SOL    HW144549   6.083   5.506   2.271
14735SOL    HW244550   6.126   5.460   2.120
14736SOL     OW44551   6.986   3.831   2.288
14736SOL    HW144552   6.962   3.794   2.198
14736SOL    HW244553   7.085   3.847   2.292
14737SOL     OW44554   5.835   5.509   3.103
14737SOL    HW144555   5.892   5.444   3.153
14737SOL    HW244556   5.819   5.476   3.010
14738SOL     OW44557   6.526   5.422   2.766
14738SOL    HW144558   6.606   5.365   2.787
14738SOL    HW244559   6.477   5.382   2.689
14739SOL     OW44560   5.968   4.424   2.342
14739SOL    HW144561   6.013   4.334   2.339
14739SOL    HW244562   5.874   4.413   2.375
14740SOL     OW44563   7.133   3.946   3.591
14740SOL    HW144564   7.128   3.983   3.683
14740SOL    HW244565   7.061   3.877   3.579
14741SOL     OW44566   6.200   3.846   1.979
14741SOL    HW144567   6.298   3.824   1.986
14741SOL    HW244568   6.169   3.829   1.886
14742SOL     OW44569   6.367   3.988   3.611
14742SOL    HW144570   6.434   3.927   3.654
14742SOL    HW244571   6.294   4.007   3.676
14743SOL     OW44572   6.474   5.238   3.057
14743SOL    HW144573   6.451   5.213   2.963
14743SOL    HW244574   6.535   5.169   3.096
14744SOL     OW44575   6.937   4.314   3.295
14744SOL    HW144576   6.965   4.271   3.380
14744SOL    HW244577   6.962   4.410   3.296
14745SOL     OW44578   6.389   5.126   2.786
14745SOL    HW144579   6.479   5.140   2.744
14745SOL    HW244580   6.318   5.128   2.715
14746SOL     OW44581   6.508   4.227   2.761
14746SOL    HW144582   6.483   4.218   2.665
14746SOL    HW244583   6.556   4.145   2.792
14747SOL     OW44584   6.125   3.788   2.374
14747SOL    HW144585   6.044   3.789   2.432
14747SOL    HW244586   6.128   3.871   2.319
14748SOL     OW44587   7.020   4.912   1.903
14748SOL    HW144588   7.052   4.836   1.960
14748SOL    HW244589   6.928   4.939   1.933
14749SOL     OW44590   5.883   3.759   2.033
14749SOL    HW144591   5.932   3.843   2.012
14749SOL    HW244592   5.945   3.694   2.078
14750SOL     OW44593   6.521   3.960   2.342
14750SOL    HW144594   6.473   4.001   2.264
14750SOL    HW244595   6.620   3.958   2.323
14751SOL     OW44596   6.662   4.407   3.326
14751SOL    HW144597   6.582   4.346   3.329
14751SOL    HW244598   6.743   4.354   3.302
14752SOL     OW44599   6.813   5.294   2.655
14752SOL    HW144600   6.834   5.368   2.590
14752SOL    HW244601   6.881   5.294   2.728
14753SOL     OW44602   6.045   4.876   2.603
14753SOL    HW144603   5.974   4.849   2.668
14753SOL    HW244604   6.019   4.848   2.510
14754SOL     OW44605   6.857   5.521   2.453
14754SOL    HW144606   6.901   5.585   2.389
14754SOL    HW244607   6.807   5.573   2.523
14755SOL     OW44608   6.618   4.273   1.878
14755SOL    HW144609   6.577   4.355   1.839
14755SOL    HW244610   6.682   4.299   1.951
14756SOL     OW44611   5.664   4.280   3.248
14756SOL    HW144612   5.756   4.279   3.207
14756SOL    HW244613   5.658   4.354   3.315
14757SOL     OW44614   6.147   3.946   3.009
14757SOL    HW144615   6.185   3.862   3.046
14757SOL    HW244616   6.059   3.965   3.053
14758SOL     OW44617   6.452   4.178   2.504
14758SOL    HW144618   6.420   4.250   2.442
14758SOL    HW244619   6.476   4.097   2.451
14759SOL     OW44620   6.603   3.763   2.615
14759SOL    HW144621   6.531   3.768   2.546
14759SOL    HW244622   6.579   3.694   2.684
14760SOL     OW44623   7.015   4.897   2.729
14760SOL    HW144624   6.960   4.813   2.722
14760SOL    HW244625   7.041   4.926   2.637
14761SOL     OW44626   7.052   4.314   2.854
14761SOL    HW144627   7.022   4.219   2.861
14761SOL    HW244628   7.125   4.330   2.920
14762SOL     OW44629   7.443   4.557   2.239
14762SOL    HW144630   7.485   4.493   2.303
14762SOL    HW244631   7.405   4.506   2.161
14763SOL     OW44632   6.074   5.109   2.036
14763SOL    HW144633   5.987   5.094   2.083
14763SOL    HW244634   6.057   5.135   1.941
14764SOL     OW44635   7.250   5.004   2.519
14764SOL    HW144636   7.349   5.012   2.533
14764SOL    HW244637   7.205   5.088   2.550
14765SOL     OW44638   6.976   4.299   1.940
14765SOL    HW144639   6.922   4.278   2.021
14765SOL    HW244640   7.067   4.258   1.949
14766SOL     OW44641   6.113   3.980   2.190
14766SOL    HW144642   6.140   3.921   2.115
14766SOL    HW244643   6.113   4.075   2.159
14767SOL     OW44644   7.340   4.947   3.450
14767SOL    HW144645   7.431   4.908   3.437
14767SOL    HW244646   7.348   5.043   3.474
14768SOL     OW44647   6.650   5.071   3.202
14768SOL    HW144648   6.570   5.048   3.257
14768SOL    HW244649   6.733   5.045   3.251
14769SOL     OW44650   7.178   5.353   3.487
14769SOL    HW144651   7.205   5.387   3.397
14769SOL    HW244652   7.257   5.315   3.533
14770SOL     OW44653   6.697   4.919   2.962
14770SOL    HW144654   6.657   4.963   3.043
14770SOL    HW244655   6.656   4.956   2.879
14771SOL     OW44656   7.224   4.823   2.941
14771SOL    HW144657   7.229   4.904   3.000
14771SOL    HW244658   7.138   4.825   2.890
14772SOL     OW44659   6.501   3.813   3.264
14772SOL    HW144660   6.526   3.793   3.169
14772SOL    HW244661   6.573   3.869   3.306
14773SOL     OW44662   6.566   4.840   3.581
14773SOL    HW144663   6.467   4.846   3.591
14773SOL    HW244664   6.589   4.760   3.525
14774SOL     OW44665   6.291   4.774   2.230
14774SOL    HW144666   6.277   4.781   2.329
14774SOL    HW244667   6.375   4.723   2.212
14775SOL     OW44668   5.996   4.537   3.113
14775SOL    HW144669   6.082   4.549   3.163
14775SOL    HW244670   5.954   4.450   3.140
14776SOL     OW44671   6.860   4.110   3.124
14776SOL    HW144672   6.881   4.184   3.188
14776SOL    HW244673   6.771   4.127   3.081
14777SOL     OW44674   5.650   5.288   3.193
14777SOL    HW144675   5.604   5.370   3.159
14777SOL    HW244676   5.748   5.307   3.202
14778SOL     OW44677   5.953   4.824   2.363
14778SOL    HW144678   5.946   4.907   2.307
14778SOL    HW244679   5.957   4.744   2.303
14779SOL     OW44680   6.152   4.261   2.727
14779SOL    HW144681   6.164   4.327   2.653
14779SOL    HW244682   6.198   4.295   2.810
14780SOL     OW44683   6.838   5.072   2.250
14780SOL    HW144684   6.888   5.149   2.290
14780SOL    HW244685   6.743   5.074   2.282
14781SOL     OW44686   6.858   5.169   3.004
14781SOL    HW144687   6.905   5.182   3.091
14781SOL    HW244688   6.792   5.095   3.013
14782SOL     OW44689   7.168   4.363   2.334
14782SOL    HW144690   7.137   4.424   2.407
14782SOL    HW244691   7.218   4.415   2.265
14783SOL     OW44692   5.940   5.234   3.191
14783SOL    HW144693   5.919   5.190   3.104
14783SOL    HW244694   6.037   5.260   3.194
14784SOL     OW44695   5.988   4.475   3.460
14784SOL    HW144696   6.056   4.530   3.413
14784SOL    HW244697   6.028   4.387   3.487
14785SOL     OW44698   7.173   4.503   3.532
14785SOL    HW144699   7.081   4.541   3.527
14785SOL    HW244700   7.233   4.550   3.467
14786SOL     OW44701   6.599   3.829   3.632
14786SOL    HW144702   6.605   3.914   3.580
14786SOL    HW244703   6.631   3.753   3.575
14787SOL     OW44704   6.090   3.774   3.602
14787SOL    HW144705   6.048   3.717   3.532
14787SOL    HW244706   6.024   3.843   3.634
14788SOL     OW44707   6.159   4.594   2.891
14788SOL    HW144708   6.203   4.683   2.882
14788SOL    HW244709   6.096   4.594   2.968
14789SOL     OW44710   6.946   4.586   2.907
14789SOL    HW144711   6.871   4.586   2.841
14789SOL    HW244712   6.983   4.494   2.916
14790SOL     OW44713   6.795   4.249   2.137
14790SOL    HW144714   6.808   4.165   2.191
14790SOL    HW244715   6.766   4.323   2.197
14791SOL     OW44716   5.893   3.937   3.093
14791SOL    HW144717   5.870   3.974   3.183
14791SOL    HW244718   5.863   3.842   3.087
14792SOL     OW44719   5.623   5.034   3.144
14792SOL    HW144720   5.676   4.985   3.212
14792SOL    HW244721   5.645   5.132   3.149
14793SOL     OW44722   6.318   4.358   2.926
14793SOL    HW144723   6.377   4.332   2.850
14793SOL    HW244724   6.290   4.454   2.915
14794SOL     OW44725   7.314   4.659   3.716
14794SOL    HW144726   7.268   4.652   3.627
14794SOL    HW244727   7.252   4.703   3.782
14795SOL     OW44728   5.893   3.787   2.480
14795SOL    HW144729   5.882   3.881   2.513
14795SOL    HW244730   5.888   3.724   2.557
14796SOL     OW44731   7.208   4.091   2.236
14796SOL    HW144732   7.210   4.015   2.300
14796SOL    HW244733   7.160   4.168   2.276
14797SOL     OW44734   6.609   4.490   2.828
14797SOL    HW144735   6.624   4.511   2.924
14797SOL    HW244736   6.579   4.395   2.819
14798SOL     OW44737   6.566   5.297   3.562
14798SOL    HW144738   6.546   5.341   3.474
14798SOL    HW244739   6.605   5.206   3.546
14799SOL     OW44740   7.445   5.242   3.467
14799SOL    HW144741   7.459   5.269   3.372
14799SOL    HW244742   7.528   5.264   3.520
14800SOL     OW44743   5.936   4.622   3.666
14800SOL    HW144744   6.012   4.666   3.714
14800SOL    HW244745   5.971   4.575   3.584
14801SOL     OW44746   7.126   3.998   1.987
14801SOL    HW144747   7.065   3.923   2.010
14801SOL    HW244748   7.148   4.050   2.070
14802SOL     OW44749   6.889   4.562   1.904
14802SOL    HW144750   6.923   4.469   1.919
14802SOL    HW244751   6.907   4.589   1.809
14803SOL     OW44752   6.654   5.057   2.711
14803SOL    HW144753   6.661   4.973   2.656
14803SOL    HW244754   6.716   5.126   2.675
14804SOL     OW44755   5.905   4.534   2.811
14804SOL    HW144756   5.998   4.570   2.816
14804SOL    HW244757   5.899   4.449   2.863
14805SOL     OW44758   5.925   4.233   2.868
14805SOL    HW144759   5.873   4.150   2.851
14805SOL    HW244760   6.002   4.238   2.804
14806SOL     OW44761   6.724   4.104   3.540
14806SOL    HW144762   6.679   4.167   3.604
14806SOL    HW244763   6.817   4.135   3.523
14807SOL     OW44764   6.746   3.931   3.339
14807SOL    HW144765   6.746   3.995   3.416
14807SOL    HW244766   6.774   3.979   3.256
14808SOL     OW44767   5.594   5.050   2.062
14808SOL    HW144768   5.501   5.071   2.031
14808SOL    HW244769   5.604   4.951   2.075
14809SOL     OW44770   5.674   5.525   2.789
14809SOL    HW144771   5.632   5.439   2.762
14809SOL    HW244772   5.768   5.528   2.755
14810SOL     OW44773   6.090   5.292   2.772
14810SOL    HW144774   6.156   5.366   2.781
14810SOL    HW244775   6.134   5.213   2.730
14811SOL     OW44776   6.588   4.520   3.100
14811SOL    HW144777   6.629   4.488   3.186
14811SOL    HW244778   6.492   4.493   3.097
14812SOL     OW44779   5.626   4.268   2.976
14812SOL    HW144780   5.711   4.235   2.935
14812SOL    HW244781   5.639   4.283   3.074
14813SOL     OW44782   5.775   4.244   3.584
14813SOL    HW144783   5.834   4.204   3.514
14813SOL    HW244784   5.717   4.315   3.543
14814SOL     OW44785   6.955   4.674   3.522
14814SOL    HW144786   6.994   4.763   3.542
14814SOL    HW244787   6.965   4.654   3.425
14815SOL     OW44788   6.401   4.296   2.187
14815SOL    HW144789   6.408   4.207   2.141
14815SOL    HW244790   6.307   4.330   2.179
14816SOL     OW44791   7.243   4.328   3.068
14816SOL    HW144792   7.205   4.259   3.130
14816SOL    HW244793   7.325   4.292   3.024
14817SOL     OW44794   5.838   5.288   3.606
14817SOL    HW144795   5.808   5.345   3.682
14817SOL    HW244796   5.831   5.191   3.632
14818SOL     OW44797   6.257   4.188   3.131
14818SOL    HW144798   6.223   4.099   3.101
14818SOL    HW244799   6.283   4.242   3.051
14819SOL     OW44800   6.516   5.402   3.327
14819SOL    HW144801   6.492   5.384   3.232
14819SOL    HW244802   6.546   5.496   3.337
14820SOL     OW44803   6.059   4.224   2.053
14820SOL    HW144804   6.120   4.304   2.057
14820SOL    HW244805   5.964   4.255   2.060
14821SOL     OW44806   5.745   4.861   3.328
14821SOL    HW144807   5.767   4.800   3.404
14821SOL    HW244808   5.755   4.812   3.242
14822SOL     OW44809   6.933   4.783   3.096
14822SOL    HW144810   6.957   4.720   3.022
14822SOL    HW244811   6.843   4.823   3.078
14823SOL     OW44812   6.888   4.579   2.171
14823SOL    HW144813   6.802   4.548   2.213
14823SOL    HW244814   6.884   4.565   2.072
14824SOL     OW44815   7.345   5.471   3.016
14824SOL    HW144816   7.406   5.501   2.943
14824SOL    HW244817   7.307   5.382   2.994
14825SOL     OW44818   6.838   5.455   2.990
14825SOL    HW144819   6.922   5.460   2.936
14825SOL    HW244820   6.815   5.359   3.008
14826SOL     OW44821   5.669   4.982   2.884
14826SOL    HW144822   5.664   4.981   2.984
14826SOL    HW244823   5.586   4.941   2.846
14827SOL     OW44824   6.274   5.386   3.578
14827SOL    HW144825   6.218   5.467   3.587
14827SOL    HW244826   6.326   5.390   3.492
14828SOL     OW44827   7.312   3.859   2.385
14828SOL    HW144828   7.385   3.842   2.318
14828SOL    HW244829   7.281   3.772   2.423
14829SOL     OW44830   6.974   5.297   2.339
14829SOL    HW144831   7.041   5.309   2.265
14829SOL    HW244832   6.934   5.386   2.362
14830SOL     OW44833   5.716   5.518   3.713
14830SOL    HW144834   5.675   5.444   3.766
14830SOL    HW244835   5.780   5.569   3.771
14831SOL     OW44836   6.866   4.651   2.534
14831SOL    HW144837   6.926   4.570   2.536
14831SOL    HW244838   6.906   4.720   2.474
14832SOL     OW44839   6.416   4.997   3.284
14832SOL    HW144840   6.411   5.030   3.379
14832SOL    HW244841   6.330   5.016   3.238
14833SOL     OW44842   6.258   5.340   2.016
14833SOL    HW144843   6.267   5.350   1.917
14833SOL    HW244844   6.218   5.251   2.037
14834SOL     OW44845   7.236   5.444   3.256
14834SOL    HW144846   7.289   5.454   3.172
14834SOL    HW244847   7.209   5.534   3.290
14835SOL     OW44848   7.427   3.899   2.825
14835SOL    HW144849   7.466   3.814   2.789
14835SOL    HW244850   7.329   3.901   2.806
14836SOL     OW44851   5.849   4.050   2.582
14836SOL    HW144852   5.770   4.101   2.548
14836SOL    HW244853   5.840   4.035   2.680
14837SOL     OW44854   6.780   5.336   1.893
14837SOL    HW144855   6.786   5.243   1.930
14837SOL    HW244856   6.721   5.336   1.813
14838SOL     OW44857   6.408   4.726   3.234
14838SOL    HW144858   6.448   4.725   3.142
14838SOL    HW244859   6.418   4.818   3.274
14839SOL     OW44860   6.502   4.634   2.153
14839SOL    HW144861   6.565   4.672   2.085
14839SOL    HW244862   6.542   4.551   2.192
14840SOL     OW44863   7.090   5.331   1.906
14840SOL    HW144864   6.998   5.368   1.913
14840SOL    HW244865   7.128   5.351   1.816
14841SOL     OW44866   5.958   5.012   3.352
14841SOL    HW144867   5.945   5.105   3.318
14841SOL    HW244868   5.874   4.960   3.339
14842SOL     OW44869   7.200   5.016   3.151
14842SOL    HW144870   7.260   5.019   3.231
14842SOL    HW244871   7.125   5.080   3.164
14843SOL     OW44872   6.625   4.822   2.558
14843SOL    HW144873   6.555   4.775   2.612
14843SOL    HW244874   6.684   4.754   2.515
14844SOL     OW44875   6.600   3.960   2.833
14844SOL    HW144876   6.592   3.924   2.740
14844SOL    HW244877   6.598   3.884   2.898
14845SOL     OW44878   6.176   5.211   2.353
14845SOL    HW144879   6.218   5.153   2.283
14845SOL    HW244880   6.132   5.290   2.309
14846SOL     OW44881   7.295   4.109   3.243
14846SOL    HW144882   7.368   4.178   3.247
14846SOL    HW244883   7.323   4.034   3.184
14847SOL     OW44884   5.841   5.072   2.152
14847SOL    HW144885   5.745   5.073   2.125
14847SOL    HW244886   5.853   5.125   2.236
14848SOL     OW44887   5.691   4.737   3.588
14848SOL    HW144888   5.614   4.704   3.642
14848SOL    HW244889   5.776   4.707   3.630
14849SOL     OW44890   6.258   3.927   3.351
14849SOL    HW144891   6.348   3.911   3.311
14849SOL    HW244892   6.266   3.932   3.450
14850SOL     OW44893   5.661   4.069   1.895
14850SOL    HW144894   5.569   4.041   1.866
14850SOL    HW244895   5.692   4.146   1.839
14851SOL     OW44896   7.026   4.580   3.260
14851SOL    HW144897   6.969   4.632   3.197
14851SOL    HW244898   7.122   4.592   3.236
14852SOL     OW44899   5.658   3.890   2.180
14852SOL    HW144900   5.641   3.973   2.126
14852SOL    HW244901   5.748   3.853   2.158
14853SOL     OW44902   6.769   5.059   1.981
14853SOL    HW144903   6.670   5.048   1.983
14853SOL    HW244904   6.803   5.074   2.074
14854SOL     OW44905   6.199   4.566   3.293
14854SOL    HW144906   6.255   4.647   3.276
14854SOL    HW244907   6.258   4.486   3.296
14855SOL     OW44908   7.079   5.491   2.821
14855SOL    HW144909   7.112   5.555   2.752
14855SOL    HW244910   7.145   5.485   2.896
14856SOL     OW44911   6.302   4.289   3.570
14856SOL    HW144912   6.321   4.354   3.644
14856SOL    HW244913   6.362   4.209   3.579
14857SOL     OW44914   7.036   4.944   3.495
14857SOL    HW144915   7.027   4.934   3.594
14857SOL    HW244916   7.132   4.937   3.469
14858SOL     OW44917   5.976   5.465   3.422
14858SOL    HW144918   5.885   5.506   3.420
14858SOL    HW244919   5.969   5.371   3.454
14859SOL     OW44920   7.260   4.607   3.116
14859SOL    HW144921   7.233   4.518   3.079
14859SOL    HW244922   7.261   4.675   3.043
14860SOL     OW44923   6.811   4.049   2.311
14860SOL    HW144924   6.876   3.975   2.300
14860SOL    HW244925   6.831   4.099   2.395
14861SOL     OW44926   6.180   4.469   2.514
14861SOL    HW144927   6.230   4.554   2.495
14861SOL    HW244928   6.092   4.471   2.466
14862SOL     OW44929   7.363   4.066   3.504
14862SOL    HW144930   7.346   4.097   3.410
14862SOL    HW244931   7.279   4.029   3.542
14863SOL     OW44932   7.316   4.658   3.379
14863SOL    HW144933   7.354   4.749   3.394
14863SOL    HW244934   7.308   4.641   3.280
14864SOL     OW44935   6.445   5.098   1.878
14864SOL    HW144936   6.399   5.113   1.966
14864SOL    HW244937   6.489   5.183   1.848
14865SOL     OW44938   6.247   5.514   2.815
14865SOL    HW144939   6.201   5.602   2.802
14865SOL    HW244940   6.346   5.526   2.808
14866SOL     OW44941   6.445   4.680   2.723
14866SOL    HW144942   6.499   4.611   2.771
14866SOL    HW244943   6.413   4.749   2.789
14867SOL     OW44944   6.669   4.708   1.949
14867SOL    HW144945   6.646   4.761   1.867
14867SOL    HW244946   6.750   4.652   1.930
14868SOL     OW44947   7.447   5.293   2.713
14868SOL    HW144948   7.376   5.281   2.643
14868SOL    HW244949   7.448   5.214   2.773
14869SOL     OW44950   5.807   5.038   3.706
14869SOL    HW144951   5.742   4.965   3.685
14869SOL    HW244952   5.811   5.052   3.804
14870SOL     OW44953   5.665   4.964   2.515
14870SOL    HW144954   5.664   4.917   2.603
14870SOL    HW244955   5.747   4.936   2.464
14871SOL     OW44956   6.258   5.115   3.486
14871SOL    HW144957   6.180   5.065   3.524
14871SOL    HW244958   6.255   5.210   3.517
14872SOL     OW44959   7.410   3.916   3.089
14872SOL    HW144960   7.406   3.826   3.133
14872SOL    HW244961   7.413   3.905   2.990
14873SOL     OW44962   6.014   4.148   2.382
14873SOL    HW144963   6.044   4.076   2.320
14873SOL    HW244964   5.975   4.108   2.465
14874SOL     OW44965   7.291   5.211   2.966
14874SOL    HW144966   7.198   5.186   2.939
14874SOL    HW244967   7.317   5.161   3.048
14875SOL     OW44968   5.903   4.271   3.142
14875SOL    HW144969   5.941   4.212   3.214
14875SOL    HW244970   5.943   4.245   3.054
14876SOL     OW44971   6.398   5.310   2.549
14876SOL    HW144972   6.430   5.320   2.455
14876SOL    HW244973   6.319   5.248   2.551
14877SOL     OW44974   7.010   3.938   2.974
14877SOL    HW144975   7.062   3.873   3.029
14877SOL    HW244976   6.961   4.001   3.035
14878SOL     OW44977   6.587   3.758   3.016
14878SOL    HW144978   6.524   3.686   2.985
14878SOL    HW244979   6.680   3.722   3.016
14879SOL     OW44980   6.356   5.054   2.163
14879SOL    HW144981   6.310   4.967   2.180
14879SOL    HW244982   6.447   5.051   2.204
14880SOL     OW44983   6.204   5.291   3.146
14880SOL    HW144984   6.199   5.373   3.203
14880SOL    HW244985   6.293   5.288   3.101
14881SOL     OW44986   6.938   3.776   2.030
14881SOL    HW144987   6.973   3.735   1.946
14881SOL    HW244988   6.848   3.738   2.050
14882SOL     OW44989   6.886   4.177   2.553
14882SOL    HW144990   6.827   4.257   2.557
14882SOL    HW244991   6.901   4.142   2.646
14883SOL     OW44992   7.179   3.945   2.744
14883SOL    HW144993   7.095   3.944   2.798
14883SOL    HW244994   7.181   4.028   2.688
14884SOL     OW44995   5.625   4.801   2.162
14884SOL    HW144996   5.724   4.790   2.153
14884SOL    HW244997   5.585   4.715   2.194
14885SOL     OW44998   6.461   5.370   2.199
14885SOL    HW144999   6.384   5.335   2.145
14885SOL    HW245000   6.429   5.441   2.261
14886SOL     OW45001   5.816   4.352   3.837
14886SOL    HW145002   5.723   4.350   3.874
14886SOL    HW245003   5.817   4.313   3.745
14887SOL     OW45004   5.811   3.999   4.720
14887SOL    HW145005   5.846   3.982   4.812
14887SOL    HW245006   5.723   3.954   4.708
14888SOL     OW45007   5.605   4.092   4.371
14888SOL    HW145008   5.523   4.135   4.410
14888SOL    HW245009   5.577   4.019   4.308
14889SOL     OW45010   6.155   4.999   4.889
14889SOL    HW145011   6.062   4.992   4.852
14889SOL    HW245012   6.166   5.088   4.933
14890SOL     OW45013   7.141   5.235   4.427
14890SOL    HW145014   7.084   5.219   4.508
14890SOL    HW245015   7.082   5.245   4.347
14891SOL     OW45016   6.721   4.427   4.441
14891SOL    HW145017   6.778   4.505   4.416
14891SOL    HW245018   6.661   4.453   4.517
14892SOL     OW45019   7.341   4.331   3.955
14892SOL    HW145020   7.329   4.318   3.856
14892SOL    HW245021   7.311   4.250   4.004
14893SOL     OW45022   6.354   4.868   4.747
14893SOL    HW145023   6.276   4.885   4.807
14893SOL    HW245024   6.388   4.955   4.711
14894SOL     OW45025   6.436   4.522   5.547
14894SOL    HW145026   6.432   4.598   5.612
14894SOL    HW245027   6.458   4.558   5.456
14895SOL     OW45028   6.271   4.736   4.389
14895SOL    HW145029   6.340   4.720   4.459
14895SOL    HW245030   6.198   4.793   4.427
14896SOL     OW45031   6.272   4.885   5.527
14896SOL    HW145032   6.332   4.964   5.541
14896SOL    HW245033   6.186   4.916   5.486
14897SOL     OW45034   5.921   5.159   4.785
14897SOL    HW145035   5.843   5.128   4.732
14897SOL    HW245036   5.979   5.217   4.728
14898SOL     OW45037   7.046   5.229   5.063
14898SOL    HW145038   7.070   5.323   5.089
14898SOL    HW245039   7.030   5.175   5.145
14899SOL     OW45040   6.024   4.116   5.223
14899SOL    HW145041   6.106   4.060   5.232
14899SOL    HW245042   5.943   4.058   5.227
14900SOL     OW45043   7.189   4.171   4.461
14900SOL    HW145044   7.115   4.217   4.411
14900SOL    HW245045   7.240   4.239   4.514
14901SOL     OW45046   5.817   5.437   4.207
14901SOL    HW145047   5.851   5.514   4.261
14901SOL    HW245048   5.861   5.437   4.117
14902SOL     OW45049   6.713   5.065   5.414
14902SOL    HW145050   6.760   5.065   5.502
14902SOL    HW245051   6.665   4.978   5.403
14903SOL     OW45052   5.816   5.158   4.262
14903SOL    HW145053   5.790   5.254   4.262
14903SOL    HW245054   5.745   5.104   4.307
14904SOL     OW45055   5.826   4.815   4.610
14904SOL    HW145056   5.840   4.731   4.662
14904SOL    HW245057   5.771   4.879   4.665
14905SOL     OW45058   6.206   5.510   5.163
14905SOL    HW145059   6.114   5.493   5.198
14905SOL    HW245060   6.234   5.602   5.189
14906SOL     OW45061   6.192   4.688   3.847
14906SOL    HW145062   6.199   4.772   3.793
14906SOL    HW245063   6.238   4.701   3.935
14907SOL     OW45064   7.180   3.838   5.204
14907SOL    HW145065   7.162   3.905   5.132
14907SOL    HW245066   7.177   3.884   5.293
14908SOL     OW45067   5.708   4.367   4.287
14908SOL    HW145068   5.663   4.279   4.304
14908SOL    HW245069   5.707   4.421   4.371
14909SOL     OW45070   7.428   5.491   4.083
14909SOL    HW145071   7.482   5.462   4.163
14909SOL    HW245072   7.458   5.581   4.054
14910SOL     OW45073   5.613   5.320   3.841
14910SOL    HW145074   5.594   5.224   3.862
14910SOL    HW245075   5.580   5.378   3.916
14911SOL     OW45076   7.275   4.646   4.336
14911SOL    HW145077   7.370   4.617   4.344
14911SOL    HW245078   7.267   4.711   4.261
14912SOL     OW45079   7.227   4.832   4.156
14912SOL    HW145080   7.313   4.834   4.104
14912SOL    HW245081   7.241   4.879   4.244
14913SOL     OW45082   5.699   4.461   5.321
14913SOL    HW145083   5.787   4.448   5.366
14913SOL    HW245084   5.686   4.558   5.299
14914SOL     OW45085   6.199   5.089   4.450
14914SOL    HW145086   6.150   5.002   4.459
14914SOL    HW245087   6.176   5.132   4.363
14915SOL     OW45088   6.879   4.952   5.147
14915SOL    HW145089   6.916   4.879   5.089
14915SOL    HW245090   6.931   4.957   5.232
14916SOL     OW45091   6.395   3.728   4.226
14916SOL    HW145092   6.435   3.819   4.217
14916SOL    HW245093   6.295   3.736   4.232
14917SOL     OW45094   5.783   4.700   4.988
14917SOL    HW145095   5.872   4.655   4.974
14917SOL    HW245096   5.710   4.635   4.969
14918SOL     OW45097   7.111   4.723   3.914
14918SOL    HW145098   7.048   4.647   3.927
14918SOL    HW245099   7.159   4.741   4.000
14919SOL     OW45100   6.773   5.516   5.340
14919SOL    HW145101   6.797   5.576   5.264
14919SOL    HW245102   6.780   5.421   5.310
14920SOL     OW45103   5.903   3.975   5.525
14920SOL    HW145104   5.974   4.046   5.531
14920SOL    HW245105   5.815   4.014   5.553
14921SOL     OW45106   7.052   5.141   4.677
14921SOL    HW145107   6.993   5.147   4.757
14921SOL    HW245108   7.037   5.053   4.631
14922SOL     OW45109   7.253   5.438   4.296
14922SOL    HW145110   7.212   5.415   4.208
14922SOL    HW245111   7.235   5.364   4.361
14923SOL     OW45112   6.184   4.453   3.994
14923SOL    HW145113   6.208   4.522   3.926
14923SOL    HW245114   6.106   4.486   4.048
14924SOL     OW45115   6.867   4.069   4.668
14924SOL    HW145116   6.781   4.019   4.655
14924SOL    HW245117   6.929   4.015   4.724
14925SOL     OW45118   7.162   5.386   4.031
14925SOL    HW145119   7.251   5.432   4.034
14925SOL    HW245120   7.141   5.362   3.936
14926SOL     OW45121   6.393   4.329   5.189
14926SOL    HW145122   6.346   4.326   5.278
14926SOL    HW245123   6.342   4.274   5.123
14927SOL     OW45124   6.980   4.193   5.398
14927SOL    HW145125   6.960   4.236   5.486
14927SOL    HW245126   7.058   4.131   5.407
14928SOL     OW45127   6.559   4.614   5.296
14928SOL    HW145128   6.605   4.530   5.267
14928SOL    HW245129   6.503   4.648   5.221
14929SOL     OW45130   6.577   4.134   4.966
14929SOL    HW145131   6.500   4.168   5.020
14929SOL    HW245132   6.543   4.083   4.887
14930SOL     OW45133   6.627   4.425   4.153
14930SOL    HW145134   6.653   4.421   4.249
14930SOL    HW245135   6.542   4.374   4.139
14931SOL     OW45136   5.662   4.535   4.513
14931SOL    HW145137   5.761   4.523   4.522
14931SOL    HW245138   5.638   4.630   4.534
14932SOL     OW45139   5.716   5.545   5.295
14932SOL    HW145140   5.706   5.530   5.394
14932SOL    HW245141   5.630   5.581   5.259
14933SOL     OW45142   6.451   4.072   3.919
14933SOL    HW145143   6.510   4.135   3.870
14933SOL    HW245144   6.470   3.978   3.890
14934SOL     OW45145   7.305   4.309   5.555
14934SOL    HW145146   7.279   4.398   5.519
14934SOL    HW245147   7.303   4.241   5.482
14935SOL     OW45148   6.948   4.868   4.269
14935SOL    HW145149   7.031   4.839   4.221
14935SOL    HW245150   6.899   4.935   4.213
14936SOL     OW45151   6.136   3.920   4.609
14936SOL    HW145152   6.131   3.915   4.709
14936SOL    HW245153   6.138   4.016   4.580
14937SOL     OW45154   6.594   5.180   4.201
14937SOL    HW145155   6.548   5.252   4.149
14937SOL    HW245156   6.590   5.200   4.299
14938SOL     OW45157   5.937   5.525   4.577
14938SOL    HW145158   5.987   5.439   4.583
14938SOL    HW245159   6.002   5.602   4.574
14939SOL     OW45160   7.381   4.790   4.597
14939SOL    HW145161   7.319   4.775   4.521
14939SOL    HW245162   7.329   4.801   4.682
14940SOL     OW45163   6.813   5.274   5.230
14940SOL    HW145164   6.819   5.197   5.294
14940SOL    HW245165   6.761   5.248   5.150
14941SOL     OW45166   5.907   4.667   3.966
14941SOL    HW145167   5.989   4.706   3.924
14941SOL    HW245168   5.880   4.585   3.917
14942SOL     OW45169   7.044   4.459   4.452
14942SOL    HW145170   7.039   4.394   4.527
14942SOL    HW245171   7.124   4.518   4.465
14943SOL     OW45172   6.047   4.990   5.451
14943SOL    HW145173   5.997   4.991   5.365
14943SOL    HW245174   5.984   4.972   5.527
14944SOL     OW45175   6.697   5.500   3.961
14944SOL    HW145176   6.637   5.438   4.011
14944SOL    HW245177   6.728   5.456   3.876
14945SOL     OW45178   5.788   4.009   5.222
14945SOL    HW145179   5.708   4.069   5.209
14945SOL    HW245180   5.778   3.960   5.308
14946SOL     OW45181   7.218   5.101   3.805
14946SOL    HW145182   7.186   5.195   3.795
14946SOL    HW245183   7.142   5.038   3.793
14947SOL     OW45184   6.050   5.467   4.047
14947SOL    HW145185   6.083   5.506   4.133
14947SOL    HW245186   6.126   5.460   3.982
14948SOL     OW45187   6.986   3.831   4.150
14948SOL    HW145188   6.962   3.794   4.060
14948SOL    HW245189   7.085   3.847   4.154
14949SOL     OW45190   5.835   5.509   4.965
14949SOL    HW145191   5.892   5.444   5.015
14949SOL    HW245192   5.819   5.476   4.872
14950SOL     OW45193   6.526   5.422   4.628
14950SOL    HW145194   6.606   5.365   4.649
14950SOL    HW245195   6.477   5.382   4.551
14951SOL     OW45196   5.968   4.424   4.204
14951SOL    HW145197   6.013   4.334   4.201
14951SOL    HW245198   5.874   4.413   4.237
14952SOL     OW45199   7.133   3.946   5.453
14952SOL    HW145200   7.128   3.983   5.545
14952SOL    HW245201   7.061   3.877   5.441
14953SOL     OW45202   6.200   3.846   3.841
14953SOL    HW145203   6.298   3.824   3.848
14953SOL    HW245204   6.169   3.829   3.748
14954SOL     OW45205   6.367   3.988   5.473
14954SOL    HW145206   6.434   3.927   5.516
14954SOL    HW245207   6.294   4.007   5.538
14955SOL     OW45208   6.474   5.238   4.919
14955SOL    HW145209   6.451   5.213   4.825
14955SOL    HW245210   6.535   5.169   4.958
14956SOL     OW45211   6.937   4.314   5.157
14956SOL    HW145212   6.965   4.271   5.242
14956SOL    HW245213   6.962   4.410   5.158
14957SOL     OW45214   6.389   5.126   4.648
14957SOL    HW145215   6.479   5.140   4.606
14957SOL    HW245216   6.318   5.128   4.577
14958SOL     OW45217   6.508   4.227   4.623
14958SOL    HW145218   6.483   4.218   4.527
14958SOL    HW245219   6.556   4.145   4.654
14959SOL     OW45220   6.125   3.788   4.236
14959SOL    HW145221   6.044   3.789   4.294
14959SOL    HW245222   6.128   3.871   4.181
14960SOL     OW45223   7.020   4.912   3.765
14960SOL    HW145224   7.052   4.836   3.822
14960SOL    HW245225   6.928   4.939   3.795
14961SOL     OW45226   5.883   3.759   3.895
14961SOL    HW145227   5.932   3.843   3.874
14961SOL    HW245228   5.945   3.694   3.940
14962SOL     OW45229   6.521   3.960   4.204
14962SOL    HW145230   6.473   4.001   4.126
14962SOL    HW245231   6.620   3.958   4.185
14963SOL     OW45232   6.662   4.407   5.188
14963SOL    HW145233   6.582   4.346   5.191
14963SOL    HW245234   6.743   4.354   5.164
14964SOL     OW45235   6.813   5.294   4.517
14964SOL    HW145236   6.834   5.368   4.452
14964SOL    HW245237   6.881   5.294   4.590
14965SOL     OW45238   6.045   4.876   4.465
14965SOL    HW145239   5.974   4.849   4.530
14965SOL    HW245240   6.019   4.848   4.372
14966SOL     OW45241   6.857   5.521   4.315
14966SOL    HW145242   6.901   5.585   4.251
14966SOL    HW245243   6.807   5.573   4.385
14967SOL     OW45244   6.618   4.273   3.740
14967SOL    HW145245   6.577   4.355   3.701
14967SOL    HW245246   6.682   4.299   3.813
14968SOL     OW45247   5.664   4.280   5.110
14968SOL    HW145248   5.756   4.279   5.069
14968SOL    HW245249   5.658   4.354   5.177
14969SOL     OW45250   6.147   3.946   4.871
14969SOL    HW145251   6.185   3.862   4.908
14969SOL    HW245252   6.059   3.965   4.915
14970SOL     OW45253   6.452   4.178   4.366
14970SOL    HW145254   6.420   4.250   4.304
14970SOL    HW245255   6.476   4.097   4.313
14971SOL     OW45256   6.603   3.763   4.477
14971SOL    HW145257   6.531   3.768   4.408
14971SOL    HW245258   6.579   3.694   4.546
14972SOL     OW45259   7.015   4.897   4.591
14972SOL    HW145260   6.960   4.813   4.584
14972SOL    HW245261   7.041   4.926   4.499
14973SOL     OW45262   7.052   4.314   4.716
14973SOL    HW145263   7.022   4.219   4.723
14973SOL    HW245264   7.125   4.330   4.782
14974SOL     OW45265   7.443   4.557   4.101
14974SOL    HW145266   7.485   4.493   4.165
14974SOL    HW245267   7.405   4.506   4.023
14975SOL     OW45268   6.074   5.109   3.898
14975SOL    HW145269   5.987   5.094   3.945
14975SOL    HW245270   6.057   5.135   3.803
14976SOL     OW45271   7.250   5.004   4.381
14976SOL    HW145272   7.349   5.012   4.395
14976SOL    HW245273   7.205   5.088   4.412
14977SOL     OW45274   6.976   4.299   3.802
14977SOL    HW145275   6.922   4.278   3.883
14977SOL    HW245276   7.067   4.258   3.811
14978SOL     OW45277   6.113   3.980   4.052
14978SOL    HW145278   6.140   3.921   3.977
14978SOL    HW245279   6.113   4.075   4.021
14979SOL     OW45280   7.340   4.947   5.312
14979SOL    HW145281   7.431   4.908   5.299
14979SOL    HW245282   7.348   5.043   5.336
14980SOL     OW45283   6.650   5.071   5.064
14980SOL    HW145284   6.570   5.048   5.119
14980SOL    HW245285   6.733   5.045   5.113
14981SOL     OW45286   7.178   5.353   5.349
14981SOL    HW145287   7.205   5.387   5.259
14981SOL    HW245288   7.257   5.315   5.395
14982SOL     OW45289   6.697   4.919   4.824
14982SOL    HW145290   6.657   4.963   4.905
14982SOL    HW245291   6.656   4.956   4.741
14983SOL     OW45292   7.224   4.823   4.803
14983SOL    HW145293   7.229   4.904   4.862
14983SOL    HW245294   7.138   4.825   4.752
14984SOL     OW45295   6.501   3.813   5.126
14984SOL    HW145296   6.526   3.793   5.031
14984SOL    HW245297   6.573   3.869   5.168
14985SOL     OW45298   6.566   4.840   5.443
14985SOL    HW145299   6.467   4.846   5.453
14985SOL    HW245300   6.589   4.760   5.387
14986SOL     OW45301   6.291   4.774   4.092
14986SOL    HW145302   6.277   4.781   4.191
14986SOL    HW245303   6.375   4.723   4.074
14987SOL     OW45304   5.996   4.537   4.975
14987SOL    HW145305   6.082   4.549   5.025
14987SOL    HW245306   5.954   4.450   5.002
14988SOL     OW45307   6.860   4.110   4.986
14988SOL    HW145308   6.881   4.184   5.050
14988SOL    HW245309   6.771   4.127   4.943
14989SOL     OW45310   5.650   5.288   5.055
14989SOL    HW145311   5.604   5.370   5.021
14989SOL    HW245312   5.748   5.307   5.064
14990SOL     OW45313   5.953   4.824   4.225
14990SOL    HW145314   5.946   4.907   4.169
14990SOL    HW245315   5.957   4.744   4.165
14991SOL     OW45316   6.152   4.261   4.589
14991SOL    HW145317   6.164   4.327   4.515
14991SOL    HW245318   6.198   4.295   4.672
14992SOL     OW45319   6.838   5.072   4.112
14992SOL    HW145320   6.888   5.149   4.152
14992SOL    HW245321   6.743   5.074   4.144
14993SOL     OW45322   6.858   5.169   4.866
14993SOL    HW145323   6.905   5.182   4.953
14993SOL    HW245324   6.792   5.095   4.875
14994SOL     OW45325   7.168   4.363   4.196
14994SOL    HW145326   7.137   4.424   4.269
14994SOL    HW245327   7.218   4.415   4.127
14995SOL     OW45328   5.940   5.234   5.053
14995SOL    HW145329   5.919   5.190   4.966
14995SOL    HW245330   6.037   5.260   5.056
14996SOL     OW45331   5.988   4.475   5.322
14996SOL    HW145332   6.056   4.530   5.275
14996SOL    HW245333   6.028   4.387   5.349
14997SOL     OW45334   7.173   4.503   5.394
14997SOL    HW145335   7.081   4.541   5.389
14997SOL    HW245336   7.233   4.550   5.329
14998SOL     OW45337   6.599   3.829   5.494
14998SOL    HW145338   6.605   3.914   5.442
14998SOL    HW245339   6.631   3.753   5.437
14999SOL     OW45340   6.090   3.774   5.464
14999SOL    HW145341   6.048   3.717   5.394
14999SOL    HW245342   6.024   3.843   5.496
15000SOL     OW45343   6.159   4.594   4.753
15000SOL    HW145344   6.203   4.683   4.744
15000SOL    HW245345   6.096   4.594   4.830
15001SOL     OW45346   6.946   4.586   4.769
15001SOL    HW145347   6.871   4.586   4.703
15001SOL    HW245348   6.983   4.494   4.778
15002SOL     OW45349   6.795   4.249   3.999
15002SOL    HW145350   6.808   4.165   4.053
15002SOL    HW245351   6.766   4.323   4.059
15003SOL     OW45352   5.893   3.937   4.955
15003SOL    HW145353   5.870   3.974   5.045
15003SOL    HW245354   5.863   3.842   4.949
15004SOL     OW45355   5.623   5.034   5.006
15004SOL    HW145356   5.676   4.985   5.074
15004SOL    HW245357   5.645   5.132   5.011
15005SOL     OW45358   6.318   4.358   4.788
15005SOL    HW145359   6.377   4.332   4.712
15005SOL    HW245360   6.290   4.454   4.777
15006SOL     OW45361   7.314   4.659   5.578
15006SOL    HW145362   7.268   4.652   5.489
15006SOL    HW245363   7.252   4.703   5.644
15007SOL     OW45364   5.893   3.787   4.342
15007SOL    HW145365   5.882   3.881   4.375
15007SOL    HW245366   5.888   3.724   4.419
15008SOL     OW45367   7.208   4.091   4.098
15008SOL    HW145368   7.210   4.015   4.162
15008SOL    HW245369   7.160   4.168   4.138
15009SOL     OW45370   6.609   4.490   4.690
15009SOL    HW145371   6.624   4.511   4.786
15009SOL    HW245372   6.579   4.395   4.681
15010SOL     OW45373   6.566   5.297   5.424
15010SOL    HW145374   6.546   5.341   5.336
15010SOL    HW245375   6.605   5.206   5.408
15011SOL     OW45376   7.445   5.242   5.329
15011SOL    HW145377   7.459   5.269   5.234
15011SOL    HW245378   7.528   5.264   5.382
15012SOL     OW45379   5.936   4.622   5.528
15012SOL    HW145380   6.012   4.666   5.576
15012SOL    HW245381   5.971   4.575   5.446
15013SOL     OW45382   7.126   3.998   3.849
15013SOL    HW145383   7.065   3.923   3.872
15013SOL    HW245384   7.148   4.050   3.932
15014SOL     OW45385   6.889   4.562   3.766
15014SOL    HW145386   6.923   4.469   3.781
15014SOL    HW245387   6.907   4.589   3.671
15015SOL     OW45388   6.654   5.057   4.573
15015SOL    HW145389   6.661   4.973   4.518
15015SOL    HW245390   6.716   5.126   4.537
15016SOL     OW45391   5.905   4.534   4.673
15016SOL    HW145392   5.998   4.570   4.678
15016SOL    HW245393   5.899   4.449   4.725
15017SOL     OW45394   5.925   4.233   4.730
15017SOL    HW145395   5.873   4.150   4.713
15017SOL    HW245396   6.002   4.238   4.666
15018SOL     OW45397   6.724   4.104   5.402
15018SOL    HW145398   6.679   4.167   5.466
15018SOL    HW245399   6.817   4.135   5.385
15019SOL     OW45400   6.746   3.931   5.201
15019SOL    HW145401   6.746   3.995   5.278
15019SOL    HW245402   6.774   3.979   5.118
15020SOL     OW45403   5.594   5.050   3.924
15020SOL    HW145404   5.501   5.071   3.893
15020SOL    HW245405   5.604   4.951   3.937
15021SOL     OW45406   5.674   5.525   4.651
15021SOL    HW145407   5.632   5.439   4.624
15021SOL    HW245408   5.768   5.528   4.617
15022SOL     OW45409   6.090   5.292   4.634
15022SOL    HW145410   6.156   5.366   4.643
15022SOL    HW245411   6.134   5.213   4.592
15023SOL     OW45412   6.588   4.520   4.962
15023SOL    HW145413   6.629   4.488   5.048
15023SOL    HW245414   6.492   4.493   4.959
15024SOL     OW45415   5.626   4.268   4.838
15024SOL    HW145416   5.711   4.235   4.797
15024SOL    HW245417   5.639   4.283   4.936
15025SOL     OW45418   5.775   4.244   5.446
15025SOL    HW145419   5.834   4.204   5.376
15025SOL    HW245420   5.717   4.315   5.405
15026SOL     OW45421   6.955   4.674   5.384
15026SOL    HW145422   6.994   4.763   5.404
15026SOL    HW245423   6.965   4.654   5.287
15027SOL     OW45424   6.401   4.296   4.049
15027SOL    HW145425   6.408   4.207   4.003
15027SOL    HW245426   6.307   4.330   4.041
15028SOL     OW45427   7.243   4.328   4.930
15028SOL    HW145428   7.205   4.259   4.992
15028SOL    HW245429   7.325   4.292   4.886
15029SOL     OW45430   5.838   5.288   5.468
15029SOL    HW145431   5.808   5.345   5.544
15029SOL    HW245432   5.831   5.191   5.494
15030SOL     OW45433   6.257   4.188   4.993
15030SOL    HW145434   6.223   4.099   4.963
15030SOL    HW245435   6.283   4.242   4.913
15031SOL     OW45436   6.516   5.402   5.189
15031SOL    HW145437   6.492   5.384   5.094
15031SOL    HW245438   6.546   5.496   5.199
15032SOL     OW45439   6.059   4.224   3.915
15032SOL    HW145440   6.120   4.304   3.919
15032SOL    HW245441   5.964   4.255   3.922
15033SOL     OW45442   5.745   4.861   5.190
15033SOL    HW145443   5.767   4.800   5.266
15033SOL    HW245444   5.755   4.812   5.104
15034SOL     OW45445   6.933   4.783   4.958
15034SOL    HW145446   6.957   4.720   4.884
15034SOL    HW245447   6.843   4.823   4.940
15035SOL     OW45448   6.888   4.579   4.033
15035SOL    HW145449   6.802   4.548   4.075
15035SOL    HW245450   6.884   4.565   3.934
15036SOL     OW45451   7.345   5.471   4.878
15036SOL    HW145452   7.406   5.501   4.805
15036SOL    HW245453   7.307   5.382   4.856
15037SOL     OW45454   6.838   5.455   4.852
15037SOL    HW145455   6.922   5.460   4.798
15037SOL    HW245456   6.815   5.359   4.870
15038SOL     OW45457   5.669   4.982   4.746
15038SOL    HW145458   5.664   4.981   4.846
15038SOL    HW245459   5.586   4.941   4.708
15039SOL     OW45460   6.274   5.386   5.440
15039SOL    HW145461   6.218   5.467   5.449
15039SOL    HW245462   6.326   5.390   5.354
15040SOL     OW45463   7.312   3.859   4.247
15040SOL    HW145464   7.385   3.842   4.180
15040SOL    HW245465   7.281   3.772   4.285
15041SOL     OW45466   6.974   5.297   4.201
15041SOL    HW145467   7.041   5.309   4.127
15041SOL    HW245468   6.934   5.386   4.224
15042SOL     OW45469   5.716   5.518   5.575
15042SOL    HW145470   5.675   5.444   5.628
15042SOL    HW245471   5.780   5.569   5.633
15043SOL     OW45472   6.866   4.651   4.396
15043SOL    HW145473   6.926   4.570   4.398
15043SOL    HW245474   6.906   4.720   4.336
15044SOL     OW45475   6.416   4.997   5.146
15044SOL    HW145476   6.411   5.030   5.241
15044SOL    HW245477   6.330   5.016   5.100
15045SOL     OW45478   6.258   5.340   3.878
15045SOL    HW145479   6.267   5.350   3.779
15045SOL    HW245480   6.218   5.251   3.899
15046SOL     OW45481   7.236   5.444   5.118
15046SOL    HW145482   7.289   5.454   5.034
15046SOL    HW245483   7.209   5.534   5.152
15047SOL     OW45484   7.427   3.899   4.687
15047SOL    HW145485   7.466   3.814   4.651
15047SOL    HW245486   7.329   3.901   4.668
15048SOL     OW45487   5.849   4.050   4.444
15048SOL    HW145488   5.770   4.101   4.410
15048SOL    HW245489   5.840   4.035   4.542
15049SOL     OW45490   6.780   5.336   3.755
15049SOL    HW145491   6.786   5.243   3.792
15049SOL    HW245492   6.721   5.336   3.675
15050SOL     OW45493   6.408   4.726   5.096
15050SOL    HW145494   6.448   4.725   5.004
15050SOL    HW245495   6.418   4.818   5.136
15051SOL     OW45496   6.502   4.634   4.015
15051SOL    HW145497   6.565   4.672   3.947
15051SOL    HW245498   6.542   4.551   4.054
15052SOL     OW45499   7.090   5.331   3.768
15052SOL    HW145500   6.998   5.368   3.775
15052SOL    HW245501   7.128   5.351   3.678
15053SOL     OW45502   5.958   5.012   5.214
15053SOL    HW145503   5.945   5.105   5.180
15053SOL    HW245504   5.874   4.960   5.201
15054SOL     OW45505   7.200   5.016   5.013
15054SOL    HW145506   7.260   5.019   5.093
15054SOL    HW245507   7.125   5.080   5.026
15055SOL     OW45508   6.625   4.822   4.420
15055SOL    HW145509   6.555   4.775   4.474
15055SOL    HW245510   6.684   4.754   4.377
15056SOL     OW45511   6.600   3.960   4.695
15056SOL    HW145512   6.592   3.924   4.602
15056SOL    HW245513   6.598   3.884   4.760
15057SOL     OW45514   6.176   5.211   4.215
15057SOL    HW145515   6.218   5.153   4.145
15057SOL    HW245516   6.132   5.290   4.171
15058SOL     OW45517   7.295   4.109   5.105
15058SOL    HW145518   7.368   4.178   5.109
15058SOL    HW245519   7.323   4.034   5.046
15059SOL     OW45520   5.841   5.072   4.014
15059SOL    HW145521   5.745   5.073   3.987
15059SOL    HW245522   5.853   5.125   4.098
15060SOL     OW45523   5.691   4.737   5.450
15060SOL    HW145524   5.614   4.704   5.504
15060SOL    HW245525   5.776   4.707   5.492
15061SOL     OW45526   6.258   3.927   5.213
15061SOL    HW145527   6.348   3.911   5.173
15061SOL    HW245528   6.266   3.932   5.312
15062SOL     OW45529   5.661   4.069   3.757
15062SOL    HW145530   5.569   4.041   3.728
15062SOL    HW245531   5.692   4.146   3.701
15063SOL     OW45532   7.026   4.580   5.122
15063SOL    HW145533   6.969   4.632   5.059
15063SOL    HW245534   7.122   4.592   5.098
15064SOL     OW45535   5.658   3.890   4.042
15064SOL    HW145536   5.641   3.973   3.988
15064SOL    HW245537   5.748   3.853   4.020
15065SOL     OW45538   6.769   5.059   3.843
15065SOL    HW145539   6.670   5.048   3.845
15065SOL    HW245540   6.803   5.074   3.936
15066SOL     OW45541   6.199   4.566   5.155
15066SOL    HW145542   6.255   4.647   5.138
15066SOL    HW245543   6.258   4.486   5.158
15067SOL     OW45544   7.079   5.491   4.683
15067SOL    HW145545   7.112   5.555   4.614
15067SOL    HW245546   7.145   5.485   4.758
15068SOL     OW45547   6.302   4.289   5.432
15068SOL    HW145548   6.321   4.354   5.506
15068SOL    HW245549   6.362   4.209   5.441
15069SOL     OW45550   7.036   4.944   5.357
15069SOL    HW145551   7.027   4.934   5.456
15069SOL    HW245552   7.132   4.937   5.331
15070SOL     OW45553   5.976   5.465   5.284
15070SOL    HW145554   5.885   5.506   5.282
15070SOL    HW245555   5.969   5.371   5.316
15071SOL     OW45556   7.260   4.607   4.978
15071SOL    HW145557   7.233   4.518   4.941
15071SOL    HW245558   7.261   4.675   4.905
15072SOL     OW45559   6.811   4.049   4.173
15072SOL    HW145560   6.876   3.975   4.162
15072SOL    HW245561   6.831   4.099   4.257
15073SOL     OW45562   6.180   4.469   4.376
15073SOL    HW145563   6.230   4.554   4.357
15073SOL    HW245564   6.092   4.471   4.328
15074SOL     OW45565   7.363   4.066   5.366
15074SOL    HW145566   7.346   4.097   5.272
15074SOL    HW245567   7.279   4.029   5.404
15075SOL     OW45568   7.316   4.658   5.241
15075SOL    HW145569   7.354   4.749   5.256
15075SOL    HW245570   7.308   4.641   5.142
15076SOL     OW45571   6.445   5.098   3.740
15076SOL    HW145572   6.399   5.113   3.828
15076SOL    HW245573   6.489   5.183   3.710
15077SOL     OW45574   6.247   5.514   4.677
15077SOL    HW145575   6.201   5.602   4.664
15077SOL    HW245576   6.346   5.526   4.670
15078SOL     OW45577   6.445   4.680   4.585
15078SOL    HW145578   6.499   4.611   4.633
15078SOL    HW245579   6.413   4.749   4.651
15079SOL     OW45580   6.669   4.708   3.811
15079SOL    HW145581   6.646   4.761   3.729
15079SOL    HW245582   6.750   4.652   3.792
15080SOL     OW45583   7.447   5.293   4.575
15080SOL    HW145584   7.376   5.281   4.505
15080SOL    HW245585   7.448   5.214   4.635
15081SOL     OW45586   5.807   5.038   5.568
15081SOL    HW145587   5.742   4.965   5.547
15081SOL    HW245588   5.811   5.052   5.666
15082SOL     OW45589   5.665   4.964   4.377
15082SOL    HW145590   5.664   4.917   4.465
15082SOL    HW245591   5.747   4.936   4.326
15083SOL     OW45592   6.258   5.115   5.348
15083SOL    HW145593   6.180   5.065   5.386
15083SOL    HW245594   6.255   5.210   5.379
15084SOL     OW45595   7.410   3.916   4.951
15084SOL    HW145596   7.406   3.826   4.995
15084SOL    HW245597   7.413   3.905   4.852
15085SOL     OW45598   6.014   4.148   4.244
15085SOL    HW145599   6.044   4.076   4.182
15085SOL    HW245600   5.975   4.108   4.327
15086SOL     OW45601   7.291   5.211   4.828
15086SOL    HW145602   7.198   5.186   4.801
15086SOL    HW245603   7.317   5.161   4.910
15087SOL     OW45604   5.903   4.271   5.004
15087SOL    HW145605   5.941   4.212   5.076
15087SOL    HW245606   5.943   4.245   4.916
15088SOL     OW45607   6.398   5.310   4.411
15088SOL    HW145608   6.430   5.320   4.317
15088SOL    HW245609   6.319   5.248   4.413
15089SOL     OW45610   7.010   3.938   4.836
15089SOL    HW145611   7.062   3.873   4.891
15089SOL    HW245612   6.961   4.001   4.897
15090SOL     OW45613   6.587   3.758   4.878
15090SOL    HW145614   6.524   3.686   4.847
15090SOL    HW245615   6.680   3.722   4.878
15091SOL     OW45616   6.356   5.054   4.025
15091SOL    HW145617   6.310   4.967   4.042
15091SOL    HW245618   6.447   5.051   4.066
15092SOL     OW45619   6.204   5.291   5.008
15092SOL    HW145620   6.199   5.373   5.065
15092SOL    HW245621   6.293   5.288   4.963
15093SOL     OW45622   6.938   3.776   3.892
15093SOL    HW145623   6.973   3.735   3.808
15093SOL    HW245624   6.848   3.738   3.912
15094SOL     OW45625   6.886   4.177   4.415
15094SOL    HW145626   6.827   4.257   4.419
15094SOL    HW245627   6.901   4.142   4.508
15095SOL     OW45628   7.179   3.945   4.606
15095SOL    HW145629   7.095   3.944   4.660
15095SOL    HW245630   7.181   4.028   4.550
15096SOL     OW45631   5.625   4.801   4.024
15096SOL    HW145632   5.724   4.790   4.015
15096SOL    HW245633   5.585   4.715   4.056
15097SOL     OW45634   6.461   5.370   4.061
15097SOL    HW145635   6.384   5.335   4.007
15097SOL    HW245636   6.429   5.441   4.123
15098SOL     OW45637   5.816   4.352   5.699
15098SOL    HW145638   5.723   4.350   5.736
15098SOL    HW245639   5.817   4.313   5.607
15099SOL     OW45640   5.811   3.999   6.582
15099SOL    HW145641   5.846   3.982   6.674
15099SOL    HW245642   5.723   3.954   6.570
15100SOL     OW45643   5.605   4.092   6.233
15100SOL    HW145644   5.523   4.135   6.272
15100SOL    HW245645   5.577   4.019   6.170
15101SOL     OW45646   6.155   4.999   6.751
15101SOL    HW145647   6.062   4.992   6.714
15101SOL    HW245648   6.166   5.088   6.795
15102SOL     OW45649   7.141   5.235   6.289
15102SOL    HW145650   7.084   5.219   6.370
15102SOL    HW245651   7.082   5.245   6.209
15103SOL     OW45652   6.721   4.427   6.303
15103SOL    HW145653   6.778   4.505   6.278
15103SOL    HW245654   6.661   4.453   6.379
15104SOL     OW45655   7.341   4.331   5.817
15104SOL    HW145656   7.329   4.318   5.718
15104SOL    HW245657   7.311   4.250   5.866
15105SOL     OW45658   6.354   4.868   6.609
15105SOL    HW145659   6.276   4.885   6.669
15105SOL    HW245660   6.388   4.955   6.573
15106SOL     OW45661   6.436   4.522   7.409
15106SOL    HW145662   6.432   4.598   7.474
15106SOL    HW245663   6.458   4.558   7.318
15107SOL     OW45664   6.271   4.736   6.251
15107SOL    HW145665   6.340   4.720   6.321
15107SOL    HW245666   6.198   4.793   6.289
15108SOL     OW45667   6.272   4.885   7.389
15108SOL    HW145668   6.332   4.964   7.403
15108SOL    HW245669   6.186   4.916   7.348
15109SOL     OW45670   5.921   5.159   6.647
15109SOL    HW145671   5.843   5.128   6.594
15109SOL    HW245672   5.979   5.217   6.590
15110SOL     OW45673   7.046   5.229   6.925
15110SOL    HW145674   7.070   5.323   6.951
15110SOL    HW245675   7.030   5.175   7.007
15111SOL     OW45676   6.024   4.116   7.085
15111SOL    HW145677   6.106   4.060   7.094
15111SOL    HW245678   5.943   4.058   7.089
15112SOL     OW45679   7.189   4.171   6.323
15112SOL    HW145680   7.115   4.217   6.273
15112SOL    HW245681   7.240   4.239   6.376
15113SOL     OW45682   5.817   5.437   6.069
15113SOL    HW145683   5.851   5.514   6.123
15113SOL    HW245684   5.861   5.437   5.979
15114SOL     OW45685   6.713   5.065   7.276
15114SOL    HW145686   6.760   5.065   7.364
15114SOL    HW245687   6.665   4.978   7.265
15115SOL     OW45688   5.816   5.158   6.124
15115SOL    HW145689   5.790   5.254   6.124
15115SOL    HW245690   5.745   5.104   6.169
15116SOL     OW45691   5.826   4.815   6.472
15116SOL    HW145692   5.840   4.731   6.524
15116SOL    HW245693   5.771   4.879   6.527
15117SOL     OW45694   6.206   5.510   7.025
15117SOL    HW145695   6.114   5.493   7.060
15117SOL    HW245696   6.234   5.602   7.051
15118SOL     OW45697   6.192   4.688   5.709
15118SOL    HW145698   6.199   4.772   5.655
15118SOL    HW245699   6.238   4.701   5.797
15119SOL     OW45700   7.180   3.838   7.066
15119SOL    HW145701   7.162   3.905   6.994
15119SOL    HW245702   7.177   3.884   7.155
15120SOL     OW45703   5.708   4.367   6.149
15120SOL    HW145704   5.663   4.279   6.166
15120SOL    HW245705   5.707   4.421   6.233
15121SOL     OW45706   7.428   5.491   5.945
15121SOL    HW145707   7.482   5.462   6.025
15121SOL    HW245708   7.458   5.581   5.916
15122SOL     OW45709   5.613   5.320   5.703
15122SOL    HW145710   5.594   5.224   5.724
15122SOL    HW245711   5.580   5.378   5.778
15123SOL     OW45712   7.275   4.646   6.198
15123SOL    HW145713   7.370   4.617   6.206
15123SOL    HW245714   7.267   4.711   6.123
15124SOL     OW45715   7.227   4.832   6.018
15124SOL    HW145716   7.313   4.834   5.966
15124SOL    HW245717   7.241   4.879   6.106
15125SOL     OW45718   5.699   4.461   7.183
15125SOL    HW145719   5.787   4.448   7.228
15125SOL    HW245720   5.686   4.558   7.161
15126SOL     OW45721   6.199   5.089   6.312
15126SOL    HW145722   6.150   5.002   6.321
15126SOL    HW245723   6.176   5.132   6.225
15127SOL     OW45724   6.879   4.952   7.009
15127SOL    HW145725   6.916   4.879   6.951
15127SOL    HW245726   6.931   4.957   7.094
15128SOL     OW45727   6.395   3.728   6.088
15128SOL    HW145728   6.435   3.819   6.079
15128SOL    HW245729   6.295   3.736   6.094
15129SOL     OW45730   5.783   4.700   6.850
15129SOL    HW145731   5.872   4.655   6.836
15129SOL    HW245732   5.710   4.635   6.831
15130SOL     OW45733   7.111   4.723   5.776
15130SOL    HW145734   7.048   4.647   5.789
15130SOL    HW245735   7.159   4.741   5.862
15131SOL     OW45736   6.773   5.516   7.202
15131SOL    HW145737   6.797   5.576   7.126
15131SOL    HW245738   6.780   5.421   7.172
15132SOL     OW45739   5.903   3.975   7.387
15132SOL    HW145740   5.974   4.046   7.393
15132SOL    HW245741   5.815   4.014   7.415
15133SOL     OW45742   7.052   5.141   6.539
15133SOL    HW145743   6.993   5.147   6.619
15133SOL    HW245744   7.037   5.053   6.493
15134SOL     OW45745   7.253   5.438   6.158
15134SOL    HW145746   7.212   5.415   6.070
15134SOL    HW245747   7.235   5.364   6.223
15135SOL     OW45748   6.184   4.453   5.856
15135SOL    HW145749   6.208   4.522   5.788
15135SOL    HW245750   6.106   4.486   5.910
15136SOL     OW45751   6.867   4.069   6.530
15136SOL    HW145752   6.781   4.019   6.517
15136SOL    HW245753   6.929   4.015   6.586
15137SOL     OW45754   7.162   5.386   5.893
15137SOL    HW145755   7.251   5.432   5.896
15137SOL    HW245756   7.141   5.362   5.798
15138SOL     OW45757   6.393   4.329   7.051
15138SOL    HW145758   6.346   4.326   7.140
15138SOL    HW245759   6.342   4.274   6.985
15139SOL     OW45760   6.980   4.193   7.260
15139SOL    HW145761   6.960   4.236   7.348
15139SOL    HW245762   7.058   4.131   7.269
15140SOL     OW45763   6.559   4.614   7.158
15140SOL    HW145764   6.605   4.530   7.129
15140SOL    HW245765   6.503   4.648   7.083
15141SOL     OW45766   6.577   4.134   6.828
15141SOL    HW145767   6.500   4.168   6.882
15141SOL    HW245768   6.543   4.083   6.749
15142SOL     OW45769   6.627   4.425   6.015
15142SOL    HW145770   6.653   4.421   6.111
15142SOL    HW245771   6.542   4.374   6.001
15143SOL     OW45772   5.662   4.535   6.375
15143SOL    HW145773   5.761   4.523   6.384
15143SOL    HW245774   5.638   4.630   6.396
15144SOL     OW45775   5.716   5.545   7.157
15144SOL    HW145776   5.706   5.530   7.256
15144SOL    HW245777   5.630   5.581   7.121
15145SOL     OW45778   6.451   4.072   5.781
15145SOL    HW145779   6.510   4.135   5.732
15145SOL    HW245780   6.470   3.978   5.752
15146SOL     OW45781   7.305   4.309   7.417
15146SOL    HW145782   7.279   4.398   7.381
15146SOL    HW245783   7.303   4.241   7.344
15147SOL     OW45784   6.948   4.868   6.131
15147SOL    HW145785   7.031   4.839   6.083
15147SOL    HW245786   6.899   4.935   6.075
15148SOL     OW45787   6.136   3.920   6.471
15148SOL    HW145788   6.131   3.915   6.571
15148SOL    HW245789   6.138   4.016   6.442
15149SOL     OW45790   6.594   5.180   6.063
15149SOL    HW145791   6.548   5.252   6.011
15149SOL    HW245792   6.590   5.200   6.161
15150SOL     OW45793   5.937   5.525   6.439
15150SOL    HW145794   5.987   5.439   6.445
15150SOL    HW245795   6.002   5.602   6.436
15151SOL     OW45796   7.381   4.790   6.459
15151SOL    HW145797   7.319   4.775   6.383
15151SOL    HW245798   7.329   4.801   6.544
15152SOL     OW45799   6.813   5.274   7.092
15152SOL    HW145800   6.819   5.197   7.156
15152SOL    HW245801   6.761   5.248   7.012
15153SOL     OW45802   5.907   4.667   5.828
15153SOL    HW145803   5.989   4.706   5.786
15153SOL    HW245804   5.880   4.585   5.779
15154SOL     OW45805   7.044   4.459   6.314
15154SOL    HW145806   7.039   4.394   6.389
15154SOL    HW245807   7.124   4.518   6.327
15155SOL     OW45808   6.047   4.990   7.313
15155SOL    HW145809   5.997   4.991   7.227
15155SOL    HW245810   5.984   4.972   7.389
15156SOL     OW45811   6.697   5.500   5.823
15156SOL    HW145812   6.637   5.438   5.873
15156SOL    HW245813   6.728   5.456   5.738
15157SOL     OW45814   5.788   4.009   7.084
15157SOL    HW145815   5.708   4.069   7.071
15157SOL    HW245816   5.778   3.960   7.170
15158SOL     OW45817   7.218   5.101   5.667
15158SOL    HW145818   7.186   5.195   5.657
15158SOL    HW245819   7.142   5.038   5.655
15159SOL     OW45820   6.050   5.467   5.909
15159SOL    HW145821   6.083   5.506   5.995
15159SOL    HW245822   6.126   5.460   5.844
15160SOL     OW45823   6.986   3.831   6.012
15160SOL    HW145824   6.962   3.794   5.922
15160SOL    HW245825   7.085   3.847   6.016
15161SOL     OW45826   5.835   5.509   6.827
15161SOL    HW145827   5.892   5.444   6.877
15161SOL    HW245828   5.819   5.476   6.734
15162SOL     OW45829   6.526   5.422   6.490
15162SOL    HW145830   6.606   5.365   6.511
15162SOL    HW245831   6.477   5.382   6.413
15163SOL     OW45832   5.968   4.424   6.066
15163SOL    HW145833   6.013   4.334   6.063
15163SOL    HW245834   5.874   4.413   6.099
15164SOL     OW45835   7.133   3.946   7.315
15164SOL    HW145836   7.128   3.983   7.407
15164SOL    HW245837   7.061   3.877   7.303
15165SOL     OW45838   6.200   3.846   5.703
15165SOL    HW145839   6.298   3.824   5.710
15165SOL    HW245840   6.169   3.829   5.610
15166SOL     OW45841   6.367   3.988   7.335
15166SOL    HW145842   6.434   3.927   7.378
15166SOL    HW245843   6.294   4.007   7.400
15167SOL     OW45844   6.474   5.238   6.781
15167SOL    HW145845   6.451   5.213   6.687
15167SOL    HW245846   6.535   5.169   6.820
15168SOL     OW45847   6.937   4.314   7.019
15168SOL    HW145848   6.965   4.271   7.104
15168SOL    HW245849   6.962   4.410   7.020
15169SOL     OW45850   6.389   5.126   6.510
15169SOL    HW145851   6.479   5.140   6.468
15169SOL    HW245852   6.318   5.128   6.439
15170SOL     OW45853   6.508   4.227   6.485
15170SOL    HW145854   6.483   4.218   6.389
15170SOL    HW245855   6.556   4.145   6.516
15171SOL     OW45856   6.125   3.788   6.098
15171SOL    HW145857   6.044   3.789   6.156
15171SOL    HW245858   6.128   3.871   6.043
15172SOL     OW45859   7.020   4.912   5.627
15172SOL    HW145860   7.052   4.836   5.684
15172SOL    HW245861   6.928   4.939   5.657
15173SOL     OW45862   5.883   3.759   5.757
15173SOL    HW145863   5.932   3.843   5.736
15173SOL    HW245864   5.945   3.694   5.802
15174SOL     OW45865   6.521   3.960   6.066
15174SOL    HW145866   6.473   4.001   5.988
15174SOL    HW245867   6.620   3.958   6.047
15175SOL     OW45868   6.662   4.407   7.050
15175SOL    HW145869   6.582   4.346   7.053
15175SOL    HW245870   6.743   4.354   7.026
15176SOL     OW45871   6.813   5.294   6.379
15176SOL    HW145872   6.834   5.368   6.314
15176SOL    HW245873   6.881   5.294   6.452
15177SOL     OW45874   6.045   4.876   6.327
15177SOL    HW145875   5.974   4.849   6.392
15177SOL    HW245876   6.019   4.848   6.234
15178SOL     OW45877   6.857   5.521   6.177
15178SOL    HW145878   6.901   5.585   6.113
15178SOL    HW245879   6.807   5.573   6.247
15179SOL     OW45880   6.618   4.273   5.602
15179SOL    HW145881   6.577   4.355   5.563
15179SOL    HW245882   6.682   4.299   5.675
15180SOL     OW45883   5.664   4.280   6.972
15180SOL    HW145884   5.756   4.279   6.931
15180SOL    HW245885   5.658   4.354   7.039
15181SOL     OW45886   6.147   3.946   6.733
15181SOL    HW145887   6.185   3.862   6.770
15181SOL    HW245888   6.059   3.965   6.777
15182SOL     OW45889   6.452   4.178   6.228
15182SOL    HW145890   6.420   4.250   6.166
15182SOL    HW245891   6.476   4.097   6.175
15183SOL     OW45892   6.603   3.763   6.339
15183SOL    HW145893   6.531   3.768   6.270
15183SOL    HW245894   6.579   3.694   6.408
15184SOL     OW45895   7.015   4.897   6.453
15184SOL    HW145896   6.960   4.813   6.446
15184SOL    HW245897   7.041   4.926   6.361
15185SOL     OW45898   7.052   4.314   6.578
15185SOL    HW145899   7.022   4.219   6.585
15185SOL    HW245900   7.125   4.330   6.644
15186SOL     OW45901   7.443   4.557   5.963
15186SOL    HW145902   7.485   4.493   6.027
15186SOL    HW245903   7.405   4.506   5.885
15187SOL     OW45904   6.074   5.109   5.760
15187SOL    HW145905   5.987   5.094   5.807
15187SOL    HW245906   6.057   5.135   5.665
15188SOL     OW45907   7.250   5.004   6.243
15188SOL    HW145908   7.349   5.012   6.257
15188SOL    HW245909   7.205   5.088   6.274
15189SOL     OW45910   6.976   4.299   5.664
15189SOL    HW145911   6.922   4.278   5.745
15189SOL    HW245912   7.067   4.258   5.673
15190SOL     OW45913   6.113   3.980   5.914
15190SOL    HW145914   6.140   3.921   5.839
15190SOL    HW245915   6.113   4.075   5.883
15191SOL     OW45916   7.340   4.947   7.174
15191SOL    HW145917   7.431   4.908   7.161
15191SOL    HW245918   7.348   5.043   7.198
15192SOL     OW45919   6.650   5.071   6.926
15192SOL    HW145920   6.570   5.048   6.981
15192SOL    HW245921   6.733   5.045   6.975
15193SOL     OW45922   7.178   5.353   7.211
15193SOL    HW145923   7.205   5.387   7.121
15193SOL    HW245924   7.257   5.315   7.257
15194SOL     OW45925   6.697   4.919   6.686
15194SOL    HW145926   6.657   4.963   6.767
15194SOL    HW245927   6.656   4.956   6.603
15195SOL     OW45928   7.224   4.823   6.665
15195SOL    HW145929   7.229   4.904   6.724
15195SOL    HW245930   7.138   4.825   6.614
15196SOL     OW45931   6.501   3.813   6.988
15196SOL    HW145932   6.526   3.793   6.893
15196SOL    HW245933   6.573   3.869   7.030
15197SOL     OW45934   6.566   4.840   7.305
15197SOL    HW145935   6.467   4.846   7.315
15197SOL    HW245936   6.589   4.760   7.249
15198SOL     OW45937   6.291   4.774   5.954
15198SOL    HW145938   6.277   4.781   6.053
15198SOL    HW245939   6.375   4.723   5.936
15199SOL     OW45940   5.996   4.537   6.837
15199SOL    HW145941   6.082   4.549   6.887
15199SOL    HW245942   5.954   4.450   6.864
15200SOL     OW45943   6.860   4.110   6.848
15200SOL    HW145944   6.881   4.184   6.912
15200SOL    HW245945   6.771   4.127   6.805
15201SOL     OW45946   5.650   5.288   6.917
15201SOL    HW145947   5.604   5.370   6.883
15201SOL    HW245948   5.748   5.307   6.926
15202SOL     OW45949   5.953   4.824   6.087
15202SOL    HW145950   5.946   4.907   6.031
15202SOL    HW245951   5.957   4.744   6.027
15203SOL     OW45952   6.152   4.261   6.451
15203SOL    HW145953   6.164   4.327   6.377
15203SOL    HW245954   6.198   4.295   6.534
15204SOL     OW45955   6.838   5.072   5.974
15204SOL    HW145956   6.888   5.149   6.014
15204SOL    HW245957   6.743   5.074   6.006
15205SOL     OW45958   6.858   5.169   6.728
15205SOL    HW145959   6.905   5.182   6.815
15205SOL    HW245960   6.792   5.095   6.737
15206SOL     OW45961   7.168   4.363   6.058
15206SOL    HW145962   7.137   4.424   6.131
15206SOL    HW245963   7.218   4.415   5.989
15207SOL     OW45964   5.940   5.234   6.915
15207SOL    HW145965   5.919   5.190   6.828
15207SOL    HW245966   6.037   5.260   6.918
15208SOL     OW45967   5.988   4.475   7.184
15208SOL    HW145968   6.056   4.530   7.137
15208SOL    HW245969   6.028   4.387   7.211
15209SOL     OW45970   7.173   4.503   7.256
15209SOL    HW145971   7.081   4.541   7.251
15209SOL    HW245972   7.233   4.550   7.191
15210SOL     OW45973   6.599   3.829   7.356
15210SOL    HW145974   6.605   3.914   7.304
15210SOL    HW245975   6.631   3.753   7.299
15211SOL     OW45976   6.090   3.774   7.326
15211SOL    HW145977   6.048   3.717   7.256
15211SOL    HW245978   6.024   3.843   7.358
15212SOL     OW45979   6.159   4.594   6.615
15212SOL    HW145980   6.203   4.683   6.606
15212SOL    HW245981   6.096   4.594   6.692
15213SOL     OW45982   6.946   4.586   6.631
15213SOL    HW145983   6.871   4.586   6.565
15213SOL    HW245984   6.983   4.494   6.640
15214SOL     OW45985   6.795   4.249   5.861
15214SOL    HW145986   6.808   4.165   5.915
15214SOL    HW245987   6.766   4.323   5.921
15215SOL     OW45988   5.893   3.937   6.817
15215SOL    HW145989   5.870   3.974   6.907
15215SOL    HW245990   5.863   3.842   6.811
15216SOL     OW45991   5.623   5.034   6.868
15216SOL    HW145992   5.676   4.985   6.936
15216SOL    HW245993   5.645   5.132   6.873
15217SOL     OW45994   6.318   4.358   6.650
15217SOL    HW145995   6.377   4.332   6.574
15217SOL    HW245996   6.290   4.454   6.639
15218SOL     OW45997   7.314   4.659   7.440
15218SOL    HW145998   7.268   4.652   7.351
15218SOL    HW245999   7.252   4.703   7.506
15219SOL     OW46000   5.893   3.787   6.204
15219SOL    HW146001   5.882   3.881   6.237
15219SOL    HW246002   5.888   3.724   6.281
15220SOL     OW46003   7.208   4.091   5.960
15220SOL    HW146004   7.210   4.015   6.024
15220SOL    HW246005   7.160   4.168   6.000
15221SOL     OW46006   6.609   4.490   6.552
15221SOL    HW146007   6.624   4.511   6.648
15221SOL    HW246008   6.579   4.395   6.543
15222SOL     OW46009   6.566   5.297   7.286
15222SOL    HW146010   6.546   5.341   7.198
15222SOL    HW246011   6.605   5.206   7.270
15223SOL     OW46012   7.445   5.242   7.191
15223SOL    HW146013   7.459   5.269   7.096
15223SOL    HW246014   7.528   5.264   7.244
15224SOL     OW46015   5.936   4.622   7.390
15224SOL    HW146016   6.012   4.666   7.438
15224SOL    HW246017   5.971   4.575   7.308
15225SOL     OW46018   7.126   3.998   5.711
15225SOL    HW146019   7.065   3.923   5.734
15225SOL    HW246020   7.148   4.050   5.794
15226SOL     OW46021   6.889   4.562   5.628
15226SOL    HW146022   6.923   4.469   5.643
15226SOL    HW246023   6.907   4.589   5.533
15227SOL     OW46024   6.654   5.057   6.435
15227SOL    HW146025   6.661   4.973   6.380
15227SOL    HW246026   6.716   5.126   6.399
15228SOL     OW46027   5.905   4.534   6.535
15228SOL    HW146028   5.998   4.570   6.540
15228SOL    HW246029   5.899   4.449   6.587
15229SOL     OW46030   5.925   4.233   6.592
15229SOL    HW146031   5.873   4.150   6.575
15229SOL    HW246032   6.002   4.238   6.528
15230SOL     OW46033   6.724   4.104   7.264
15230SOL    HW146034   6.679   4.167   7.328
15230SOL    HW246035   6.817   4.135   7.247
15231SOL     OW46036   6.746   3.931   7.063
15231SOL    HW146037   6.746   3.995   7.140
15231SOL    HW246038   6.774   3.979   6.980
15232SOL     OW46039   5.594   5.050   5.786
15232SOL    HW146040   5.501   5.071   5.755
15232SOL    HW246041   5.604   4.951   5.799
15233SOL     OW46042   5.674   5.525   6.513
15233SOL    HW146043   5.632   5.439   6.486
15233SOL    HW246044   5.768   5.528   6.479
15234SOL     OW46045   6.090   5.292   6.496
15234SOL    HW146046   6.156   5.366   6.505
15234SOL    HW246047   6.134   5.213   6.454
15235SOL     OW46048   6.588   4.520   6.824
15235SOL    HW146049   6.629   4.488   6.910
15235SOL    HW246050   6.492   4.493   6.821
15236SOL     OW46051   5.626   4.268   6.700
15236SOL    HW146052   5.711   4.235   6.659
15236SOL    HW246053   5.639   4.283   6.798
15237SOL     OW46054   5.775   4.244   7.308
15237SOL    HW146055   5.834   4.204   7.238
15237SOL    HW246056   5.717   4.315   7.267
15238SOL     OW46057   6.955   4.674   7.246
15238SOL    HW146058   6.994   4.763   7.266
15238SOL    HW246059   6.965   4.654   7.149
15239SOL     OW46060   6.401   4.296   5.911
15239SOL    HW146061   6.408   4.207   5.865
15239SOL    HW246062   6.307   4.330   5.903
15240SOL     OW46063   7.243   4.328   6.792
15240SOL    HW146064   7.205   4.259   6.854
15240SOL    HW246065   7.325   4.292   6.748
15241SOL     OW46066   5.838   5.288   7.330
15241SOL    HW146067   5.808   5.345   7.406
15241SOL    HW246068   5.831   5.191   7.356
15242SOL     OW46069   6.257   4.188   6.855
15242SOL    HW146070   6.223   4.099   6.825
15242SOL    HW246071   6.283   4.242   6.775
15243SOL     OW46072   6.516   5.402   7.051
15243SOL    HW146073   6.492   5.384   6.956
15243SOL    HW246074   6.546   5.496   7.061
15244SOL     OW46075   6.059   4.224   5.777
15244SOL    HW146076   6.120   4.304   5.781
15244SOL    HW246077   5.964   4.255   5.784
15245SOL     OW46078   5.745   4.861   7.052
15245SOL    HW146079   5.767   4.800   7.128
15245SOL    HW246080   5.755   4.812   6.966
15246SOL     OW46081   6.933   4.783   6.820
15246SOL    HW146082   6.957   4.720   6.746
15246SOL    HW246083   6.843   4.823   6.802
15247SOL     OW46084   6.888   4.579   5.895
15247SOL    HW146085   6.802   4.548   5.937
15247SOL    HW246086   6.884   4.565   5.796
15248SOL     OW46087   7.345   5.471   6.740
15248SOL    HW146088   7.406   5.501   6.667
15248SOL    HW246089   7.307   5.382   6.718
15249SOL     OW46090   6.838   5.455   6.714
15249SOL    HW146091   6.922   5.460   6.660
15249SOL    HW246092   6.815   5.359   6.732
15250SOL     OW46093   5.669   4.982   6.608
15250SOL    HW146094   5.664   4.981   6.708
15250SOL    HW246095   5.586   4.941   6.570
15251SOL     OW46096   6.274   5.386   7.302
15251SOL    HW146097   6.218   5.467   7.311
15251SOL    HW246098   6.326   5.390   7.216
15252SOL     OW46099   7.312   3.859   6.109
15252SOL    HW146100   7.385   3.842   6.042
15252SOL    HW246101   7.281   3.772   6.147
15253SOL     OW46102   6.974   5.297   6.063
15253SOL    HW146103   7.041   5.309   5.989
15253SOL    HW246104   6.934   5.386   6.086
15254SOL     OW46105   5.716   5.518   7.437
15254SOL    HW146106   5.675   5.444   7.490
15254SOL    HW246107   5.780   5.569   7.495
15255SOL     OW46108   6.866   4.651   6.258
15255SOL    HW146109   6.926   4.570   6.260
15255SOL    HW246110   6.906   4.720   6.198
15256SOL     OW46111   6.416   4.997   7.008
15256SOL    HW146112   6.411   5.030   7.103
15256SOL    HW246113   6.330   5.016   6.962
15257SOL     OW46114   6.258   5.340   5.740
15257SOL    HW146115   6.267   5.350   5.641
15257SOL    HW246116   6.218   5.251   5.761
15258SOL     OW46117   7.236   5.444   6.980
15258SOL    HW146118   7.289   5.454   6.896
15258SOL    HW246119   7.209   5.534   7.014
15259SOL     OW46120   7.427   3.899   6.549
15259SOL    HW146121   7.466   3.814   6.513
15259SOL    HW246122   7.329   3.901   6.530
15260SOL     OW46123   5.849   4.050   6.306
15260SOL    HW146124   5.770   4.101   6.272
15260SOL    HW246125   5.840   4.035   6.404
15261SOL     OW46126   6.780   5.336   5.617
15261SOL    HW146127   6.786   5.243   5.654
15261SOL    HW246128   6.721   5.336   5.537
15262SOL     OW46129   6.408   4.726   6.958
15262SOL    HW146130   6.448   4.725   6.866
15262SOL    HW246131   6.418   4.818   6.998
15263SOL     OW46132   6.502   4.634   5.877
15263SOL    HW146133   6.565   4.672   5.809
15263SOL    HW246134   6.542   4.551   5.916
15264SOL     OW46135   7.090   5.331   5.630
15264SOL    HW146136   6.998   5.368   5.637
15264SOL    HW246137   7.128   5.351   5.540
15265SOL     OW46138   5.958   5.012   7.076
15265SOL    HW146139   5.945   5.105   7.042
15265SOL    HW246140   5.874   4.960   7.063
15266SOL     OW46141   7.200   5.016   6.875
15266SOL    HW146142   7.260   5.019   6.955
15266SOL    HW246143   7.125   5.080   6.888
15267SOL     OW46144   6.625   4.822   6.282
15267SOL    HW146145   6.555   4.775   6.336
15267SOL    HW246146   6.684   4.754   6.239
15268SOL     OW46147   6.600   3.960   6.557
15268SOL    HW146148   6.592   3.924   6.464
15268SOL    HW246149   6.598   3.884   6.622
15269SOL     OW46150   6.176   5.211   6.077
15269SOL    HW146151   6.218   5.153   6.007
15269SOL    HW246152   6.132   5.290   6.033
15270SOL     OW46153   7.295   4.109   6.967
15270SOL    HW146154   7.368   4.178   6.971
15270SOL    HW246155   7.323   4.034   6.908
15271SOL     OW46156   5.841   5.072   5.876
15271SOL    HW146157   5.745   5.073   5.849
15271SOL    HW246158   5.853   5.125   5.960
15272SOL     OW46159   5.691   4.737   7.312
15272SOL    HW146160   5.614   4.704   7.366
15272SOL    HW246161   5.776   4.707   7.354
15273SOL     OW46162   6.258   3.927   7.075
15273SOL    HW146163   6.348   3.911   7.035
15273SOL    HW246164   6.266   3.932   7.174
15274SOL     OW46165   5.661   4.069   5.619
15274SOL    HW146166   5.569   4.041   5.590
15274SOL    HW246167   5.692   4.146   5.563
15275SOL     OW46168   7.026   4.580   6.984
15275SOL    HW146169   6.969   4.632   6.921
15275SOL    HW246170   7.122   4.592   6.960
15276SOL     OW46171   5.658   3.890   5.904
15276SOL    HW146172   5.641   3.973   5.850
15276SOL    HW246173   5.748   3.853   5.882
15277SOL     OW46174   6.769   5.059   5.705
15277SOL    HW146175   6.670   5.048   5.707
15277SOL    HW246176   6.803   5.074   5.798
15278SOL     OW46177   6.199   4.566   7.017
15278SOL    HW146178   6.255   4.647   7.000
15278SOL    HW246179   6.258   4.486   7.020
15279SOL     OW46180   7.079   5.491   6.545
15279SOL    HW146181   7.112   5.555   6.476
15279SOL    HW246182   7.145   5.485   6.620
15280SOL     OW46183   6.302   4.289   7.294
15280SOL    HW146184   6.321   4.354   7.368
15280SOL    HW246185   6.362   4.209   7.303
15281SOL     OW46186   7.036   4.944   7.219
15281SOL    HW146187   7.027   4.934   7.318
15281SOL    HW246188   7.132   4.937   7.193
15282SOL     OW46189   5.976   5.465   7.146
15282SOL    HW146190   5.885   5.506   7.144
15282SOL    HW246191   5.969   5.371   7.178
15283SOL     OW46192   7.260   4.607   6.840
15283SOL    HW146193   7.233   4.518   6.803
15283SOL    HW246194   7.261   4.675   6.767
15284SOL     OW46195   6.811   4.049   6.035
15284SOL    HW146196   6.876   3.975   6.024
15284SOL    HW246197   6.831   4.099   6.119
15285SOL     OW46198   6.180   4.469   6.238
15285SOL    HW146199   6.230   4.554   6.219
15285SOL    HW246200   6.092   4.471   6.190
15286SOL     OW46201   7.363   4.066   7.228
15286SOL    HW146202   7.346   4.097   7.134
15286SOL    HW246203   7.279   4.029   7.266
15287SOL     OW46204   7.316   4.658   7.103
15287SOL    HW146205   7.354   4.749   7.118
15287SOL    HW246206   7.308   4.641   7.004
15288SOL     OW46207   6.445   5.098   5.602
15288SOL    HW146208   6.399   5.113   5.690
15288SOL    HW246209   6.489   5.183   5.572
15289SOL     OW46210   6.247   5.514   6.539
15289SOL    HW146211   6.201   5.602   6.526
15289SOL    HW246212   6.346   5.526   6.532
15290SOL     OW46213   6.445   4.680   6.447
15290SOL    HW146214   6.499   4.611   6.495
15290SOL    HW246215   6.413   4.749   6.513
15291SOL     OW46216   6.669   4.708   5.673
15291SOL    HW146217   6.646   4.761   5.591
15291SOL    HW246218   6.750   4.652   5.654
15292SOL     OW46219   7.447   5.293   6.437
15292SOL    HW146220   7.376   5.281   6.367
15292SOL    HW246221   7.448   5.214   6.497
15293SOL     OW46222   5.807   5.038   7.430
15293SOL    HW146223   5.742   4.965   7.409
15293SOL    HW246224   5.811   5.052   7.528
15294SOL     OW46225   5.665   4.964   6.239
15294SOL    HW146226   5.664   4.917   6.327
15294SOL    HW246227   5.747   4.936   6.188
15295SOL     OW46228   6.258   5.115   7.210
15295SOL    HW146229   6.180   5.065   7.248
15295SOL    HW246230   6.255   5.210   7.241
15296SOL     OW46231   7.410   3.916   6.813
15296SOL    HW146232   7.406   3.826   6.857
15296SOL    HW246233   7.413   3.905   6.714
15297SOL     OW46234   6.014   4.148   6.106
15297SOL    HW146235   6.044   4.076   6.044
15297SOL    HW246236   5.975   4.108   6.189
15298SOL     OW46237   7.291   5.211   6.690
15298SOL    HW146238   7.198   5.186   6.663
15298SOL    HW246239   7.317   5.161   6.772
15299SOL     OW46240   5.903   4.271   6.866
15299SOL    HW146241   5.941   4.212   6.938
15299SOL    HW246242   5.943   4.245   6.778
15300SOL     OW46243   6.398   5.310   6.273
15300SOL    HW146244   6.430   5.320   6.179
15300SOL    HW246245   6.319   5.248   6.275
15301SOL     OW46246   7.010   3.938   6.698
15301SOL    HW146247   7.062   3.873   6.753
15301SOL    HW246248   6.961   4.001   6.759
15302SOL     OW46249   6.587   3.758   6.740
15302SOL    HW146250   6.524   3.686   6.709
15302SOL    HW246251   6.680   3.722   6.740
15303SOL     OW46252   6.356   5.054   5.887
15303SOL    HW146253   6.310   4.967   5.904
15303SOL    HW246254   6.447   5.051   5.928
15304SOL     OW46255   6.204   5.291   6.870
15304SOL    HW146256   6.199   5.373   6.927
15304SOL    HW246257   6.293   5.288   6.825
15305SOL     OW46258   6.938   3.776   5.754
15305SOL    HW146259   6.973   3.735   5.670
15305SOL    HW246260   6.848   3.738   5.774
15306SOL     OW46261   6.886   4.177   6.277
15306SOL    HW146262   6.827   4.257   6.281
15306SOL    HW246263   6.901   4.142   6.370
15307SOL     OW46264   7.179   3.945   6.468
15307SOL    HW146265   7.095   3.944   6.522
15307SOL    HW246266   7.181   4.028   6.412
15308SOL     OW46267   5.625   4.801   5.886
15308SOL    HW146268   5.724   4.790   5.877
15308SOL    HW246269   5.585   4.715   5.918
15309SOL     OW46270   6.461   5.370   5.923
15309SOL    HW146271   6.384   5.335   5.869
15309SOL    HW246272   6.429   5.441   5.985
15310SOL     OW46273   7.341   4.331   7.679
15310SOL    HW146274   7.329   4.318   7.580
15310SOL    HW246275   7.311   4.250   7.728
15311SOL     OW46276   5.817   5.437   7.931
15311SOL    HW146277   5.851   5.514   7.985
15311SOL    HW246278   5.861   5.437   7.841
15312SOL     OW46279   5.613   5.320   7.565
15312SOL    HW146280   5.594   5.224   7.586
15312SOL    HW246281   5.580   5.378   7.640
15313SOL     OW46282   7.111   4.723   7.638
15313SOL    HW146283   7.048   4.647   7.651
15313SOL    HW246284   7.159   4.741   7.724
15314SOL     OW46285   5.907   4.667   7.690
15314SOL    HW146286   5.989   4.706   7.648
15314SOL    HW246287   5.880   4.585   7.641
15315SOL     OW46288   6.697   5.500   7.685
15315SOL    HW146289   6.637   5.438   7.735
15315SOL    HW246290   6.728   5.456   7.600
15316SOL     OW46291   7.218   5.101   7.529
15316SOL    HW146292   7.186   5.195   7.519
15316SOL    HW246293   7.142   5.038   7.517
15317SOL     OW46294   6.050   5.467   7.771
15317SOL    HW146295   6.083   5.506   7.857
15317SOL    HW246296   6.126   5.460   7.706
15318SOL     OW46297   7.020   4.912   7.489
15318SOL    HW146298   7.052   4.836   7.546
15318SOL    HW246299   6.928   4.939   7.519
15319SOL     OW46300   6.618   4.273   7.464
15319SOL    HW146301   6.577   4.355   7.425
15319SOL    HW246302   6.682   4.299   7.537
15320SOL     OW46303   6.074   5.109   7.622
15320SOL    HW146304   5.987   5.094   7.669
15320SOL    HW246305   6.057   5.135   7.527
15321SOL     OW46306   6.976   4.299   7.526
15321SOL    HW146307   6.922   4.278   7.607
15321SOL    HW246308   7.067   4.258   7.535
15322SOL     OW46309   5.953   4.824   7.949
15322SOL    HW146310   5.946   4.907   7.893
15322SOL    HW246311   5.957   4.744   7.889
15323SOL     OW46312   7.126   3.998   7.573
15323SOL    HW146313   7.065   3.923   7.596
15323SOL    HW246314   7.148   4.050   7.656
15324SOL     OW46315   6.889   4.562   7.490
15324SOL    HW146316   6.923   4.469   7.505
15324SOL    HW246317   6.907   4.589   7.395
15325SOL     OW46318   5.594   5.050   7.648
15325SOL    HW146319   5.501   5.071   7.617
15325SOL    HW246320   5.604   4.951   7.661
15326SOL     OW46321   6.059   4.224   7.639
15326SOL    HW146322   6.120   4.304   7.643
15326SOL    HW246323   5.964   4.255   7.646
15327SOL     OW46324   6.258   5.340   7.602
15327SOL    HW146325   6.267   5.350   7.503
15327SOL    HW246326   6.218   5.251   7.623
15328SOL     OW46327   6.780   5.336   7.479
15328SOL    HW146328   6.786   5.243   7.516
15328SOL    HW246329   6.721   5.336   7.399
15329SOL     OW46330   7.090   5.331   7.492
15329SOL    HW146331   6.998   5.368   7.499
15329SOL    HW246332   7.128   5.351   7.402
15330SOL     OW46333   6.176   5.211   7.939
15330SOL    HW146334   6.218   5.153   7.869
15330SOL    HW246335   6.132   5.290   7.895
15331SOL     OW46336   5.841   5.072   7.738
15331SOL    HW146337   5.745   5.073   7.711
15331SOL    HW246338   5.853   5.125   7.822
15332SOL     OW46339   5.661   4.069   7.481
15332SOL    HW146340   5.569   4.041   7.452
15332SOL    HW246341   5.692   4.146   7.425
15333SOL     OW46342   6.769   5.059   7.567
15333SOL    HW146343   6.670   5.048   7.569
15333SOL    HW246344   6.803   5.074   7.660
15334SOL     OW46345   6.445   5.098   7.464
15334SOL    HW146346   6.399   5.113   7.552
15334SOL    HW246347   6.489   5.183   7.434
15335SOL     OW46348   6.669   4.708   7.535
15335SOL    HW146349   6.646   4.761   7.453
15335SOL    HW246350   6.750   4.652   7.516
15336SOL     OW46351   6.938   3.776   7.616
15336SOL    HW146352   6.973   3.735   7.532
15336SOL    HW246353   6.848   3.738   7.636
15337SOL     OW46354   5.625   4.801   7.748
15337SOL    HW146355   5.724   4.790   7.739
15337SOL    HW246356   5.585   4.715   7.780
15338SOL     OW46357   6.461   5.370   7.785
15338SOL    HW146358   6.384   5.335   7.731
15338SOL    HW246359   6.429   5.441   7.847
15339SOL     OW46360   5.816   6.214   0.113
15339SOL    HW146361   5.723   6.212   0.150
15339SOL    HW246362   5.817   6.175   0.021
15340SOL     OW46363   5.811   5.861   0.996
15340SOL    HW146364   5.846   5.844   1.088
15340SOL    HW246365   5.723   5.816   0.984
15341SOL     OW46366   5.605   5.954   0.647
15341SOL    HW146367   5.523   5.997   0.686
15341SOL    HW246368   5.577   5.881   0.584
15342SOL     OW46369   6.155   6.861   1.165
15342SOL    HW146370   6.062   6.854   1.128
15342SOL    HW246371   6.166   6.950   1.209
15343SOL     OW46372   7.141   7.097   0.703
15343SOL    HW146373   7.084   7.081   0.784
15343SOL    HW246374   7.082   7.107   0.623
15344SOL     OW46375   6.721   6.289   0.717
15344SOL    HW146376   6.778   6.367   0.692
15344SOL    HW246377   6.661   6.315   0.793
15345SOL     OW46378   6.354   6.730   1.023
15345SOL    HW146379   6.276   6.747   1.083
15345SOL    HW246380   6.388   6.817   0.987
15346SOL     OW46381   6.436   6.384   1.823
15346SOL    HW146382   6.432   6.460   1.888
15346SOL    HW246383   6.458   6.420   1.732
15347SOL     OW46384   6.271   6.598   0.665
15347SOL    HW146385   6.340   6.582   0.735
15347SOL    HW246386   6.198   6.655   0.703
15348SOL     OW46387   5.921   7.021   1.061
15348SOL    HW146388   5.843   6.990   1.008
15348SOL    HW246389   5.979   7.079   1.004
15349SOL     OW46390   7.046   7.091   1.339
15349SOL    HW146391   7.070   7.185   1.365
15349SOL    HW246392   7.030   7.037   1.421
15350SOL     OW46393   6.024   5.978   1.499
15350SOL    HW146394   6.106   5.922   1.508
15350SOL    HW246395   5.943   5.920   1.503
15351SOL     OW46396   7.189   6.033   0.737
15351SOL    HW146397   7.115   6.079   0.687
15351SOL    HW246398   7.240   6.101   0.790
15352SOL     OW46399   5.817   7.299   0.483
15352SOL    HW146400   5.851   7.376   0.537
15352SOL    HW246401   5.861   7.299   0.393
15353SOL     OW46402   5.816   7.020   0.538
15353SOL    HW146403   5.790   7.116   0.538
15353SOL    HW246404   5.745   6.966   0.583
15354SOL     OW46405   5.826   6.677   0.886
15354SOL    HW146406   5.840   6.593   0.938
15354SOL    HW246407   5.771   6.741   0.941
15355SOL     OW46408   6.206   7.372   1.439
15355SOL    HW146409   6.114   7.355   1.474
15355SOL    HW246410   6.234   7.464   1.465
15356SOL     OW46411   6.192   6.550   0.123
15356SOL    HW146412   6.199   6.634   0.069
15356SOL    HW246413   6.238   6.563   0.211
15357SOL     OW46414   7.180   5.700   1.480
15357SOL    HW146415   7.162   5.767   1.408
15357SOL    HW246416   7.177   5.746   1.569
15358SOL     OW46417   5.708   6.229   0.563
15358SOL    HW146418   5.663   6.141   0.580
15358SOL    HW246419   5.707   6.283   0.647
15359SOL     OW46420   7.428   7.353   0.359
15359SOL    HW146421   7.482   7.324   0.439
15359SOL    HW246422   7.458   7.443   0.330
15360SOL     OW46423   5.613   7.182   0.117
15360SOL    HW146424   5.594   7.086   0.138
15360SOL    HW246425   5.580   7.240   0.192
15361SOL     OW46426   7.275   6.508   0.612
15361SOL    HW146427   7.370   6.479   0.620
15361SOL    HW246428   7.267   6.573   0.537
15362SOL     OW46429   7.227   6.694   0.432
15362SOL    HW146430   7.313   6.696   0.380
15362SOL    HW246431   7.241   6.741   0.520
15363SOL     OW46432   6.199   6.951   0.726
15363SOL    HW146433   6.150   6.864   0.735
15363SOL    HW246434   6.176   6.994   0.639
15364SOL     OW46435   6.879   6.814   1.423
15364SOL    HW146436   6.916   6.741   1.365
15364SOL    HW246437   6.931   6.819   1.508
15365SOL     OW46438   6.395   5.590   0.502
15365SOL    HW146439   6.435   5.681   0.493
15365SOL    HW246440   6.295   5.598   0.508
15366SOL     OW46441   5.783   6.562   1.264
15366SOL    HW146442   5.872   6.517   1.250
15366SOL    HW246443   5.710   6.497   1.245
15367SOL     OW46444   6.773   7.378   1.616
15367SOL    HW146445   6.797   7.438   1.540
15367SOL    HW246446   6.780   7.283   1.586
15368SOL     OW46447   5.903   5.837   1.801
15368SOL    HW146448   5.974   5.908   1.807
15368SOL    HW246449   5.815   5.876   1.829
15369SOL     OW46450   7.052   7.003   0.953
15369SOL    HW146451   6.993   7.009   1.033
15369SOL    HW246452   7.037   6.915   0.907
15370SOL     OW46453   7.253   7.300   0.572
15370SOL    HW146454   7.212   7.277   0.484
15370SOL    HW246455   7.235   7.226   0.637
15371SOL     OW46456   6.184   6.315   0.270
15371SOL    HW146457   6.208   6.384   0.202
15371SOL    HW246458   6.106   6.348   0.324
15372SOL     OW46459   6.867   5.931   0.944
15372SOL    HW146460   6.781   5.881   0.931
15372SOL    HW246461   6.929   5.877   1.000
15373SOL     OW46462   7.162   7.248   0.307
15373SOL    HW146463   7.251   7.294   0.310
15373SOL    HW246464   7.141   7.224   0.212
15374SOL     OW46465   6.393   6.191   1.465
15374SOL    HW146466   6.346   6.188   1.554
15374SOL    HW246467   6.342   6.136   1.399
15375SOL     OW46468   6.980   6.055   1.674
15375SOL    HW146469   6.960   6.098   1.762
15375SOL    HW246470   7.058   5.993   1.683
15376SOL     OW46471   6.559   6.476   1.572
15376SOL    HW146472   6.605   6.392   1.543
15376SOL    HW246473   6.503   6.510   1.497
15377SOL     OW46474   6.577   5.996   1.242
15377SOL    HW146475   6.500   6.030   1.296
15377SOL    HW246476   6.543   5.945   1.163
15378SOL     OW46477   5.662   6.397   0.789
15378SOL    HW146478   5.761   6.385   0.798
15378SOL    HW246479   5.638   6.492   0.810
15379SOL     OW46480   5.716   7.407   1.571
15379SOL    HW146481   5.706   7.392   1.670
15379SOL    HW246482   5.630   7.443   1.535
15380SOL     OW46483   7.305   6.171   1.831
15380SOL    HW146484   7.279   6.260   1.795
15380SOL    HW246485   7.303   6.103   1.758
15381SOL     OW46486   6.948   6.730   0.545
15381SOL    HW146487   7.031   6.701   0.497
15381SOL    HW246488   6.899   6.797   0.489
15382SOL     OW46489   6.136   5.782   0.885
15382SOL    HW146490   6.131   5.777   0.985
15382SOL    HW246491   6.138   5.878   0.856
15383SOL     OW46492   6.594   7.042   0.477
15383SOL    HW146493   6.548   7.114   0.425
15383SOL    HW246494   6.590   7.062   0.575
15384SOL     OW46495   5.937   7.387   0.853
15384SOL    HW146496   5.987   7.301   0.859
15384SOL    HW246497   6.002   7.464   0.850
15385SOL     OW46498   7.381   6.652   0.873
15385SOL    HW146499   7.319   6.637   0.797
15385SOL    HW246500   7.329   6.663   0.958
15386SOL     OW46501   5.907   6.529   0.242
15386SOL    HW146502   5.989   6.568   0.200
15386SOL    HW246503   5.880   6.447   0.193
15387SOL     OW46504   7.044   6.321   0.728
15387SOL    HW146505   7.039   6.256   0.803
15387SOL    HW246506   7.124   6.380   0.741
15388SOL     OW46507   5.788   5.871   1.498
15388SOL    HW146508   5.708   5.931   1.485
15388SOL    HW246509   5.778   5.822   1.584
15389SOL     OW46510   6.050   7.329   0.323
15389SOL    HW146511   6.083   7.368   0.409
15389SOL    HW246512   6.126   7.322   0.258
15390SOL     OW46513   6.986   5.693   0.426
15390SOL    HW146514   6.962   5.656   0.336
15390SOL    HW246515   7.085   5.709   0.430
15391SOL     OW46516   5.835   7.371   1.241
15391SOL    HW146517   5.892   7.306   1.291
15391SOL    HW246518   5.819   7.338   1.148
15392SOL     OW46519   6.526   7.284   0.904
15392SOL    HW146520   6.606   7.227   0.925
15392SOL    HW246521   6.477   7.244   0.827
15393SOL     OW46522   5.968   6.286   0.480
15393SOL    HW146523   6.013   6.196   0.477
15393SOL    HW246524   5.874   6.275   0.513
15394SOL     OW46525   7.133   5.808   1.729
15394SOL    HW146526   7.128   5.845   1.821
15394SOL    HW246527   7.061   5.739   1.717
15395SOL     OW46528   6.200   5.708   0.117
15395SOL    HW146529   6.298   5.686   0.124
15395SOL    HW246530   6.169   5.691   0.024
15396SOL     OW46531   6.367   5.850   1.749
15396SOL    HW146532   6.434   5.789   1.792
15396SOL    HW246533   6.294   5.869   1.814
15397SOL     OW46534   6.474   7.100   1.195
15397SOL    HW146535   6.451   7.075   1.101
15397SOL    HW246536   6.535   7.031   1.234
15398SOL     OW46537   6.937   6.176   1.433
15398SOL    HW146538   6.965   6.133   1.518
15398SOL    HW246539   6.962   6.272   1.434
15399SOL     OW46540   6.389   6.988   0.924
15399SOL    HW146541   6.479   7.002   0.882
15399SOL    HW246542   6.318   6.990   0.853
15400SOL     OW46543   6.508   6.089   0.899
15400SOL    HW146544   6.483   6.080   0.803
15400SOL    HW246545   6.556   6.007   0.930
15401SOL     OW46546   6.125   5.650   0.512
15401SOL    HW146547   6.044   5.651   0.570
15401SOL    HW246548   6.128   5.733   0.457
15402SOL     OW46549   5.883   5.621   0.171
15402SOL    HW146550   5.932   5.705   0.150
15402SOL    HW246551   5.945   5.556   0.216
15403SOL     OW46552   6.521   5.822   0.480
15403SOL    HW146553   6.473   5.863   0.402
15403SOL    HW246554   6.620   5.820   0.461
15404SOL     OW46555   6.662   6.269   1.464
15404SOL    HW146556   6.582   6.208   1.467
15404SOL    HW246557   6.743   6.216   1.440
15405SOL     OW46558   6.813   7.156   0.793
15405SOL    HW146559   6.834   7.230   0.728
15405SOL    HW246560   6.881   7.156   0.866
15406SOL     OW46561   6.045   6.738   0.741
15406SOL    HW146562   5.974   6.711   0.806
15406SOL    HW246563   6.019   6.710   0.648
15407SOL     OW46564   6.857   7.383   0.591
15407SOL    HW146565   6.901   7.447   0.527
15407SOL    HW246566   6.807   7.435   0.661
15408SOL     OW46567   5.664   6.142   1.386
15408SOL    HW146568   5.756   6.141   1.345
15408SOL    HW246569   5.658   6.216   1.453
15409SOL     OW46570   6.147   5.808   1.147
15409SOL    HW146571   6.185   5.724   1.184
15409SOL    HW246572   6.059   5.827   1.191
15410SOL     OW46573   6.452   6.040   0.642
15410SOL    HW146574   6.420   6.112   0.580
15410SOL    HW246575   6.476   5.959   0.589
15411SOL     OW46576   6.603   5.625   0.753
15411SOL    HW146577   6.531   5.630   0.684
15411SOL    HW246578   6.579   5.556   0.822
15412SOL     OW46579   7.015   6.759   0.867
15412SOL    HW146580   6.960   6.675   0.860
15412SOL    HW246581   7.041   6.788   0.775
15413SOL     OW46582   7.052   6.176   0.992
15413SOL    HW146583   7.022   6.081   0.999
15413SOL    HW246584   7.125   6.192   1.058
15414SOL     OW46585   7.443   6.419   0.377
15414SOL    HW146586   7.485   6.355   0.441
15414SOL    HW246587   7.405   6.368   0.299
15415SOL     OW46588   6.074   6.971   0.174
15415SOL    HW146589   5.987   6.956   0.221
15415SOL    HW246590   6.057   6.997   0.079
15416SOL     OW46591   7.250   6.866   0.657
15416SOL    HW146592   7.349   6.874   0.671
15416SOL    HW246593   7.205   6.950   0.688
15417SOL     OW46594   6.113   5.842   0.328
15417SOL    HW146595   6.140   5.783   0.253
15417SOL    HW246596   6.113   5.937   0.297
15418SOL     OW46597   7.340   6.809   1.588
15418SOL    HW146598   7.431   6.770   1.575
15418SOL    HW246599   7.348   6.905   1.612
15419SOL     OW46600   6.650   6.933   1.340
15419SOL    HW146601   6.570   6.910   1.395
15419SOL    HW246602   6.733   6.907   1.389
15420SOL     OW46603   7.178   7.215   1.625
15420SOL    HW146604   7.205   7.249   1.535
15420SOL    HW246605   7.257   7.177   1.671
15421SOL     OW46606   6.697   6.781   1.100
15421SOL    HW146607   6.657   6.825   1.181
15421SOL    HW246608   6.656   6.818   1.017
15422SOL     OW46609   7.224   6.685   1.079
15422SOL    HW146610   7.229   6.766   1.138
15422SOL    HW246611   7.138   6.687   1.028
15423SOL     OW46612   6.501   5.675   1.402
15423SOL    HW146613   6.526   5.655   1.307
15423SOL    HW246614   6.573   5.731   1.444
15424SOL     OW46615   6.291   6.636   0.368
15424SOL    HW146616   6.277   6.643   0.467
15424SOL    HW246617   6.375   6.585   0.350
15425SOL     OW46618   5.996   6.399   1.251
15425SOL    HW146619   6.082   6.411   1.301
15425SOL    HW246620   5.954   6.312   1.278
15426SOL     OW46621   6.860   5.972   1.262
15426SOL    HW146622   6.881   6.046   1.326
15426SOL    HW246623   6.771   5.989   1.219
15427SOL     OW46624   5.650   7.150   1.331
15427SOL    HW146625   5.604   7.232   1.297
15427SOL    HW246626   5.748   7.169   1.340
15428SOL     OW46627   5.953   6.686   0.501
15428SOL    HW146628   5.946   6.769   0.445
15428SOL    HW246629   5.957   6.606   0.441
15429SOL     OW46630   6.152   6.123   0.865
15429SOL    HW146631   6.164   6.189   0.791
15429SOL    HW246632   6.198   6.157   0.948
15430SOL     OW46633   6.838   6.934   0.388
15430SOL    HW146634   6.888   7.011   0.428
15430SOL    HW246635   6.743   6.936   0.420
15431SOL     OW46636   6.858   7.031   1.142
15431SOL    HW146637   6.905   7.044   1.229
15431SOL    HW246638   6.792   6.957   1.151
15432SOL     OW46639   7.168   6.225   0.472
15432SOL    HW146640   7.137   6.286   0.545
15432SOL    HW246641   7.218   6.277   0.403
15433SOL     OW46642   5.940   7.096   1.329
15433SOL    HW146643   5.919   7.052   1.242
15433SOL    HW246644   6.037   7.122   1.332
15434SOL     OW46645   5.988   6.337   1.598
15434SOL    HW146646   6.056   6.392   1.551
15434SOL    HW246647   6.028   6.249   1.625
15435SOL     OW46648   7.173   6.365   1.670
15435SOL    HW146649   7.081   6.403   1.665
15435SOL    HW246650   7.233   6.412   1.605
15436SOL     OW46651   6.599   5.691   1.770
15436SOL    HW146652   6.605   5.776   1.718
15436SOL    HW246653   6.631   5.615   1.713
15437SOL     OW46654   6.090   5.636   1.740
15437SOL    HW146655   6.048   5.579   1.670
15437SOL    HW246656   6.024   5.705   1.772
15438SOL     OW46657   6.159   6.456   1.029
15438SOL    HW146658   6.203   6.545   1.020
15438SOL    HW246659   6.096   6.456   1.106
15439SOL     OW46660   6.946   6.448   1.045
15439SOL    HW146661   6.871   6.448   0.979
15439SOL    HW246662   6.983   6.356   1.054
15440SOL     OW46663   5.893   5.799   1.231
15440SOL    HW146664   5.870   5.836   1.321
15440SOL    HW246665   5.863   5.704   1.225
15441SOL     OW46666   5.623   6.896   1.282
15441SOL    HW146667   5.676   6.847   1.350
15441SOL    HW246668   5.645   6.994   1.287
15442SOL     OW46669   6.318   6.220   1.064
15442SOL    HW146670   6.377   6.194   0.988
15442SOL    HW246671   6.290   6.316   1.053
15443SOL     OW46672   7.314   6.521   1.854
15443SOL    HW146673   7.268   6.514   1.765
15443SOL    HW246674   7.252   6.565   1.920
15444SOL     OW46675   5.893   5.649   0.618
15444SOL    HW146676   5.882   5.743   0.651
15444SOL    HW246677   5.888   5.586   0.695
15445SOL     OW46678   6.609   6.352   0.966
15445SOL    HW146679   6.624   6.373   1.062
15445SOL    HW246680   6.579   6.257   0.957
15446SOL     OW46681   7.445   7.104   1.605
15446SOL    HW146682   7.459   7.131   1.510
15446SOL    HW246683   7.528   7.126   1.658
15447SOL     OW46684   6.654   6.919   0.849
15447SOL    HW146685   6.661   6.835   0.794
15447SOL    HW246686   6.716   6.988   0.813
15448SOL     OW46687   5.905   6.396   0.949
15448SOL    HW146688   5.998   6.432   0.954
15448SOL    HW246689   5.899   6.311   1.001
15449SOL     OW46690   5.925   6.095   1.006
15449SOL    HW146691   5.873   6.012   0.989
15449SOL    HW246692   6.002   6.100   0.942
15450SOL     OW46693   6.724   5.966   1.678
15450SOL    HW146694   6.679   6.029   1.742
15450SOL    HW246695   6.817   5.997   1.661
15451SOL     OW46696   6.746   5.793   1.477
15451SOL    HW146697   6.746   5.857   1.554
15451SOL    HW246698   6.774   5.841   1.394
15452SOL     OW46699   5.594   6.912   0.200
15452SOL    HW146700   5.501   6.933   0.169
15452SOL    HW246701   5.604   6.813   0.213
15453SOL     OW46702   5.674   7.387   0.927
15453SOL    HW146703   5.632   7.301   0.900
15453SOL    HW246704   5.768   7.390   0.893
15454SOL     OW46705   6.090   7.154   0.910
15454SOL    HW146706   6.156   7.228   0.919
15454SOL    HW246707   6.134   7.075   0.868
15455SOL     OW46708   6.588   6.382   1.238
15455SOL    HW146709   6.629   6.350   1.324
15455SOL    HW246710   6.492   6.355   1.235
15456SOL     OW46711   5.626   6.130   1.114
15456SOL    HW146712   5.711   6.097   1.073
15456SOL    HW246713   5.639   6.145   1.212
15457SOL     OW46714   5.775   6.106   1.722
15457SOL    HW146715   5.834   6.066   1.652
15457SOL    HW246716   5.717   6.177   1.681
15458SOL     OW46717   6.955   6.536   1.660
15458SOL    HW146718   6.994   6.625   1.680
15458SOL    HW246719   6.965   6.516   1.563
15459SOL     OW46720   7.243   6.190   1.206
15459SOL    HW146721   7.205   6.121   1.268
15459SOL    HW246722   7.325   6.154   1.162
15460SOL     OW46723   6.257   6.050   1.269
15460SOL    HW146724   6.223   5.961   1.239
15460SOL    HW246725   6.283   6.104   1.189
15461SOL     OW46726   6.516   7.264   1.465
15461SOL    HW146727   6.492   7.246   1.370
15461SOL    HW246728   6.546   7.358   1.475
15462SOL     OW46729   6.059   6.086   0.191
15462SOL    HW146730   6.120   6.166   0.195
15462SOL    HW246731   5.964   6.117   0.198
15463SOL     OW46732   6.933   6.645   1.234
15463SOL    HW146733   6.957   6.582   1.160
15463SOL    HW246734   6.843   6.685   1.216
15464SOL     OW46735   7.345   7.333   1.154
15464SOL    HW146736   7.406   7.363   1.081
15464SOL    HW246737   7.307   7.244   1.132
15465SOL     OW46738   6.838   7.317   1.128
15465SOL    HW146739   6.922   7.322   1.074
15465SOL    HW246740   6.815   7.221   1.146
15466SOL     OW46741   5.669   6.844   1.022
15466SOL    HW146742   5.664   6.843   1.122
15466SOL    HW246743   5.586   6.803   0.984
15467SOL     OW46744   6.274   7.248   1.716
15467SOL    HW146745   6.218   7.329   1.725
15467SOL    HW246746   6.326   7.252   1.630
15468SOL     OW46747   7.312   5.721   0.523
15468SOL    HW146748   7.385   5.704   0.456
15468SOL    HW246749   7.281   5.634   0.561
15469SOL     OW46750   6.974   7.159   0.477
15469SOL    HW146751   7.041   7.171   0.403
15469SOL    HW246752   6.934   7.248   0.500
15470SOL     OW46753   5.716   7.380   1.851
15470SOL    HW146754   5.675   7.306   1.904
15470SOL    HW246755   5.780   7.431   1.909
15471SOL     OW46756   6.866   6.513   0.672
15471SOL    HW146757   6.926   6.432   0.674
15471SOL    HW246758   6.906   6.582   0.612
15472SOL     OW46759   6.416   6.859   1.422
15472SOL    HW146760   6.411   6.892   1.517
15472SOL    HW246761   6.330   6.878   1.376
15473SOL     OW46762   7.236   7.306   1.394
15473SOL    HW146763   7.289   7.316   1.310
15473SOL    HW246764   7.209   7.396   1.428
15474SOL     OW46765   7.427   5.761   0.963
15474SOL    HW146766   7.466   5.676   0.927
15474SOL    HW246767   7.329   5.763   0.944
15475SOL     OW46768   5.849   5.912   0.720
15475SOL    HW146769   5.770   5.963   0.686
15475SOL    HW246770   5.840   5.897   0.818
15476SOL     OW46771   6.502   6.496   0.291
15476SOL    HW146772   6.565   6.534   0.223
15476SOL    HW246773   6.542   6.413   0.330
15477SOL     OW46774   5.958   6.874   1.490
15477SOL    HW146775   5.945   6.967   1.456
15477SOL    HW246776   5.874   6.822   1.477
15478SOL     OW46777   7.200   6.878   1.289
15478SOL    HW146778   7.260   6.881   1.369
15478SOL    HW246779   7.125   6.942   1.302
15479SOL     OW46780   6.625   6.684   0.696
15479SOL    HW146781   6.555   6.637   0.750
15479SOL    HW246782   6.684   6.616   0.653
15480SOL     OW46783   6.600   5.822   0.971
15480SOL    HW146784   6.592   5.786   0.878
15480SOL    HW246785   6.598   5.746   1.036
15481SOL     OW46786   6.176   7.073   0.491
15481SOL    HW146787   6.218   7.015   0.421
15481SOL    HW246788   6.132   7.152   0.447
15482SOL     OW46789   7.295   5.971   1.381
15482SOL    HW146790   7.368   6.040   1.385
15482SOL    HW246791   7.323   5.896   1.322
15483SOL     OW46792   5.841   6.934   0.290
15483SOL    HW146793   5.745   6.935   0.263
15483SOL    HW246794   5.853   6.987   0.374
15484SOL     OW46795   6.258   5.789   1.489
15484SOL    HW146796   6.348   5.773   1.449
15484SOL    HW246797   6.266   5.794   1.588
15485SOL     OW46798   5.661   5.931   0.033
15485SOL    HW146799   5.569   5.903   0.004
15485SOL    HW246800   5.692   6.008  -0.023
15486SOL     OW46801   7.026   6.442   1.398
15486SOL    HW146802   6.969   6.494   1.335
15486SOL    HW246803   7.122   6.454   1.374
15487SOL     OW46804   5.658   5.752   0.318
15487SOL    HW146805   5.641   5.835   0.264
15487SOL    HW246806   5.748   5.715   0.296
15488SOL     OW46807   6.199   6.428   1.431
15488SOL    HW146808   6.255   6.509   1.414
15488SOL    HW246809   6.258   6.348   1.434
15489SOL     OW46810   7.079   7.353   0.959
15489SOL    HW146811   7.112   7.417   0.890
15489SOL    HW246812   7.145   7.347   1.034
15490SOL     OW46813   6.302   6.151   1.708
15490SOL    HW146814   6.321   6.216   1.782
15490SOL    HW246815   6.362   6.071   1.717
15491SOL     OW46816   7.036   6.806   1.633
15491SOL    HW146817   7.027   6.796   1.732
15491SOL    HW246818   7.132   6.799   1.607
15492SOL     OW46819   5.976   7.327   1.560
15492SOL    HW146820   5.885   7.368   1.558
15492SOL    HW246821   5.969   7.233   1.592
15493SOL     OW46822   7.260   6.469   1.254
15493SOL    HW146823   7.233   6.380   1.217
15493SOL    HW246824   7.261   6.537   1.181
15494SOL     OW46825   6.811   5.911   0.449
15494SOL    HW146826   6.876   5.837   0.438
15494SOL    HW246827   6.831   5.961   0.533
15495SOL     OW46828   6.180   6.331   0.652
15495SOL    HW146829   6.230   6.416   0.633
15495SOL    HW246830   6.092   6.333   0.604
15496SOL     OW46831   7.363   5.928   1.642
15496SOL    HW146832   7.346   5.959   1.548
15496SOL    HW246833   7.279   5.891   1.680
15497SOL     OW46834   7.316   6.520   1.517
15497SOL    HW146835   7.354   6.611   1.532
15497SOL    HW246836   7.308   6.503   1.418
15498SOL     OW46837   6.247   7.376   0.953
15498SOL    HW146838   6.201   7.464   0.940
15498SOL    HW246839   6.346   7.388   0.946
15499SOL     OW46840   6.445   6.542   0.861
15499SOL    HW146841   6.499   6.473   0.909
15499SOL    HW246842   6.413   6.611   0.927
15500SOL     OW46843   7.447   7.155   0.851
15500SOL    HW146844   7.376   7.143   0.781
15500SOL    HW246845   7.448   7.076   0.911
15501SOL     OW46846   5.665   6.826   0.653
15501SOL    HW146847   5.664   6.779   0.741
15501SOL    HW246848   5.747   6.798   0.602
15502SOL     OW46849   7.410   5.778   1.227
15502SOL    HW146850   7.406   5.688   1.271
15502SOL    HW246851   7.413   5.767   1.128
15503SOL     OW46852   6.014   6.010   0.520
15503SOL    HW146853   6.044   5.938   0.458
15503SOL    HW246854   5.975   5.970   0.603
15504SOL     OW46855   7.291   7.073   1.104
15504SOL    HW146856   7.198   7.048   1.077
15504SOL    HW246857   7.317   7.023   1.186
15505SOL     OW46858   5.903   6.133   1.280
15505SOL    HW146859   5.941   6.074   1.352
15505SOL    HW246860   5.943   6.107   1.192
15506SOL     OW46861   6.398   7.172   0.687
15506SOL    HW146862   6.430   7.182   0.593
15506SOL    HW246863   6.319   7.110   0.689
15507SOL     OW46864   7.010   5.800   1.112
15507SOL    HW146865   7.062   5.735   1.167
15507SOL    HW246866   6.961   5.863   1.173
15508SOL     OW46867   6.587   5.620   1.154
15508SOL    HW146868   6.524   5.548   1.123
15508SOL    HW246869   6.680   5.584   1.154
15509SOL     OW46870   6.356   6.916   0.301
15509SOL    HW146871   6.310   6.829   0.318
15509SOL    HW246872   6.447   6.913   0.342
15510SOL     OW46873   6.204   7.153   1.284
15510SOL    HW146874   6.199   7.235   1.341
15510SOL    HW246875   6.293   7.150   1.239
15511SOL     OW46876   6.886   6.039   0.691
15511SOL    HW146877   6.827   6.119   0.695
15511SOL    HW246878   6.901   6.004   0.784
15512SOL     OW46879   7.179   5.807   0.882
15512SOL    HW146880   7.095   5.806   0.936
15512SOL    HW246881   7.181   5.890   0.826
15513SOL     OW46882   5.625   6.663   0.300
15513SOL    HW146883   5.724   6.652   0.291
15513SOL    HW246884   5.585   6.577   0.332
15514SOL     OW46885   6.461   7.232   0.337
15514SOL    HW146886   6.384   7.197   0.283
15514SOL    HW246887   6.429   7.303   0.399
15515SOL     OW46888   5.816   6.214   1.975
15515SOL    HW146889   5.723   6.212   2.012
15515SOL    HW246890   5.817   6.175   1.883
15516SOL     OW46891   5.605   5.954   2.509
15516SOL    HW146892   5.523   5.997   2.548
15516SOL    HW246893   5.577   5.881   2.446
15517SOL     OW46894   6.155   6.861   3.027
15517SOL    HW146895   6.062   6.854   2.990
15517SOL    HW246896   6.166   6.950   3.071
15518SOL     OW46897   7.141   7.097   2.565
15518SOL    HW146898   7.084   7.081   2.646
15518SOL    HW246899   7.082   7.107   2.485
15519SOL     OW46900   6.721   6.289   2.579
15519SOL    HW146901   6.778   6.367   2.554
15519SOL    HW246902   6.661   6.315   2.655
15520SOL     OW46903   7.341   6.193   2.093
15520SOL    HW146904   7.329   6.180   1.994
15520SOL    HW246905   7.311   6.112   2.142
15521SOL     OW46906   6.354   6.730   2.885
15521SOL    HW146907   6.276   6.747   2.945
15521SOL    HW246908   6.388   6.817   2.849
15522SOL     OW46909   6.436   6.384   3.685
15522SOL    HW146910   6.432   6.460   3.750
15522SOL    HW246911   6.458   6.420   3.594
15523SOL     OW46912   6.271   6.598   2.527
15523SOL    HW146913   6.340   6.582   2.597
15523SOL    HW246914   6.198   6.655   2.565
15524SOL     OW46915   6.272   6.747   3.665
15524SOL    HW146916   6.332   6.826   3.679
15524SOL    HW246917   6.186   6.778   3.624
15525SOL     OW46918   5.921   7.021   2.923
15525SOL    HW146919   5.843   6.990   2.870
15525SOL    HW246920   5.979   7.079   2.866
15526SOL     OW46921   7.046   7.091   3.201
15526SOL    HW146922   7.070   7.185   3.227
15526SOL    HW246923   7.030   7.037   3.283
15527SOL     OW46924   6.024   5.978   3.361
15527SOL    HW146925   6.106   5.922   3.370
15527SOL    HW246926   5.943   5.920   3.365
15528SOL     OW46927   7.189   6.033   2.599
15528SOL    HW146928   7.115   6.079   2.549
15528SOL    HW246929   7.240   6.101   2.652
15529SOL     OW46930   5.817   7.299   2.345
15529SOL    HW146931   5.851   7.376   2.399
15529SOL    HW246932   5.861   7.299   2.255
15530SOL     OW46933   6.713   6.927   3.552
15530SOL    HW146934   6.760   6.927   3.640
15530SOL    HW246935   6.665   6.840   3.541
15531SOL     OW46936   5.816   7.020   2.400
15531SOL    HW146937   5.790   7.116   2.400
15531SOL    HW246938   5.745   6.966   2.445
15532SOL     OW46939   5.826   6.677   2.748
15532SOL    HW146940   5.840   6.593   2.800
15532SOL    HW246941   5.771   6.741   2.803
15533SOL     OW46942   6.206   7.372   3.301
15533SOL    HW146943   6.114   7.355   3.336
15533SOL    HW246944   6.234   7.464   3.327
15534SOL     OW46945   6.192   6.550   1.985
15534SOL    HW146946   6.199   6.634   1.931
15534SOL    HW246947   6.238   6.563   2.073
15535SOL     OW46948   7.180   5.700   3.342
15535SOL    HW146949   7.162   5.767   3.270
15535SOL    HW246950   7.177   5.746   3.431
15536SOL     OW46951   7.428   7.353   2.221
15536SOL    HW146952   7.482   7.324   2.301
15536SOL    HW246953   7.458   7.443   2.192
15537SOL     OW46954   5.613   7.182   1.979
15537SOL    HW146955   5.594   7.086   2.000
15537SOL    HW246956   5.580   7.240   2.054
15538SOL     OW46957   7.275   6.508   2.474
15538SOL    HW146958   7.370   6.479   2.482
15538SOL    HW246959   7.267   6.573   2.399
15539SOL     OW46960   7.227   6.694   2.294
15539SOL    HW146961   7.313   6.696   2.242
15539SOL    HW246962   7.241   6.741   2.382
15540SOL     OW46963   5.699   6.323   3.459
15540SOL    HW146964   5.787   6.310   3.504
15540SOL    HW246965   5.686   6.420   3.437
15541SOL     OW46966   6.199   6.951   2.588
15541SOL    HW146967   6.150   6.864   2.597
15541SOL    HW246968   6.176   6.994   2.501
15542SOL     OW46969   6.879   6.814   3.285
15542SOL    HW146970   6.916   6.741   3.227
15542SOL    HW246971   6.931   6.819   3.370
15543SOL     OW46972   6.395   5.590   2.364
15543SOL    HW146973   6.435   5.681   2.355
15543SOL    HW246974   6.295   5.598   2.370
15544SOL     OW46975   7.111   6.585   2.052
15544SOL    HW146976   7.048   6.509   2.065
15544SOL    HW246977   7.159   6.603   2.138
15545SOL     OW46978   6.773   7.378   3.478
15545SOL    HW146979   6.797   7.438   3.402
15545SOL    HW246980   6.780   7.283   3.448
15546SOL     OW46981   5.903   5.837   3.663
15546SOL    HW146982   5.974   5.908   3.669
15546SOL    HW246983   5.815   5.876   3.691
15547SOL     OW46984   7.052   7.003   2.815
15547SOL    HW146985   6.993   7.009   2.895
15547SOL    HW246986   7.037   6.915   2.769
15548SOL     OW46987   7.253   7.300   2.434
15548SOL    HW146988   7.212   7.277   2.346
15548SOL    HW246989   7.235   7.226   2.499
15549SOL     OW46990   6.184   6.315   2.132
15549SOL    HW146991   6.208   6.384   2.064
15549SOL    HW246992   6.106   6.348   2.186
15550SOL     OW46993   6.867   5.931   2.806
15550SOL    HW146994   6.781   5.881   2.793
15550SOL    HW246995   6.929   5.877   2.862
15551SOL     OW46996   7.162   7.248   2.169
15551SOL    HW146997   7.251   7.294   2.172
15551SOL    HW246998   7.141   7.224   2.074
15552SOL     OW46999   6.393   6.191   3.327
15552SOL    HW147000   6.346   6.188   3.416
15552SOL    HW247001   6.342   6.136   3.261
15553SOL     OW47002   6.980   6.055   3.536
15553SOL    HW147003   6.960   6.098   3.624
15553SOL    HW247004   7.058   5.993   3.545
15554SOL     OW47005   6.559   6.476   3.434
15554SOL    HW147006   6.605   6.392   3.405
15554SOL    HW247007   6.503   6.510   3.359
15555SOL     OW47008   6.577   5.996   3.104
15555SOL    HW147009   6.500   6.030   3.158
15555SOL    HW247010   6.543   5.945   3.025
15556SOL     OW47011   6.627   6.287   2.291
15556SOL    HW147012   6.653   6.283   2.387
15556SOL    HW247013   6.542   6.236   2.277
15557SOL     OW47014   5.716   7.407   3.433
15557SOL    HW147015   5.706   7.392   3.532
15557SOL    HW247016   5.630   7.443   3.397
15558SOL     OW47017   6.451   5.934   2.057
15558SOL    HW147018   6.510   5.997   2.008
15558SOL    HW247019   6.470   5.840   2.028
15559SOL     OW47020   7.305   6.171   3.693
15559SOL    HW147021   7.279   6.260   3.657
15559SOL    HW247022   7.303   6.103   3.620
15560SOL     OW47023   6.948   6.730   2.407
15560SOL    HW147024   7.031   6.701   2.359
15560SOL    HW247025   6.899   6.797   2.351
15561SOL     OW47026   6.594   7.042   2.339
15561SOL    HW147027   6.548   7.114   2.287
15561SOL    HW247028   6.590   7.062   2.437
15562SOL     OW47029   5.937   7.387   2.715
15562SOL    HW147030   5.987   7.301   2.721
15562SOL    HW247031   6.002   7.464   2.712
15563SOL     OW47032   7.381   6.652   2.735
15563SOL    HW147033   7.319   6.637   2.659
15563SOL    HW247034   7.329   6.663   2.820
15564SOL     OW47035   6.813   7.136   3.368
15564SOL    HW147036   6.819   7.059   3.432
15564SOL    HW247037   6.761   7.110   3.288
15565SOL     OW47038   7.044   6.321   2.590
15565SOL    HW147039   7.039   6.256   2.665
15565SOL    HW247040   7.124   6.380   2.603
15566SOL     OW47041   6.047   6.852   3.589
15566SOL    HW147042   5.997   6.853   3.503
15566SOL    HW247043   5.984   6.834   3.665
15567SOL     OW47044   6.697   7.362   2.099
15567SOL    HW147045   6.637   7.300   2.149
15567SOL    HW247046   6.728   7.318   2.014
15568SOL     OW47047   5.788   5.871   3.360
15568SOL    HW147048   5.708   5.931   3.347
15568SOL    HW247049   5.778   5.822   3.446
15569SOL     OW47050   7.218   6.963   1.943
15569SOL    HW147051   7.186   7.057   1.933
15569SOL    HW247052   7.142   6.900   1.931
15570SOL     OW47053   6.986   5.693   2.288
15570SOL    HW147054   6.962   5.656   2.198
15570SOL    HW247055   7.085   5.709   2.292
15571SOL     OW47056   5.835   7.371   3.103
15571SOL    HW147057   5.892   7.306   3.153
15571SOL    HW247058   5.819   7.338   3.010
15572SOL     OW47059   6.526   7.284   2.766
15572SOL    HW147060   6.606   7.227   2.787
15572SOL    HW247061   6.477   7.244   2.689
15573SOL     OW47062   7.133   5.808   3.591
15573SOL    HW147063   7.128   5.845   3.683
15573SOL    HW247064   7.061   5.739   3.579
15574SOL     OW47065   6.200   5.708   1.979
15574SOL    HW147066   6.298   5.686   1.986
15574SOL    HW247067   6.169   5.691   1.886
15575SOL     OW47068   6.367   5.850   3.611
15575SOL    HW147069   6.434   5.789   3.654
15575SOL    HW247070   6.294   5.869   3.676
15576SOL     OW47071   6.474   7.100   3.057
15576SOL    HW147072   6.451   7.075   2.963
15576SOL    HW247073   6.535   7.031   3.096
15577SOL     OW47074   6.937   6.176   3.295
15577SOL    HW147075   6.965   6.133   3.380
15577SOL    HW247076   6.962   6.272   3.296
15578SOL     OW47077   6.389   6.988   2.786
15578SOL    HW147078   6.479   7.002   2.744
15578SOL    HW247079   6.318   6.990   2.715
15579SOL     OW47080   6.508   6.089   2.761
15579SOL    HW147081   6.483   6.080   2.665
15579SOL    HW247082   6.556   6.007   2.792
15580SOL     OW47083   6.125   5.650   2.374
15580SOL    HW147084   6.044   5.651   2.432
15580SOL    HW247085   6.128   5.733   2.319
15581SOL     OW47086   5.883   5.621   2.033
15581SOL    HW147087   5.932   5.705   2.012
15581SOL    HW247088   5.945   5.556   2.078
15582SOL     OW47089   6.521   5.822   2.342
15582SOL    HW147090   6.473   5.863   2.264
15582SOL    HW247091   6.620   5.820   2.323
15583SOL     OW47092   6.662   6.269   3.326
15583SOL    HW147093   6.582   6.208   3.329
15583SOL    HW247094   6.743   6.216   3.302
15584SOL     OW47095   6.813   7.156   2.655
15584SOL    HW147096   6.834   7.230   2.590
15584SOL    HW247097   6.881   7.156   2.728
15585SOL     OW47098   6.045   6.738   2.603
15585SOL    HW147099   5.974   6.711   2.668
15585SOL    HW247100   6.019   6.710   2.510
15586SOL     OW47101   6.857   7.383   2.453
15586SOL    HW147102   6.901   7.447   2.389
15586SOL    HW247103   6.807   7.435   2.523
15587SOL     OW47104   6.618   6.135   1.878
15587SOL    HW147105   6.577   6.217   1.839
15587SOL    HW247106   6.682   6.161   1.951
15588SOL     OW47107   6.147   5.808   3.009
15588SOL    HW147108   6.185   5.724   3.046
15588SOL    HW247109   6.059   5.827   3.053
15589SOL     OW47110   6.452   6.040   2.504
15589SOL    HW147111   6.420   6.112   2.442
15589SOL    HW247112   6.476   5.959   2.451
15590SOL     OW47113   6.603   5.625   2.615
15590SOL    HW147114   6.531   5.630   2.546
15590SOL    HW247115   6.579   5.556   2.684
15591SOL     OW47116   7.015   6.759   2.729
15591SOL    HW147117   6.960   6.675   2.722
15591SOL    HW247118   7.041   6.788   2.637
15592SOL     OW47119   7.052   6.176   2.854
15592SOL    HW147120   7.022   6.081   2.861
15592SOL    HW247121   7.125   6.192   2.920
15593SOL     OW47122   7.443   6.419   2.239
15593SOL    HW147123   7.485   6.355   2.303
15593SOL    HW247124   7.405   6.368   2.161
15594SOL     OW47125   7.250   6.866   2.519
15594SOL    HW147126   7.349   6.874   2.533
15594SOL    HW247127   7.205   6.950   2.550
15595SOL     OW47128   6.976   6.161   1.940
15595SOL    HW147129   6.922   6.140   2.021
15595SOL    HW247130   7.067   6.120   1.949
15596SOL     OW47131   6.113   5.842   2.190
15596SOL    HW147132   6.140   5.783   2.115
15596SOL    HW247133   6.113   5.937   2.159
15597SOL     OW47134   7.340   6.809   3.450
15597SOL    HW147135   7.431   6.770   3.437
15597SOL    HW247136   7.348   6.905   3.474
15598SOL     OW47137   6.650   6.933   3.202
15598SOL    HW147138   6.570   6.910   3.257
15598SOL    HW247139   6.733   6.907   3.251
15599SOL     OW47140   7.178   7.215   3.487
15599SOL    HW147141   7.205   7.249   3.397
15599SOL    HW247142   7.257   7.177   3.533
15600SOL     OW47143   6.697   6.781   2.962
15600SOL    HW147144   6.657   6.825   3.043
15600SOL    HW247145   6.656   6.818   2.879
15601SOL     OW47146   7.224   6.685   2.941
15601SOL    HW147147   7.229   6.766   3.000
15601SOL    HW247148   7.138   6.687   2.890
15602SOL     OW47149   6.501   5.675   3.264
15602SOL    HW147150   6.526   5.655   3.169
15602SOL    HW247151   6.573   5.731   3.306
15603SOL     OW47152   6.566   6.702   3.581
15603SOL    HW147153   6.467   6.708   3.591
15603SOL    HW247154   6.589   6.622   3.525
15604SOL     OW47155   6.291   6.636   2.230
15604SOL    HW147156   6.277   6.643   2.329
15604SOL    HW247157   6.375   6.585   2.212
15605SOL     OW47158   5.996   6.399   3.113
15605SOL    HW147159   6.082   6.411   3.163
15605SOL    HW247160   5.954   6.312   3.140
15606SOL     OW47161   6.860   5.972   3.124
15606SOL    HW147162   6.881   6.046   3.188
15606SOL    HW247163   6.771   5.989   3.081
15607SOL     OW47164   5.650   7.150   3.193
15607SOL    HW147165   5.604   7.232   3.159
15607SOL    HW247166   5.748   7.169   3.202
15608SOL     OW47167   5.953   6.686   2.363
15608SOL    HW147168   5.946   6.769   2.307
15608SOL    HW247169   5.957   6.606   2.303
15609SOL     OW47170   6.838   6.934   2.250
15609SOL    HW147171   6.888   7.011   2.290
15609SOL    HW247172   6.743   6.936   2.282
15610SOL     OW47173   6.858   7.031   3.004
15610SOL    HW147174   6.905   7.044   3.091
15610SOL    HW247175   6.792   6.957   3.013
15611SOL     OW47176   7.168   6.225   2.334
15611SOL    HW147177   7.137   6.286   2.407
15611SOL    HW247178   7.218   6.277   2.265
15612SOL     OW47179   5.940   7.096   3.191
15612SOL    HW147180   5.919   7.052   3.104
15612SOL    HW247181   6.037   7.122   3.194
15613SOL     OW47182   5.988   6.337   3.460
15613SOL    HW147183   6.056   6.392   3.413
15613SOL    HW247184   6.028   6.249   3.487
15614SOL     OW47185   7.173   6.365   3.532
15614SOL    HW147186   7.081   6.403   3.527
15614SOL    HW247187   7.233   6.412   3.467
15615SOL     OW47188   6.599   5.691   3.632
15615SOL    HW147189   6.605   5.776   3.580
15615SOL    HW247190   6.631   5.615   3.575
15616SOL     OW47191   6.090   5.636   3.602
15616SOL    HW147192   6.048   5.579   3.532
15616SOL    HW247193   6.024   5.705   3.634
15617SOL     OW47194   6.159   6.456   2.891
15617SOL    HW147195   6.203   6.545   2.882
15617SOL    HW247196   6.096   6.456   2.968
15618SOL     OW47197   6.946   6.448   2.907
15618SOL    HW147198   6.871   6.448   2.841
15618SOL    HW247199   6.983   6.356   2.916
15619SOL     OW47200   6.795   6.111   2.137
15619SOL    HW147201   6.808   6.027   2.191
15619SOL    HW247202   6.766   6.185   2.197
15620SOL     OW47203   5.893   5.799   3.093
15620SOL    HW147204   5.870   5.836   3.183
15620SOL    HW247205   5.863   5.704   3.087
15621SOL     OW47206   5.623   6.896   3.144
15621SOL    HW147207   5.676   6.847   3.212
15621SOL    HW247208   5.645   6.994   3.149
15622SOL     OW47209   6.318   6.220   2.926
15622SOL    HW147210   6.377   6.194   2.850
15622SOL    HW247211   6.290   6.316   2.915
15623SOL     OW47212   7.314   6.521   3.716
15623SOL    HW147213   7.268   6.514   3.627
15623SOL    HW247214   7.252   6.565   3.782
15624SOL     OW47215   5.893   5.649   2.480
15624SOL    HW147216   5.882   5.743   2.513
15624SOL    HW247217   5.888   5.586   2.557
15625SOL     OW47218   7.208   5.953   2.236
15625SOL    HW147219   7.210   5.877   2.300
15625SOL    HW247220   7.160   6.030   2.276
15626SOL     OW47221   6.609   6.352   2.828
15626SOL    HW147222   6.624   6.373   2.924
15626SOL    HW247223   6.579   6.257   2.819
15627SOL     OW47224   6.566   7.159   3.562
15627SOL    HW147225   6.546   7.203   3.474
15627SOL    HW247226   6.605   7.068   3.546
15628SOL     OW47227   7.445   7.104   3.467
15628SOL    HW147228   7.459   7.131   3.372
15628SOL    HW247229   7.528   7.126   3.520
15629SOL     OW47230   5.936   6.484   3.666
15629SOL    HW147231   6.012   6.528   3.714
15629SOL    HW247232   5.971   6.437   3.584
15630SOL     OW47233   7.126   5.860   1.987
15630SOL    HW147234   7.065   5.785   2.010
15630SOL    HW247235   7.148   5.912   2.070
15631SOL     OW47236   6.889   6.424   1.904
15631SOL    HW147237   6.923   6.331   1.919
15631SOL    HW247238   6.907   6.451   1.809
15632SOL     OW47239   6.654   6.919   2.711
15632SOL    HW147240   6.661   6.835   2.656
15632SOL    HW247241   6.716   6.988   2.675
15633SOL     OW47242   6.724   5.966   3.540
15633SOL    HW147243   6.679   6.029   3.604
15633SOL    HW247244   6.817   5.997   3.523
15634SOL     OW47245   6.746   5.793   3.339
15634SOL    HW147246   6.746   5.857   3.416
15634SOL    HW247247   6.774   5.841   3.256
15635SOL     OW47248   5.594   6.912   2.062
15635SOL    HW147249   5.501   6.933   2.031
15635SOL    HW247250   5.604   6.813   2.075
15636SOL     OW47251   5.674   7.387   2.789
15636SOL    HW147252   5.632   7.301   2.762
15636SOL    HW247253   5.768   7.390   2.755
15637SOL     OW47254   6.090   7.154   2.772
15637SOL    HW147255   6.156   7.228   2.781
15637SOL    HW247256   6.134   7.075   2.730
15638SOL     OW47257   6.588   6.382   3.100
15638SOL    HW147258   6.629   6.350   3.186
15638SOL    HW247259   6.492   6.355   3.097
15639SOL     OW47260   5.775   6.106   3.584
15639SOL    HW147261   5.834   6.066   3.514
15639SOL    HW247262   5.717   6.177   3.543
15640SOL     OW47263   6.955   6.536   3.522
15640SOL    HW147264   6.994   6.625   3.542
15640SOL    HW247265   6.965   6.516   3.425
15641SOL     OW47266   6.401   6.158   2.187
15641SOL    HW147267   6.408   6.069   2.141
15641SOL    HW247268   6.307   6.192   2.179
15642SOL     OW47269   7.243   6.190   3.068
15642SOL    HW147270   7.205   6.121   3.130
15642SOL    HW247271   7.325   6.154   3.024
15643SOL     OW47272   5.838   7.150   3.606
15643SOL    HW147273   5.808   7.207   3.682
15643SOL    HW247274   5.831   7.053   3.632
15644SOL     OW47275   6.257   6.050   3.131
15644SOL    HW147276   6.223   5.961   3.101
15644SOL    HW247277   6.283   6.104   3.051
15645SOL     OW47278   6.516   7.264   3.327
15645SOL    HW147279   6.492   7.246   3.232
15645SOL    HW247280   6.546   7.358   3.337
15646SOL     OW47281   6.059   6.086   2.053
15646SOL    HW147282   6.120   6.166   2.057
15646SOL    HW247283   5.964   6.117   2.060
15647SOL     OW47284   5.745   6.723   3.328
15647SOL    HW147285   5.767   6.662   3.404
15647SOL    HW247286   5.755   6.674   3.242
15648SOL     OW47287   6.933   6.645   3.096
15648SOL    HW147288   6.957   6.582   3.022
15648SOL    HW247289   6.843   6.685   3.078
15649SOL     OW47290   6.888   6.441   2.171
15649SOL    HW147291   6.802   6.410   2.213
15649SOL    HW247292   6.884   6.427   2.072
15650SOL     OW47293   7.345   7.333   3.016
15650SOL    HW147294   7.406   7.363   2.943
15650SOL    HW247295   7.307   7.244   2.994
15651SOL     OW47296   6.838   7.317   2.990
15651SOL    HW147297   6.922   7.322   2.936
15651SOL    HW247298   6.815   7.221   3.008
15652SOL     OW47299   5.669   6.844   2.884
15652SOL    HW147300   5.664   6.843   2.984
15652SOL    HW247301   5.586   6.803   2.846
15653SOL     OW47302   6.274   7.248   3.578
15653SOL    HW147303   6.218   7.329   3.587
15653SOL    HW247304   6.326   7.252   3.492
15654SOL     OW47305   7.312   5.721   2.385
15654SOL    HW147306   7.385   5.704   2.318
15654SOL    HW247307   7.281   5.634   2.423
15655SOL     OW47308   6.974   7.159   2.339
15655SOL    HW147309   7.041   7.171   2.265
15655SOL    HW247310   6.934   7.248   2.362
15656SOL     OW47311   5.716   7.380   3.713
15656SOL    HW147312   5.675   7.306   3.766
15656SOL    HW247313   5.780   7.431   3.771
15657SOL     OW47314   6.866   6.513   2.534
15657SOL    HW147315   6.926   6.432   2.536
15657SOL    HW247316   6.906   6.582   2.474
15658SOL     OW47317   6.416   6.859   3.284
15658SOL    HW147318   6.411   6.892   3.379
15658SOL    HW247319   6.330   6.878   3.238
15659SOL     OW47320   7.236   7.306   3.256
15659SOL    HW147321   7.289   7.316   3.172
15659SOL    HW247322   7.209   7.396   3.290
15660SOL     OW47323   7.427   5.761   2.825
15660SOL    HW147324   7.466   5.676   2.789
15660SOL    HW247325   7.329   5.763   2.806
15661SOL     OW47326   6.780   7.198   1.893
15661SOL    HW147327   6.786   7.105   1.930
15661SOL    HW247328   6.721   7.198   1.813
15662SOL     OW47329   6.408   6.588   3.234
15662SOL    HW147330   6.448   6.587   3.142
15662SOL    HW247331   6.418   6.680   3.274
15663SOL     OW47332   6.502   6.496   2.153
15663SOL    HW147333   6.565   6.534   2.085
15663SOL    HW247334   6.542   6.413   2.192
15664SOL     OW47335   7.090   7.193   1.906
15664SOL    HW147336   6.998   7.230   1.913
15664SOL    HW247337   7.128   7.213   1.816
15665SOL     OW47338   5.958   6.874   3.352
15665SOL    HW147339   5.945   6.967   3.318
15665SOL    HW247340   5.874   6.822   3.339
15666SOL     OW47341   7.200   6.878   3.151
15666SOL    HW147342   7.260   6.881   3.231
15666SOL    HW247343   7.125   6.942   3.164
15667SOL     OW47344   6.625   6.684   2.558
15667SOL    HW147345   6.555   6.637   2.612
15667SOL    HW247346   6.684   6.616   2.515
15668SOL     OW47347   6.600   5.822   2.833
15668SOL    HW147348   6.592   5.786   2.740
15668SOL    HW247349   6.598   5.746   2.898
15669SOL     OW47350   6.176   7.073   2.353
15669SOL    HW147351   6.218   7.015   2.283
15669SOL    HW247352   6.132   7.152   2.309
15670SOL     OW47353   7.295   5.971   3.243
15670SOL    HW147354   7.368   6.040   3.247
15670SOL    HW247355   7.323   5.896   3.184
15671SOL     OW47356   5.841   6.934   2.152
15671SOL    HW147357   5.745   6.935   2.125
15671SOL    HW247358   5.853   6.987   2.236
15672SOL     OW47359   5.691   6.599   3.588
15672SOL    HW147360   5.614   6.566   3.642
15672SOL    HW247361   5.776   6.569   3.630
15673SOL     OW47362   6.258   5.789   3.351
15673SOL    HW147363   6.348   5.773   3.311
15673SOL    HW247364   6.266   5.794   3.450
15674SOL     OW47365   5.661   5.931   1.895
15674SOL    HW147366   5.569   5.903   1.866
15674SOL    HW247367   5.692   6.008   1.839
15675SOL     OW47368   7.026   6.442   3.260
15675SOL    HW147369   6.969   6.494   3.197
15675SOL    HW247370   7.122   6.454   3.236
15676SOL     OW47371   5.658   5.752   2.180
15676SOL    HW147372   5.641   5.835   2.126
15676SOL    HW247373   5.748   5.715   2.158
15677SOL     OW47374   6.199   6.428   3.293
15677SOL    HW147375   6.255   6.509   3.276
15677SOL    HW247376   6.258   6.348   3.296
15678SOL     OW47377   7.079   7.353   2.821
15678SOL    HW147378   7.112   7.417   2.752
15678SOL    HW247379   7.145   7.347   2.896
15679SOL     OW47380   6.302   6.151   3.570
15679SOL    HW147381   6.321   6.216   3.644
15679SOL    HW247382   6.362   6.071   3.579
15680SOL     OW47383   7.036   6.806   3.495
15680SOL    HW147384   7.027   6.796   3.594
15680SOL    HW247385   7.132   6.799   3.469
15681SOL     OW47386   5.976   7.327   3.422
15681SOL    HW147387   5.885   7.368   3.420
15681SOL    HW247388   5.969   7.233   3.454
15682SOL     OW47389   7.260   6.469   3.116
15682SOL    HW147390   7.233   6.380   3.079
15682SOL    HW247391   7.261   6.537   3.043
15683SOL     OW47392   6.811   5.911   2.311
15683SOL    HW147393   6.876   5.837   2.300
15683SOL    HW247394   6.831   5.961   2.395
15684SOL     OW47395   6.180   6.331   2.514
15684SOL    HW147396   6.230   6.416   2.495
15684SOL    HW247397   6.092   6.333   2.466
15685SOL     OW47398   7.363   5.928   3.504
15685SOL    HW147399   7.346   5.959   3.410
15685SOL    HW247400   7.279   5.891   3.542
15686SOL     OW47401   7.316   6.520   3.379
15686SOL    HW147402   7.354   6.611   3.394
15686SOL    HW247403   7.308   6.503   3.280
15687SOL     OW47404   6.247   7.376   2.815
15687SOL    HW147405   6.201   7.464   2.802
15687SOL    HW247406   6.346   7.388   2.808
15688SOL     OW47407   6.445   6.542   2.723
15688SOL    HW147408   6.499   6.473   2.771
15688SOL    HW247409   6.413   6.611   2.789
15689SOL     OW47410   7.447   7.155   2.713
15689SOL    HW147411   7.376   7.143   2.643
15689SOL    HW247412   7.448   7.076   2.773
15690SOL     OW47413   5.807   6.900   3.706
15690SOL    HW147414   5.742   6.827   3.685
15690SOL    HW247415   5.811   6.914   3.804
15691SOL     OW47416   5.665   6.826   2.515
15691SOL    HW147417   5.664   6.779   2.603
15691SOL    HW247418   5.747   6.798   2.464
15692SOL     OW47419   6.258   6.977   3.486
15692SOL    HW147420   6.180   6.927   3.524
15692SOL    HW247421   6.255   7.072   3.517
15693SOL     OW47422   7.410   5.778   3.089
15693SOL    HW147423   7.406   5.688   3.133
15693SOL    HW247424   7.413   5.767   2.990
15694SOL     OW47425   7.291   7.073   2.966
15694SOL    HW147426   7.198   7.048   2.939
15694SOL    HW247427   7.317   7.023   3.048
15695SOL     OW47428   5.903   6.133   3.142
15695SOL    HW147429   5.941   6.074   3.214
15695SOL    HW247430   5.943   6.107   3.054
15696SOL     OW47431   6.398   7.172   2.549
15696SOL    HW147432   6.430   7.182   2.455
15696SOL    HW247433   6.319   7.110   2.551
15697SOL     OW47434   7.010   5.800   2.974
15697SOL    HW147435   7.062   5.735   3.029
15697SOL    HW247436   6.961   5.863   3.035
15698SOL     OW47437   6.587   5.620   3.016
15698SOL    HW147438   6.524   5.548   2.985
15698SOL    HW247439   6.680   5.584   3.016
15699SOL     OW47440   6.356   6.916   2.163
15699SOL    HW147441   6.310   6.829   2.180
15699SOL    HW247442   6.447   6.913   2.204
15700SOL     OW47443   6.204   7.153   3.146
15700SOL    HW147444   6.199   7.235   3.203
15700SOL    HW247445   6.293   7.150   3.101
15701SOL     OW47446   6.938   5.638   2.030
15701SOL    HW147447   6.973   5.597   1.946
15701SOL    HW247448   6.848   5.600   2.050
15702SOL     OW47449   6.886   6.039   2.553
15702SOL    HW147450   6.827   6.119   2.557
15702SOL    HW247451   6.901   6.004   2.646
15703SOL     OW47452   7.179   5.807   2.744
15703SOL    HW147453   7.095   5.806   2.798
15703SOL    HW247454   7.181   5.890   2.688
15704SOL     OW47455   5.816   6.214   3.837
15704SOL    HW147456   5.723   6.212   3.874
15704SOL    HW247457   5.817   6.175   3.745
15705SOL     OW47458   5.811   5.861   4.720
15705SOL    HW147459   5.846   5.844   4.812
15705SOL    HW247460   5.723   5.816   4.708
15706SOL     OW47461   5.605   5.954   4.371
15706SOL    HW147462   5.523   5.997   4.410
15706SOL    HW247463   5.577   5.881   4.308
15707SOL     OW47464   6.155   6.861   4.889
15707SOL    HW147465   6.062   6.854   4.852
15707SOL    HW247466   6.166   6.950   4.933
15708SOL     OW47467   7.141   7.097   4.427
15708SOL    HW147468   7.084   7.081   4.508
15708SOL    HW247469   7.082   7.107   4.347
15709SOL     OW47470   6.721   6.289   4.441
15709SOL    HW147471   6.778   6.367   4.416
15709SOL    HW247472   6.661   6.315   4.517
15710SOL     OW47473   7.341   6.193   3.955
15710SOL    HW147474   7.329   6.180   3.856
15710SOL    HW247475   7.311   6.112   4.004
15711SOL     OW47476   6.354   6.730   4.747
15711SOL    HW147477   6.276   6.747   4.807
15711SOL    HW247478   6.388   6.817   4.711
15712SOL     OW47479   6.436   6.384   5.547
15712SOL    HW147480   6.432   6.460   5.612
15712SOL    HW247481   6.458   6.420   5.456
15713SOL     OW47482   6.271   6.598   4.389
15713SOL    HW147483   6.340   6.582   4.459
15713SOL    HW247484   6.198   6.655   4.427
15714SOL     OW47485   6.272   6.747   5.527
15714SOL    HW147486   6.332   6.826   5.541
15714SOL    HW247487   6.186   6.778   5.486
15715SOL     OW47488   5.921   7.021   4.785
15715SOL    HW147489   5.843   6.990   4.732
15715SOL    HW247490   5.979   7.079   4.728
15716SOL     OW47491   7.046   7.091   5.063
15716SOL    HW147492   7.070   7.185   5.089
15716SOL    HW247493   7.030   7.037   5.145
15717SOL     OW47494   6.024   5.978   5.223
15717SOL    HW147495   6.106   5.922   5.232
15717SOL    HW247496   5.943   5.920   5.227
15718SOL     OW47497   7.189   6.033   4.461
15718SOL    HW147498   7.115   6.079   4.411
15718SOL    HW247499   7.240   6.101   4.514
15719SOL     OW47500   5.817   7.299   4.207
15719SOL    HW147501   5.851   7.376   4.261
15719SOL    HW247502   5.861   7.299   4.117
15720SOL     OW47503   6.713   6.927   5.414
15720SOL    HW147504   6.760   6.927   5.502
15720SOL    HW247505   6.665   6.840   5.403
15721SOL     OW47506   5.816   7.020   4.262
15721SOL    HW147507   5.790   7.116   4.262
15721SOL    HW247508   5.745   6.966   4.307
15722SOL     OW47509   5.826   6.677   4.610
15722SOL    HW147510   5.840   6.593   4.662
15722SOL    HW247511   5.771   6.741   4.665
15723SOL     OW47512   6.206   7.372   5.163
15723SOL    HW147513   6.114   7.355   5.198
15723SOL    HW247514   6.234   7.464   5.189
15724SOL     OW47515   6.192   6.550   3.847
15724SOL    HW147516   6.199   6.634   3.793
15724SOL    HW247517   6.238   6.563   3.935
15725SOL     OW47518   7.180   5.700   5.204
15725SOL    HW147519   7.162   5.767   5.132
15725SOL    HW247520   7.177   5.746   5.293
15726SOL     OW47521   5.708   6.229   4.287
15726SOL    HW147522   5.663   6.141   4.304
15726SOL    HW247523   5.707   6.283   4.371
15727SOL     OW47524   7.428   7.353   4.083
15727SOL    HW147525   7.482   7.324   4.163
15727SOL    HW247526   7.458   7.443   4.054
15728SOL     OW47527   5.613   7.182   3.841
15728SOL    HW147528   5.594   7.086   3.862
15728SOL    HW247529   5.580   7.240   3.916
15729SOL     OW47530   7.275   6.508   4.336
15729SOL    HW147531   7.370   6.479   4.344
15729SOL    HW247532   7.267   6.573   4.261
15730SOL     OW47533   7.227   6.694   4.156
15730SOL    HW147534   7.313   6.696   4.104
15730SOL    HW247535   7.241   6.741   4.244
15731SOL     OW47536   5.699   6.323   5.321
15731SOL    HW147537   5.787   6.310   5.366
15731SOL    HW247538   5.686   6.420   5.299
15732SOL     OW47539   6.199   6.951   4.450
15732SOL    HW147540   6.150   6.864   4.459
15732SOL    HW247541   6.176   6.994   4.363
15733SOL     OW47542   6.879   6.814   5.147
15733SOL    HW147543   6.916   6.741   5.089
15733SOL    HW247544   6.931   6.819   5.232
15734SOL     OW47545   6.395   5.590   4.226
15734SOL    HW147546   6.435   5.681   4.217
15734SOL    HW247547   6.295   5.598   4.232
15735SOL     OW47548   5.783   6.562   4.988
15735SOL    HW147549   5.872   6.517   4.974
15735SOL    HW247550   5.710   6.497   4.969
15736SOL     OW47551   7.111   6.585   3.914
15736SOL    HW147552   7.048   6.509   3.927
15736SOL    HW247553   7.159   6.603   4.000
15737SOL     OW47554   6.773   7.378   5.340
15737SOL    HW147555   6.797   7.438   5.264
15737SOL    HW247556   6.780   7.283   5.310
15738SOL     OW47557   5.903   5.837   5.525
15738SOL    HW147558   5.974   5.908   5.531
15738SOL    HW247559   5.815   5.876   5.553
15739SOL     OW47560   7.052   7.003   4.677
15739SOL    HW147561   6.993   7.009   4.757
15739SOL    HW247562   7.037   6.915   4.631
15740SOL     OW47563   7.253   7.300   4.296
15740SOL    HW147564   7.212   7.277   4.208
15740SOL    HW247565   7.235   7.226   4.361
15741SOL     OW47566   6.184   6.315   3.994
15741SOL    HW147567   6.208   6.384   3.926
15741SOL    HW247568   6.106   6.348   4.048
15742SOL     OW47569   6.867   5.931   4.668
15742SOL    HW147570   6.781   5.881   4.655
15742SOL    HW247571   6.929   5.877   4.724
15743SOL     OW47572   7.162   7.248   4.031
15743SOL    HW147573   7.251   7.294   4.034
15743SOL    HW247574   7.141   7.224   3.936
15744SOL     OW47575   6.393   6.191   5.189
15744SOL    HW147576   6.346   6.188   5.278
15744SOL    HW247577   6.342   6.136   5.123
15745SOL     OW47578   6.980   6.055   5.398
15745SOL    HW147579   6.960   6.098   5.486
15745SOL    HW247580   7.058   5.993   5.407
15746SOL     OW47581   6.559   6.476   5.296
15746SOL    HW147582   6.605   6.392   5.267
15746SOL    HW247583   6.503   6.510   5.221
15747SOL     OW47584   6.577   5.996   4.966
15747SOL    HW147585   6.500   6.030   5.020
15747SOL    HW247586   6.543   5.945   4.887
15748SOL     OW47587   6.627   6.287   4.153
15748SOL    HW147588   6.653   6.283   4.249
15748SOL    HW247589   6.542   6.236   4.139
15749SOL     OW47590   5.662   6.397   4.513
15749SOL    HW147591   5.761   6.385   4.522
15749SOL    HW247592   5.638   6.492   4.534
15750SOL     OW47593   5.716   7.407   5.295
15750SOL    HW147594   5.706   7.392   5.394
15750SOL    HW247595   5.630   7.443   5.259
15751SOL     OW47596   6.451   5.934   3.919
15751SOL    HW147597   6.510   5.997   3.870
15751SOL    HW247598   6.470   5.840   3.890
15752SOL     OW47599   7.305   6.171   5.555
15752SOL    HW147600   7.279   6.260   5.519
15752SOL    HW247601   7.303   6.103   5.482
15753SOL     OW47602   6.948   6.730   4.269
15753SOL    HW147603   7.031   6.701   4.221
15753SOL    HW247604   6.899   6.797   4.213
15754SOL     OW47605   6.136   5.782   4.609
15754SOL    HW147606   6.131   5.777   4.709
15754SOL    HW247607   6.138   5.878   4.580
15755SOL     OW47608   6.594   7.042   4.201
15755SOL    HW147609   6.548   7.114   4.149
15755SOL    HW247610   6.590   7.062   4.299
15756SOL     OW47611   5.937   7.387   4.577
15756SOL    HW147612   5.987   7.301   4.583
15756SOL    HW247613   6.002   7.464   4.574
15757SOL     OW47614   7.381   6.652   4.597
15757SOL    HW147615   7.319   6.637   4.521
15757SOL    HW247616   7.329   6.663   4.682
15758SOL     OW47617   6.813   7.136   5.230
15758SOL    HW147618   6.819   7.059   5.294
15758SOL    HW247619   6.761   7.110   5.150
15759SOL     OW47620   5.907   6.529   3.966
15759SOL    HW147621   5.989   6.568   3.924
15759SOL    HW247622   5.880   6.447   3.917
15760SOL     OW47623   7.044   6.321   4.452
15760SOL    HW147624   7.039   6.256   4.527
15760SOL    HW247625   7.124   6.380   4.465
15761SOL     OW47626   6.047   6.852   5.451
15761SOL    HW147627   5.997   6.853   5.365
15761SOL    HW247628   5.984   6.834   5.527
15762SOL     OW47629   6.697   7.362   3.961
15762SOL    HW147630   6.637   7.300   4.011
15762SOL    HW247631   6.728   7.318   3.876
15763SOL     OW47632   5.788   5.871   5.222
15763SOL    HW147633   5.708   5.931   5.209
15763SOL    HW247634   5.778   5.822   5.308
15764SOL     OW47635   7.218   6.963   3.805
15764SOL    HW147636   7.186   7.057   3.795
15764SOL    HW247637   7.142   6.900   3.793
15765SOL     OW47638   6.050   7.329   4.047
15765SOL    HW147639   6.083   7.368   4.133
15765SOL    HW247640   6.126   7.322   3.982
15766SOL     OW47641   6.986   5.693   4.150
15766SOL    HW147642   6.962   5.656   4.060
15766SOL    HW247643   7.085   5.709   4.154
15767SOL     OW47644   5.835   7.371   4.965
15767SOL    HW147645   5.892   7.306   5.015
15767SOL    HW247646   5.819   7.338   4.872
15768SOL     OW47647   6.526   7.284   4.628
15768SOL    HW147648   6.606   7.227   4.649
15768SOL    HW247649   6.477   7.244   4.551
15769SOL     OW47650   5.968   6.286   4.204
15769SOL    HW147651   6.013   6.196   4.201
15769SOL    HW247652   5.874   6.275   4.237
15770SOL     OW47653   7.133   5.808   5.453
15770SOL    HW147654   7.128   5.845   5.545
15770SOL    HW247655   7.061   5.739   5.441
15771SOL     OW47656   6.200   5.708   3.841
15771SOL    HW147657   6.298   5.686   3.848
15771SOL    HW247658   6.169   5.691   3.748
15772SOL     OW47659   6.367   5.850   5.473
15772SOL    HW147660   6.434   5.789   5.516
15772SOL    HW247661   6.294   5.869   5.538
15773SOL     OW47662   6.474   7.100   4.919
15773SOL    HW147663   6.451   7.075   4.825
15773SOL    HW247664   6.535   7.031   4.958
15774SOL     OW47665   6.937   6.176   5.157
15774SOL    HW147666   6.965   6.133   5.242
15774SOL    HW247667   6.962   6.272   5.158
15775SOL     OW47668   6.389   6.988   4.648
15775SOL    HW147669   6.479   7.002   4.606
15775SOL    HW247670   6.318   6.990   4.577
15776SOL     OW47671   6.508   6.089   4.623
15776SOL    HW147672   6.483   6.080   4.527
15776SOL    HW247673   6.556   6.007   4.654
15777SOL     OW47674   6.125   5.650   4.236
15777SOL    HW147675   6.044   5.651   4.294
15777SOL    HW247676   6.128   5.733   4.181
15778SOL     OW47677   7.020   6.774   3.765
15778SOL    HW147678   7.052   6.698   3.822
15778SOL    HW247679   6.928   6.801   3.795
15779SOL     OW47680   5.883   5.621   3.895
15779SOL    HW147681   5.932   5.705   3.874
15779SOL    HW247682   5.945   5.556   3.940
15780SOL     OW47683   6.521   5.822   4.204
15780SOL    HW147684   6.473   5.863   4.126
15780SOL    HW247685   6.620   5.820   4.185
15781SOL     OW47686   6.662   6.269   5.188
15781SOL    HW147687   6.582   6.208   5.191
15781SOL    HW247688   6.743   6.216   5.164
15782SOL     OW47689   6.813   7.156   4.517
15782SOL    HW147690   6.834   7.230   4.452
15782SOL    HW247691   6.881   7.156   4.590
15783SOL     OW47692   6.045   6.738   4.465
15783SOL    HW147693   5.974   6.711   4.530
15783SOL    HW247694   6.019   6.710   4.372
15784SOL     OW47695   6.857   7.383   4.315
15784SOL    HW147696   6.901   7.447   4.251
15784SOL    HW247697   6.807   7.435   4.385
15785SOL     OW47698   6.618   6.135   3.740
15785SOL    HW147699   6.577   6.217   3.701
15785SOL    HW247700   6.682   6.161   3.813
15786SOL     OW47701   5.664   6.142   5.110
15786SOL    HW147702   5.756   6.141   5.069
15786SOL    HW247703   5.658   6.216   5.177
15787SOL     OW47704   6.147   5.808   4.871
15787SOL    HW147705   6.185   5.724   4.908
15787SOL    HW247706   6.059   5.827   4.915
15788SOL     OW47707   6.452   6.040   4.366
15788SOL    HW147708   6.420   6.112   4.304
15788SOL    HW247709   6.476   5.959   4.313
15789SOL     OW47710   6.603   5.625   4.477
15789SOL    HW147711   6.531   5.630   4.408
15789SOL    HW247712   6.579   5.556   4.546
15790SOL     OW47713   7.015   6.759   4.591
15790SOL    HW147714   6.960   6.675   4.584
15790SOL    HW247715   7.041   6.788   4.499
15791SOL     OW47716   7.052   6.176   4.716
15791SOL    HW147717   7.022   6.081   4.723
15791SOL    HW247718   7.125   6.192   4.782
15792SOL     OW47719   7.443   6.419   4.101
15792SOL    HW147720   7.485   6.355   4.165
15792SOL    HW247721   7.405   6.368   4.023
15793SOL     OW47722   6.074   6.971   3.898
15793SOL    HW147723   5.987   6.956   3.945
15793SOL    HW247724   6.057   6.997   3.803
15794SOL     OW47725   7.250   6.866   4.381
15794SOL    HW147726   7.349   6.874   4.395
15794SOL    HW247727   7.205   6.950   4.412
15795SOL     OW47728   6.976   6.161   3.802
15795SOL    HW147729   6.922   6.140   3.883
15795SOL    HW247730   7.067   6.120   3.811
15796SOL     OW47731   6.113   5.842   4.052
15796SOL    HW147732   6.140   5.783   3.977
15796SOL    HW247733   6.113   5.937   4.021
15797SOL     OW47734   7.340   6.809   5.312
15797SOL    HW147735   7.431   6.770   5.299
15797SOL    HW247736   7.348   6.905   5.336
15798SOL     OW47737   6.650   6.933   5.064
15798SOL    HW147738   6.570   6.910   5.119
15798SOL    HW247739   6.733   6.907   5.113
15799SOL     OW47740   7.178   7.215   5.349
15799SOL    HW147741   7.205   7.249   5.259
15799SOL    HW247742   7.257   7.177   5.395
15800SOL     OW47743   6.697   6.781   4.824
15800SOL    HW147744   6.657   6.825   4.905
15800SOL    HW247745   6.656   6.818   4.741
15801SOL     OW47746   7.224   6.685   4.803
15801SOL    HW147747   7.229   6.766   4.862
15801SOL    HW247748   7.138   6.687   4.752
15802SOL     OW47749   6.501   5.675   5.126
15802SOL    HW147750   6.526   5.655   5.031
15802SOL    HW247751   6.573   5.731   5.168
15803SOL     OW47752   6.566   6.702   5.443
15803SOL    HW147753   6.467   6.708   5.453
15803SOL    HW247754   6.589   6.622   5.387
15804SOL     OW47755   6.291   6.636   4.092
15804SOL    HW147756   6.277   6.643   4.191
15804SOL    HW247757   6.375   6.585   4.074
15805SOL     OW47758   5.996   6.399   4.975
15805SOL    HW147759   6.082   6.411   5.025
15805SOL    HW247760   5.954   6.312   5.002
15806SOL     OW47761   6.860   5.972   4.986
15806SOL    HW147762   6.881   6.046   5.050
15806SOL    HW247763   6.771   5.989   4.943
15807SOL     OW47764   5.650   7.150   5.055
15807SOL    HW147765   5.604   7.232   5.021
15807SOL    HW247766   5.748   7.169   5.064
15808SOL     OW47767   5.953   6.686   4.225
15808SOL    HW147768   5.946   6.769   4.169
15808SOL    HW247769   5.957   6.606   4.165
15809SOL     OW47770   6.152   6.123   4.589
15809SOL    HW147771   6.164   6.189   4.515
15809SOL    HW247772   6.198   6.157   4.672
15810SOL     OW47773   6.838   6.934   4.112
15810SOL    HW147774   6.888   7.011   4.152
15810SOL    HW247775   6.743   6.936   4.144
15811SOL     OW47776   6.858   7.031   4.866
15811SOL    HW147777   6.905   7.044   4.953
15811SOL    HW247778   6.792   6.957   4.875
15812SOL     OW47779   7.168   6.225   4.196
15812SOL    HW147780   7.137   6.286   4.269
15812SOL    HW247781   7.218   6.277   4.127
15813SOL     OW47782   5.940   7.096   5.053
15813SOL    HW147783   5.919   7.052   4.966
15813SOL    HW247784   6.037   7.122   5.056
15814SOL     OW47785   5.988   6.337   5.322
15814SOL    HW147786   6.056   6.392   5.275
15814SOL    HW247787   6.028   6.249   5.349
15815SOL     OW47788   7.173   6.365   5.394
15815SOL    HW147789   7.081   6.403   5.389
15815SOL    HW247790   7.233   6.412   5.329
15816SOL     OW47791   6.599   5.691   5.494
15816SOL    HW147792   6.605   5.776   5.442
15816SOL    HW247793   6.631   5.615   5.437
15817SOL     OW47794   6.090   5.636   5.464
15817SOL    HW147795   6.048   5.579   5.394
15817SOL    HW247796   6.024   5.705   5.496
15818SOL     OW47797   6.159   6.456   4.753
15818SOL    HW147798   6.203   6.545   4.744
15818SOL    HW247799   6.096   6.456   4.830
15819SOL     OW47800   6.946   6.448   4.769
15819SOL    HW147801   6.871   6.448   4.703
15819SOL    HW247802   6.983   6.356   4.778
15820SOL     OW47803   6.795   6.111   3.999
15820SOL    HW147804   6.808   6.027   4.053
15820SOL    HW247805   6.766   6.185   4.059
15821SOL     OW47806   5.893   5.799   4.955
15821SOL    HW147807   5.870   5.836   5.045
15821SOL    HW247808   5.863   5.704   4.949
15822SOL     OW47809   5.623   6.896   5.006
15822SOL    HW147810   5.676   6.847   5.074
15822SOL    HW247811   5.645   6.994   5.011
15823SOL     OW47812   6.318   6.220   4.788
15823SOL    HW147813   6.377   6.194   4.712
15823SOL    HW247814   6.290   6.316   4.777
15824SOL     OW47815   7.314   6.521   5.578
15824SOL    HW147816   7.268   6.514   5.489
15824SOL    HW247817   7.252   6.565   5.644
15825SOL     OW47818   5.893   5.649   4.342
15825SOL    HW147819   5.882   5.743   4.375
15825SOL    HW247820   5.888   5.586   4.419
15826SOL     OW47821   7.208   5.953   4.098
15826SOL    HW147822   7.210   5.877   4.162
15826SOL    HW247823   7.160   6.030   4.138
15827SOL     OW47824   6.609   6.352   4.690
15827SOL    HW147825   6.624   6.373   4.786
15827SOL    HW247826   6.579   6.257   4.681
15828SOL     OW47827   6.566   7.159   5.424
15828SOL    HW147828   6.546   7.203   5.336
15828SOL    HW247829   6.605   7.068   5.408
15829SOL     OW47830   7.445   7.104   5.329
15829SOL    HW147831   7.459   7.131   5.234
15829SOL    HW247832   7.528   7.126   5.382
15830SOL     OW47833   5.936   6.484   5.528
15830SOL    HW147834   6.012   6.528   5.576
15830SOL    HW247835   5.971   6.437   5.446
15831SOL     OW47836   7.126   5.860   3.849
15831SOL    HW147837   7.065   5.785   3.872
15831SOL    HW247838   7.148   5.912   3.932
15832SOL     OW47839   6.889   6.424   3.766
15832SOL    HW147840   6.923   6.331   3.781
15832SOL    HW247841   6.907   6.451   3.671
15833SOL     OW47842   6.654   6.919   4.573
15833SOL    HW147843   6.661   6.835   4.518
15833SOL    HW247844   6.716   6.988   4.537
15834SOL     OW47845   5.905   6.396   4.673
15834SOL    HW147846   5.998   6.432   4.678
15834SOL    HW247847   5.899   6.311   4.725
15835SOL     OW47848   5.925   6.095   4.730
15835SOL    HW147849   5.873   6.012   4.713
15835SOL    HW247850   6.002   6.100   4.666
15836SOL     OW47851   6.724   5.966   5.402
15836SOL    HW147852   6.679   6.029   5.466
15836SOL    HW247853   6.817   5.997   5.385
15837SOL     OW47854   6.746   5.793   5.201
15837SOL    HW147855   6.746   5.857   5.278
15837SOL    HW247856   6.774   5.841   5.118
15838SOL     OW47857   5.594   6.912   3.924
15838SOL    HW147858   5.501   6.933   3.893
15838SOL    HW247859   5.604   6.813   3.937
15839SOL     OW47860   5.674   7.387   4.651
15839SOL    HW147861   5.632   7.301   4.624
15839SOL    HW247862   5.768   7.390   4.617
15840SOL     OW47863   6.090   7.154   4.634
15840SOL    HW147864   6.156   7.228   4.643
15840SOL    HW247865   6.134   7.075   4.592
15841SOL     OW47866   6.588   6.382   4.962
15841SOL    HW147867   6.629   6.350   5.048
15841SOL    HW247868   6.492   6.355   4.959
15842SOL     OW47869   5.626   6.130   4.838
15842SOL    HW147870   5.711   6.097   4.797
15842SOL    HW247871   5.639   6.145   4.936
15843SOL     OW47872   5.775   6.106   5.446
15843SOL    HW147873   5.834   6.066   5.376
15843SOL    HW247874   5.717   6.177   5.405
15844SOL     OW47875   6.955   6.536   5.384
15844SOL    HW147876   6.994   6.625   5.404
15844SOL    HW247877   6.965   6.516   5.287
15845SOL     OW47878   6.401   6.158   4.049
15845SOL    HW147879   6.408   6.069   4.003
15845SOL    HW247880   6.307   6.192   4.041
15846SOL     OW47881   7.243   6.190   4.930
15846SOL    HW147882   7.205   6.121   4.992
15846SOL    HW247883   7.325   6.154   4.886
15847SOL     OW47884   5.838   7.150   5.468
15847SOL    HW147885   5.808   7.207   5.544
15847SOL    HW247886   5.831   7.053   5.494
15848SOL     OW47887   6.257   6.050   4.993
15848SOL    HW147888   6.223   5.961   4.963
15848SOL    HW247889   6.283   6.104   4.913
15849SOL     OW47890   6.516   7.264   5.189
15849SOL    HW147891   6.492   7.246   5.094
15849SOL    HW247892   6.546   7.358   5.199
15850SOL     OW47893   6.059   6.086   3.915
15850SOL    HW147894   6.120   6.166   3.919
15850SOL    HW247895   5.964   6.117   3.922
15851SOL     OW47896   5.745   6.723   5.190
15851SOL    HW147897   5.767   6.662   5.266
15851SOL    HW247898   5.755   6.674   5.104
15852SOL     OW47899   6.933   6.645   4.958
15852SOL    HW147900   6.957   6.582   4.884
15852SOL    HW247901   6.843   6.685   4.940
15853SOL     OW47902   6.888   6.441   4.033
15853SOL    HW147903   6.802   6.410   4.075
15853SOL    HW247904   6.884   6.427   3.934
15854SOL     OW47905   7.345   7.333   4.878
15854SOL    HW147906   7.406   7.363   4.805
15854SOL    HW247907   7.307   7.244   4.856
15855SOL     OW47908   6.838   7.317   4.852
15855SOL    HW147909   6.922   7.322   4.798
15855SOL    HW247910   6.815   7.221   4.870
15856SOL     OW47911   5.669   6.844   4.746
15856SOL    HW147912   5.664   6.843   4.846
15856SOL    HW247913   5.586   6.803   4.708
15857SOL     OW47914   6.274   7.248   5.440
15857SOL    HW147915   6.218   7.329   5.449
15857SOL    HW247916   6.326   7.252   5.354
15858SOL     OW47917   7.312   5.721   4.247
15858SOL    HW147918   7.385   5.704   4.180
15858SOL    HW247919   7.281   5.634   4.285
15859SOL     OW47920   6.974   7.159   4.201
15859SOL    HW147921   7.041   7.171   4.127
15859SOL    HW247922   6.934   7.248   4.224
15860SOL     OW47923   5.716   7.380   5.575
15860SOL    HW147924   5.675   7.306   5.628
15860SOL    HW247925   5.780   7.431   5.633
15861SOL     OW47926   6.866   6.513   4.396
15861SOL    HW147927   6.926   6.432   4.398
15861SOL    HW247928   6.906   6.582   4.336
15862SOL     OW47929   6.416   6.859   5.146
15862SOL    HW147930   6.411   6.892   5.241
15862SOL    HW247931   6.330   6.878   5.100
15863SOL     OW47932   6.258   7.202   3.878
15863SOL    HW147933   6.267   7.212   3.779
15863SOL    HW247934   6.218   7.113   3.899
15864SOL     OW47935   7.236   7.306   5.118
15864SOL    HW147936   7.289   7.316   5.034
15864SOL    HW247937   7.209   7.396   5.152
15865SOL     OW47938   7.427   5.761   4.687
15865SOL    HW147939   7.466   5.676   4.651
15865SOL    HW247940   7.329   5.763   4.668
15866SOL     OW47941   5.849   5.912   4.444
15866SOL    HW147942   5.770   5.963   4.410
15866SOL    HW247943   5.840   5.897   4.542
15867SOL     OW47944   6.780   7.198   3.755
15867SOL    HW147945   6.786   7.105   3.792
15867SOL    HW247946   6.721   7.198   3.675
15868SOL     OW47947   6.408   6.588   5.096
15868SOL    HW147948   6.448   6.587   5.004
15868SOL    HW247949   6.418   6.680   5.136
15869SOL     OW47950   6.502   6.496   4.015
15869SOL    HW147951   6.565   6.534   3.947
15869SOL    HW247952   6.542   6.413   4.054
15870SOL     OW47953   7.090   7.193   3.768
15870SOL    HW147954   6.998   7.230   3.775
15870SOL    HW247955   7.128   7.213   3.678
15871SOL     OW47956   5.958   6.874   5.214
15871SOL    HW147957   5.945   6.967   5.180
15871SOL    HW247958   5.874   6.822   5.201
15872SOL     OW47959   7.200   6.878   5.013
15872SOL    HW147960   7.260   6.881   5.093
15872SOL    HW247961   7.125   6.942   5.026
15873SOL     OW47962   6.625   6.684   4.420
15873SOL    HW147963   6.555   6.637   4.474
15873SOL    HW247964   6.684   6.616   4.377
15874SOL     OW47965   6.600   5.822   4.695
15874SOL    HW147966   6.592   5.786   4.602
15874SOL    HW247967   6.598   5.746   4.760
15875SOL     OW47968   6.176   7.073   4.215
15875SOL    HW147969   6.218   7.015   4.145
15875SOL    HW247970   6.132   7.152   4.171
15876SOL     OW47971   7.295   5.971   5.105
15876SOL    HW147972   7.368   6.040   5.109
15876SOL    HW247973   7.323   5.896   5.046
15877SOL     OW47974   5.841   6.934   4.014
15877SOL    HW147975   5.745   6.935   3.987
15877SOL    HW247976   5.853   6.987   4.098
15878SOL     OW47977   5.691   6.599   5.450
15878SOL    HW147978   5.614   6.566   5.504
15878SOL    HW247979   5.776   6.569   5.492
15879SOL     OW47980   6.258   5.789   5.213
15879SOL    HW147981   6.348   5.773   5.173
15879SOL    HW247982   6.266   5.794   5.312
15880SOL     OW47983   5.661   5.931   3.757
15880SOL    HW147984   5.569   5.903   3.728
15880SOL    HW247985   5.692   6.008   3.701
15881SOL     OW47986   7.026   6.442   5.122
15881SOL    HW147987   6.969   6.494   5.059
15881SOL    HW247988   7.122   6.454   5.098
15882SOL     OW47989   5.658   5.752   4.042
15882SOL    HW147990   5.641   5.835   3.988
15882SOL    HW247991   5.748   5.715   4.020
15883SOL     OW47992   6.769   6.921   3.843
15883SOL    HW147993   6.670   6.910   3.845
15883SOL    HW247994   6.803   6.936   3.936
15884SOL     OW47995   6.199   6.428   5.155
15884SOL    HW147996   6.255   6.509   5.138
15884SOL    HW247997   6.258   6.348   5.158
15885SOL     OW47998   7.079   7.353   4.683
15885SOL    HW147999   7.112   7.417   4.614
15885SOL    HW248000   7.145   7.347   4.758
15886SOL     OW48001   6.302   6.151   5.432
15886SOL    HW148002   6.321   6.216   5.506
15886SOL    HW248003   6.362   6.071   5.441
15887SOL     OW48004   7.036   6.806   5.357
15887SOL    HW148005   7.027   6.796   5.456
15887SOL    HW248006   7.132   6.799   5.331
15888SOL     OW48007   5.976   7.327   5.284
15888SOL    HW148008   5.885   7.368   5.282
15888SOL    HW248009   5.969   7.233   5.316
15889SOL     OW48010   7.260   6.469   4.978
15889SOL    HW148011   7.233   6.380   4.941
15889SOL    HW248012   7.261   6.537   4.905
15890SOL     OW48013   6.811   5.911   4.173
15890SOL    HW148014   6.876   5.837   4.162
15890SOL    HW248015   6.831   5.961   4.257
15891SOL     OW48016   6.180   6.331   4.376
15891SOL    HW148017   6.230   6.416   4.357
15891SOL    HW248018   6.092   6.333   4.328
15892SOL     OW48019   7.363   5.928   5.366
15892SOL    HW148020   7.346   5.959   5.272
15892SOL    HW248021   7.279   5.891   5.404
15893SOL     OW48022   7.316   6.520   5.241
15893SOL    HW148023   7.354   6.611   5.256
15893SOL    HW248024   7.308   6.503   5.142
15894SOL     OW48025   6.445   6.960   3.740
15894SOL    HW148026   6.399   6.975   3.828
15894SOL    HW248027   6.489   7.045   3.710
15895SOL     OW48028   6.247   7.376   4.677
15895SOL    HW148029   6.201   7.464   4.664
15895SOL    HW248030   6.346   7.388   4.670
15896SOL     OW48031   6.445   6.542   4.585
15896SOL    HW148032   6.499   6.473   4.633
15896SOL    HW248033   6.413   6.611   4.651
15897SOL     OW48034   6.669   6.570   3.811
15897SOL    HW148035   6.646   6.623   3.729
15897SOL    HW248036   6.750   6.514   3.792
15898SOL     OW48037   7.447   7.155   4.575
15898SOL    HW148038   7.376   7.143   4.505
15898SOL    HW248039   7.448   7.076   4.635
15899SOL     OW48040   5.807   6.900   5.568
15899SOL    HW148041   5.742   6.827   5.547
15899SOL    HW248042   5.811   6.914   5.666
15900SOL     OW48043   5.665   6.826   4.377
15900SOL    HW148044   5.664   6.779   4.465
15900SOL    HW248045   5.747   6.798   4.326
15901SOL     OW48046   6.258   6.977   5.348
15901SOL    HW148047   6.180   6.927   5.386
15901SOL    HW248048   6.255   7.072   5.379
15902SOL     OW48049   7.410   5.778   4.951
15902SOL    HW148050   7.406   5.688   4.995
15902SOL    HW248051   7.413   5.767   4.852
15903SOL     OW48052   6.014   6.010   4.244
15903SOL    HW148053   6.044   5.938   4.182
15903SOL    HW248054   5.975   5.970   4.327
15904SOL     OW48055   7.291   7.073   4.828
15904SOL    HW148056   7.198   7.048   4.801
15904SOL    HW248057   7.317   7.023   4.910
15905SOL     OW48058   5.903   6.133   5.004
15905SOL    HW148059   5.941   6.074   5.076
15905SOL    HW248060   5.943   6.107   4.916
15906SOL     OW48061   6.398   7.172   4.411
15906SOL    HW148062   6.430   7.182   4.317
15906SOL    HW248063   6.319   7.110   4.413
15907SOL     OW48064   7.010   5.800   4.836
15907SOL    HW148065   7.062   5.735   4.891
15907SOL    HW248066   6.961   5.863   4.897
15908SOL     OW48067   6.587   5.620   4.878
15908SOL    HW148068   6.524   5.548   4.847
15908SOL    HW248069   6.680   5.584   4.878
15909SOL     OW48070   6.356   6.916   4.025
15909SOL    HW148071   6.310   6.829   4.042
15909SOL    HW248072   6.447   6.913   4.066
15910SOL     OW48073   6.204   7.153   5.008
15910SOL    HW148074   6.199   7.235   5.065
15910SOL    HW248075   6.293   7.150   4.963
15911SOL     OW48076   6.938   5.638   3.892
15911SOL    HW148077   6.973   5.597   3.808
15911SOL    HW248078   6.848   5.600   3.912
15912SOL     OW48079   6.886   6.039   4.415
15912SOL    HW148080   6.827   6.119   4.419
15912SOL    HW248081   6.901   6.004   4.508
15913SOL     OW48082   7.179   5.807   4.606
15913SOL    HW148083   7.095   5.806   4.660
15913SOL    HW248084   7.181   5.890   4.550
15914SOL     OW48085   5.625   6.663   4.024
15914SOL    HW148086   5.724   6.652   4.015
15914SOL    HW248087   5.585   6.577   4.056
15915SOL     OW48088   6.461   7.232   4.061
15915SOL    HW148089   6.384   7.197   4.007
15915SOL    HW248090   6.429   7.303   4.123
15916SOL     OW48091   5.816   6.214   5.699
15916SOL    HW148092   5.723   6.212   5.736
15916SOL    HW248093   5.817   6.175   5.607
15917SOL     OW48094   5.811   5.861   6.582
15917SOL    HW148095   5.846   5.844   6.674
15917SOL    HW248096   5.723   5.816   6.570
15918SOL     OW48097   5.605   5.954   6.233
15918SOL    HW148098   5.523   5.997   6.272
15918SOL    HW248099   5.577   5.881   6.170
15919SOL     OW48100   6.155   6.861   6.751
15919SOL    HW148101   6.062   6.854   6.714
15919SOL    HW248102   6.166   6.950   6.795
15920SOL     OW48103   7.141   7.097   6.289
15920SOL    HW148104   7.084   7.081   6.370
15920SOL    HW248105   7.082   7.107   6.209
15921SOL     OW48106   6.721   6.289   6.303
15921SOL    HW148107   6.778   6.367   6.278
15921SOL    HW248108   6.661   6.315   6.379
15922SOL     OW48109   7.341   6.193   5.817
15922SOL    HW148110   7.329   6.180   5.718
15922SOL    HW248111   7.311   6.112   5.866
15923SOL     OW48112   6.354   6.730   6.609
15923SOL    HW148113   6.276   6.747   6.669
15923SOL    HW248114   6.388   6.817   6.573
15924SOL     OW48115   6.436   6.384   7.409
15924SOL    HW148116   6.432   6.460   7.474
15924SOL    HW248117   6.458   6.420   7.318
15925SOL     OW48118   6.271   6.598   6.251
15925SOL    HW148119   6.340   6.582   6.321
15925SOL    HW248120   6.198   6.655   6.289
15926SOL     OW48121   6.272   6.747   7.389
15926SOL    HW148122   6.332   6.826   7.403
15926SOL    HW248123   6.186   6.778   7.348
15927SOL     OW48124   5.921   7.021   6.647
15927SOL    HW148125   5.843   6.990   6.594
15927SOL    HW248126   5.979   7.079   6.590
15928SOL     OW48127   7.046   7.091   6.925
15928SOL    HW148128   7.070   7.185   6.951
15928SOL    HW248129   7.030   7.037   7.007
15929SOL     OW48130   6.024   5.978   7.085
15929SOL    HW148131   6.106   5.922   7.094
15929SOL    HW248132   5.943   5.920   7.089
15930SOL     OW48133   7.189   6.033   6.323
15930SOL    HW148134   7.115   6.079   6.273
15930SOL    HW248135   7.240   6.101   6.376
15931SOL     OW48136   5.817   7.299   6.069
15931SOL    HW148137   5.851   7.376   6.123
15931SOL    HW248138   5.861   7.299   5.979
15932SOL     OW48139   6.713   6.927   7.276
15932SOL    HW148140   6.760   6.927   7.364
15932SOL    HW248141   6.665   6.840   7.265
15933SOL     OW48142   5.816   7.020   6.124
15933SOL    HW148143   5.790   7.116   6.124
15933SOL    HW248144   5.745   6.966   6.169
15934SOL     OW48145   5.826   6.677   6.472
15934SOL    HW148146   5.840   6.593   6.524
15934SOL    HW248147   5.771   6.741   6.527
15935SOL     OW48148   6.206   7.372   7.025
15935SOL    HW148149   6.114   7.355   7.060
15935SOL    HW248150   6.234   7.464   7.051
15936SOL     OW48151   6.192   6.550   5.709
15936SOL    HW148152   6.199   6.634   5.655
15936SOL    HW248153   6.238   6.563   5.797
15937SOL     OW48154   7.180   5.700   7.066
15937SOL    HW148155   7.162   5.767   6.994
15937SOL    HW248156   7.177   5.746   7.155
15938SOL     OW48157   5.708   6.229   6.149
15938SOL    HW148158   5.663   6.141   6.166
15938SOL    HW248159   5.707   6.283   6.233
15939SOL     OW48160   7.428   7.353   5.945
15939SOL    HW148161   7.482   7.324   6.025
15939SOL    HW248162   7.458   7.443   5.916
15940SOL     OW48163   5.613   7.182   5.703
15940SOL    HW148164   5.594   7.086   5.724
15940SOL    HW248165   5.580   7.240   5.778
15941SOL     OW48166   7.275   6.508   6.198
15941SOL    HW148167   7.370   6.479   6.206
15941SOL    HW248168   7.267   6.573   6.123
15942SOL     OW48169   7.227   6.694   6.018
15942SOL    HW148170   7.313   6.696   5.966
15942SOL    HW248171   7.241   6.741   6.106
15943SOL     OW48172   5.699   6.323   7.183
15943SOL    HW148173   5.787   6.310   7.228
15943SOL    HW248174   5.686   6.420   7.161
15944SOL     OW48175   6.199   6.951   6.312
15944SOL    HW148176   6.150   6.864   6.321
15944SOL    HW248177   6.176   6.994   6.225
15945SOL     OW48178   6.879   6.814   7.009
15945SOL    HW148179   6.916   6.741   6.951
15945SOL    HW248180   6.931   6.819   7.094
15946SOL     OW48181   6.395   5.590   6.088
15946SOL    HW148182   6.435   5.681   6.079
15946SOL    HW248183   6.295   5.598   6.094
15947SOL     OW48184   5.783   6.562   6.850
15947SOL    HW148185   5.872   6.517   6.836
15947SOL    HW248186   5.710   6.497   6.831
15948SOL     OW48187   7.111   6.585   5.776
15948SOL    HW148188   7.048   6.509   5.789
15948SOL    HW248189   7.159   6.603   5.862
15949SOL     OW48190   6.773   7.378   7.202
15949SOL    HW148191   6.797   7.438   7.126
15949SOL    HW248192   6.780   7.283   7.172
15950SOL     OW48193   5.903   5.837   7.387
15950SOL    HW148194   5.974   5.908   7.393
15950SOL    HW248195   5.815   5.876   7.415
15951SOL     OW48196   7.052   7.003   6.539
15951SOL    HW148197   6.993   7.009   6.619
15951SOL    HW248198   7.037   6.915   6.493
15952SOL     OW48199   7.253   7.300   6.158
15952SOL    HW148200   7.212   7.277   6.070
15952SOL    HW248201   7.235   7.226   6.223
15953SOL     OW48202   6.184   6.315   5.856
15953SOL    HW148203   6.208   6.384   5.788
15953SOL    HW248204   6.106   6.348   5.910
15954SOL     OW48205   6.867   5.931   6.530
15954SOL    HW148206   6.781   5.881   6.517
15954SOL    HW248207   6.929   5.877   6.586
15955SOL     OW48208   7.162   7.248   5.893
15955SOL    HW148209   7.251   7.294   5.896
15955SOL    HW248210   7.141   7.224   5.798
15956SOL     OW48211   6.393   6.191   7.051
15956SOL    HW148212   6.346   6.188   7.140
15956SOL    HW248213   6.342   6.136   6.985
15957SOL     OW48214   6.980   6.055   7.260
15957SOL    HW148215   6.960   6.098   7.348
15957SOL    HW248216   7.058   5.993   7.269
15958SOL     OW48217   6.559   6.476   7.158
15958SOL    HW148218   6.605   6.392   7.129
15958SOL    HW248219   6.503   6.510   7.083
15959SOL     OW48220   6.577   5.996   6.828
15959SOL    HW148221   6.500   6.030   6.882
15959SOL    HW248222   6.543   5.945   6.749
15960SOL     OW48223   6.627   6.287   6.015
15960SOL    HW148224   6.653   6.283   6.111
15960SOL    HW248225   6.542   6.236   6.001
15961SOL     OW48226   5.662   6.397   6.375
15961SOL    HW148227   5.761   6.385   6.384
15961SOL    HW248228   5.638   6.492   6.396
15962SOL     OW48229   5.716   7.407   7.157
15962SOL    HW148230   5.706   7.392   7.256
15962SOL    HW248231   5.630   7.443   7.121
15963SOL     OW48232   6.451   5.934   5.781
15963SOL    HW148233   6.510   5.997   5.732
15963SOL    HW248234   6.470   5.840   5.752
15964SOL     OW48235   7.305   6.171   7.417
15964SOL    HW148236   7.279   6.260   7.381
15964SOL    HW248237   7.303   6.103   7.344
15965SOL     OW48238   6.948   6.730   6.131
15965SOL    HW148239   7.031   6.701   6.083
15965SOL    HW248240   6.899   6.797   6.075
15966SOL     OW48241   6.136   5.782   6.471
15966SOL    HW148242   6.131   5.777   6.571
15966SOL    HW248243   6.138   5.878   6.442
15967SOL     OW48244   6.594   7.042   6.063
15967SOL    HW148245   6.548   7.114   6.011
15967SOL    HW248246   6.590   7.062   6.161
15968SOL     OW48247   5.937   7.387   6.439
15968SOL    HW148248   5.987   7.301   6.445
15968SOL    HW248249   6.002   7.464   6.436
15969SOL     OW48250   7.381   6.652   6.459
15969SOL    HW148251   7.319   6.637   6.383
15969SOL    HW248252   7.329   6.663   6.544
15970SOL     OW48253   6.813   7.136   7.092
15970SOL    HW148254   6.819   7.059   7.156
15970SOL    HW248255   6.761   7.110   7.012
15971SOL     OW48256   5.907   6.529   5.828
15971SOL    HW148257   5.989   6.568   5.786
15971SOL    HW248258   5.880   6.447   5.779
15972SOL     OW48259   7.044   6.321   6.314
15972SOL    HW148260   7.039   6.256   6.389
15972SOL    HW248261   7.124   6.380   6.327
15973SOL     OW48262   6.047   6.852   7.313
15973SOL    HW148263   5.997   6.853   7.227
15973SOL    HW248264   5.984   6.834   7.389
15974SOL     OW48265   6.697   7.362   5.823
15974SOL    HW148266   6.637   7.300   5.873
15974SOL    HW248267   6.728   7.318   5.738
15975SOL     OW48268   5.788   5.871   7.084
15975SOL    HW148269   5.708   5.931   7.071
15975SOL    HW248270   5.778   5.822   7.170
15976SOL     OW48271   7.218   6.963   5.667
15976SOL    HW148272   7.186   7.057   5.657
15976SOL    HW248273   7.142   6.900   5.655
15977SOL     OW48274   6.050   7.329   5.909
15977SOL    HW148275   6.083   7.368   5.995
15977SOL    HW248276   6.126   7.322   5.844
15978SOL     OW48277   6.986   5.693   6.012
15978SOL    HW148278   6.962   5.656   5.922
15978SOL    HW248279   7.085   5.709   6.016
15979SOL     OW48280   5.835   7.371   6.827
15979SOL    HW148281   5.892   7.306   6.877
15979SOL    HW248282   5.819   7.338   6.734
15980SOL     OW48283   6.526   7.284   6.490
15980SOL    HW148284   6.606   7.227   6.511
15980SOL    HW248285   6.477   7.244   6.413
15981SOL     OW48286   5.968   6.286   6.066
15981SOL    HW148287   6.013   6.196   6.063
15981SOL    HW248288   5.874   6.275   6.099
15982SOL     OW48289   7.133   5.808   7.315
15982SOL    HW148290   7.128   5.845   7.407
15982SOL    HW248291   7.061   5.739   7.303
15983SOL     OW48292   6.200   5.708   5.703
15983SOL    HW148293   6.298   5.686   5.710
15983SOL    HW248294   6.169   5.691   5.610
15984SOL     OW48295   6.367   5.850   7.335
15984SOL    HW148296   6.434   5.789   7.378
15984SOL    HW248297   6.294   5.869   7.400
15985SOL     OW48298   6.474   7.100   6.781
15985SOL    HW148299   6.451   7.075   6.687
15985SOL    HW248300   6.535   7.031   6.820
15986SOL     OW48301   6.937   6.176   7.019
15986SOL    HW148302   6.965   6.133   7.104
15986SOL    HW248303   6.962   6.272   7.020
15987SOL     OW48304   6.389   6.988   6.510
15987SOL    HW148305   6.479   7.002   6.468
15987SOL    HW248306   6.318   6.990   6.439
15988SOL     OW48307   6.508   6.089   6.485
15988SOL    HW148308   6.483   6.080   6.389
15988SOL    HW248309   6.556   6.007   6.516
15989SOL     OW48310   6.125   5.650   6.098
15989SOL    HW148311   6.044   5.651   6.156
15989SOL    HW248312   6.128   5.733   6.043
15990SOL     OW48313   7.020   6.774   5.627
15990SOL    HW148314   7.052   6.698   5.684
15990SOL    HW248315   6.928   6.801   5.657
15991SOL     OW48316   5.883   5.621   5.757
15991SOL    HW148317   5.932   5.705   5.736
15991SOL    HW248318   5.945   5.556   5.802
15992SOL     OW48319   6.521   5.822   6.066
15992SOL    HW148320   6.473   5.863   5.988
15992SOL    HW248321   6.620   5.820   6.047
15993SOL     OW48322   6.662   6.269   7.050
15993SOL    HW148323   6.582   6.208   7.053
15993SOL    HW248324   6.743   6.216   7.026
15994SOL     OW48325   6.813   7.156   6.379
15994SOL    HW148326   6.834   7.230   6.314
15994SOL    HW248327   6.881   7.156   6.452
15995SOL     OW48328   6.045   6.738   6.327
15995SOL    HW148329   5.974   6.711   6.392
15995SOL    HW248330   6.019   6.710   6.234
15996SOL     OW48331   6.857   7.383   6.177
15996SOL    HW148332   6.901   7.447   6.113
15996SOL    HW248333   6.807   7.435   6.247
15997SOL     OW48334   6.618   6.135   5.602
15997SOL    HW148335   6.577   6.217   5.563
15997SOL    HW248336   6.682   6.161   5.675
15998SOL     OW48337   5.664   6.142   6.972
15998SOL    HW148338   5.756   6.141   6.931
15998SOL    HW248339   5.658   6.216   7.039
15999SOL     OW48340   6.147   5.808   6.733
15999SOL    HW148341   6.185   5.724   6.770
15999SOL    HW248342   6.059   5.827   6.777
16000SOL     OW48343   6.452   6.040   6.228
16000SOL    HW148344   6.420   6.112   6.166
16000SOL    HW248345   6.476   5.959   6.175
16001SOL     OW48346   6.603   5.625   6.339
16001SOL    HW148347   6.531   5.630   6.270
16001SOL    HW248348   6.579   5.556   6.408
16002SOL     OW48349   7.015   6.759   6.453
16002SOL    HW148350   6.960   6.675   6.446
16002SOL    HW248351   7.041   6.788   6.361
16003SOL     OW48352   7.052   6.176   6.578
16003SOL    HW148353   7.022   6.081   6.585
16003SOL    HW248354   7.125   6.192   6.644
16004SOL     OW48355   7.443   6.419   5.963
16004SOL    HW148356   7.485   6.355   6.027
16004SOL    HW248357   7.405   6.368   5.885
16005SOL     OW48358   6.074   6.971   5.760
16005SOL    HW148359   5.987   6.956   5.807
16005SOL    HW248360   6.057   6.997   5.665
16006SOL     OW48361   7.250   6.866   6.243
16006SOL    HW148362   7.349   6.874   6.257
16006SOL    HW248363   7.205   6.950   6.274
16007SOL     OW48364   6.976   6.161   5.664
16007SOL    HW148365   6.922   6.140   5.745
16007SOL    HW248366   7.067   6.120   5.673
16008SOL     OW48367   6.113   5.842   5.914
16008SOL    HW148368   6.140   5.783   5.839
16008SOL    HW248369   6.113   5.937   5.883
16009SOL     OW48370   7.340   6.809   7.174
16009SOL    HW148371   7.431   6.770   7.161
16009SOL    HW248372   7.348   6.905   7.198
16010SOL     OW48373   6.650   6.933   6.926
16010SOL    HW148374   6.570   6.910   6.981
16010SOL    HW248375   6.733   6.907   6.975
16011SOL     OW48376   7.178   7.215   7.211
16011SOL    HW148377   7.205   7.249   7.121
16011SOL    HW248378   7.257   7.177   7.257
16012SOL     OW48379   6.697   6.781   6.686
16012SOL    HW148380   6.657   6.825   6.767
16012SOL    HW248381   6.656   6.818   6.603
16013SOL     OW48382   7.224   6.685   6.665
16013SOL    HW148383   7.229   6.766   6.724
16013SOL    HW248384   7.138   6.687   6.614
16014SOL     OW48385   6.501   5.675   6.988
16014SOL    HW148386   6.526   5.655   6.893
16014SOL    HW248387   6.573   5.731   7.030
16015SOL     OW48388   6.566   6.702   7.305
16015SOL    HW148389   6.467   6.708   7.315
16015SOL    HW248390   6.589   6.622   7.249
16016SOL     OW48391   6.291   6.636   5.954
16016SOL    HW148392   6.277   6.643   6.053
16016SOL    HW248393   6.375   6.585   5.936
16017SOL     OW48394   5.996   6.399   6.837
16017SOL    HW148395   6.082   6.411   6.887
16017SOL    HW248396   5.954   6.312   6.864
16018SOL     OW48397   6.860   5.972   6.848
16018SOL    HW148398   6.881   6.046   6.912
16018SOL    HW248399   6.771   5.989   6.805
16019SOL     OW48400   5.650   7.150   6.917
16019SOL    HW148401   5.604   7.232   6.883
16019SOL    HW248402   5.748   7.169   6.926
16020SOL     OW48403   5.953   6.686   6.087
16020SOL    HW148404   5.946   6.769   6.031
16020SOL    HW248405   5.957   6.606   6.027
16021SOL     OW48406   6.152   6.123   6.451
16021SOL    HW148407   6.164   6.189   6.377
16021SOL    HW248408   6.198   6.157   6.534
16022SOL     OW48409   6.838   6.934   5.974
16022SOL    HW148410   6.888   7.011   6.014
16022SOL    HW248411   6.743   6.936   6.006
16023SOL     OW48412   6.858   7.031   6.728
16023SOL    HW148413   6.905   7.044   6.815
16023SOL    HW248414   6.792   6.957   6.737
16024SOL     OW48415   7.168   6.225   6.058
16024SOL    HW148416   7.137   6.286   6.131
16024SOL    HW248417   7.218   6.277   5.989
16025SOL     OW48418   5.940   7.096   6.915
16025SOL    HW148419   5.919   7.052   6.828
16025SOL    HW248420   6.037   7.122   6.918
16026SOL     OW48421   5.988   6.337   7.184
16026SOL    HW148422   6.056   6.392   7.137
16026SOL    HW248423   6.028   6.249   7.211
16027SOL     OW48424   7.173   6.365   7.256
16027SOL    HW148425   7.081   6.403   7.251
16027SOL    HW248426   7.233   6.412   7.191
16028SOL     OW48427   6.599   5.691   7.356
16028SOL    HW148428   6.605   5.776   7.304
16028SOL    HW248429   6.631   5.615   7.299
16029SOL     OW48430   6.090   5.636   7.326
16029SOL    HW148431   6.048   5.579   7.256
16029SOL    HW248432   6.024   5.705   7.358
16030SOL     OW48433   6.159   6.456   6.615
16030SOL    HW148434   6.203   6.545   6.606
16030SOL    HW248435   6.096   6.456   6.692
16031SOL     OW48436   6.946   6.448   6.631
16031SOL    HW148437   6.871   6.448   6.565
16031SOL    HW248438   6.983   6.356   6.640
16032SOL     OW48439   6.795   6.111   5.861
16032SOL    HW148440   6.808   6.027   5.915
16032SOL    HW248441   6.766   6.185   5.921
16033SOL     OW48442   5.893   5.799   6.817
16033SOL    HW148443   5.870   5.836   6.907
16033SOL    HW248444   5.863   5.704   6.811
16034SOL     OW48445   5.623   6.896   6.868
16034SOL    HW148446   5.676   6.847   6.936
16034SOL    HW248447   5.645   6.994   6.873
16035SOL     OW48448   6.318   6.220   6.650
16035SOL    HW148449   6.377   6.194   6.574
16035SOL    HW248450   6.290   6.316   6.639
16036SOL     OW48451   7.314   6.521   7.440
16036SOL    HW148452   7.268   6.514   7.351
16036SOL    HW248453   7.252   6.565   7.506
16037SOL     OW48454   5.893   5.649   6.204
16037SOL    HW148455   5.882   5.743   6.237
16037SOL    HW248456   5.888   5.586   6.281
16038SOL     OW48457   7.208   5.953   5.960
16038SOL    HW148458   7.210   5.877   6.024
16038SOL    HW248459   7.160   6.030   6.000
16039SOL     OW48460   6.609   6.352   6.552
16039SOL    HW148461   6.624   6.373   6.648
16039SOL    HW248462   6.579   6.257   6.543
16040SOL     OW48463   6.566   7.159   7.286
16040SOL    HW148464   6.546   7.203   7.198
16040SOL    HW248465   6.605   7.068   7.270
16041SOL     OW48466   7.445   7.104   7.191
16041SOL    HW148467   7.459   7.131   7.096
16041SOL    HW248468   7.528   7.126   7.244
16042SOL     OW48469   5.936   6.484   7.390
16042SOL    HW148470   6.012   6.528   7.438
16042SOL    HW248471   5.971   6.437   7.308
16043SOL     OW48472   7.126   5.860   5.711
16043SOL    HW148473   7.065   5.785   5.734
16043SOL    HW248474   7.148   5.912   5.794
16044SOL     OW48475   6.889   6.424   5.628
16044SOL    HW148476   6.923   6.331   5.643
16044SOL    HW248477   6.907   6.451   5.533
16045SOL     OW48478   6.654   6.919   6.435
16045SOL    HW148479   6.661   6.835   6.380
16045SOL    HW248480   6.716   6.988   6.399
16046SOL     OW48481   5.905   6.396   6.535
16046SOL    HW148482   5.998   6.432   6.540
16046SOL    HW248483   5.899   6.311   6.587
16047SOL     OW48484   5.925   6.095   6.592
16047SOL    HW148485   5.873   6.012   6.575
16047SOL    HW248486   6.002   6.100   6.528
16048SOL     OW48487   6.724   5.966   7.264
16048SOL    HW148488   6.679   6.029   7.328
16048SOL    HW248489   6.817   5.997   7.247
16049SOL     OW48490   6.746   5.793   7.063
16049SOL    HW148491   6.746   5.857   7.140
16049SOL    HW248492   6.774   5.841   6.980
16050SOL     OW48493   5.594   6.912   5.786
16050SOL    HW148494   5.501   6.933   5.755
16050SOL    HW248495   5.604   6.813   5.799
16051SOL     OW48496   5.674   7.387   6.513
16051SOL    HW148497   5.632   7.301   6.486
16051SOL    HW248498   5.768   7.390   6.479
16052SOL     OW48499   6.090   7.154   6.496
16052SOL    HW148500   6.156   7.228   6.505
16052SOL    HW248501   6.134   7.075   6.454
16053SOL     OW48502   6.588   6.382   6.824
16053SOL    HW148503   6.629   6.350   6.910
16053SOL    HW248504   6.492   6.355   6.821
16054SOL     OW48505   5.626   6.130   6.700
16054SOL    HW148506   5.711   6.097   6.659
16054SOL    HW248507   5.639   6.145   6.798
16055SOL     OW48508   5.775   6.106   7.308
16055SOL    HW148509   5.834   6.066   7.238
16055SOL    HW248510   5.717   6.177   7.267
16056SOL     OW48511   6.955   6.536   7.246
16056SOL    HW148512   6.994   6.625   7.266
16056SOL    HW248513   6.965   6.516   7.149
16057SOL     OW48514   6.401   6.158   5.911
16057SOL    HW148515   6.408   6.069   5.865
16057SOL    HW248516   6.307   6.192   5.903
16058SOL     OW48517   7.243   6.190   6.792
16058SOL    HW148518   7.205   6.121   6.854
16058SOL    HW248519   7.325   6.154   6.748
16059SOL     OW48520   5.838   7.150   7.330
16059SOL    HW148521   5.808   7.207   7.406
16059SOL    HW248522   5.831   7.053   7.356
16060SOL     OW48523   6.257   6.050   6.855
16060SOL    HW148524   6.223   5.961   6.825
16060SOL    HW248525   6.283   6.104   6.775
16061SOL     OW48526   6.516   7.264   7.051
16061SOL    HW148527   6.492   7.246   6.956
16061SOL    HW248528   6.546   7.358   7.061
16062SOL     OW48529   6.059   6.086   5.777
16062SOL    HW148530   6.120   6.166   5.781
16062SOL    HW248531   5.964   6.117   5.784
16063SOL     OW48532   5.745   6.723   7.052
16063SOL    HW148533   5.767   6.662   7.128
16063SOL    HW248534   5.755   6.674   6.966
16064SOL     OW48535   6.933   6.645   6.820
16064SOL    HW148536   6.957   6.582   6.746
16064SOL    HW248537   6.843   6.685   6.802
16065SOL     OW48538   6.888   6.441   5.895
16065SOL    HW148539   6.802   6.410   5.937
16065SOL    HW248540   6.884   6.427   5.796
16066SOL     OW48541   7.345   7.333   6.740
16066SOL    HW148542   7.406   7.363   6.667
16066SOL    HW248543   7.307   7.244   6.718
16067SOL     OW48544   6.838   7.317   6.714
16067SOL    HW148545   6.922   7.322   6.660
16067SOL    HW248546   6.815   7.221   6.732
16068SOL     OW48547   5.669   6.844   6.608
16068SOL    HW148548   5.664   6.843   6.708
16068SOL    HW248549   5.586   6.803   6.570
16069SOL     OW48550   6.274   7.248   7.302
16069SOL    HW148551   6.218   7.329   7.311
16069SOL    HW248552   6.326   7.252   7.216
16070SOL     OW48553   7.312   5.721   6.109
16070SOL    HW148554   7.385   5.704   6.042
16070SOL    HW248555   7.281   5.634   6.147
16071SOL     OW48556   6.974   7.159   6.063
16071SOL    HW148557   7.041   7.171   5.989
16071SOL    HW248558   6.934   7.248   6.086
16072SOL     OW48559   5.716   7.380   7.437
16072SOL    HW148560   5.675   7.306   7.490
16072SOL    HW248561   5.780   7.431   7.495
16073SOL     OW48562   6.866   6.513   6.258
16073SOL    HW148563   6.926   6.432   6.260
16073SOL    HW248564   6.906   6.582   6.198
16074SOL     OW48565   6.416   6.859   7.008
16074SOL    HW148566   6.411   6.892   7.103
16074SOL    HW248567   6.330   6.878   6.962
16075SOL     OW48568   6.258   7.202   5.740
16075SOL    HW148569   6.267   7.212   5.641
16075SOL    HW248570   6.218   7.113   5.761
16076SOL     OW48571   7.236   7.306   6.980
16076SOL    HW148572   7.289   7.316   6.896
16076SOL    HW248573   7.209   7.396   7.014
16077SOL     OW48574   7.427   5.761   6.549
16077SOL    HW148575   7.466   5.676   6.513
16077SOL    HW248576   7.329   5.763   6.530
16078SOL     OW48577   5.849   5.912   6.306
16078SOL    HW148578   5.770   5.963   6.272
16078SOL    HW248579   5.840   5.897   6.404
16079SOL     OW48580   6.780   7.198   5.617
16079SOL    HW148581   6.786   7.105   5.654
16079SOL    HW248582   6.721   7.198   5.537
16080SOL     OW48583   6.408   6.588   6.958
16080SOL    HW148584   6.448   6.587   6.866
16080SOL    HW248585   6.418   6.680   6.998
16081SOL     OW48586   6.502   6.496   5.877
16081SOL    HW148587   6.565   6.534   5.809
16081SOL    HW248588   6.542   6.413   5.916
16082SOL     OW48589   7.090   7.193   5.630
16082SOL    HW148590   6.998   7.230   5.637
16082SOL    HW248591   7.128   7.213   5.540
16083SOL     OW48592   5.958   6.874   7.076
16083SOL    HW148593   5.945   6.967   7.042
16083SOL    HW248594   5.874   6.822   7.063
16084SOL     OW48595   7.200   6.878   6.875
16084SOL    HW148596   7.260   6.881   6.955
16084SOL    HW248597   7.125   6.942   6.888
16085SOL     OW48598   6.625   6.684   6.282
16085SOL    HW148599   6.555   6.637   6.336
16085SOL    HW248600   6.684   6.616   6.239
16086SOL     OW48601   6.600   5.822   6.557
16086SOL    HW148602   6.592   5.786   6.464
16086SOL    HW248603   6.598   5.746   6.622
16087SOL     OW48604   6.176   7.073   6.077
16087SOL    HW148605   6.218   7.015   6.007
16087SOL    HW248606   6.132   7.152   6.033
16088SOL     OW48607   7.295   5.971   6.967
16088SOL    HW148608   7.368   6.040   6.971
16088SOL    HW248609   7.323   5.896   6.908
16089SOL     OW48610   5.841   6.934   5.876
16089SOL    HW148611   5.745   6.935   5.849
16089SOL    HW248612   5.853   6.987   5.960
16090SOL     OW48613   5.691   6.599   7.312
16090SOL    HW148614   5.614   6.566   7.366
16090SOL    HW248615   5.776   6.569   7.354
16091SOL     OW48616   6.258   5.789   7.075
16091SOL    HW148617   6.348   5.773   7.035
16091SOL    HW248618   6.266   5.794   7.174
16092SOL     OW48619   5.661   5.931   5.619
16092SOL    HW148620   5.569   5.903   5.590
16092SOL    HW248621   5.692   6.008   5.563
16093SOL     OW48622   7.026   6.442   6.984
16093SOL    HW148623   6.969   6.494   6.921
16093SOL    HW248624   7.122   6.454   6.960
16094SOL     OW48625   5.658   5.752   5.904
16094SOL    HW148626   5.641   5.835   5.850
16094SOL    HW248627   5.748   5.715   5.882
16095SOL     OW48628   6.769   6.921   5.705
16095SOL    HW148629   6.670   6.910   5.707
16095SOL    HW248630   6.803   6.936   5.798
16096SOL     OW48631   6.199   6.428   7.017
16096SOL    HW148632   6.255   6.509   7.000
16096SOL    HW248633   6.258   6.348   7.020
16097SOL     OW48634   7.079   7.353   6.545
16097SOL    HW148635   7.112   7.417   6.476
16097SOL    HW248636   7.145   7.347   6.620
16098SOL     OW48637   6.302   6.151   7.294
16098SOL    HW148638   6.321   6.216   7.368
16098SOL    HW248639   6.362   6.071   7.303
16099SOL     OW48640   7.036   6.806   7.219
16099SOL    HW148641   7.027   6.796   7.318
16099SOL    HW248642   7.132   6.799   7.193
16100SOL     OW48643   5.976   7.327   7.146
16100SOL    HW148644   5.885   7.368   7.144
16100SOL    HW248645   5.969   7.233   7.178
16101SOL     OW48646   7.260   6.469   6.840
16101SOL    HW148647   7.233   6.380   6.803
16101SOL    HW248648   7.261   6.537   6.767
16102SOL     OW48649   6.811   5.911   6.035
16102SOL    HW148650   6.876   5.837   6.024
16102SOL    HW248651   6.831   5.961   6.119
16103SOL     OW48652   6.180   6.331   6.238
16103SOL    HW148653   6.230   6.416   6.219
16103SOL    HW248654   6.092   6.333   6.190
16104SOL     OW48655   7.363   5.928   7.228
16104SOL    HW148656   7.346   5.959   7.134
16104SOL    HW248657   7.279   5.891   7.266
16105SOL     OW48658   7.316   6.520   7.103
16105SOL    HW148659   7.354   6.611   7.118
16105SOL    HW248660   7.308   6.503   7.004
16106SOL     OW48661   6.445   6.960   5.602
16106SOL    HW148662   6.399   6.975   5.690
16106SOL    HW248663   6.489   7.045   5.572
16107SOL     OW48664   6.247   7.376   6.539
16107SOL    HW148665   6.201   7.464   6.526
16107SOL    HW248666   6.346   7.388   6.532
16108SOL     OW48667   6.445   6.542   6.447
16108SOL    HW148668   6.499   6.473   6.495
16108SOL    HW248669   6.413   6.611   6.513
16109SOL     OW48670   6.669   6.570   5.673
16109SOL    HW148671   6.646   6.623   5.591
16109SOL    HW248672   6.750   6.514   5.654
16110SOL     OW48673   7.447   7.155   6.437
16110SOL    HW148674   7.376   7.143   6.367
16110SOL    HW248675   7.448   7.076   6.497
16111SOL     OW48676   5.807   6.900   7.430
16111SOL    HW148677   5.742   6.827   7.409
16111SOL    HW248678   5.811   6.914   7.528
16112SOL     OW48679   5.665   6.826   6.239
16112SOL    HW148680   5.664   6.779   6.327
16112SOL    HW248681   5.747   6.798   6.188
16113SOL     OW48682   6.258   6.977   7.210
16113SOL    HW148683   6.180   6.927   7.248
16113SOL    HW248684   6.255   7.072   7.241
16114SOL     OW48685   7.410   5.778   6.813
16114SOL    HW148686   7.406   5.688   6.857
16114SOL    HW248687   7.413   5.767   6.714
16115SOL     OW48688   6.014   6.010   6.106
16115SOL    HW148689   6.044   5.938   6.044
16115SOL    HW248690   5.975   5.970   6.189
16116SOL     OW48691   7.291   7.073   6.690
16116SOL    HW148692   7.198   7.048   6.663
16116SOL    HW248693   7.317   7.023   6.772
16117SOL     OW48694   5.903   6.133   6.866
16117SOL    HW148695   5.941   6.074   6.938
16117SOL    HW248696   5.943   6.107   6.778
16118SOL     OW48697   6.398   7.172   6.273
16118SOL    HW148698   6.430   7.182   6.179
16118SOL    HW248699   6.319   7.110   6.275
16119SOL     OW48700   7.010   5.800   6.698
16119SOL    HW148701   7.062   5.735   6.753
16119SOL    HW248702   6.961   5.863   6.759
16120SOL     OW48703   6.587   5.620   6.740
16120SOL    HW148704   6.524   5.548   6.709
16120SOL    HW248705   6.680   5.584   6.740
16121SOL     OW48706   6.356   6.916   5.887
16121SOL    HW148707   6.310   6.829   5.904
16121SOL    HW248708   6.447   6.913   5.928
16122SOL     OW48709   6.204   7.153   6.870
16122SOL    HW148710   6.199   7.235   6.927
16122SOL    HW248711   6.293   7.150   6.825
16123SOL     OW48712   6.938   5.638   5.754
16123SOL    HW148713   6.973   5.597   5.670
16123SOL    HW248714   6.848   5.600   5.774
16124SOL     OW48715   6.886   6.039   6.277
16124SOL    HW148716   6.827   6.119   6.281
16124SOL    HW248717   6.901   6.004   6.370
16125SOL     OW48718   7.179   5.807   6.468
16125SOL    HW148719   7.095   5.806   6.522
16125SOL    HW248720   7.181   5.890   6.412
16126SOL     OW48721   5.625   6.663   5.886
16126SOL    HW148722   5.724   6.652   5.877
16126SOL    HW248723   5.585   6.577   5.918
16127SOL     OW48724   6.461   7.232   5.923
16127SOL    HW148725   6.384   7.197   5.869
16127SOL    HW248726   6.429   7.303   5.985
16128SOL     OW48727   5.816   6.214   7.561
16128SOL    HW148728   5.723   6.212   7.598
16128SOL    HW248729   5.817   6.175   7.469
16129SOL     OW48730   7.341   6.193   7.679
16129SOL    HW148731   7.329   6.180   7.580
16129SOL    HW248732   7.311   6.112   7.728
16130SOL     OW48733   5.817   7.299   7.931
16130SOL    HW148734   5.851   7.376   7.985
16130SOL    HW248735   5.861   7.299   7.841
16131SOL     OW48736   5.613   7.182   7.565
16131SOL    HW148737   5.594   7.086   7.586
16131SOL    HW248738   5.580   7.240   7.640
16132SOL     OW48739   7.111   6.585   7.638
16132SOL    HW148740   7.048   6.509   7.651
16132SOL    HW248741   7.159   6.603   7.724
16133SOL     OW48742   6.184   6.315   7.718
16133SOL    HW148743   6.208   6.384   7.650
16133SOL    HW248744   6.106   6.348   7.772
16134SOL     OW48745   6.451   5.934   7.643
16134SOL    HW148746   6.510   5.997   7.594
16134SOL    HW248747   6.470   5.840   7.614
16135SOL     OW48748   5.907   6.529   7.690
16135SOL    HW148749   5.989   6.568   7.648
16135SOL    HW248750   5.880   6.447   7.641
16136SOL     OW48751   6.697   7.362   7.685
16136SOL    HW148752   6.637   7.300   7.735
16136SOL    HW248753   6.728   7.318   7.600
16137SOL     OW48754   7.218   6.963   7.529
16137SOL    HW148755   7.186   7.057   7.519
16137SOL    HW248756   7.142   6.900   7.517
16138SOL     OW48757   6.050   7.329   7.771
16138SOL    HW148758   6.083   7.368   7.857
16138SOL    HW248759   6.126   7.322   7.706
16139SOL     OW48760   5.968   6.286   7.928
16139SOL    HW148761   6.013   6.196   7.925
16139SOL    HW248762   5.874   6.275   7.961
16140SOL     OW48763   6.200   5.708   7.565
16140SOL    HW148764   6.298   5.686   7.572
16140SOL    HW248765   6.169   5.691   7.472
16141SOL     OW48766   7.020   6.774   7.489
16141SOL    HW148767   7.052   6.698   7.546
16141SOL    HW248768   6.928   6.801   7.519
16142SOL     OW48769   5.883   5.621   7.619
16142SOL    HW148770   5.932   5.705   7.598
16142SOL    HW248771   5.945   5.556   7.664
16143SOL     OW48772   6.618   6.135   7.464
16143SOL    HW148773   6.577   6.217   7.425
16143SOL    HW248774   6.682   6.161   7.537
16144SOL     OW48775   6.074   6.971   7.622
16144SOL    HW148776   5.987   6.956   7.669
16144SOL    HW248777   6.057   6.997   7.527
16145SOL     OW48778   6.976   6.161   7.526
16145SOL    HW148779   6.922   6.140   7.607
16145SOL    HW248780   7.067   6.120   7.535
16146SOL     OW48781   5.953   6.686   7.949
16146SOL    HW148782   5.946   6.769   7.893
16146SOL    HW248783   5.957   6.606   7.889
16147SOL     OW48784   6.795   6.111   7.723
16147SOL    HW148785   6.808   6.027   7.777
16147SOL    HW248786   6.766   6.185   7.783
16148SOL     OW48787   6.889   6.424   7.490
16148SOL    HW148788   6.923   6.331   7.505
16148SOL    HW248789   6.907   6.451   7.395
16149SOL     OW48790   5.594   6.912   7.648
16149SOL    HW148791   5.501   6.933   7.617
16149SOL    HW248792   5.604   6.813   7.661
16150SOL     OW48793   6.059   6.086   7.639
16150SOL    HW148794   6.120   6.166   7.643
16150SOL    HW248795   5.964   6.117   7.646
16151SOL     OW48796   6.258   7.202   7.602
16151SOL    HW148797   6.267   7.212   7.503
16151SOL    HW248798   6.218   7.113   7.623
16152SOL     OW48799   6.780   7.198   7.479
16152SOL    HW148800   6.786   7.105   7.516
16152SOL    HW248801   6.721   7.198   7.399
16153SOL     OW48802   7.090   7.193   7.492
16153SOL    HW148803   6.998   7.230   7.499
16153SOL    HW248804   7.128   7.213   7.402
16154SOL     OW48805   6.176   7.073   7.939
16154SOL    HW148806   6.218   7.015   7.869
16154SOL    HW248807   6.132   7.152   7.895
16155SOL     OW48808   5.841   6.934   7.738
16155SOL    HW148809   5.745   6.935   7.711
16155SOL    HW248810   5.853   6.987   7.822
16156SOL     OW48811   5.661   5.931   7.481
16156SOL    HW148812   5.569   5.903   7.452
16156SOL    HW248813   5.692   6.008   7.425
16157SOL     OW48814   5.658   5.752   7.766
16157SOL    HW148815   5.641   5.835   7.712
16157SOL    HW248816   5.748   5.715   7.744
16158SOL     OW48817   6.769   6.921   7.567
16158SOL    HW148818   6.670   6.910   7.569
16158SOL    HW248819   6.803   6.936   7.660
16159SOL     OW48820   6.445   6.960   7.464
16159SOL    HW148821   6.399   6.975   7.552
16159SOL    HW248822   6.489   7.045   7.434
16160SOL     OW48823   6.669   6.570   7.535
16160SOL    HW148824   6.646   6.623   7.453
16160SOL    HW248825   6.750   6.514   7.516
16161SOL     OW48826   6.014   6.010   7.968
16161SOL    HW148827   6.044   5.938   7.906
16161SOL    HW248828   5.975   5.970   8.051
16162SOL     OW48829   6.938   5.638   7.616
16162SOL    HW148830   6.973   5.597   7.532
16162SOL    HW248831   6.848   5.600   7.636
16163SOL     OW48832   5.625   6.663   7.748
16163SOL    HW148833   5.724   6.652   7.739
16163SOL    HW248834   5.585   6.577   7.780
16164SOL     OW48835   6.461   7.232   7.785
16164SOL    HW148836   6.384   7.197   7.731
16164SOL    HW248837   6.429   7.303   7.847
16165SOL     OW48838   5.816   8.076   0.113
16165SOL    HW148839   5.723   8.074   0.150
16165SOL    HW248840   5.817   8.037   0.021
16166SOL     OW48841   5.811   7.723   0.996
16166SOL    HW148842   5.846   7.706   1.088
16166SOL    HW248843   5.723   7.678   0.984
16167SOL     OW48844   5.605   7.816   0.647
16167SOL    HW148845   5.523   7.859   0.686
16167SOL    HW248846   5.577   7.743   0.584
16168SOL     OW48847   6.721   8.151   0.717
16168SOL    HW148848   6.778   8.229   0.692
16168SOL    HW248849   6.661   8.177   0.793
16169SOL     OW48850   6.354   8.592   1.023
16169SOL    HW148851   6.276   8.609   1.083
16169SOL    HW248852   6.388   8.679   0.987
16170SOL     OW48853   6.436   8.246   1.823
16170SOL    HW148854   6.432   8.322   1.888
16170SOL    HW248855   6.458   8.282   1.732
16171SOL     OW48856   6.271   8.460   0.665
16171SOL    HW148857   6.340   8.444   0.735
16171SOL    HW248858   6.198   8.517   0.703
16172SOL     OW48859   6.272   8.609   1.803
16172SOL    HW148860   6.332   8.688   1.817
16172SOL    HW248861   6.186   8.640   1.762
16173SOL     OW48862   6.024   7.840   1.499
16173SOL    HW148863   6.106   7.784   1.508
16173SOL    HW248864   5.943   7.782   1.503
16174SOL     OW48865   7.189   7.895   0.737
16174SOL    HW148866   7.115   7.941   0.687
16174SOL    HW248867   7.240   7.963   0.790
16175SOL     OW48868   6.713   8.789   1.690
16175SOL    HW148869   6.760   8.789   1.778
16175SOL    HW248870   6.665   8.702   1.679
16176SOL     OW48871   5.826   8.539   0.886
16176SOL    HW148872   5.840   8.455   0.938
16176SOL    HW248873   5.771   8.603   0.941
16177SOL     OW48874   6.192   8.412   0.123
16177SOL    HW148875   6.199   8.496   0.069
16177SOL    HW248876   6.238   8.425   0.211
16178SOL     OW48877   7.180   7.562   1.480
16178SOL    HW148878   7.162   7.629   1.408
16178SOL    HW248879   7.177   7.608   1.569
16179SOL     OW48880   5.708   8.091   0.563
16179SOL    HW148881   5.663   8.003   0.580
16179SOL    HW248882   5.707   8.145   0.647
16180SOL     OW48883   7.275   8.370   0.612
16180SOL    HW148884   7.370   8.341   0.620
16180SOL    HW248885   7.267   8.435   0.537
16181SOL     OW48886   7.227   8.556   0.432
16181SOL    HW148887   7.313   8.558   0.380
16181SOL    HW248888   7.241   8.603   0.520
16182SOL     OW48889   5.699   8.185   1.597
16182SOL    HW148890   5.787   8.172   1.642
16182SOL    HW248891   5.686   8.282   1.575
16183SOL     OW48892   6.199   8.813   0.726
16183SOL    HW148893   6.150   8.726   0.735
16183SOL    HW248894   6.176   8.856   0.639
16184SOL     OW48895   6.879   8.676   1.423
16184SOL    HW148896   6.916   8.603   1.365
16184SOL    HW248897   6.931   8.681   1.508
16185SOL     OW48898   6.395   7.452   0.502
16185SOL    HW148899   6.435   7.543   0.493
16185SOL    HW248900   6.295   7.460   0.508
16186SOL     OW48901   5.783   8.424   1.264
16186SOL    HW148902   5.872   8.379   1.250
16186SOL    HW248903   5.710   8.359   1.245
16187SOL     OW48904   5.903   7.699   1.801
16187SOL    HW148905   5.974   7.770   1.807
16187SOL    HW248906   5.815   7.738   1.829
16188SOL     OW48907   7.052   8.865   0.953
16188SOL    HW148908   6.993   8.871   1.033
16188SOL    HW248909   7.037   8.777   0.907
16189SOL     OW48910   6.184   8.177   0.270
16189SOL    HW148911   6.208   8.246   0.202
16189SOL    HW248912   6.106   8.210   0.324
16190SOL     OW48913   6.867   7.793   0.944
16190SOL    HW148914   6.781   7.743   0.931
16190SOL    HW248915   6.929   7.739   1.000
16191SOL     OW48916   6.393   8.053   1.465
16191SOL    HW148917   6.346   8.050   1.554
16191SOL    HW248918   6.342   7.998   1.399
16192SOL     OW48919   6.980   7.917   1.674
16192SOL    HW148920   6.960   7.960   1.762
16192SOL    HW248921   7.058   7.855   1.683
16193SOL     OW48922   6.559   8.338   1.572
16193SOL    HW148923   6.605   8.254   1.543
16193SOL    HW248924   6.503   8.372   1.497
16194SOL     OW48925   6.577   7.858   1.242
16194SOL    HW148926   6.500   7.892   1.296
16194SOL    HW248927   6.543   7.807   1.163
16195SOL     OW48928   5.662   8.259   0.789
16195SOL    HW148929   5.761   8.247   0.798
16195SOL    HW248930   5.638   8.354   0.810
16196SOL     OW48931   7.305   8.033   1.831
16196SOL    HW148932   7.279   8.122   1.795
16196SOL    HW248933   7.303   7.965   1.758
16197SOL     OW48934   6.948   8.592   0.545
16197SOL    HW148935   7.031   8.563   0.497
16197SOL    HW248936   6.899   8.659   0.489
16198SOL     OW48937   6.136   7.644   0.885
16198SOL    HW148938   6.131   7.639   0.985
16198SOL    HW248939   6.138   7.740   0.856
16199SOL     OW48940   7.381   8.514   0.873
16199SOL    HW148941   7.319   8.499   0.797
16199SOL    HW248942   7.329   8.525   0.958
16200SOL     OW48943   6.813   8.998   1.506
16200SOL    HW148944   6.819   8.921   1.570
16200SOL    HW248945   6.761   8.972   1.426
16201SOL     OW48946   5.907   8.391   0.242
16201SOL    HW148947   5.989   8.430   0.200
16201SOL    HW248948   5.880   8.309   0.193
16202SOL     OW48949   7.044   8.183   0.728
16202SOL    HW148950   7.039   8.118   0.803
16202SOL    HW248951   7.124   8.242   0.741
16203SOL     OW48952   6.047   8.714   1.727
16203SOL    HW148953   5.997   8.715   1.641
16203SOL    HW248954   5.984   8.696   1.803
16204SOL     OW48955   5.788   7.733   1.498
16204SOL    HW148956   5.708   7.793   1.485
16204SOL    HW248957   5.778   7.684   1.584
16205SOL     OW48958   6.986   7.555   0.426
16205SOL    HW148959   6.962   7.518   0.336
16205SOL    HW248960   7.085   7.571   0.430
16206SOL     OW48961   5.968   8.148   0.480
16206SOL    HW148962   6.013   8.058   0.477
16206SOL    HW248963   5.874   8.137   0.513
16207SOL     OW48964   7.133   7.670   1.729
16207SOL    HW148965   7.128   7.707   1.821
16207SOL    HW248966   7.061   7.601   1.717
16208SOL     OW48967   6.200   7.570   0.117
16208SOL    HW148968   6.298   7.548   0.124
16208SOL    HW248969   6.169   7.553   0.024
16209SOL     OW48970   6.367   7.712   1.749
16209SOL    HW148971   6.434   7.651   1.792
16209SOL    HW248972   6.294   7.731   1.814
16210SOL     OW48973   6.937   8.038   1.433
16210SOL    HW148974   6.965   7.995   1.518
16210SOL    HW248975   6.962   8.134   1.434
16211SOL     OW48976   6.389   8.850   0.924
16211SOL    HW148977   6.479   8.864   0.882
16211SOL    HW248978   6.318   8.852   0.853
16212SOL     OW48979   6.508   7.951   0.899
16212SOL    HW148980   6.483   7.942   0.803
16212SOL    HW248981   6.556   7.869   0.930
16213SOL     OW48982   6.125   7.512   0.512
16213SOL    HW148983   6.044   7.513   0.570
16213SOL    HW248984   6.128   7.595   0.457
16214SOL     OW48985   5.883   7.483   0.171
16214SOL    HW148986   5.932   7.567   0.150
16214SOL    HW248987   5.945   7.418   0.216
16215SOL     OW48988   6.521   7.684   0.480
16215SOL    HW148989   6.473   7.725   0.402
16215SOL    HW248990   6.620   7.682   0.461
16216SOL     OW48991   6.662   8.131   1.464
16216SOL    HW148992   6.582   8.070   1.467
16216SOL    HW248993   6.743   8.078   1.440
16217SOL     OW48994   6.045   8.600   0.741
16217SOL    HW148995   5.974   8.573   0.806
16217SOL    HW248996   6.019   8.572   0.648
16218SOL     OW48997   5.664   8.004   1.386
16218SOL    HW148998   5.756   8.003   1.345
16218SOL    HW248999   5.658   8.078   1.453
16219SOL     OW49000   6.147   7.670   1.147
16219SOL    HW149001   6.185   7.586   1.184
16219SOL    HW249002   6.059   7.689   1.191
16220SOL     OW49003   6.452   7.902   0.642
16220SOL    HW149004   6.420   7.974   0.580
16220SOL    HW249005   6.476   7.821   0.589
16221SOL     OW49006   6.603   7.487   0.753
16221SOL    HW149007   6.531   7.492   0.684
16221SOL    HW249008   6.579   7.418   0.822
16222SOL     OW49009   7.015   8.621   0.867
16222SOL    HW149010   6.960   8.537   0.860
16222SOL    HW249011   7.041   8.650   0.775
16223SOL     OW49012   7.052   8.038   0.992
16223SOL    HW149013   7.022   7.943   0.999
16223SOL    HW249014   7.125   8.054   1.058
16224SOL     OW49015   7.443   8.281   0.377
16224SOL    HW149016   7.485   8.217   0.441
16224SOL    HW249017   7.405   8.230   0.299
16225SOL     OW49018   6.113   7.704   0.328
16225SOL    HW149019   6.140   7.645   0.253
16225SOL    HW249020   6.113   7.799   0.297
16226SOL     OW49021   6.650   8.795   1.340
16226SOL    HW149022   6.570   8.772   1.395
16226SOL    HW249023   6.733   8.769   1.389
16227SOL     OW49024   6.697   8.643   1.100
16227SOL    HW149025   6.657   8.687   1.181
16227SOL    HW249026   6.656   8.680   1.017
16228SOL     OW49027   7.224   8.547   1.079
16228SOL    HW149028   7.229   8.628   1.138
16228SOL    HW249029   7.138   8.549   1.028
16229SOL     OW49030   6.501   7.537   1.402
16229SOL    HW149031   6.526   7.517   1.307
16229SOL    HW249032   6.573   7.593   1.444
16230SOL     OW49033   6.566   8.564   1.719
16230SOL    HW149034   6.467   8.570   1.729
16230SOL    HW249035   6.589   8.484   1.663
16231SOL     OW49036   6.291   8.498   0.368
16231SOL    HW149037   6.277   8.505   0.467
16231SOL    HW249038   6.375   8.447   0.350
16232SOL     OW49039   5.996   8.261   1.251
16232SOL    HW149040   6.082   8.273   1.301
16232SOL    HW249041   5.954   8.174   1.278
16233SOL     OW49042   6.860   7.834   1.262
16233SOL    HW149043   6.881   7.908   1.326
16233SOL    HW249044   6.771   7.851   1.219
16234SOL     OW49045   5.953   8.548   0.501
16234SOL    HW149046   5.946   8.631   0.445
16234SOL    HW249047   5.957   8.468   0.441
16235SOL     OW49048   6.152   7.985   0.865
16235SOL    HW149049   6.164   8.051   0.791
16235SOL    HW249050   6.198   8.019   0.948
16236SOL     OW49051   6.838   8.796   0.388
16236SOL    HW149052   6.888   8.873   0.428
16236SOL    HW249053   6.743   8.798   0.420
16237SOL     OW49054   7.168   8.087   0.472
16237SOL    HW149055   7.137   8.148   0.545
16237SOL    HW249056   7.218   8.139   0.403
16238SOL     OW49057   5.988   8.199   1.598
16238SOL    HW149058   6.056   8.254   1.551
16238SOL    HW249059   6.028   8.111   1.625
16239SOL     OW49060   7.173   8.227   1.670
16239SOL    HW149061   7.081   8.265   1.665
16239SOL    HW249062   7.233   8.274   1.605
16240SOL     OW49063   6.599   7.553   1.770
16240SOL    HW149064   6.605   7.638   1.718
16240SOL    HW249065   6.631   7.477   1.713
16241SOL     OW49066   6.090   7.498   1.740
16241SOL    HW149067   6.048   7.441   1.670
16241SOL    HW249068   6.024   7.567   1.772
16242SOL     OW49069   6.159   8.318   1.029
16242SOL    HW149070   6.203   8.407   1.020
16242SOL    HW249071   6.096   8.318   1.106
16243SOL     OW49072   6.946   8.310   1.045
16243SOL    HW149073   6.871   8.310   0.979
16243SOL    HW249074   6.983   8.218   1.054
16244SOL     OW49075   5.893   7.661   1.231
16244SOL    HW149076   5.870   7.698   1.321
16244SOL    HW249077   5.863   7.566   1.225
16245SOL     OW49078   5.623   8.758   1.282
16245SOL    HW149079   5.676   8.709   1.350
16245SOL    HW249080   5.645   8.856   1.287
16246SOL     OW49081   6.318   8.082   1.064
16246SOL    HW149082   6.377   8.056   0.988
16246SOL    HW249083   6.290   8.178   1.053
16247SOL     OW49084   7.314   8.383   1.854
16247SOL    HW149085   7.268   8.376   1.765
16247SOL    HW249086   7.252   8.427   1.920
16248SOL     OW49087   5.893   7.511   0.618
16248SOL    HW149088   5.882   7.605   0.651
16248SOL    HW249089   5.888   7.448   0.695
16249SOL     OW49090   6.609   8.214   0.966
16249SOL    HW149091   6.624   8.235   1.062
16249SOL    HW249092   6.579   8.119   0.957
16250SOL     OW49093   5.936   8.346   1.804
16250SOL    HW149094   6.012   8.390   1.852
16250SOL    HW249095   5.971   8.299   1.722
16251SOL     OW49096   6.654   8.781   0.849
16251SOL    HW149097   6.661   8.697   0.794
16251SOL    HW249098   6.716   8.850   0.813
16252SOL     OW49099   5.905   8.258   0.949
16252SOL    HW149100   5.998   8.294   0.954
16252SOL    HW249101   5.899   8.173   1.001
16253SOL     OW49102   5.925   7.957   1.006
16253SOL    HW149103   5.873   7.874   0.989
16253SOL    HW249104   6.002   7.962   0.942
16254SOL     OW49105   6.724   7.828   1.678
16254SOL    HW149106   6.679   7.891   1.742
16254SOL    HW249107   6.817   7.859   1.661
16255SOL     OW49108   6.746   7.655   1.477
16255SOL    HW149109   6.746   7.719   1.554
16255SOL    HW249110   6.774   7.703   1.394
16256SOL     OW49111   5.594   8.774   0.200
16256SOL    HW149112   5.501   8.795   0.169
16256SOL    HW249113   5.604   8.675   0.213
16257SOL     OW49114   6.588   8.244   1.238
16257SOL    HW149115   6.629   8.212   1.324
16257SOL    HW249116   6.492   8.217   1.235
16258SOL     OW49117   5.626   7.992   1.114
16258SOL    HW149118   5.711   7.959   1.073
16258SOL    HW249119   5.639   8.007   1.212
16259SOL     OW49120   5.775   7.968   1.722
16259SOL    HW149121   5.834   7.928   1.652
16259SOL    HW249122   5.717   8.039   1.681
16260SOL     OW49123   6.955   8.398   1.660
16260SOL    HW149124   6.994   8.487   1.680
16260SOL    HW249125   6.965   8.378   1.563
16261SOL     OW49126   7.243   8.052   1.206
16261SOL    HW149127   7.205   7.983   1.268
16261SOL    HW249128   7.325   8.016   1.162
16262SOL     OW49129   6.257   7.912   1.269
16262SOL    HW149130   6.223   7.823   1.239
16262SOL    HW249131   6.283   7.966   1.189
16263SOL     OW49132   6.059   7.948   0.191
16263SOL    HW149133   6.120   8.028   0.195
16263SOL    HW249134   5.964   7.979   0.198
16264SOL     OW49135   5.745   8.585   1.466
16264SOL    HW149136   5.767   8.524   1.542
16264SOL    HW249137   5.755   8.536   1.380
16265SOL     OW49138   6.933   8.507   1.234
16265SOL    HW149139   6.957   8.444   1.160
16265SOL    HW249140   6.843   8.547   1.216
16266SOL     OW49141   5.669   8.706   1.022
16266SOL    HW149142   5.664   8.705   1.122
16266SOL    HW249143   5.586   8.665   0.984
16267SOL     OW49144   7.312   7.583   0.523
16267SOL    HW149145   7.385   7.566   0.456
16267SOL    HW249146   7.281   7.496   0.561
16268SOL     OW49147   6.974   9.021   0.477
16268SOL    HW149148   7.041   9.033   0.403
16268SOL    HW249149   6.934   9.110   0.500
16269SOL     OW49150   6.866   8.375   0.672
16269SOL    HW149151   6.926   8.294   0.674
16269SOL    HW249152   6.906   8.444   0.612
16270SOL     OW49153   6.416   8.721   1.422
16270SOL    HW149154   6.411   8.754   1.517
16270SOL    HW249155   6.330   8.740   1.376
16271SOL     OW49156   7.427   7.623   0.963
16271SOL    HW149157   7.466   7.538   0.927
16271SOL    HW249158   7.329   7.625   0.944
16272SOL     OW49159   5.849   7.774   0.720
16272SOL    HW149160   5.770   7.825   0.686
16272SOL    HW249161   5.840   7.759   0.818
16273SOL     OW49162   6.408   8.450   1.372
16273SOL    HW149163   6.448   8.449   1.280
16273SOL    HW249164   6.418   8.542   1.412
16274SOL     OW49165   6.502   8.358   0.291
16274SOL    HW149166   6.565   8.396   0.223
16274SOL    HW249167   6.542   8.275   0.330
16275SOL     OW49168   5.958   8.736   1.490
16275SOL    HW149169   5.945   8.829   1.456
16275SOL    HW249170   5.874   8.684   1.477
16276SOL     OW49171   7.200   8.740   1.289
16276SOL    HW149172   7.260   8.743   1.369
16276SOL    HW249173   7.125   8.804   1.302
16277SOL     OW49174   6.625   8.546   0.696
16277SOL    HW149175   6.555   8.499   0.750
16277SOL    HW249176   6.684   8.478   0.653
16278SOL     OW49177   6.600   7.684   0.971
16278SOL    HW149178   6.592   7.648   0.878
16278SOL    HW249179   6.598   7.608   1.036
16279SOL     OW49180   6.176   8.935   0.491
16279SOL    HW149181   6.218   8.877   0.421
16279SOL    HW249182   6.132   9.014   0.447
16280SOL     OW49183   7.295   7.833   1.381
16280SOL    HW149184   7.368   7.902   1.385
16280SOL    HW249185   7.323   7.758   1.322
16281SOL     OW49186   5.691   8.461   1.726
16281SOL    HW149187   5.614   8.428   1.780
16281SOL    HW249188   5.776   8.431   1.768
16282SOL     OW49189   6.258   7.651   1.489
16282SOL    HW149190   6.348   7.635   1.449
16282SOL    HW249191   6.266   7.656   1.588
16283SOL     OW49192   5.661   7.793   0.033
16283SOL    HW149193   5.569   7.765   0.004
16283SOL    HW249194   5.692   7.870  -0.023
16284SOL     OW49195   7.026   8.304   1.398
16284SOL    HW149196   6.969   8.356   1.335
16284SOL    HW249197   7.122   8.316   1.374
16285SOL     OW49198   5.658   7.614   0.318
16285SOL    HW149199   5.641   7.697   0.264
16285SOL    HW249200   5.748   7.577   0.296
16286SOL     OW49201   6.199   8.290   1.431
16286SOL    HW149202   6.255   8.371   1.414
16286SOL    HW249203   6.258   8.210   1.434
16287SOL     OW49204   6.302   8.013   1.708
16287SOL    HW149205   6.321   8.078   1.782
16287SOL    HW249206   6.362   7.933   1.717
16288SOL     OW49207   7.036   8.668   1.633
16288SOL    HW149208   7.027   8.658   1.732
16288SOL    HW249209   7.132   8.661   1.607
16289SOL     OW49210   5.976   9.189   1.560
16289SOL    HW149211   5.885   9.230   1.558
16289SOL    HW249212   5.969   9.095   1.592
16290SOL     OW49213   7.260   8.331   1.254
16290SOL    HW149214   7.233   8.242   1.217
16290SOL    HW249215   7.261   8.399   1.181
16291SOL     OW49216   6.811   7.773   0.449
16291SOL    HW149217   6.876   7.699   0.438
16291SOL    HW249218   6.831   7.823   0.533
16292SOL     OW49219   6.180   8.193   0.652
16292SOL    HW149220   6.230   8.278   0.633
16292SOL    HW249221   6.092   8.195   0.604
16293SOL     OW49222   7.363   7.790   1.642
16293SOL    HW149223   7.346   7.821   1.548
16293SOL    HW249224   7.279   7.753   1.680
16294SOL     OW49225   7.316   8.382   1.517
16294SOL    HW149226   7.354   8.473   1.532
16294SOL    HW249227   7.308   8.365   1.418
16295SOL     OW49228   6.445   8.404   0.861
16295SOL    HW149229   6.499   8.335   0.909
16295SOL    HW249230   6.413   8.473   0.927
16296SOL     OW49231   5.807   8.762   1.844
16296SOL    HW149232   5.742   8.689   1.823
16296SOL    HW249233   5.811   8.776   1.942
16297SOL     OW49234   5.665   8.688   0.653
16297SOL    HW149235   5.664   8.641   0.741
16297SOL    HW249236   5.747   8.660   0.602
16298SOL     OW49237   6.258   8.839   1.624
16298SOL    HW149238   6.180   8.789   1.662
16298SOL    HW249239   6.255   8.934   1.655
16299SOL     OW49240   7.410   7.640   1.227
16299SOL    HW149241   7.406   7.550   1.271
16299SOL    HW249242   7.413   7.629   1.128
16300SOL     OW49243   6.014   7.872   0.520
16300SOL    HW149244   6.044   7.800   0.458
16300SOL    HW249245   5.975   7.832   0.603
16301SOL     OW49246   7.291   8.935   1.104
16301SOL    HW149247   7.198   8.910   1.077
16301SOL    HW249248   7.317   8.885   1.186
16302SOL     OW49249   5.903   7.995   1.280
16302SOL    HW149250   5.941   7.936   1.352
16302SOL    HW249251   5.943   7.969   1.192
16303SOL     OW49252   6.398   9.034   0.687
16303SOL    HW149253   6.430   9.044   0.593
16303SOL    HW249254   6.319   8.972   0.689
16304SOL     OW49255   7.010   7.662   1.112
16304SOL    HW149256   7.062   7.597   1.167
16304SOL    HW249257   6.961   7.725   1.173
16305SOL     OW49258   6.587   7.482   1.154
16305SOL    HW149259   6.524   7.410   1.123
16305SOL    HW249260   6.680   7.446   1.154
16306SOL     OW49261   6.356   8.778   0.301
16306SOL    HW149262   6.310   8.691   0.318
16306SOL    HW249263   6.447   8.775   0.342
16307SOL     OW49264   6.886   7.901   0.691
16307SOL    HW149265   6.827   7.981   0.695
16307SOL    HW249266   6.901   7.866   0.784
16308SOL     OW49267   7.179   7.669   0.882
16308SOL    HW149268   7.095   7.668   0.936
16308SOL    HW249269   7.181   7.752   0.826
16309SOL     OW49270   5.625   8.525   0.300
16309SOL    HW149271   5.724   8.514   0.291
16309SOL    HW249272   5.585   8.439   0.332
16310SOL     OW49273   5.816   8.076   1.975
16310SOL    HW149274   5.723   8.074   2.012
16310SOL    HW249275   5.817   8.037   1.883
16311SOL     OW49276   5.811   7.723   2.858
16311SOL    HW149277   5.846   7.706   2.950
16311SOL    HW249278   5.723   7.678   2.846
16312SOL     OW49279   5.605   7.816   2.509
16312SOL    HW149280   5.523   7.859   2.548
16312SOL    HW249281   5.577   7.743   2.446
16313SOL     OW49282   6.721   8.151   2.579
16313SOL    HW149283   6.778   8.229   2.554
16313SOL    HW249284   6.661   8.177   2.655
16314SOL     OW49285   7.341   8.055   2.093
16314SOL    HW149286   7.329   8.042   1.994
16314SOL    HW249287   7.311   7.974   2.142
16315SOL     OW49288   6.354   8.592   2.885
16315SOL    HW149289   6.276   8.609   2.945
16315SOL    HW249290   6.388   8.679   2.849
16316SOL     OW49291   6.436   8.246   3.685
16316SOL    HW149292   6.432   8.322   3.750
16316SOL    HW249293   6.458   8.282   3.594
16317SOL     OW49294   6.271   8.460   2.527
16317SOL    HW149295   6.340   8.444   2.597
16317SOL    HW249296   6.198   8.517   2.565
16318SOL     OW49297   6.272   8.609   3.665
16318SOL    HW149298   6.332   8.688   3.679
16318SOL    HW249299   6.186   8.640   3.624
16319SOL     OW49300   6.024   7.840   3.361
16319SOL    HW149301   6.106   7.784   3.370
16319SOL    HW249302   5.943   7.782   3.365
16320SOL     OW49303   7.189   7.895   2.599
16320SOL    HW149304   7.115   7.941   2.549
16320SOL    HW249305   7.240   7.963   2.652
16321SOL     OW49306   6.713   8.789   3.552
16321SOL    HW149307   6.760   8.789   3.640
16321SOL    HW249308   6.665   8.702   3.541
16322SOL     OW49309   5.826   8.539   2.748
16322SOL    HW149310   5.840   8.455   2.800
16322SOL    HW249311   5.771   8.603   2.803
16323SOL     OW49312   6.192   8.412   1.985
16323SOL    HW149313   6.199   8.496   1.931
16323SOL    HW249314   6.238   8.425   2.073
16324SOL     OW49315   7.180   7.562   3.342
16324SOL    HW149316   7.162   7.629   3.270
16324SOL    HW249317   7.177   7.608   3.431
16325SOL     OW49318   5.708   8.091   2.425
16325SOL    HW149319   5.663   8.003   2.442
16325SOL    HW249320   5.707   8.145   2.509
16326SOL     OW49321   7.275   8.370   2.474
16326SOL    HW149322   7.370   8.341   2.482
16326SOL    HW249323   7.267   8.435   2.399
16327SOL     OW49324   7.227   8.556   2.294
16327SOL    HW149325   7.313   8.558   2.242
16327SOL    HW249326   7.241   8.603   2.382
16328SOL     OW49327   5.699   8.185   3.459
16328SOL    HW149328   5.787   8.172   3.504
16328SOL    HW249329   5.686   8.282   3.437
16329SOL     OW49330   6.199   8.813   2.588
16329SOL    HW149331   6.150   8.726   2.597
16329SOL    HW249332   6.176   8.856   2.501
16330SOL     OW49333   6.879   8.676   3.285
16330SOL    HW149334   6.916   8.603   3.227
16330SOL    HW249335   6.931   8.681   3.370
16331SOL     OW49336   5.783   8.424   3.126
16331SOL    HW149337   5.872   8.379   3.112
16331SOL    HW249338   5.710   8.359   3.107
16332SOL     OW49339   7.111   8.447   2.052
16332SOL    HW149340   7.048   8.371   2.065
16332SOL    HW249341   7.159   8.465   2.138
16333SOL     OW49342   5.903   7.699   3.663
16333SOL    HW149343   5.974   7.770   3.669
16333SOL    HW249344   5.815   7.738   3.691
16334SOL     OW49345   7.052   8.865   2.815
16334SOL    HW149346   6.993   8.871   2.895
16334SOL    HW249347   7.037   8.777   2.769
16335SOL     OW49348   6.184   8.177   2.132
16335SOL    HW149349   6.208   8.246   2.064
16335SOL    HW249350   6.106   8.210   2.186
16336SOL     OW49351   6.867   7.793   2.806
16336SOL    HW149352   6.781   7.743   2.793
16336SOL    HW249353   6.929   7.739   2.862
16337SOL     OW49354   6.393   8.053   3.327
16337SOL    HW149355   6.346   8.050   3.416
16337SOL    HW249356   6.342   7.998   3.261
16338SOL     OW49357   6.980   7.917   3.536
16338SOL    HW149358   6.960   7.960   3.624
16338SOL    HW249359   7.058   7.855   3.545
16339SOL     OW49360   6.559   8.338   3.434
16339SOL    HW149361   6.605   8.254   3.405
16339SOL    HW249362   6.503   8.372   3.359
16340SOL     OW49363   6.577   7.858   3.104
16340SOL    HW149364   6.500   7.892   3.158
16340SOL    HW249365   6.543   7.807   3.025
16341SOL     OW49366   6.627   8.149   2.291
16341SOL    HW149367   6.653   8.145   2.387
16341SOL    HW249368   6.542   8.098   2.277
16342SOL     OW49369   5.662   8.259   2.651
16342SOL    HW149370   5.761   8.247   2.660
16342SOL    HW249371   5.638   8.354   2.672
16343SOL     OW49372   6.451   7.796   2.057
16343SOL    HW149373   6.510   7.859   2.008
16343SOL    HW249374   6.470   7.702   2.028
16344SOL     OW49375   7.305   8.033   3.693
16344SOL    HW149376   7.279   8.122   3.657
16344SOL    HW249377   7.303   7.965   3.620
16345SOL     OW49378   6.948   8.592   2.407
16345SOL    HW149379   7.031   8.563   2.359
16345SOL    HW249380   6.899   8.659   2.351
16346SOL     OW49381   6.136   7.644   2.747
16346SOL    HW149382   6.131   7.639   2.847
16346SOL    HW249383   6.138   7.740   2.718
16347SOL     OW49384   7.381   8.514   2.735
16347SOL    HW149385   7.319   8.499   2.659
16347SOL    HW249386   7.329   8.525   2.820
16348SOL     OW49387   6.813   8.998   3.368
16348SOL    HW149388   6.819   8.921   3.432
16348SOL    HW249389   6.761   8.972   3.288
16349SOL     OW49390   5.907   8.391   2.104
16349SOL    HW149391   5.989   8.430   2.062
16349SOL    HW249392   5.880   8.309   2.055
16350SOL     OW49393   7.044   8.183   2.590
16350SOL    HW149394   7.039   8.118   2.665
16350SOL    HW249395   7.124   8.242   2.603
16351SOL     OW49396   6.047   8.714   3.589
16351SOL    HW149397   5.997   8.715   3.503
16351SOL    HW249398   5.984   8.696   3.665
16352SOL     OW49399   5.788   7.733   3.360
16352SOL    HW149400   5.708   7.793   3.347
16352SOL    HW249401   5.778   7.684   3.446
16353SOL     OW49402   6.986   7.555   2.288
16353SOL    HW149403   6.962   7.518   2.198
16353SOL    HW249404   7.085   7.571   2.292
16354SOL     OW49405   5.968   8.148   2.342
16354SOL    HW149406   6.013   8.058   2.339
16354SOL    HW249407   5.874   8.137   2.375
16355SOL     OW49408   7.133   7.670   3.591
16355SOL    HW149409   7.128   7.707   3.683
16355SOL    HW249410   7.061   7.601   3.579
16356SOL     OW49411   6.367   7.712   3.611
16356SOL    HW149412   6.434   7.651   3.654
16356SOL    HW249413   6.294   7.731   3.676
16357SOL     OW49414   6.937   8.038   3.295
16357SOL    HW149415   6.965   7.995   3.380
16357SOL    HW249416   6.962   8.134   3.296
16358SOL     OW49417   6.389   8.850   2.786
16358SOL    HW149418   6.479   8.864   2.744
16358SOL    HW249419   6.318   8.852   2.715
16359SOL     OW49420   6.508   7.951   2.761
16359SOL    HW149421   6.483   7.942   2.665
16359SOL    HW249422   6.556   7.869   2.792
16360SOL     OW49423   6.125   7.512   2.374
16360SOL    HW149424   6.044   7.513   2.432
16360SOL    HW249425   6.128   7.595   2.319
16361SOL     OW49426   7.020   8.636   1.903
16361SOL    HW149427   7.052   8.560   1.960
16361SOL    HW249428   6.928   8.663   1.933
16362SOL     OW49429   5.883   7.483   2.033
16362SOL    HW149430   5.932   7.567   2.012
16362SOL    HW249431   5.945   7.418   2.078
16363SOL     OW49432   6.521   7.684   2.342
16363SOL    HW149433   6.473   7.725   2.264
16363SOL    HW249434   6.620   7.682   2.323
16364SOL     OW49435   6.662   8.131   3.326
16364SOL    HW149436   6.582   8.070   3.329
16364SOL    HW249437   6.743   8.078   3.302
16365SOL     OW49438   6.045   8.600   2.603
16365SOL    HW149439   5.974   8.573   2.668
16365SOL    HW249440   6.019   8.572   2.510
16366SOL     OW49441   6.618   7.997   1.878
16366SOL    HW149442   6.577   8.079   1.839
16366SOL    HW249443   6.682   8.023   1.951
16367SOL     OW49444   5.664   8.004   3.248
16367SOL    HW149445   5.756   8.003   3.207
16367SOL    HW249446   5.658   8.078   3.315
16368SOL     OW49447   6.147   7.670   3.009
16368SOL    HW149448   6.185   7.586   3.046
16368SOL    HW249449   6.059   7.689   3.053
16369SOL     OW49450   6.452   7.902   2.504
16369SOL    HW149451   6.420   7.974   2.442
16369SOL    HW249452   6.476   7.821   2.451
16370SOL     OW49453   6.603   7.487   2.615
16370SOL    HW149454   6.531   7.492   2.546
16370SOL    HW249455   6.579   7.418   2.684
16371SOL     OW49456   7.015   8.621   2.729
16371SOL    HW149457   6.960   8.537   2.722
16371SOL    HW249458   7.041   8.650   2.637
16372SOL     OW49459   7.052   8.038   2.854
16372SOL    HW149460   7.022   7.943   2.861
16372SOL    HW249461   7.125   8.054   2.920
16373SOL     OW49462   7.443   8.281   2.239
16373SOL    HW149463   7.485   8.217   2.303
16373SOL    HW249464   7.405   8.230   2.161
16374SOL     OW49465   6.074   8.833   2.036
16374SOL    HW149466   5.987   8.818   2.083
16374SOL    HW249467   6.057   8.859   1.941
16375SOL     OW49468   6.976   8.023   1.940
16375SOL    HW149469   6.922   8.002   2.021
16375SOL    HW249470   7.067   7.982   1.949
16376SOL     OW49471   6.113   7.704   2.190
16376SOL    HW149472   6.140   7.645   2.115
16376SOL    HW249473   6.113   7.799   2.159
16377SOL     OW49474   6.650   8.795   3.202
16377SOL    HW149475   6.570   8.772   3.257
16377SOL    HW249476   6.733   8.769   3.251
16378SOL     OW49477   6.697   8.643   2.962
16378SOL    HW149478   6.657   8.687   3.043
16378SOL    HW249479   6.656   8.680   2.879
16379SOL     OW49480   7.224   8.547   2.941
16379SOL    HW149481   7.229   8.628   3.000
16379SOL    HW249482   7.138   8.549   2.890
16380SOL     OW49483   6.501   7.537   3.264
16380SOL    HW149484   6.526   7.517   3.169
16380SOL    HW249485   6.573   7.593   3.306
16381SOL     OW49486   6.566   8.564   3.581
16381SOL    HW149487   6.467   8.570   3.591
16381SOL    HW249488   6.589   8.484   3.525
16382SOL     OW49489   6.291   8.498   2.230
16382SOL    HW149490   6.277   8.505   2.329
16382SOL    HW249491   6.375   8.447   2.212
16383SOL     OW49492   5.996   8.261   3.113
16383SOL    HW149493   6.082   8.273   3.163
16383SOL    HW249494   5.954   8.174   3.140
16384SOL     OW49495   6.860   7.834   3.124
16384SOL    HW149496   6.881   7.908   3.188
16384SOL    HW249497   6.771   7.851   3.081
16385SOL     OW49498   5.953   8.548   2.363
16385SOL    HW149499   5.946   8.631   2.307
16385SOL    HW249500   5.957   8.468   2.303
16386SOL     OW49501   6.152   7.985   2.727
16386SOL    HW149502   6.164   8.051   2.653
16386SOL    HW249503   6.198   8.019   2.810
16387SOL     OW49504   6.838   8.796   2.250
16387SOL    HW149505   6.888   8.873   2.290
16387SOL    HW249506   6.743   8.798   2.282
16388SOL     OW49507   7.168   8.087   2.334
16388SOL    HW149508   7.137   8.148   2.407
16388SOL    HW249509   7.218   8.139   2.265
16389SOL     OW49510   5.988   8.199   3.460
16389SOL    HW149511   6.056   8.254   3.413
16389SOL    HW249512   6.028   8.111   3.487
16390SOL     OW49513   7.173   8.227   3.532
16390SOL    HW149514   7.081   8.265   3.527
16390SOL    HW249515   7.233   8.274   3.467
16391SOL     OW49516   6.599   7.553   3.632
16391SOL    HW149517   6.605   7.638   3.580
16391SOL    HW249518   6.631   7.477   3.575
16392SOL     OW49519   6.090   7.498   3.602
16392SOL    HW149520   6.048   7.441   3.532
16392SOL    HW249521   6.024   7.567   3.634
16393SOL     OW49522   6.159   8.318   2.891
16393SOL    HW149523   6.203   8.407   2.882
16393SOL    HW249524   6.096   8.318   2.968
16394SOL     OW49525   6.946   8.310   2.907
16394SOL    HW149526   6.871   8.310   2.841
16394SOL    HW249527   6.983   8.218   2.916
16395SOL     OW49528   6.795   7.973   2.137
16395SOL    HW149529   6.808   7.889   2.191
16395SOL    HW249530   6.766   8.047   2.197
16396SOL     OW49531   5.893   7.661   3.093
16396SOL    HW149532   5.870   7.698   3.183
16396SOL    HW249533   5.863   7.566   3.087
16397SOL     OW49534   5.623   8.758   3.144
16397SOL    HW149535   5.676   8.709   3.212
16397SOL    HW249536   5.645   8.856   3.149
16398SOL     OW49537   6.318   8.082   2.926
16398SOL    HW149538   6.377   8.056   2.850
16398SOL    HW249539   6.290   8.178   2.915
16399SOL     OW49540   7.314   8.383   3.716
16399SOL    HW149541   7.268   8.376   3.627
16399SOL    HW249542   7.252   8.427   3.782
16400SOL     OW49543   5.893   7.511   2.480
16400SOL    HW149544   5.882   7.605   2.513
16400SOL    HW249545   5.888   7.448   2.557
16401SOL     OW49546   7.208   7.815   2.236
16401SOL    HW149547   7.210   7.739   2.300
16401SOL    HW249548   7.160   7.892   2.276
16402SOL     OW49549   6.609   8.214   2.828
16402SOL    HW149550   6.624   8.235   2.924
16402SOL    HW249551   6.579   8.119   2.819
16403SOL     OW49552   5.936   8.346   3.666
16403SOL    HW149553   6.012   8.390   3.714
16403SOL    HW249554   5.971   8.299   3.584
16404SOL     OW49555   7.126   7.722   1.987
16404SOL    HW149556   7.065   7.647   2.010
16404SOL    HW249557   7.148   7.774   2.070
16405SOL     OW49558   6.889   8.286   1.904
16405SOL    HW149559   6.923   8.193   1.919
16405SOL    HW249560   6.907   8.313   1.809
16406SOL     OW49561   6.654   8.781   2.711
16406SOL    HW149562   6.661   8.697   2.656
16406SOL    HW249563   6.716   8.850   2.675
16407SOL     OW49564   5.905   8.258   2.811
16407SOL    HW149565   5.998   8.294   2.816
16407SOL    HW249566   5.899   8.173   2.863
16408SOL     OW49567   5.925   7.957   2.868
16408SOL    HW149568   5.873   7.874   2.851
16408SOL    HW249569   6.002   7.962   2.804
16409SOL     OW49570   6.724   7.828   3.540
16409SOL    HW149571   6.679   7.891   3.604
16409SOL    HW249572   6.817   7.859   3.523
16410SOL     OW49573   6.746   7.655   3.339
16410SOL    HW149574   6.746   7.719   3.416
16410SOL    HW249575   6.774   7.703   3.256
16411SOL     OW49576   5.594   8.774   2.062
16411SOL    HW149577   5.501   8.795   2.031
16411SOL    HW249578   5.604   8.675   2.075
16412SOL     OW49579   6.588   8.244   3.100
16412SOL    HW149580   6.629   8.212   3.186
16412SOL    HW249581   6.492   8.217   3.097
16413SOL     OW49582   5.626   7.992   2.976
16413SOL    HW149583   5.711   7.959   2.935
16413SOL    HW249584   5.639   8.007   3.074
16414SOL     OW49585   5.775   7.968   3.584
16414SOL    HW149586   5.834   7.928   3.514
16414SOL    HW249587   5.717   8.039   3.543
16415SOL     OW49588   6.955   8.398   3.522
16415SOL    HW149589   6.994   8.487   3.542
16415SOL    HW249590   6.965   8.378   3.425
16416SOL     OW49591   6.401   8.020   2.187
16416SOL    HW149592   6.408   7.931   2.141
16416SOL    HW249593   6.307   8.054   2.179
16417SOL     OW49594   7.243   8.052   3.068
16417SOL    HW149595   7.205   7.983   3.130
16417SOL    HW249596   7.325   8.016   3.024
16418SOL     OW49597   6.257   7.912   3.131
16418SOL    HW149598   6.223   7.823   3.101
16418SOL    HW249599   6.283   7.966   3.051
16419SOL     OW49600   6.059   7.948   2.053
16419SOL    HW149601   6.120   8.028   2.057
16419SOL    HW249602   5.964   7.979   2.060
16420SOL     OW49603   5.745   8.585   3.328
16420SOL    HW149604   5.767   8.524   3.404
16420SOL    HW249605   5.755   8.536   3.242
16421SOL     OW49606   6.933   8.507   3.096
16421SOL    HW149607   6.957   8.444   3.022
16421SOL    HW249608   6.843   8.547   3.078
16422SOL     OW49609   6.888   8.303   2.171
16422SOL    HW149610   6.802   8.272   2.213
16422SOL    HW249611   6.884   8.289   2.072
16423SOL     OW49612   5.669   8.706   2.884
16423SOL    HW149613   5.664   8.705   2.984
16423SOL    HW249614   5.586   8.665   2.846
16424SOL     OW49615   7.312   7.583   2.385
16424SOL    HW149616   7.385   7.566   2.318
16424SOL    HW249617   7.281   7.496   2.423
16425SOL     OW49618   6.866   8.375   2.534
16425SOL    HW149619   6.926   8.294   2.536
16425SOL    HW249620   6.906   8.444   2.474
16426SOL     OW49621   6.416   8.721   3.284
16426SOL    HW149622   6.411   8.754   3.379
16426SOL    HW249623   6.330   8.740   3.238
16427SOL     OW49624   7.427   7.623   2.825
16427SOL    HW149625   7.466   7.538   2.789
16427SOL    HW249626   7.329   7.625   2.806
16428SOL     OW49627   5.849   7.774   2.582
16428SOL    HW149628   5.770   7.825   2.548
16428SOL    HW249629   5.840   7.759   2.680
16429SOL     OW49630   6.780   9.060   1.893
16429SOL    HW149631   6.786   8.967   1.930
16429SOL    HW249632   6.721   9.060   1.813
16430SOL     OW49633   6.408   8.450   3.234
16430SOL    HW149634   6.448   8.449   3.142
16430SOL    HW249635   6.418   8.542   3.274
16431SOL     OW49636   6.502   8.358   2.153
16431SOL    HW149637   6.565   8.396   2.085
16431SOL    HW249638   6.542   8.275   2.192
16432SOL     OW49639   5.958   8.736   3.352
16432SOL    HW149640   5.945   8.829   3.318
16432SOL    HW249641   5.874   8.684   3.339
16433SOL     OW49642   7.200   8.740   3.151
16433SOL    HW149643   7.260   8.743   3.231
16433SOL    HW249644   7.125   8.804   3.164
16434SOL     OW49645   6.625   8.546   2.558
16434SOL    HW149646   6.555   8.499   2.612
16434SOL    HW249647   6.684   8.478   2.515
16435SOL     OW49648   6.600   7.684   2.833
16435SOL    HW149649   6.592   7.648   2.740
16435SOL    HW249650   6.598   7.608   2.898
16436SOL     OW49651   6.176   8.935   2.353
16436SOL    HW149652   6.218   8.877   2.283
16436SOL    HW249653   6.132   9.014   2.309
16437SOL     OW49654   7.295   7.833   3.243
16437SOL    HW149655   7.368   7.902   3.247
16437SOL    HW249656   7.323   7.758   3.184
16438SOL     OW49657   5.691   8.461   3.588
16438SOL    HW149658   5.614   8.428   3.642
16438SOL    HW249659   5.776   8.431   3.630
16439SOL     OW49660   6.258   7.651   3.351
16439SOL    HW149661   6.348   7.635   3.311
16439SOL    HW249662   6.266   7.656   3.450
16440SOL     OW49663   5.661   7.793   1.895
16440SOL    HW149664   5.569   7.765   1.866
16440SOL    HW249665   5.692   7.870   1.839
16441SOL     OW49666   7.026   8.304   3.260
16441SOL    HW149667   6.969   8.356   3.197
16441SOL    HW249668   7.122   8.316   3.236
16442SOL     OW49669   5.658   7.614   2.180
16442SOL    HW149670   5.641   7.697   2.126
16442SOL    HW249671   5.748   7.577   2.158
16443SOL     OW49672   6.769   8.783   1.981
16443SOL    HW149673   6.670   8.772   1.983
16443SOL    HW249674   6.803   8.798   2.074
16444SOL     OW49675   6.199   8.290   3.293
16444SOL    HW149676   6.255   8.371   3.276
16444SOL    HW249677   6.258   8.210   3.296
16445SOL     OW49678   6.302   8.013   3.570
16445SOL    HW149679   6.321   8.078   3.644
16445SOL    HW249680   6.362   7.933   3.579
16446SOL     OW49681   7.036   8.668   3.495
16446SOL    HW149682   7.027   8.658   3.594
16446SOL    HW249683   7.132   8.661   3.469
16447SOL     OW49684   5.976   9.189   3.422
16447SOL    HW149685   5.885   9.230   3.420
16447SOL    HW249686   5.969   9.095   3.454
16448SOL     OW49687   7.260   8.331   3.116
16448SOL    HW149688   7.233   8.242   3.079
16448SOL    HW249689   7.261   8.399   3.043
16449SOL     OW49690   6.811   7.773   2.311
16449SOL    HW149691   6.876   7.699   2.300
16449SOL    HW249692   6.831   7.823   2.395
16450SOL     OW49693   6.180   8.193   2.514
16450SOL    HW149694   6.230   8.278   2.495
16450SOL    HW249695   6.092   8.195   2.466
16451SOL     OW49696   7.363   7.790   3.504
16451SOL    HW149697   7.346   7.821   3.410
16451SOL    HW249698   7.279   7.753   3.542
16452SOL     OW49699   7.316   8.382   3.379
16452SOL    HW149700   7.354   8.473   3.394
16452SOL    HW249701   7.308   8.365   3.280
16453SOL     OW49702   6.445   8.404   2.723
16453SOL    HW149703   6.499   8.335   2.771
16453SOL    HW249704   6.413   8.473   2.789
16454SOL     OW49705   6.669   8.432   1.949
16454SOL    HW149706   6.646   8.485   1.867
16454SOL    HW249707   6.750   8.376   1.930
16455SOL     OW49708   5.807   8.762   3.706
16455SOL    HW149709   5.742   8.689   3.685
16455SOL    HW249710   5.811   8.776   3.804
16456SOL     OW49711   5.665   8.688   2.515
16456SOL    HW149712   5.664   8.641   2.603
16456SOL    HW249713   5.747   8.660   2.464
16457SOL     OW49714   6.258   8.839   3.486
16457SOL    HW149715   6.180   8.789   3.524
16457SOL    HW249716   6.255   8.934   3.517
16458SOL     OW49717   7.410   7.640   3.089
16458SOL    HW149718   7.406   7.550   3.133
16458SOL    HW249719   7.413   7.629   2.990
16459SOL     OW49720   6.014   7.872   2.382
16459SOL    HW149721   6.044   7.800   2.320
16459SOL    HW249722   5.975   7.832   2.465
16460SOL     OW49723   7.291   8.935   2.966
16460SOL    HW149724   7.198   8.910   2.939
16460SOL    HW249725   7.317   8.885   3.048
16461SOL     OW49726   5.903   7.995   3.142
16461SOL    HW149727   5.941   7.936   3.214
16461SOL    HW249728   5.943   7.969   3.054
16462SOL     OW49729   6.398   9.034   2.549
16462SOL    HW149730   6.430   9.044   2.455
16462SOL    HW249731   6.319   8.972   2.551
16463SOL     OW49732   7.010   7.662   2.974
16463SOL    HW149733   7.062   7.597   3.029
16463SOL    HW249734   6.961   7.725   3.035
16464SOL     OW49735   6.587   7.482   3.016
16464SOL    HW149736   6.524   7.410   2.985
16464SOL    HW249737   6.680   7.446   3.016
16465SOL     OW49738   6.356   8.778   2.163
16465SOL    HW149739   6.310   8.691   2.180
16465SOL    HW249740   6.447   8.775   2.204
16466SOL     OW49741   6.938   7.500   2.030
16466SOL    HW149742   6.973   7.459   1.946
16466SOL    HW249743   6.848   7.462   2.050
16467SOL     OW49744   6.886   7.901   2.553
16467SOL    HW149745   6.827   7.981   2.557
16467SOL    HW249746   6.901   7.866   2.646
16468SOL     OW49747   7.179   7.669   2.744
16468SOL    HW149748   7.095   7.668   2.798
16468SOL    HW249749   7.181   7.752   2.688
16469SOL     OW49750   5.625   8.525   2.162
16469SOL    HW149751   5.724   8.514   2.153
16469SOL    HW249752   5.585   8.439   2.194
16470SOL     OW49753   5.816   8.076   3.837
16470SOL    HW149754   5.723   8.074   3.874
16470SOL    HW249755   5.817   8.037   3.745
16471SOL     OW49756   5.811   7.723   4.720
16471SOL    HW149757   5.846   7.706   4.812
16471SOL    HW249758   5.723   7.678   4.708
16472SOL     OW49759   5.605   7.816   4.371
16472SOL    HW149760   5.523   7.859   4.410
16472SOL    HW249761   5.577   7.743   4.308
16473SOL     OW49762   6.721   8.151   4.441
16473SOL    HW149763   6.778   8.229   4.416
16473SOL    HW249764   6.661   8.177   4.517
16474SOL     OW49765   7.341   8.055   3.955
16474SOL    HW149766   7.329   8.042   3.856
16474SOL    HW249767   7.311   7.974   4.004
16475SOL     OW49768   6.354   8.592   4.747
16475SOL    HW149769   6.276   8.609   4.807
16475SOL    HW249770   6.388   8.679   4.711
16476SOL     OW49771   6.436   8.246   5.547
16476SOL    HW149772   6.432   8.322   5.612
16476SOL    HW249773   6.458   8.282   5.456
16477SOL     OW49774   6.271   8.460   4.389
16477SOL    HW149775   6.340   8.444   4.459
16477SOL    HW249776   6.198   8.517   4.427
16478SOL     OW49777   6.272   8.609   5.527
16478SOL    HW149778   6.332   8.688   5.541
16478SOL    HW249779   6.186   8.640   5.486
16479SOL     OW49780   6.024   7.840   5.223
16479SOL    HW149781   6.106   7.784   5.232
16479SOL    HW249782   5.943   7.782   5.227
16480SOL     OW49783   7.189   7.895   4.461
16480SOL    HW149784   7.115   7.941   4.411
16480SOL    HW249785   7.240   7.963   4.514
16481SOL     OW49786   6.713   8.789   5.414
16481SOL    HW149787   6.760   8.789   5.502
16481SOL    HW249788   6.665   8.702   5.403
16482SOL     OW49789   5.826   8.539   4.610
16482SOL    HW149790   5.840   8.455   4.662
16482SOL    HW249791   5.771   8.603   4.665
16483SOL     OW49792   6.192   8.412   3.847
16483SOL    HW149793   6.199   8.496   3.793
16483SOL    HW249794   6.238   8.425   3.935
16484SOL     OW49795   7.180   7.562   5.204
16484SOL    HW149796   7.162   7.629   5.132
16484SOL    HW249797   7.177   7.608   5.293
16485SOL     OW49798   5.708   8.091   4.287
16485SOL    HW149799   5.663   8.003   4.304
16485SOL    HW249800   5.707   8.145   4.371
16486SOL     OW49801   7.275   8.370   4.336
16486SOL    HW149802   7.370   8.341   4.344
16486SOL    HW249803   7.267   8.435   4.261
16487SOL     OW49804   7.227   8.556   4.156
16487SOL    HW149805   7.313   8.558   4.104
16487SOL    HW249806   7.241   8.603   4.244
16488SOL     OW49807   5.699   8.185   5.321
16488SOL    HW149808   5.787   8.172   5.366
16488SOL    HW249809   5.686   8.282   5.299
16489SOL     OW49810   6.199   8.813   4.450
16489SOL    HW149811   6.150   8.726   4.459
16489SOL    HW249812   6.176   8.856   4.363
16490SOL     OW49813   6.879   8.676   5.147
16490SOL    HW149814   6.916   8.603   5.089
16490SOL    HW249815   6.931   8.681   5.232
16491SOL     OW49816   6.395   7.452   4.226
16491SOL    HW149817   6.435   7.543   4.217
16491SOL    HW249818   6.295   7.460   4.232
16492SOL     OW49819   5.783   8.424   4.988
16492SOL    HW149820   5.872   8.379   4.974
16492SOL    HW249821   5.710   8.359   4.969
16493SOL     OW49822   7.111   8.447   3.914
16493SOL    HW149823   7.048   8.371   3.927
16493SOL    HW249824   7.159   8.465   4.000
16494SOL     OW49825   5.903   7.699   5.525
16494SOL    HW149826   5.974   7.770   5.531
16494SOL    HW249827   5.815   7.738   5.553
16495SOL     OW49828   7.052   8.865   4.677
16495SOL    HW149829   6.993   8.871   4.757
16495SOL    HW249830   7.037   8.777   4.631
16496SOL     OW49831   6.184   8.177   3.994
16496SOL    HW149832   6.208   8.246   3.926
16496SOL    HW249833   6.106   8.210   4.048
16497SOL     OW49834   6.867   7.793   4.668
16497SOL    HW149835   6.781   7.743   4.655
16497SOL    HW249836   6.929   7.739   4.724
16498SOL     OW49837   6.393   8.053   5.189
16498SOL    HW149838   6.346   8.050   5.278
16498SOL    HW249839   6.342   7.998   5.123
16499SOL     OW49840   6.980   7.917   5.398
16499SOL    HW149841   6.960   7.960   5.486
16499SOL    HW249842   7.058   7.855   5.407
16500SOL     OW49843   6.559   8.338   5.296
16500SOL    HW149844   6.605   8.254   5.267
16500SOL    HW249845   6.503   8.372   5.221
16501SOL     OW49846   6.577   7.858   4.966
16501SOL    HW149847   6.500   7.892   5.020
16501SOL    HW249848   6.543   7.807   4.887
16502SOL     OW49849   6.627   8.149   4.153
16502SOL    HW149850   6.653   8.145   4.249
16502SOL    HW249851   6.542   8.098   4.139
16503SOL     OW49852   5.662   8.259   4.513
16503SOL    HW149853   5.761   8.247   4.522
16503SOL    HW249854   5.638   8.354   4.534
16504SOL     OW49855   6.451   7.796   3.919
16504SOL    HW149856   6.510   7.859   3.870
16504SOL    HW249857   6.470   7.702   3.890
16505SOL     OW49858   7.305   8.033   5.555
16505SOL    HW149859   7.279   8.122   5.519
16505SOL    HW249860   7.303   7.965   5.482
16506SOL     OW49861   6.948   8.592   4.269
16506SOL    HW149862   7.031   8.563   4.221
16506SOL    HW249863   6.899   8.659   4.213
16507SOL     OW49864   6.136   7.644   4.609
16507SOL    HW149865   6.131   7.639   4.709
16507SOL    HW249866   6.138   7.740   4.580
16508SOL     OW49867   7.381   8.514   4.597
16508SOL    HW149868   7.319   8.499   4.521
16508SOL    HW249869   7.329   8.525   4.682
16509SOL     OW49870   6.813   8.998   5.230
16509SOL    HW149871   6.819   8.921   5.294
16509SOL    HW249872   6.761   8.972   5.150
16510SOL     OW49873   5.907   8.391   3.966
16510SOL    HW149874   5.989   8.430   3.924
16510SOL    HW249875   5.880   8.309   3.917
16511SOL     OW49876   7.044   8.183   4.452
16511SOL    HW149877   7.039   8.118   4.527
16511SOL    HW249878   7.124   8.242   4.465
16512SOL     OW49879   6.047   8.714   5.451
16512SOL    HW149880   5.997   8.715   5.365
16512SOL    HW249881   5.984   8.696   5.527
16513SOL     OW49882   5.788   7.733   5.222
16513SOL    HW149883   5.708   7.793   5.209
16513SOL    HW249884   5.778   7.684   5.308
16514SOL     OW49885   6.986   7.555   4.150
16514SOL    HW149886   6.962   7.518   4.060
16514SOL    HW249887   7.085   7.571   4.154
16515SOL     OW49888   5.968   8.148   4.204
16515SOL    HW149889   6.013   8.058   4.201
16515SOL    HW249890   5.874   8.137   4.237
16516SOL     OW49891   7.133   7.670   5.453
16516SOL    HW149892   7.128   7.707   5.545
16516SOL    HW249893   7.061   7.601   5.441
16517SOL     OW49894   6.200   7.570   3.841
16517SOL    HW149895   6.298   7.548   3.848
16517SOL    HW249896   6.169   7.553   3.748
16518SOL     OW49897   6.367   7.712   5.473
16518SOL    HW149898   6.434   7.651   5.516
16518SOL    HW249899   6.294   7.731   5.538
16519SOL     OW49900   6.937   8.038   5.157
16519SOL    HW149901   6.965   7.995   5.242
16519SOL    HW249902   6.962   8.134   5.158
16520SOL     OW49903   6.389   8.850   4.648
16520SOL    HW149904   6.479   8.864   4.606
16520SOL    HW249905   6.318   8.852   4.577
16521SOL     OW49906   6.508   7.951   4.623
16521SOL    HW149907   6.483   7.942   4.527
16521SOL    HW249908   6.556   7.869   4.654
16522SOL     OW49909   6.125   7.512   4.236
16522SOL    HW149910   6.044   7.513   4.294
16522SOL    HW249911   6.128   7.595   4.181
16523SOL     OW49912   7.020   8.636   3.765
16523SOL    HW149913   7.052   8.560   3.822
16523SOL    HW249914   6.928   8.663   3.795
16524SOL     OW49915   5.883   7.483   3.895
16524SOL    HW149916   5.932   7.567   3.874
16524SOL    HW249917   5.945   7.418   3.940
16525SOL     OW49918   6.521   7.684   4.204
16525SOL    HW149919   6.473   7.725   4.126
16525SOL    HW249920   6.620   7.682   4.185
16526SOL     OW49921   6.662   8.131   5.188
16526SOL    HW149922   6.582   8.070   5.191
16526SOL    HW249923   6.743   8.078   5.164
16527SOL     OW49924   6.045   8.600   4.465
16527SOL    HW149925   5.974   8.573   4.530
16527SOL    HW249926   6.019   8.572   4.372
16528SOL     OW49927   6.618   7.997   3.740
16528SOL    HW149928   6.577   8.079   3.701
16528SOL    HW249929   6.682   8.023   3.813
16529SOL     OW49930   5.664   8.004   5.110
16529SOL    HW149931   5.756   8.003   5.069
16529SOL    HW249932   5.658   8.078   5.177
16530SOL     OW49933   6.147   7.670   4.871
16530SOL    HW149934   6.185   7.586   4.908
16530SOL    HW249935   6.059   7.689   4.915
16531SOL     OW49936   6.452   7.902   4.366
16531SOL    HW149937   6.420   7.974   4.304
16531SOL    HW249938   6.476   7.821   4.313
16532SOL     OW49939   6.603   7.487   4.477
16532SOL    HW149940   6.531   7.492   4.408
16532SOL    HW249941   6.579   7.418   4.546
16533SOL     OW49942   7.015   8.621   4.591
16533SOL    HW149943   6.960   8.537   4.584
16533SOL    HW249944   7.041   8.650   4.499
16534SOL     OW49945   7.052   8.038   4.716
16534SOL    HW149946   7.022   7.943   4.723
16534SOL    HW249947   7.125   8.054   4.782
16535SOL     OW49948   7.443   8.281   4.101
16535SOL    HW149949   7.485   8.217   4.165
16535SOL    HW249950   7.405   8.230   4.023
16536SOL     OW49951   6.074   8.833   3.898
16536SOL    HW149952   5.987   8.818   3.945
16536SOL    HW249953   6.057   8.859   3.803
16537SOL     OW49954   6.976   8.023   3.802
16537SOL    HW149955   6.922   8.002   3.883
16537SOL    HW249956   7.067   7.982   3.811
16538SOL     OW49957   6.113   7.704   4.052
16538SOL    HW149958   6.140   7.645   3.977
16538SOL    HW249959   6.113   7.799   4.021
16539SOL     OW49960   6.650   8.795   5.064
16539SOL    HW149961   6.570   8.772   5.119
16539SOL    HW249962   6.733   8.769   5.113
16540SOL     OW49963   6.697   8.643   4.824
16540SOL    HW149964   6.657   8.687   4.905
16540SOL    HW249965   6.656   8.680   4.741
16541SOL     OW49966   7.224   8.547   4.803
16541SOL    HW149967   7.229   8.628   4.862
16541SOL    HW249968   7.138   8.549   4.752
16542SOL     OW49969   6.501   7.537   5.126
16542SOL    HW149970   6.526   7.517   5.031
16542SOL    HW249971   6.573   7.593   5.168
16543SOL     OW49972   6.566   8.564   5.443
16543SOL    HW149973   6.467   8.570   5.453
16543SOL    HW249974   6.589   8.484   5.387
16544SOL     OW49975   6.291   8.498   4.092
16544SOL    HW149976   6.277   8.505   4.191
16544SOL    HW249977   6.375   8.447   4.074
16545SOL     OW49978   5.996   8.261   4.975
16545SOL    HW149979   6.082   8.273   5.025
16545SOL    HW249980   5.954   8.174   5.002
16546SOL     OW49981   6.860   7.834   4.986
16546SOL    HW149982   6.881   7.908   5.050
16546SOL    HW249983   6.771   7.851   4.943
16547SOL     OW49984   5.953   8.548   4.225
16547SOL    HW149985   5.946   8.631   4.169
16547SOL    HW249986   5.957   8.468   4.165
16548SOL     OW49987   6.152   7.985   4.589
16548SOL    HW149988   6.164   8.051   4.515
16548SOL    HW249989   6.198   8.019   4.672
16549SOL     OW49990   6.838   8.796   4.112
16549SOL    HW149991   6.888   8.873   4.152
16549SOL    HW249992   6.743   8.798   4.144
16550SOL     OW49993   7.168   8.087   4.196
16550SOL    HW149994   7.137   8.148   4.269
16550SOL    HW249995   7.218   8.139   4.127
16551SOL     OW49996   5.988   8.199   5.322
16551SOL    HW149997   6.056   8.254   5.275
16551SOL    HW249998   6.028   8.111   5.349
16552SOL     OW49999   7.173   8.227   5.394
16552SOL    HW150000   7.081   8.265   5.389
16552SOL    HW250001   7.233   8.274   5.329
16553SOL     OW50002   6.599   7.553   5.494
16553SOL    HW150003   6.605   7.638   5.442
16553SOL    HW250004   6.631   7.477   5.437
16554SOL     OW50005   6.090   7.498   5.464
16554SOL    HW150006   6.048   7.441   5.394
16554SOL    HW250007   6.024   7.567   5.496
16555SOL     OW50008   6.159   8.318   4.753
16555SOL    HW150009   6.203   8.407   4.744
16555SOL    HW250010   6.096   8.318   4.830
16556SOL     OW50011   6.946   8.310   4.769
16556SOL    HW150012   6.871   8.310   4.703
16556SOL    HW250013   6.983   8.218   4.778
16557SOL     OW50014   6.795   7.973   3.999
16557SOL    HW150015   6.808   7.889   4.053
16557SOL    HW250016   6.766   8.047   4.059
16558SOL     OW50017   5.893   7.661   4.955
16558SOL    HW150018   5.870   7.698   5.045
16558SOL    HW250019   5.863   7.566   4.949
16559SOL     OW50020   5.623   8.758   5.006
16559SOL    HW150021   5.676   8.709   5.074
16559SOL    HW250022   5.645   8.856   5.011
16560SOL     OW50023   6.318   8.082   4.788
16560SOL    HW150024   6.377   8.056   4.712
16560SOL    HW250025   6.290   8.178   4.777
16561SOL     OW50026   7.314   8.383   5.578
16561SOL    HW150027   7.268   8.376   5.489
16561SOL    HW250028   7.252   8.427   5.644
16562SOL     OW50029   5.893   7.511   4.342
16562SOL    HW150030   5.882   7.605   4.375
16562SOL    HW250031   5.888   7.448   4.419
16563SOL     OW50032   7.208   7.815   4.098
16563SOL    HW150033   7.210   7.739   4.162
16563SOL    HW250034   7.160   7.892   4.138
16564SOL     OW50035   6.609   8.214   4.690
16564SOL    HW150036   6.624   8.235   4.786
16564SOL    HW250037   6.579   8.119   4.681
16565SOL     OW50038   5.936   8.346   5.528
16565SOL    HW150039   6.012   8.390   5.576
16565SOL    HW250040   5.971   8.299   5.446
16566SOL     OW50041   7.126   7.722   3.849
16566SOL    HW150042   7.065   7.647   3.872
16566SOL    HW250043   7.148   7.774   3.932
16567SOL     OW50044   6.889   8.286   3.766
16567SOL    HW150045   6.923   8.193   3.781
16567SOL    HW250046   6.907   8.313   3.671
16568SOL     OW50047   6.654   8.781   4.573
16568SOL    HW150048   6.661   8.697   4.518
16568SOL    HW250049   6.716   8.850   4.537
16569SOL     OW50050   5.905   8.258   4.673
16569SOL    HW150051   5.998   8.294   4.678
16569SOL    HW250052   5.899   8.173   4.725
16570SOL     OW50053   5.925   7.957   4.730
16570SOL    HW150054   5.873   7.874   4.713
16570SOL    HW250055   6.002   7.962   4.666
16571SOL     OW50056   6.724   7.828   5.402
16571SOL    HW150057   6.679   7.891   5.466
16571SOL    HW250058   6.817   7.859   5.385
16572SOL     OW50059   6.746   7.655   5.201
16572SOL    HW150060   6.746   7.719   5.278
16572SOL    HW250061   6.774   7.703   5.118
16573SOL     OW50062   5.594   8.774   3.924
16573SOL    HW150063   5.501   8.795   3.893
16573SOL    HW250064   5.604   8.675   3.937
16574SOL     OW50065   6.588   8.244   4.962
16574SOL    HW150066   6.629   8.212   5.048
16574SOL    HW250067   6.492   8.217   4.959
16575SOL     OW50068   5.626   7.992   4.838
16575SOL    HW150069   5.711   7.959   4.797
16575SOL    HW250070   5.639   8.007   4.936
16576SOL     OW50071   5.775   7.968   5.446
16576SOL    HW150072   5.834   7.928   5.376
16576SOL    HW250073   5.717   8.039   5.405
16577SOL     OW50074   6.955   8.398   5.384
16577SOL    HW150075   6.994   8.487   5.404
16577SOL    HW250076   6.965   8.378   5.287
16578SOL     OW50077   6.401   8.020   4.049
16578SOL    HW150078   6.408   7.931   4.003
16578SOL    HW250079   6.307   8.054   4.041
16579SOL     OW50080   7.243   8.052   4.930
16579SOL    HW150081   7.205   7.983   4.992
16579SOL    HW250082   7.325   8.016   4.886
16580SOL     OW50083   6.257   7.912   4.993
16580SOL    HW150084   6.223   7.823   4.963
16580SOL    HW250085   6.283   7.966   4.913
16581SOL     OW50086   6.059   7.948   3.915
16581SOL    HW150087   6.120   8.028   3.919
16581SOL    HW250088   5.964   7.979   3.922
16582SOL     OW50089   5.745   8.585   5.190
16582SOL    HW150090   5.767   8.524   5.266
16582SOL    HW250091   5.755   8.536   5.104
16583SOL     OW50092   6.933   8.507   4.958
16583SOL    HW150093   6.957   8.444   4.884
16583SOL    HW250094   6.843   8.547   4.940
16584SOL     OW50095   6.888   8.303   4.033
16584SOL    HW150096   6.802   8.272   4.075
16584SOL    HW250097   6.884   8.289   3.934
16585SOL     OW50098   5.669   8.706   4.746
16585SOL    HW150099   5.664   8.705   4.846
16585SOL    HW250100   5.586   8.665   4.708
16586SOL     OW50101   7.312   7.583   4.247
16586SOL    HW150102   7.385   7.566   4.180
16586SOL    HW250103   7.281   7.496   4.285
16587SOL     OW50104   6.866   8.375   4.396
16587SOL    HW150105   6.926   8.294   4.398
16587SOL    HW250106   6.906   8.444   4.336
16588SOL     OW50107   6.416   8.721   5.146
16588SOL    HW150108   6.411   8.754   5.241
16588SOL    HW250109   6.330   8.740   5.100
16589SOL     OW50110   7.427   7.623   4.687
16589SOL    HW150111   7.466   7.538   4.651
16589SOL    HW250112   7.329   7.625   4.668
16590SOL     OW50113   5.849   7.774   4.444
16590SOL    HW150114   5.770   7.825   4.410
16590SOL    HW250115   5.840   7.759   4.542
16591SOL     OW50116   6.780   9.060   3.755
16591SOL    HW150117   6.786   8.967   3.792
16591SOL    HW250118   6.721   9.060   3.675
16592SOL     OW50119   6.408   8.450   5.096
16592SOL    HW150120   6.448   8.449   5.004
16592SOL    HW250121   6.418   8.542   5.136
16593SOL     OW50122   6.502   8.358   4.015
16593SOL    HW150123   6.565   8.396   3.947
16593SOL    HW250124   6.542   8.275   4.054
16594SOL     OW50125   5.958   8.736   5.214
16594SOL    HW150126   5.945   8.829   5.180
16594SOL    HW250127   5.874   8.684   5.201
16595SOL     OW50128   7.200   8.740   5.013
16595SOL    HW150129   7.260   8.743   5.093
16595SOL    HW250130   7.125   8.804   5.026
16596SOL     OW50131   6.625   8.546   4.420
16596SOL    HW150132   6.555   8.499   4.474
16596SOL    HW250133   6.684   8.478   4.377
16597SOL     OW50134   6.600   7.684   4.695
16597SOL    HW150135   6.592   7.648   4.602
16597SOL    HW250136   6.598   7.608   4.760
16598SOL     OW50137   6.176   8.935   4.215
16598SOL    HW150138   6.218   8.877   4.145
16598SOL    HW250139   6.132   9.014   4.171
16599SOL     OW50140   7.295   7.833   5.105
16599SOL    HW150141   7.368   7.902   5.109
16599SOL    HW250142   7.323   7.758   5.046
16600SOL     OW50143   5.691   8.461   5.450
16600SOL    HW150144   5.614   8.428   5.504
16600SOL    HW250145   5.776   8.431   5.492
16601SOL     OW50146   6.258   7.651   5.213
16601SOL    HW150147   6.348   7.635   5.173
16601SOL    HW250148   6.266   7.656   5.312
16602SOL     OW50149   5.661   7.793   3.757
16602SOL    HW150150   5.569   7.765   3.728
16602SOL    HW250151   5.692   7.870   3.701
16603SOL     OW50152   7.026   8.304   5.122
16603SOL    HW150153   6.969   8.356   5.059
16603SOL    HW250154   7.122   8.316   5.098
16604SOL     OW50155   5.658   7.614   4.042
16604SOL    HW150156   5.641   7.697   3.988
16604SOL    HW250157   5.748   7.577   4.020
16605SOL     OW50158   6.769   8.783   3.843
16605SOL    HW150159   6.670   8.772   3.845
16605SOL    HW250160   6.803   8.798   3.936
16606SOL     OW50161   6.199   8.290   5.155
16606SOL    HW150162   6.255   8.371   5.138
16606SOL    HW250163   6.258   8.210   5.158
16607SOL     OW50164   6.302   8.013   5.432
16607SOL    HW150165   6.321   8.078   5.506
16607SOL    HW250166   6.362   7.933   5.441
16608SOL     OW50167   7.036   8.668   5.357
16608SOL    HW150168   7.027   8.658   5.456
16608SOL    HW250169   7.132   8.661   5.331
16609SOL     OW50170   5.976   9.189   5.284
16609SOL    HW150171   5.885   9.230   5.282
16609SOL    HW250172   5.969   9.095   5.316
16610SOL     OW50173   7.260   8.331   4.978
16610SOL    HW150174   7.233   8.242   4.941
16610SOL    HW250175   7.261   8.399   4.905
16611SOL     OW50176   6.811   7.773   4.173
16611SOL    HW150177   6.876   7.699   4.162
16611SOL    HW250178   6.831   7.823   4.257
16612SOL     OW50179   6.180   8.193   4.376
16612SOL    HW150180   6.230   8.278   4.357
16612SOL    HW250181   6.092   8.195   4.328
16613SOL     OW50182   7.363   7.790   5.366
16613SOL    HW150183   7.346   7.821   5.272
16613SOL    HW250184   7.279   7.753   5.404
16614SOL     OW50185   7.316   8.382   5.241
16614SOL    HW150186   7.354   8.473   5.256
16614SOL    HW250187   7.308   8.365   5.142
16615SOL     OW50188   6.445   8.404   4.585
16615SOL    HW150189   6.499   8.335   4.633
16615SOL    HW250190   6.413   8.473   4.651
16616SOL     OW50191   6.669   8.432   3.811
16616SOL    HW150192   6.646   8.485   3.729
16616SOL    HW250193   6.750   8.376   3.792
16617SOL     OW50194   5.807   8.762   5.568
16617SOL    HW150195   5.742   8.689   5.547
16617SOL    HW250196   5.811   8.776   5.666
16618SOL     OW50197   5.665   8.688   4.377
16618SOL    HW150198   5.664   8.641   4.465
16618SOL    HW250199   5.747   8.660   4.326
16619SOL     OW50200   6.258   8.839   5.348
16619SOL    HW150201   6.180   8.789   5.386
16619SOL    HW250202   6.255   8.934   5.379
16620SOL     OW50203   7.410   7.640   4.951
16620SOL    HW150204   7.406   7.550   4.995
16620SOL    HW250205   7.413   7.629   4.852
16621SOL     OW50206   6.014   7.872   4.244
16621SOL    HW150207   6.044   7.800   4.182
16621SOL    HW250208   5.975   7.832   4.327
16622SOL     OW50209   7.291   8.935   4.828
16622SOL    HW150210   7.198   8.910   4.801
16622SOL    HW250211   7.317   8.885   4.910
16623SOL     OW50212   5.903   7.995   5.004
16623SOL    HW150213   5.941   7.936   5.076
16623SOL    HW250214   5.943   7.969   4.916
16624SOL     OW50215   6.398   9.034   4.411
16624SOL    HW150216   6.430   9.044   4.317
16624SOL    HW250217   6.319   8.972   4.413
16625SOL     OW50218   7.010   7.662   4.836
16625SOL    HW150219   7.062   7.597   4.891
16625SOL    HW250220   6.961   7.725   4.897
16626SOL     OW50221   6.587   7.482   4.878
16626SOL    HW150222   6.524   7.410   4.847
16626SOL    HW250223   6.680   7.446   4.878
16627SOL     OW50224   6.356   8.778   4.025
16627SOL    HW150225   6.310   8.691   4.042
16627SOL    HW250226   6.447   8.775   4.066
16628SOL     OW50227   6.938   7.500   3.892
16628SOL    HW150228   6.973   7.459   3.808
16628SOL    HW250229   6.848   7.462   3.912
16629SOL     OW50230   6.886   7.901   4.415
16629SOL    HW150231   6.827   7.981   4.419
16629SOL    HW250232   6.901   7.866   4.508
16630SOL     OW50233   7.179   7.669   4.606
16630SOL    HW150234   7.095   7.668   4.660
16630SOL    HW250235   7.181   7.752   4.550
16631SOL     OW50236   5.625   8.525   4.024
16631SOL    HW150237   5.724   8.514   4.015
16631SOL    HW250238   5.585   8.439   4.056
16632SOL     OW50239   5.816   8.076   5.699
16632SOL    HW150240   5.723   8.074   5.736
16632SOL    HW250241   5.817   8.037   5.607
16633SOL     OW50242   5.811   7.723   6.582
16633SOL    HW150243   5.846   7.706   6.674
16633SOL    HW250244   5.723   7.678   6.570
16634SOL     OW50245   5.605   7.816   6.233
16634SOL    HW150246   5.523   7.859   6.272
16634SOL    HW250247   5.577   7.743   6.170
16635SOL     OW50248   6.721   8.151   6.303
16635SOL    HW150249   6.778   8.229   6.278
16635SOL    HW250250   6.661   8.177   6.379
16636SOL     OW50251   7.341   8.055   5.817
16636SOL    HW150252   7.329   8.042   5.718
16636SOL    HW250253   7.311   7.974   5.866
16637SOL     OW50254   6.354   8.592   6.609
16637SOL    HW150255   6.276   8.609   6.669
16637SOL    HW250256   6.388   8.679   6.573
16638SOL     OW50257   6.436   8.246   7.409
16638SOL    HW150258   6.432   8.322   7.474
16638SOL    HW250259   6.458   8.282   7.318
16639SOL     OW50260   6.271   8.460   6.251
16639SOL    HW150261   6.340   8.444   6.321
16639SOL    HW250262   6.198   8.517   6.289
16640SOL     OW50263   6.272   8.609   7.389
16640SOL    HW150264   6.332   8.688   7.403
16640SOL    HW250265   6.186   8.640   7.348
16641SOL     OW50266   6.024   7.840   7.085
16641SOL    HW150267   6.106   7.784   7.094
16641SOL    HW250268   5.943   7.782   7.089
16642SOL     OW50269   7.189   7.895   6.323
16642SOL    HW150270   7.115   7.941   6.273
16642SOL    HW250271   7.240   7.963   6.376
16643SOL     OW50272   6.713   8.789   7.276
16643SOL    HW150273   6.760   8.789   7.364
16643SOL    HW250274   6.665   8.702   7.265
16644SOL     OW50275   5.826   8.539   6.472
16644SOL    HW150276   5.840   8.455   6.524
16644SOL    HW250277   5.771   8.603   6.527
16645SOL     OW50278   6.192   8.412   5.709
16645SOL    HW150279   6.199   8.496   5.655
16645SOL    HW250280   6.238   8.425   5.797
16646SOL     OW50281   7.180   7.562   7.066
16646SOL    HW150282   7.162   7.629   6.994
16646SOL    HW250283   7.177   7.608   7.155
16647SOL     OW50284   5.708   8.091   6.149
16647SOL    HW150285   5.663   8.003   6.166
16647SOL    HW250286   5.707   8.145   6.233
16648SOL     OW50287   7.275   8.370   6.198
16648SOL    HW150288   7.370   8.341   6.206
16648SOL    HW250289   7.267   8.435   6.123
16649SOL     OW50290   7.227   8.556   6.018
16649SOL    HW150291   7.313   8.558   5.966
16649SOL    HW250292   7.241   8.603   6.106
16650SOL     OW50293   5.699   8.185   7.183
16650SOL    HW150294   5.787   8.172   7.228
16650SOL    HW250295   5.686   8.282   7.161
16651SOL     OW50296   6.199   8.813   6.312
16651SOL    HW150297   6.150   8.726   6.321
16651SOL    HW250298   6.176   8.856   6.225
16652SOL     OW50299   6.879   8.676   7.009
16652SOL    HW150300   6.916   8.603   6.951
16652SOL    HW250301   6.931   8.681   7.094
16653SOL     OW50302   6.395   7.452   6.088
16653SOL    HW150303   6.435   7.543   6.079
16653SOL    HW250304   6.295   7.460   6.094
16654SOL     OW50305   5.783   8.424   6.850
16654SOL    HW150306   5.872   8.379   6.836
16654SOL    HW250307   5.710   8.359   6.831
16655SOL     OW50308   7.111   8.447   5.776
16655SOL    HW150309   7.048   8.371   5.789
16655SOL    HW250310   7.159   8.465   5.862
16656SOL     OW50311   5.903   7.699   7.387
16656SOL    HW150312   5.974   7.770   7.393
16656SOL    HW250313   5.815   7.738   7.415
16657SOL     OW50314   7.052   8.865   6.539
16657SOL    HW150315   6.993   8.871   6.619
16657SOL    HW250316   7.037   8.777   6.493
16658SOL     OW50317   6.184   8.177   5.856
16658SOL    HW150318   6.208   8.246   5.788
16658SOL    HW250319   6.106   8.210   5.910
16659SOL     OW50320   6.867   7.793   6.530
16659SOL    HW150321   6.781   7.743   6.517
16659SOL    HW250322   6.929   7.739   6.586
16660SOL     OW50323   6.393   8.053   7.051
16660SOL    HW150324   6.346   8.050   7.140
16660SOL    HW250325   6.342   7.998   6.985
16661SOL     OW50326   6.980   7.917   7.260
16661SOL    HW150327   6.960   7.960   7.348
16661SOL    HW250328   7.058   7.855   7.269
16662SOL     OW50329   6.559   8.338   7.158
16662SOL    HW150330   6.605   8.254   7.129
16662SOL    HW250331   6.503   8.372   7.083
16663SOL     OW50332   6.577   7.858   6.828
16663SOL    HW150333   6.500   7.892   6.882
16663SOL    HW250334   6.543   7.807   6.749
16664SOL     OW50335   6.627   8.149   6.015
16664SOL    HW150336   6.653   8.145   6.111
16664SOL    HW250337   6.542   8.098   6.001
16665SOL     OW50338   5.662   8.259   6.375
16665SOL    HW150339   5.761   8.247   6.384
16665SOL    HW250340   5.638   8.354   6.396
16666SOL     OW50341   6.451   7.796   5.781
16666SOL    HW150342   6.510   7.859   5.732
16666SOL    HW250343   6.470   7.702   5.752
16667SOL     OW50344   7.305   8.033   7.417
16667SOL    HW150345   7.279   8.122   7.381
16667SOL    HW250346   7.303   7.965   7.344
16668SOL     OW50347   6.948   8.592   6.131
16668SOL    HW150348   7.031   8.563   6.083
16668SOL    HW250349   6.899   8.659   6.075
16669SOL     OW50350   6.136   7.644   6.471
16669SOL    HW150351   6.131   7.639   6.571
16669SOL    HW250352   6.138   7.740   6.442
16670SOL     OW50353   7.381   8.514   6.459
16670SOL    HW150354   7.319   8.499   6.383
16670SOL    HW250355   7.329   8.525   6.544
16671SOL     OW50356   6.813   8.998   7.092
16671SOL    HW150357   6.819   8.921   7.156
16671SOL    HW250358   6.761   8.972   7.012
16672SOL     OW50359   5.907   8.391   5.828
16672SOL    HW150360   5.989   8.430   5.786
16672SOL    HW250361   5.880   8.309   5.779
16673SOL     OW50362   7.044   8.183   6.314
16673SOL    HW150363   7.039   8.118   6.389
16673SOL    HW250364   7.124   8.242   6.327
16674SOL     OW50365   6.047   8.714   7.313
16674SOL    HW150366   5.997   8.715   7.227
16674SOL    HW250367   5.984   8.696   7.389
16675SOL     OW50368   5.788   7.733   7.084
16675SOL    HW150369   5.708   7.793   7.071
16675SOL    HW250370   5.778   7.684   7.170
16676SOL     OW50371   6.986   7.555   6.012
16676SOL    HW150372   6.962   7.518   5.922
16676SOL    HW250373   7.085   7.571   6.016
16677SOL     OW50374   5.968   8.148   6.066
16677SOL    HW150375   6.013   8.058   6.063
16677SOL    HW250376   5.874   8.137   6.099
16678SOL     OW50377   7.133   7.670   7.315
16678SOL    HW150378   7.128   7.707   7.407
16678SOL    HW250379   7.061   7.601   7.303
16679SOL     OW50380   6.200   7.570   5.703
16679SOL    HW150381   6.298   7.548   5.710
16679SOL    HW250382   6.169   7.553   5.610
16680SOL     OW50383   6.367   7.712   7.335
16680SOL    HW150384   6.434   7.651   7.378
16680SOL    HW250385   6.294   7.731   7.400
16681SOL     OW50386   6.937   8.038   7.019
16681SOL    HW150387   6.965   7.995   7.104
16681SOL    HW250388   6.962   8.134   7.020
16682SOL     OW50389   6.389   8.850   6.510
16682SOL    HW150390   6.479   8.864   6.468
16682SOL    HW250391   6.318   8.852   6.439
16683SOL     OW50392   6.508   7.951   6.485
16683SOL    HW150393   6.483   7.942   6.389
16683SOL    HW250394   6.556   7.869   6.516
16684SOL     OW50395   6.125   7.512   6.098
16684SOL    HW150396   6.044   7.513   6.156
16684SOL    HW250397   6.128   7.595   6.043
16685SOL     OW50398   7.020   8.636   5.627
16685SOL    HW150399   7.052   8.560   5.684
16685SOL    HW250400   6.928   8.663   5.657
16686SOL     OW50401   5.883   7.483   5.757
16686SOL    HW150402   5.932   7.567   5.736
16686SOL    HW250403   5.945   7.418   5.802
16687SOL     OW50404   6.521   7.684   6.066
16687SOL    HW150405   6.473   7.725   5.988
16687SOL    HW250406   6.620   7.682   6.047
16688SOL     OW50407   6.662   8.131   7.050
16688SOL    HW150408   6.582   8.070   7.053
16688SOL    HW250409   6.743   8.078   7.026
16689SOL     OW50410   6.045   8.600   6.327
16689SOL    HW150411   5.974   8.573   6.392
16689SOL    HW250412   6.019   8.572   6.234
16690SOL     OW50413   6.618   7.997   5.602
16690SOL    HW150414   6.577   8.079   5.563
16690SOL    HW250415   6.682   8.023   5.675
16691SOL     OW50416   5.664   8.004   6.972
16691SOL    HW150417   5.756   8.003   6.931
16691SOL    HW250418   5.658   8.078   7.039
16692SOL     OW50419   6.147   7.670   6.733
16692SOL    HW150420   6.185   7.586   6.770
16692SOL    HW250421   6.059   7.689   6.777
16693SOL     OW50422   6.452   7.902   6.228
16693SOL    HW150423   6.420   7.974   6.166
16693SOL    HW250424   6.476   7.821   6.175
16694SOL     OW50425   6.603   7.487   6.339
16694SOL    HW150426   6.531   7.492   6.270
16694SOL    HW250427   6.579   7.418   6.408
16695SOL     OW50428   7.015   8.621   6.453
16695SOL    HW150429   6.960   8.537   6.446
16695SOL    HW250430   7.041   8.650   6.361
16696SOL     OW50431   7.052   8.038   6.578
16696SOL    HW150432   7.022   7.943   6.585
16696SOL    HW250433   7.125   8.054   6.644
16697SOL     OW50434   7.443   8.281   5.963
16697SOL    HW150435   7.485   8.217   6.027
16697SOL    HW250436   7.405   8.230   5.885
16698SOL     OW50437   6.074   8.833   5.760
16698SOL    HW150438   5.987   8.818   5.807
16698SOL    HW250439   6.057   8.859   5.665
16699SOL     OW50440   6.976   8.023   5.664
16699SOL    HW150441   6.922   8.002   5.745
16699SOL    HW250442   7.067   7.982   5.673
16700SOL     OW50443   6.113   7.704   5.914
16700SOL    HW150444   6.140   7.645   5.839
16700SOL    HW250445   6.113   7.799   5.883
16701SOL     OW50446   6.650   8.795   6.926
16701SOL    HW150447   6.570   8.772   6.981
16701SOL    HW250448   6.733   8.769   6.975
16702SOL     OW50449   6.697   8.643   6.686
16702SOL    HW150450   6.657   8.687   6.767
16702SOL    HW250451   6.656   8.680   6.603
16703SOL     OW50452   7.224   8.547   6.665
16703SOL    HW150453   7.229   8.628   6.724
16703SOL    HW250454   7.138   8.549   6.614
16704SOL     OW50455   6.501   7.537   6.988
16704SOL    HW150456   6.526   7.517   6.893
16704SOL    HW250457   6.573   7.593   7.030
16705SOL     OW50458   6.566   8.564   7.305
16705SOL    HW150459   6.467   8.570   7.315
16705SOL    HW250460   6.589   8.484   7.249
16706SOL     OW50461   6.291   8.498   5.954
16706SOL    HW150462   6.277   8.505   6.053
16706SOL    HW250463   6.375   8.447   5.936
16707SOL     OW50464   5.996   8.261   6.837
16707SOL    HW150465   6.082   8.273   6.887
16707SOL    HW250466   5.954   8.174   6.864
16708SOL     OW50467   6.860   7.834   6.848
16708SOL    HW150468   6.881   7.908   6.912
16708SOL    HW250469   6.771   7.851   6.805
16709SOL     OW50470   5.953   8.548   6.087
16709SOL    HW150471   5.946   8.631   6.031
16709SOL    HW250472   5.957   8.468   6.027
16710SOL     OW50473   6.152   7.985   6.451
16710SOL    HW150474   6.164   8.051   6.377
16710SOL    HW250475   6.198   8.019   6.534
16711SOL     OW50476   6.838   8.796   5.974
16711SOL    HW150477   6.888   8.873   6.014
16711SOL    HW250478   6.743   8.798   6.006
16712SOL     OW50479   7.168   8.087   6.058
16712SOL    HW150480   7.137   8.148   6.131
16712SOL    HW250481   7.218   8.139   5.989
16713SOL     OW50482   5.988   8.199   7.184
16713SOL    HW150483   6.056   8.254   7.137
16713SOL    HW250484   6.028   8.111   7.211
16714SOL     OW50485   7.173   8.227   7.256
16714SOL    HW150486   7.081   8.265   7.251
16714SOL    HW250487   7.233   8.274   7.191
16715SOL     OW50488   6.599   7.553   7.356
16715SOL    HW150489   6.605   7.638   7.304
16715SOL    HW250490   6.631   7.477   7.299
16716SOL     OW50491   6.090   7.498   7.326
16716SOL    HW150492   6.048   7.441   7.256
16716SOL    HW250493   6.024   7.567   7.358
16717SOL     OW50494   6.159   8.318   6.615
16717SOL    HW150495   6.203   8.407   6.606
16717SOL    HW250496   6.096   8.318   6.692
16718SOL     OW50497   6.946   8.310   6.631
16718SOL    HW150498   6.871   8.310   6.565
16718SOL    HW250499   6.983   8.218   6.640
16719SOL     OW50500   6.795   7.973   5.861
16719SOL    HW150501   6.808   7.889   5.915
16719SOL    HW250502   6.766   8.047   5.921
16720SOL     OW50503   5.893   7.661   6.817
16720SOL    HW150504   5.870   7.698   6.907
16720SOL    HW250505   5.863   7.566   6.811
16721SOL     OW50506   5.623   8.758   6.868
16721SOL    HW150507   5.676   8.709   6.936
16721SOL    HW250508   5.645   8.856   6.873
16722SOL     OW50509   6.318   8.082   6.650
16722SOL    HW150510   6.377   8.056   6.574
16722SOL    HW250511   6.290   8.178   6.639
16723SOL     OW50512   7.314   8.383   7.440
16723SOL    HW150513   7.268   8.376   7.351
16723SOL    HW250514   7.252   8.427   7.506
16724SOL     OW50515   5.893   7.511   6.204
16724SOL    HW150516   5.882   7.605   6.237
16724SOL    HW250517   5.888   7.448   6.281
16725SOL     OW50518   7.208   7.815   5.960
16725SOL    HW150519   7.210   7.739   6.024
16725SOL    HW250520   7.160   7.892   6.000
16726SOL     OW50521   6.609   8.214   6.552
16726SOL    HW150522   6.624   8.235   6.648
16726SOL    HW250523   6.579   8.119   6.543
16727SOL     OW50524   5.936   8.346   7.390
16727SOL    HW150525   6.012   8.390   7.438
16727SOL    HW250526   5.971   8.299   7.308
16728SOL     OW50527   7.126   7.722   5.711
16728SOL    HW150528   7.065   7.647   5.734
16728SOL    HW250529   7.148   7.774   5.794
16729SOL     OW50530   6.889   8.286   5.628
16729SOL    HW150531   6.923   8.193   5.643
16729SOL    HW250532   6.907   8.313   5.533
16730SOL     OW50533   6.654   8.781   6.435
16730SOL    HW150534   6.661   8.697   6.380
16730SOL    HW250535   6.716   8.850   6.399
16731SOL     OW50536   5.905   8.258   6.535
16731SOL    HW150537   5.998   8.294   6.540
16731SOL    HW250538   5.899   8.173   6.587
16732SOL     OW50539   5.925   7.957   6.592
16732SOL    HW150540   5.873   7.874   6.575
16732SOL    HW250541   6.002   7.962   6.528
16733SOL     OW50542   6.724   7.828   7.264
16733SOL    HW150543   6.679   7.891   7.328
16733SOL    HW250544   6.817   7.859   7.247
16734SOL     OW50545   6.746   7.655   7.063
16734SOL    HW150546   6.746   7.719   7.140
16734SOL    HW250547   6.774   7.703   6.980
16735SOL     OW50548   5.594   8.774   5.786
16735SOL    HW150549   5.501   8.795   5.755
16735SOL    HW250550   5.604   8.675   5.799
16736SOL     OW50551   6.588   8.244   6.824
16736SOL    HW150552   6.629   8.212   6.910
16736SOL    HW250553   6.492   8.217   6.821
16737SOL     OW50554   5.626   7.992   6.700
16737SOL    HW150555   5.711   7.959   6.659
16737SOL    HW250556   5.639   8.007   6.798
16738SOL     OW50557   5.775   7.968   7.308
16738SOL    HW150558   5.834   7.928   7.238
16738SOL    HW250559   5.717   8.039   7.267
16739SOL     OW50560   6.955   8.398   7.246
16739SOL    HW150561   6.994   8.487   7.266
16739SOL    HW250562   6.965   8.378   7.149
16740SOL     OW50563   6.401   8.020   5.911
16740SOL    HW150564   6.408   7.931   5.865
16740SOL    HW250565   6.307   8.054   5.903
16741SOL     OW50566   7.243   8.052   6.792
16741SOL    HW150567   7.205   7.983   6.854
16741SOL    HW250568   7.325   8.016   6.748
16742SOL     OW50569   6.257   7.912   6.855
16742SOL    HW150570   6.223   7.823   6.825
16742SOL    HW250571   6.283   7.966   6.775
16743SOL     OW50572   6.059   7.948   5.777
16743SOL    HW150573   6.120   8.028   5.781
16743SOL    HW250574   5.964   7.979   5.784
16744SOL     OW50575   5.745   8.585   7.052
16744SOL    HW150576   5.767   8.524   7.128
16744SOL    HW250577   5.755   8.536   6.966
16745SOL     OW50578   6.933   8.507   6.820
16745SOL    HW150579   6.957   8.444   6.746
16745SOL    HW250580   6.843   8.547   6.802
16746SOL     OW50581   6.888   8.303   5.895
16746SOL    HW150582   6.802   8.272   5.937
16746SOL    HW250583   6.884   8.289   5.796
16747SOL     OW50584   5.669   8.706   6.608
16747SOL    HW150585   5.664   8.705   6.708
16747SOL    HW250586   5.586   8.665   6.570
16748SOL     OW50587   7.312   7.583   6.109
16748SOL    HW150588   7.385   7.566   6.042
16748SOL    HW250589   7.281   7.496   6.147
16749SOL     OW50590   6.866   8.375   6.258
16749SOL    HW150591   6.926   8.294   6.260
16749SOL    HW250592   6.906   8.444   6.198
16750SOL     OW50593   6.416   8.721   7.008
16750SOL    HW150594   6.411   8.754   7.103
16750SOL    HW250595   6.330   8.740   6.962
16751SOL     OW50596   7.427   7.623   6.549
16751SOL    HW150597   7.466   7.538   6.513
16751SOL    HW250598   7.329   7.625   6.530
16752SOL     OW50599   5.849   7.774   6.306
16752SOL    HW150600   5.770   7.825   6.272
16752SOL    HW250601   5.840   7.759   6.404
16753SOL     OW50602   6.780   9.060   5.617
16753SOL    HW150603   6.786   8.967   5.654
16753SOL    HW250604   6.721   9.060   5.537
16754SOL     OW50605   6.408   8.450   6.958
16754SOL    HW150606   6.448   8.449   6.866
16754SOL    HW250607   6.418   8.542   6.998
16755SOL     OW50608   6.502   8.358   5.877
16755SOL    HW150609   6.565   8.396   5.809
16755SOL    HW250610   6.542   8.275   5.916
16756SOL     OW50611   5.958   8.736   7.076
16756SOL    HW150612   5.945   8.829   7.042
16756SOL    HW250613   5.874   8.684   7.063
16757SOL     OW50614   7.200   8.740   6.875
16757SOL    HW150615   7.260   8.743   6.955
16757SOL    HW250616   7.125   8.804   6.888
16758SOL     OW50617   6.625   8.546   6.282
16758SOL    HW150618   6.555   8.499   6.336
16758SOL    HW250619   6.684   8.478   6.239
16759SOL     OW50620   6.600   7.684   6.557
16759SOL    HW150621   6.592   7.648   6.464
16759SOL    HW250622   6.598   7.608   6.622
16760SOL     OW50623   6.176   8.935   6.077
16760SOL    HW150624   6.218   8.877   6.007
16760SOL    HW250625   6.132   9.014   6.033
16761SOL     OW50626   7.295   7.833   6.967
16761SOL    HW150627   7.368   7.902   6.971
16761SOL    HW250628   7.323   7.758   6.908
16762SOL     OW50629   5.691   8.461   7.312
16762SOL    HW150630   5.614   8.428   7.366
16762SOL    HW250631   5.776   8.431   7.354
16763SOL     OW50632   6.258   7.651   7.075
16763SOL    HW150633   6.348   7.635   7.035
16763SOL    HW250634   6.266   7.656   7.174
16764SOL     OW50635   5.661   7.793   5.619
16764SOL    HW150636   5.569   7.765   5.590
16764SOL    HW250637   5.692   7.870   5.563
16765SOL     OW50638   7.026   8.304   6.984
16765SOL    HW150639   6.969   8.356   6.921
16765SOL    HW250640   7.122   8.316   6.960
16766SOL     OW50641   5.658   7.614   5.904
16766SOL    HW150642   5.641   7.697   5.850
16766SOL    HW250643   5.748   7.577   5.882
16767SOL     OW50644   6.769   8.783   5.705
16767SOL    HW150645   6.670   8.772   5.707
16767SOL    HW250646   6.803   8.798   5.798
16768SOL     OW50647   6.199   8.290   7.017
16768SOL    HW150648   6.255   8.371   7.000
16768SOL    HW250649   6.258   8.210   7.020
16769SOL     OW50650   6.302   8.013   7.294
16769SOL    HW150651   6.321   8.078   7.368
16769SOL    HW250652   6.362   7.933   7.303
16770SOL     OW50653   7.036   8.668   7.219
16770SOL    HW150654   7.027   8.658   7.318
16770SOL    HW250655   7.132   8.661   7.193
16771SOL     OW50656   5.976   9.189   7.146
16771SOL    HW150657   5.885   9.230   7.144
16771SOL    HW250658   5.969   9.095   7.178
16772SOL     OW50659   7.260   8.331   6.840
16772SOL    HW150660   7.233   8.242   6.803
16772SOL    HW250661   7.261   8.399   6.767
16773SOL     OW50662   6.811   7.773   6.035
16773SOL    HW150663   6.876   7.699   6.024
16773SOL    HW250664   6.831   7.823   6.119
16774SOL     OW50665   6.180   8.193   6.238
16774SOL    HW150666   6.230   8.278   6.219
16774SOL    HW250667   6.092   8.195   6.190
16775SOL     OW50668   7.363   7.790   7.228
16775SOL    HW150669   7.346   7.821   7.134
16775SOL    HW250670   7.279   7.753   7.266
16776SOL     OW50671   7.316   8.382   7.103
16776SOL    HW150672   7.354   8.473   7.118
16776SOL    HW250673   7.308   8.365   7.004
16777SOL     OW50674   6.445   8.404   6.447
16777SOL    HW150675   6.499   8.335   6.495
16777SOL    HW250676   6.413   8.473   6.513
16778SOL     OW50677   6.669   8.432   5.673
16778SOL    HW150678   6.646   8.485   5.591
16778SOL    HW250679   6.750   8.376   5.654
16779SOL     OW50680   5.807   8.762   7.430
16779SOL    HW150681   5.742   8.689   7.409
16779SOL    HW250682   5.811   8.776   7.528
16780SOL     OW50683   5.665   8.688   6.239
16780SOL    HW150684   5.664   8.641   6.327
16780SOL    HW250685   5.747   8.660   6.188
16781SOL     OW50686   6.258   8.839   7.210
16781SOL    HW150687   6.180   8.789   7.248
16781SOL    HW250688   6.255   8.934   7.241
16782SOL     OW50689   7.410   7.640   6.813
16782SOL    HW150690   7.406   7.550   6.857
16782SOL    HW250691   7.413   7.629   6.714
16783SOL     OW50692   6.014   7.872   6.106
16783SOL    HW150693   6.044   7.800   6.044
16783SOL    HW250694   5.975   7.832   6.189
16784SOL     OW50695   7.291   8.935   6.690
16784SOL    HW150696   7.198   8.910   6.663
16784SOL    HW250697   7.317   8.885   6.772
16785SOL     OW50698   5.903   7.995   6.866
16785SOL    HW150699   5.941   7.936   6.938
16785SOL    HW250700   5.943   7.969   6.778
16786SOL     OW50701   6.398   9.034   6.273
16786SOL    HW150702   6.430   9.044   6.179
16786SOL    HW250703   6.319   8.972   6.275
16787SOL     OW50704   7.010   7.662   6.698
16787SOL    HW150705   7.062   7.597   6.753
16787SOL    HW250706   6.961   7.725   6.759
16788SOL     OW50707   6.587   7.482   6.740
16788SOL    HW150708   6.524   7.410   6.709
16788SOL    HW250709   6.680   7.446   6.740
16789SOL     OW50710   6.356   8.778   5.887
16789SOL    HW150711   6.310   8.691   5.904
16789SOL    HW250712   6.447   8.775   5.928
16790SOL     OW50713   6.938   7.500   5.754
16790SOL    HW150714   6.973   7.459   5.670
16790SOL    HW250715   6.848   7.462   5.774
16791SOL     OW50716   6.886   7.901   6.277
16791SOL    HW150717   6.827   7.981   6.281
16791SOL    HW250718   6.901   7.866   6.370
16792SOL     OW50719   7.179   7.669   6.468
16792SOL    HW150720   7.095   7.668   6.522
16792SOL    HW250721   7.181   7.752   6.412
16793SOL     OW50722   5.625   8.525   5.886
16793SOL    HW150723   5.724   8.514   5.877
16793SOL    HW250724   5.585   8.439   5.918
16794SOL     OW50725   5.816   8.076   7.561
16794SOL    HW150726   5.723   8.074   7.598
16794SOL    HW250727   5.817   8.037   7.469
16795SOL     OW50728   7.341   8.055   7.679
16795SOL    HW150729   7.329   8.042   7.580
16795SOL    HW250730   7.311   7.974   7.728
16796SOL     OW50731   7.111   8.447   7.638
16796SOL    HW150732   7.048   8.371   7.651
16796SOL    HW250733   7.159   8.465   7.724
16797SOL     OW50734   6.184   8.177   7.718
16797SOL    HW150735   6.208   8.246   7.650
16797SOL    HW250736   6.106   8.210   7.772
16798SOL     OW50737   6.451   7.796   7.643
16798SOL    HW150738   6.510   7.859   7.594
16798SOL    HW250739   6.470   7.702   7.614
16799SOL     OW50740   5.907   8.391   7.690
16799SOL    HW150741   5.989   8.430   7.648
16799SOL    HW250742   5.880   8.309   7.641
16800SOL     OW50743   7.218   8.825   7.529
16800SOL    HW150744   7.186   8.919   7.519
16800SOL    HW250745   7.142   8.762   7.517
16801SOL     OW50746   5.968   8.148   7.928
16801SOL    HW150747   6.013   8.058   7.925
16801SOL    HW250748   5.874   8.137   7.961
16802SOL     OW50749   6.200   7.570   7.565
16802SOL    HW150750   6.298   7.548   7.572
16802SOL    HW250751   6.169   7.553   7.472
16803SOL     OW50752   7.020   8.636   7.489
16803SOL    HW150753   7.052   8.560   7.546
16803SOL    HW250754   6.928   8.663   7.519
16804SOL     OW50755   5.883   7.483   7.619
16804SOL    HW150756   5.932   7.567   7.598
16804SOL    HW250757   5.945   7.418   7.664
16805SOL     OW50758   6.618   7.997   7.464
16805SOL    HW150759   6.577   8.079   7.425
16805SOL    HW250760   6.682   8.023   7.537
16806SOL     OW50761   6.074   8.833   7.622
16806SOL    HW150762   5.987   8.818   7.669
16806SOL    HW250763   6.057   8.859   7.527
16807SOL     OW50764   6.976   8.023   7.526
16807SOL    HW150765   6.922   8.002   7.607
16807SOL    HW250766   7.067   7.982   7.535
16808SOL     OW50767   5.953   8.548   7.949
16808SOL    HW150768   5.946   8.631   7.893
16808SOL    HW250769   5.957   8.468   7.889
16809SOL     OW50770   6.795   7.973   7.723
16809SOL    HW150771   6.808   7.889   7.777
16809SOL    HW250772   6.766   8.047   7.783
16810SOL     OW50773   6.889   8.286   7.490
16810SOL    HW150774   6.923   8.193   7.505
16810SOL    HW250775   6.907   8.313   7.395
16811SOL     OW50776   5.594   8.774   7.648
16811SOL    HW150777   5.501   8.795   7.617
16811SOL    HW250778   5.604   8.675   7.661
16812SOL     OW50779   6.059   7.948   7.639
16812SOL    HW150780   6.120   8.028   7.643
16812SOL    HW250781   5.964   7.979   7.646
16813SOL     OW50782   6.780   9.060   7.479
16813SOL    HW150783   6.786   8.967   7.516
16813SOL    HW250784   6.721   9.060   7.399
16814SOL     OW50785   6.176   8.935   7.939
16814SOL    HW150786   6.218   8.877   7.869
16814SOL    HW250787   6.132   9.014   7.895
16815SOL     OW50788   5.661   7.793   7.481
16815SOL    HW150789   5.569   7.765   7.452
16815SOL    HW250790   5.692   7.870   7.425
16816SOL     OW50791   5.658   7.614   7.766
16816SOL    HW150792   5.641   7.697   7.712
16816SOL    HW250793   5.748   7.577   7.744
16817SOL     OW50794   6.769   8.783   7.567
16817SOL    HW150795   6.670   8.772   7.569
16817SOL    HW250796   6.803   8.798   7.660
16818SOL     OW50797   6.669   8.432   7.535
16818SOL    HW150798   6.646   8.485   7.453
16818SOL    HW250799   6.750   8.376   7.516
16819SOL     OW50800   6.014   7.872   7.968
16819SOL    HW150801   6.044   7.800   7.906
16819SOL    HW250802   5.975   7.832   8.051
16820SOL     OW50803   6.938   7.500   7.616
16820SOL    HW150804   6.973   7.459   7.532
16820SOL    HW250805   6.848   7.462   7.636
16821SOL     OW50806   5.625   8.525   7.748
16821SOL    HW150807   5.724   8.514   7.739
16821SOL    HW250808   5.585   8.439   7.780
16822SOL     OW50809   6.461   9.094   7.785
16822SOL    HW150810   6.384   9.059   7.731
16822SOL    HW250811   6.429   9.165   7.847
16823SOL     OW50812   7.467   0.368   0.647
16823SOL    HW150813   7.385   0.411   0.686
16823SOL    HW250814   7.439   0.295   0.584
16824SOL     OW50815   8.017   1.275   1.165
16824SOL    HW150816   7.924   1.268   1.128
16824SOL    HW250817   8.028   1.364   1.209
16825SOL     OW50818   9.003   1.511   0.703
16825SOL    HW150819   8.946   1.495   0.784
16825SOL    HW250820   8.944   1.521   0.623
16826SOL     OW50821   8.583   0.703   0.717
16826SOL    HW150822   8.640   0.781   0.692
16826SOL    HW250823   8.523   0.729   0.793
16827SOL     OW50824   9.203   0.607   0.231
16827SOL    HW150825   9.191   0.594   0.132
16827SOL    HW250826   9.173   0.526   0.280
16828SOL     OW50827   8.216   1.144   1.023
16828SOL    HW150828   8.138   1.161   1.083
16828SOL    HW250829   8.250   1.231   0.987
16829SOL     OW50830   8.298   0.798   1.823
16829SOL    HW150831   8.294   0.874   1.888
16829SOL    HW250832   8.320   0.834   1.732
16830SOL     OW50833   8.133   1.012   0.665
16830SOL    HW150834   8.202   0.996   0.735
16830SOL    HW250835   8.060   1.069   0.703
16831SOL     OW50836   8.134   1.161   1.803
16831SOL    HW150837   8.194   1.240   1.817
16831SOL    HW250838   8.048   1.192   1.762
16832SOL     OW50839   7.783   1.435   1.061
16832SOL    HW150840   7.705   1.404   1.008
16832SOL    HW250841   7.841   1.493   1.004
16833SOL     OW50842   8.908   1.505   1.339
16833SOL    HW150843   8.932   1.599   1.365
16833SOL    HW250844   8.892   1.451   1.421
16834SOL     OW50845   9.051   0.447   0.737
16834SOL    HW150846   8.977   0.493   0.687
16834SOL    HW250847   9.102   0.515   0.790
16835SOL     OW50848   7.679   1.713   0.483
16835SOL    HW150849   7.713   1.790   0.537
16835SOL    HW250850   7.723   1.713   0.393
16836SOL     OW50851   8.575   1.341   1.690
16836SOL    HW150852   8.622   1.341   1.778
16836SOL    HW250853   8.527   1.254   1.679
16837SOL     OW50854   7.678   1.434   0.538
16837SOL    HW150855   7.652   1.530   0.538
16837SOL    HW250856   7.607   1.380   0.583
16838SOL     OW50857   7.688   1.091   0.886
16838SOL    HW150858   7.702   1.007   0.938
16838SOL    HW250859   7.633   1.155   0.941
16839SOL     OW50860   8.068   1.786   1.439
16839SOL    HW150861   7.976   1.769   1.474
16839SOL    HW250862   8.096   1.878   1.465
16840SOL     OW50863   7.570   0.643   0.563
16840SOL    HW150864   7.525   0.555   0.580
16840SOL    HW250865   7.569   0.697   0.647
16841SOL     OW50866   9.290   1.767   0.359
16841SOL    HW150867   9.344   1.738   0.439
16841SOL    HW250868   9.320   1.857   0.330
16842SOL     OW50869   9.137   0.922   0.612
16842SOL    HW150870   9.232   0.893   0.620
16842SOL    HW250871   9.129   0.987   0.537
16843SOL     OW50872   9.089   1.108   0.432
16843SOL    HW150873   9.175   1.110   0.380
16843SOL    HW250874   9.103   1.155   0.520
16844SOL     OW50875   7.561   0.737   1.597
16844SOL    HW150876   7.649   0.724   1.642
16844SOL    HW250877   7.548   0.834   1.575
16845SOL     OW50878   8.061   1.365   0.726
16845SOL    HW150879   8.012   1.278   0.735
16845SOL    HW250880   8.038   1.408   0.639
16846SOL     OW50881   8.741   1.228   1.423
16846SOL    HW150882   8.778   1.155   1.365
16846SOL    HW250883   8.793   1.233   1.508
16847SOL     OW50884   7.645   0.976   1.264
16847SOL    HW150885   7.734   0.931   1.250
16847SOL    HW250886   7.572   0.911   1.245
16848SOL     OW50887   8.635   1.792   1.616
16848SOL    HW150888   8.659   1.852   1.540
16848SOL    HW250889   8.642   1.697   1.586
16849SOL     OW50890   8.914   1.417   0.953
16849SOL    HW150891   8.855   1.423   1.033
16849SOL    HW250892   8.899   1.329   0.907
16850SOL     OW50893   9.115   1.714   0.572
16850SOL    HW150894   9.074   1.691   0.484
16850SOL    HW250895   9.097   1.640   0.637
16851SOL     OW50896   8.255   0.605   1.465
16851SOL    HW150897   8.208   0.602   1.554
16851SOL    HW250898   8.204   0.550   1.399
16852SOL     OW50899   8.842   0.469   1.674
16852SOL    HW150900   8.822   0.512   1.762
16852SOL    HW250901   8.920   0.407   1.683
16853SOL     OW50902   8.421   0.890   1.572
16853SOL    HW150903   8.467   0.806   1.543
16853SOL    HW250904   8.365   0.924   1.497
16854SOL     OW50905   8.439   0.410   1.242
16854SOL    HW150906   8.362   0.444   1.296
16854SOL    HW250907   8.405   0.359   1.163
16855SOL     OW50908   8.489   0.701   0.429
16855SOL    HW150909   8.515   0.697   0.525
16855SOL    HW250910   8.404   0.650   0.415
16856SOL     OW50911   7.524   0.811   0.789
16856SOL    HW150912   7.623   0.799   0.798
16856SOL    HW250913   7.500   0.906   0.810
16857SOL     OW50914   7.578   1.821   1.571
16857SOL    HW150915   7.568   1.806   1.670
16857SOL    HW250916   7.492   1.857   1.535
16858SOL     OW50917   9.167   0.585   1.831
16858SOL    HW150918   9.141   0.674   1.795
16858SOL    HW250919   9.165   0.517   1.758
16859SOL     OW50920   8.810   1.144   0.545
16859SOL    HW150921   8.893   1.115   0.497
16859SOL    HW250922   8.761   1.211   0.489
16860SOL     OW50923   7.998   0.196   0.885
16860SOL    HW150924   7.993   0.191   0.985
16860SOL    HW250925   8.000   0.292   0.856
16861SOL     OW50926   8.456   1.456   0.477
16861SOL    HW150927   8.410   1.528   0.425
16861SOL    HW250928   8.452   1.476   0.575
16862SOL     OW50929   7.799   1.801   0.853
16862SOL    HW150930   7.849   1.715   0.859
16862SOL    HW250931   7.864   1.878   0.850
16863SOL     OW50932   9.243   1.066   0.873
16863SOL    HW150933   9.181   1.051   0.797
16863SOL    HW250934   9.191   1.077   0.958
16864SOL     OW50935   8.675   1.550   1.506
16864SOL    HW150936   8.681   1.473   1.570
16864SOL    HW250937   8.623   1.524   1.426
16865SOL     OW50938   8.906   0.735   0.728
16865SOL    HW150939   8.901   0.670   0.803
16865SOL    HW250940   8.986   0.794   0.741
16866SOL     OW50941   7.909   1.266   1.727
16866SOL    HW150942   7.859   1.267   1.641
16866SOL    HW250943   7.846   1.248   1.803
16867SOL     OW50944   7.697   1.785   1.241
16867SOL    HW150945   7.754   1.720   1.291
16867SOL    HW250946   7.681   1.752   1.148
16868SOL     OW50947   8.388   1.698   0.904
16868SOL    HW150948   8.468   1.641   0.925
16868SOL    HW250949   8.339   1.658   0.827
16869SOL     OW50950   7.830   0.700   0.480
16869SOL    HW150951   7.875   0.610   0.477
16869SOL    HW250952   7.736   0.689   0.513
16870SOL     OW50953   8.336   1.514   1.195
16870SOL    HW150954   8.313   1.489   1.101
16870SOL    HW250955   8.397   1.445   1.234
16871SOL     OW50956   8.799   0.590   1.433
16871SOL    HW150957   8.827   0.547   1.518
16871SOL    HW250958   8.824   0.686   1.434
16872SOL     OW50959   8.251   1.402   0.924
16872SOL    HW150960   8.341   1.416   0.882
16872SOL    HW250961   8.180   1.404   0.853
16873SOL     OW50962   8.370   0.503   0.899
16873SOL    HW150963   8.345   0.494   0.803
16873SOL    HW250964   8.418   0.421   0.930
16874SOL     OW50965   8.383   0.236   0.480
16874SOL    HW150966   8.335   0.277   0.402
16874SOL    HW250967   8.482   0.234   0.461
16875SOL     OW50968   8.524   0.683   1.464
16875SOL    HW150969   8.444   0.622   1.467
16875SOL    HW250970   8.605   0.630   1.440
16876SOL     OW50971   8.675   1.570   0.793
16876SOL    HW150972   8.696   1.644   0.728
16876SOL    HW250973   8.743   1.570   0.866
16877SOL     OW50974   7.907   1.152   0.741
16877SOL    HW150975   7.836   1.125   0.806
16877SOL    HW250976   7.881   1.124   0.648
16878SOL     OW50977   8.719   1.797   0.591
16878SOL    HW150978   8.763   1.861   0.527
16878SOL    HW250979   8.669   1.849   0.661
16879SOL     OW50980   8.480   0.549   0.016
16879SOL    HW150981   8.439   0.631  -0.023
16879SOL    HW250982   8.544   0.575   0.089
16880SOL     OW50983   7.526   0.556   1.386
16880SOL    HW150984   7.618   0.555   1.345
16880SOL    HW250985   7.520   0.630   1.453
16881SOL     OW50986   8.314   0.454   0.642
16881SOL    HW150987   8.282   0.526   0.580
16881SOL    HW250988   8.338   0.373   0.589
16882SOL     OW50989   8.465   0.039   0.753
16882SOL    HW150990   8.393   0.044   0.684
16882SOL    HW250991   8.441  -0.030   0.822
16883SOL     OW50992   8.877   1.173   0.867
16883SOL    HW150993   8.822   1.089   0.860
16883SOL    HW250994   8.903   1.202   0.775
16884SOL     OW50995   8.914   0.590   0.992
16884SOL    HW150996   8.884   0.495   0.999
16884SOL    HW250997   8.987   0.606   1.058
16885SOL     OW50998   9.112   1.280   0.657
16885SOL    HW150999   9.211   1.288   0.671
16885SOL    HW251000   9.067   1.364   0.688
16886SOL     OW51001   9.202   1.223   1.588
16886SOL    HW151002   9.293   1.184   1.575
16886SOL    HW251003   9.210   1.319   1.612
16887SOL     OW51004   8.512   1.347   1.340
16887SOL    HW151005   8.432   1.324   1.395
16887SOL    HW251006   8.595   1.321   1.389
16888SOL     OW51007   9.040   1.629   1.625
16888SOL    HW151008   9.067   1.663   1.535
16888SOL    HW251009   9.119   1.591   1.671
16889SOL     OW51010   8.559   1.195   1.100
16889SOL    HW151011   8.519   1.239   1.181
16889SOL    HW251012   8.518   1.232   1.017
16890SOL     OW51013   9.086   1.099   1.079
16890SOL    HW151014   9.091   1.180   1.138
16890SOL    HW251015   9.000   1.101   1.028
16891SOL     OW51016   8.428   1.116   1.719
16891SOL    HW151017   8.329   1.122   1.729
16891SOL    HW251018   8.451   1.036   1.663
16892SOL     OW51019   7.858   0.813   1.251
16892SOL    HW151020   7.944   0.825   1.301
16892SOL    HW251021   7.816   0.726   1.278
16893SOL     OW51022   8.722   0.386   1.262
16893SOL    HW151023   8.743   0.460   1.326
16893SOL    HW251024   8.633   0.403   1.219
16894SOL     OW51025   7.512   1.564   1.331
16894SOL    HW151026   7.466   1.646   1.297
16894SOL    HW251027   7.610   1.583   1.340
16895SOL     OW51028   7.815   1.100   0.501
16895SOL    HW151029   7.808   1.183   0.445
16895SOL    HW251030   7.819   1.020   0.441
16896SOL     OW51031   8.014   0.537   0.865
16896SOL    HW151032   8.026   0.603   0.791
16896SOL    HW251033   8.060   0.571   0.948
16897SOL     OW51034   8.700   1.348   0.388
16897SOL    HW151035   8.750   1.425   0.428
16897SOL    HW251036   8.605   1.350   0.420
16898SOL     OW51037   8.720   1.445   1.142
16898SOL    HW151038   8.767   1.458   1.229
16898SOL    HW251039   8.654   1.371   1.151
16899SOL     OW51040   9.030   0.639   0.472
16899SOL    HW151041   8.999   0.700   0.545
16899SOL    HW251042   9.080   0.691   0.403
16900SOL     OW51043   7.802   1.510   1.329
16900SOL    HW151044   7.781   1.466   1.242
16900SOL    HW251045   7.899   1.536   1.332
16901SOL     OW51046   7.850   0.751   1.598
16901SOL    HW151047   7.918   0.806   1.551
16901SOL    HW251048   7.890   0.663   1.625
16902SOL     OW51049   9.035   0.779   1.670
16902SOL    HW151050   8.943   0.817   1.665
16902SOL    HW251051   9.095   0.826   1.605
16903SOL     OW51052   8.021   0.870   1.029
16903SOL    HW151053   8.065   0.959   1.020
16903SOL    HW251054   7.958   0.870   1.106
16904SOL     OW51055   8.808   0.862   1.045
16904SOL    HW151056   8.733   0.862   0.979
16904SOL    HW251057   8.845   0.770   1.054
16905SOL     OW51058   8.657   0.525   0.275
16905SOL    HW151059   8.670   0.441   0.329
16905SOL    HW251060   8.628   0.599   0.335
16906SOL     OW51061   7.485   1.310   1.282
16906SOL    HW151062   7.538   1.261   1.350
16906SOL    HW251063   7.507   1.408   1.287
16907SOL     OW51064   8.180   0.634   1.064
16907SOL    HW151065   8.239   0.608   0.988
16907SOL    HW251066   8.152   0.730   1.053
16908SOL     OW51067   9.176   0.935   1.854
16908SOL    HW151068   9.130   0.928   1.765
16908SOL    HW251069   9.114   0.979   1.920
16909SOL     OW51070   8.471   0.766   0.966
16909SOL    HW151071   8.486   0.787   1.062
16909SOL    HW251072   8.441   0.671   0.957
16910SOL     OW51073   8.428   1.573   1.700
16910SOL    HW151074   8.408   1.617   1.612
16910SOL    HW251075   8.467   1.482   1.684
16911SOL     OW51076   9.307   1.518   1.605
16911SOL    HW151077   9.321   1.545   1.510
16911SOL    HW251078   9.390   1.540   1.658
16912SOL     OW51079   7.798   0.898   1.804
16912SOL    HW151080   7.874   0.942   1.852
16912SOL    HW251081   7.833   0.851   1.722
16913SOL     OW51082   8.516   1.333   0.849
16913SOL    HW151083   8.523   1.249   0.794
16913SOL    HW251084   8.578   1.402   0.813
16914SOL     OW51085   7.767   0.810   0.949
16914SOL    HW151086   7.860   0.846   0.954
16914SOL    HW251087   7.761   0.725   1.001
16915SOL     OW51088   7.787   0.509   1.006
16915SOL    HW151089   7.735   0.426   0.989
16915SOL    HW251090   7.864   0.514   0.942
16916SOL     OW51091   7.959   0.415   1.808
16916SOL    HW151092   7.941   0.460   1.896
16916SOL    HW251093   8.001   0.480   1.745
16917SOL     OW51094   7.536   1.801   0.927
16917SOL    HW151095   7.494   1.715   0.900
16917SOL    HW251096   7.630   1.804   0.893
16918SOL     OW51097   7.952   1.568   0.910
16918SOL    HW151098   8.018   1.642   0.919
16918SOL    HW251099   7.996   1.489   0.868
16919SOL     OW51100   8.450   0.796   1.238
16919SOL    HW151101   8.491   0.764   1.324
16919SOL    HW251102   8.354   0.769   1.235
16920SOL     OW51103   7.488   0.544   1.114
16920SOL    HW151104   7.573   0.511   1.073
16920SOL    HW251105   7.501   0.559   1.212
16921SOL     OW51106   7.637   0.520   1.722
16921SOL    HW151107   7.696   0.480   1.652
16921SOL    HW251108   7.579   0.591   1.681
16922SOL     OW51109   8.817   0.950   1.660
16922SOL    HW151110   8.856   1.039   1.680
16922SOL    HW251111   8.827   0.930   1.563
16923SOL     OW51112   9.105   0.604   1.206
16923SOL    HW151113   9.067   0.535   1.268
16923SOL    HW251114   9.187   0.568   1.162
16924SOL     OW51115   7.700   1.564   1.744
16924SOL    HW151116   7.670   1.621   1.820
16924SOL    HW251117   7.693   1.467   1.770
16925SOL     OW51118   8.378   1.678   1.465
16925SOL    HW151119   8.354   1.660   1.370
16925SOL    HW251120   8.408   1.772   1.475
16926SOL     OW51121   7.607   1.137   1.466
16926SOL    HW151122   7.629   1.076   1.542
16926SOL    HW251123   7.617   1.088   1.380
16927SOL     OW51124   8.795   1.059   1.234
16927SOL    HW151125   8.819   0.996   1.160
16927SOL    HW251126   8.705   1.099   1.216
16928SOL     OW51127   8.750   0.855   0.309
16928SOL    HW151128   8.664   0.824   0.351
16928SOL    HW251129   8.746   0.841   0.210
16929SOL     OW51130   9.207   1.747   1.154
16929SOL    HW151131   9.268   1.777   1.081
16929SOL    HW251132   9.169   1.658   1.132
16930SOL     OW51133   8.700   1.731   1.128
16930SOL    HW151134   8.784   1.736   1.074
16930SOL    HW251135   8.677   1.635   1.146
16931SOL     OW51136   7.531   1.258   1.022
16931SOL    HW151137   7.526   1.257   1.122
16931SOL    HW251138   7.448   1.217   0.984
16932SOL     OW51139   8.136   1.662   1.716
16932SOL    HW151140   8.080   1.743   1.725
16932SOL    HW251141   8.188   1.666   1.630
16933SOL     OW51142   8.351   0.086   0.133
16933SOL    HW151143   8.402   0.087   0.047
16933SOL    HW251144   8.407   0.044   0.204
16934SOL     OW51145   8.836   1.573   0.477
16934SOL    HW151146   8.903   1.585   0.403
16934SOL    HW251147   8.796   1.662   0.500
16935SOL     OW51148   7.578   1.794   1.851
16935SOL    HW151149   7.537   1.720   1.904
16935SOL    HW251150   7.642   1.845   1.909
16936SOL     OW51151   8.728   0.927   0.672
16936SOL    HW151152   8.788   0.846   0.674
16936SOL    HW251153   8.768   0.996   0.612
16937SOL     OW51154   8.278   1.273   1.422
16937SOL    HW151155   8.273   1.306   1.517
16937SOL    HW251156   8.192   1.292   1.376
16938SOL     OW51157   9.098   1.720   1.394
16938SOL    HW151158   9.151   1.730   1.310
16938SOL    HW251159   9.071   1.810   1.428
16939SOL     OW51160   7.711   0.326   0.720
16939SOL    HW151161   7.632   0.377   0.686
16939SOL    HW251162   7.702   0.311   0.818
16940SOL     OW51163   8.270   1.002   1.372
16940SOL    HW151164   8.310   1.001   1.280
16940SOL    HW251165   8.280   1.094   1.412
16941SOL     OW51166   7.820   1.288   1.490
16941SOL    HW151167   7.807   1.381   1.456
16941SOL    HW251168   7.736   1.236   1.477
16942SOL     OW51169   9.062   1.292   1.289
16942SOL    HW151170   9.122   1.295   1.369
16942SOL    HW251171   8.987   1.356   1.302
16943SOL     OW51172   8.487   1.098   0.696
16943SOL    HW151173   8.417   1.051   0.750
16943SOL    HW251174   8.546   1.030   0.653
16944SOL     OW51175   8.462   0.236   0.971
16944SOL    HW151176   8.454   0.200   0.878
16944SOL    HW251177   8.460   0.160   1.036
16945SOL     OW51178   8.038   1.487   0.491
16945SOL    HW151179   8.080   1.429   0.421
16945SOL    HW251180   7.994   1.566   0.447
16946SOL     OW51181   7.553   1.013   1.726
16946SOL    HW151182   7.476   0.980   1.780
16946SOL    HW251183   7.638   0.983   1.768
16947SOL     OW51184   8.888   0.856   1.398
16947SOL    HW151185   8.831   0.908   1.335
16947SOL    HW251186   8.984   0.868   1.374
16948SOL     OW51187   7.520   0.166   0.318
16948SOL    HW151188   7.503   0.249   0.264
16948SOL    HW251189   7.610   0.129   0.296
16949SOL     OW51190   8.061   0.842   1.431
16949SOL    HW151191   8.117   0.923   1.414
16949SOL    HW251192   8.120   0.762   1.434
16950SOL     OW51193   8.941   1.767   0.959
16950SOL    HW151194   8.974   1.831   0.890
16950SOL    HW251195   9.007   1.761   1.034
16951SOL     OW51196   8.164   0.565   1.708
16951SOL    HW151197   8.183   0.630   1.782
16951SOL    HW251198   8.224   0.485   1.717
16952SOL     OW51199   8.898   1.220   1.633
16952SOL    HW151200   8.889   1.210   1.732
16952SOL    HW251201   8.994   1.213   1.607
16953SOL     OW51202   7.838   1.741   1.560
16953SOL    HW151203   7.747   1.782   1.558
16953SOL    HW251204   7.831   1.647   1.592
16954SOL     OW51205   9.122   0.883   1.254
16954SOL    HW151206   9.095   0.794   1.217
16954SOL    HW251207   9.123   0.951   1.181
16955SOL     OW51208   8.673   0.325   0.449
16955SOL    HW151209   8.738   0.251   0.438
16955SOL    HW251210   8.693   0.375   0.533
16956SOL     OW51211   8.042   0.745   0.652
16956SOL    HW151212   8.092   0.830   0.633
16956SOL    HW251213   7.954   0.747   0.604
16957SOL     OW51214   9.178   0.934   1.517
16957SOL    HW151215   9.216   1.025   1.532
16957SOL    HW251216   9.170   0.917   1.418
16958SOL     OW51217   8.109   1.790   0.953
16958SOL    HW151218   8.063   1.878   0.940
16958SOL    HW251219   8.208   1.802   0.946
16959SOL     OW51220   8.307   0.956   0.861
16959SOL    HW151221   8.361   0.887   0.909
16959SOL    HW251222   8.275   1.025   0.927
16960SOL     OW51223   9.309   1.569   0.851
16960SOL    HW151224   9.238   1.557   0.781
16960SOL    HW251225   9.310   1.490   0.911
16961SOL     OW51226   7.669   1.314   1.844
16961SOL    HW151227   7.604   1.241   1.823
16961SOL    HW251228   7.673   1.328   1.942
16962SOL     OW51229   7.527   1.240   0.653
16962SOL    HW151230   7.526   1.193   0.741
16962SOL    HW251231   7.609   1.212   0.602
16963SOL     OW51232   8.120   1.391   1.624
16963SOL    HW151233   8.042   1.341   1.662
16963SOL    HW251234   8.117   1.486   1.655
16964SOL     OW51235   9.272   0.192   1.227
16964SOL    HW151236   9.268   0.102   1.271
16964SOL    HW251237   9.275   0.181   1.128
16965SOL     OW51238   9.153   1.487   1.104
16965SOL    HW151239   9.060   1.462   1.077
16965SOL    HW251240   9.179   1.437   1.186
16966SOL     OW51241   7.765   0.547   1.280
16966SOL    HW151242   7.803   0.488   1.352
16966SOL    HW251243   7.805   0.521   1.192
16967SOL     OW51244   8.260   1.586   0.687
16967SOL    HW151245   8.292   1.596   0.593
16967SOL    HW251246   8.181   1.524   0.689
16968SOL     OW51247   8.066   1.567   1.284
16968SOL    HW151248   8.061   1.649   1.341
16968SOL    HW251249   8.155   1.564   1.239
16969SOL     OW51250   8.748   0.453   0.691
16969SOL    HW151251   8.689   0.533   0.695
16969SOL    HW251252   8.763   0.418   0.784
16970SOL     OW51253   8.323   1.646   0.337
16970SOL    HW151254   8.246   1.611   0.283
16970SOL    HW251255   8.291   1.717   0.399
16971SOL     OW51256   7.678   0.628   1.975
16971SOL    HW151257   7.585   0.626   2.012
16971SOL    HW251258   7.679   0.589   1.883
16972SOL     OW51259   7.467   0.368   2.509
16972SOL    HW151260   7.385   0.411   2.548
16972SOL    HW251261   7.439   0.295   2.446
16973SOL     OW51262   8.017   1.275   3.027
16973SOL    HW151263   7.924   1.268   2.990
16973SOL    HW251264   8.028   1.364   3.071
16974SOL     OW51265   9.003   1.511   2.565
16974SOL    HW151266   8.946   1.495   2.646
16974SOL    HW251267   8.944   1.521   2.485
16975SOL     OW51268   8.583   0.703   2.579
16975SOL    HW151269   8.640   0.781   2.554
16975SOL    HW251270   8.523   0.729   2.655
16976SOL     OW51271   9.203   0.607   2.093
16976SOL    HW151272   9.191   0.594   1.994
16976SOL    HW251273   9.173   0.526   2.142
16977SOL     OW51274   8.216   1.144   2.885
16977SOL    HW151275   8.138   1.161   2.945
16977SOL    HW251276   8.250   1.231   2.849
16978SOL     OW51277   8.298   0.798   3.685
16978SOL    HW151278   8.294   0.874   3.750
16978SOL    HW251279   8.320   0.834   3.594
16979SOL     OW51280   8.133   1.012   2.527
16979SOL    HW151281   8.202   0.996   2.597
16979SOL    HW251282   8.060   1.069   2.565
16980SOL     OW51283   8.134   1.161   3.665
16980SOL    HW151284   8.194   1.240   3.679
16980SOL    HW251285   8.048   1.192   3.624
16981SOL     OW51286   7.783   1.435   2.923
16981SOL    HW151287   7.705   1.404   2.870
16981SOL    HW251288   7.841   1.493   2.866
16982SOL     OW51289   8.908   1.505   3.201
16982SOL    HW151290   8.932   1.599   3.227
16982SOL    HW251291   8.892   1.451   3.283
16983SOL     OW51292   9.051   0.447   2.599
16983SOL    HW151293   8.977   0.493   2.549
16983SOL    HW251294   9.102   0.515   2.652
16984SOL     OW51295   7.679   1.713   2.345
16984SOL    HW151296   7.713   1.790   2.399
16984SOL    HW251297   7.723   1.713   2.255
16985SOL     OW51298   8.575   1.341   3.552
16985SOL    HW151299   8.622   1.341   3.640
16985SOL    HW251300   8.527   1.254   3.541
16986SOL     OW51301   7.678   1.434   2.400
16986SOL    HW151302   7.652   1.530   2.400
16986SOL    HW251303   7.607   1.380   2.445
16987SOL     OW51304   7.688   1.091   2.748
16987SOL    HW151305   7.702   1.007   2.800
16987SOL    HW251306   7.633   1.155   2.803
16988SOL     OW51307   8.068   1.786   3.301
16988SOL    HW151308   7.976   1.769   3.336
16988SOL    HW251309   8.096   1.878   3.327
16989SOL     OW51310   8.054   0.964   1.985
16989SOL    HW151311   8.061   1.048   1.931
16989SOL    HW251312   8.100   0.977   2.073
16990SOL     OW51313   7.570   0.643   2.425
16990SOL    HW151314   7.525   0.555   2.442
16990SOL    HW251315   7.569   0.697   2.509
16991SOL     OW51316   9.290   1.767   2.221
16991SOL    HW151317   9.344   1.738   2.301
16991SOL    HW251318   9.320   1.857   2.192
16992SOL     OW51319   7.475   1.596   1.979
16992SOL    HW151320   7.456   1.500   2.000
16992SOL    HW251321   7.442   1.654   2.054
16993SOL     OW51322   9.137   0.922   2.474
16993SOL    HW151323   9.232   0.893   2.482
16993SOL    HW251324   9.129   0.987   2.399
16994SOL     OW51325   9.089   1.108   2.294
16994SOL    HW151326   9.175   1.110   2.242
16994SOL    HW251327   9.103   1.155   2.382
16995SOL     OW51328   7.561   0.737   3.459
16995SOL    HW151329   7.649   0.724   3.504
16995SOL    HW251330   7.548   0.834   3.437
16996SOL     OW51331   8.061   1.365   2.588
16996SOL    HW151332   8.012   1.278   2.597
16996SOL    HW251333   8.038   1.408   2.501
16997SOL     OW51334   8.741   1.228   3.285
16997SOL    HW151335   8.778   1.155   3.227
16997SOL    HW251336   8.793   1.233   3.370
16998SOL     OW51337   7.645   0.976   3.126
16998SOL    HW151338   7.734   0.931   3.112
16998SOL    HW251339   7.572   0.911   3.107
16999SOL     OW51340   8.973   0.999   2.052
16999SOL    HW151341   8.910   0.923   2.065
16999SOL    HW251342   9.021   1.017   2.138
17000SOL     OW51343   8.635   1.792   3.478
17000SOL    HW151344   8.659   1.852   3.402
17000SOL    HW251345   8.642   1.697   3.448
17001SOL     OW51346   8.914   1.417   2.815
17001SOL    HW151347   8.855   1.423   2.895
17001SOL    HW251348   8.899   1.329   2.769
17002SOL     OW51349   9.115   1.714   2.434
17002SOL    HW151350   9.074   1.691   2.346
17002SOL    HW251351   9.097   1.640   2.499
17003SOL     OW51352   8.046   0.729   2.132
17003SOL    HW151353   8.070   0.798   2.064
17003SOL    HW251354   7.968   0.762   2.186
17004SOL     OW51355   9.024   1.662   2.169
17004SOL    HW151356   9.113   1.708   2.172
17004SOL    HW251357   9.003   1.638   2.074
17005SOL     OW51358   8.255   0.605   3.327
17005SOL    HW151359   8.208   0.602   3.416
17005SOL    HW251360   8.204   0.550   3.261
17006SOL     OW51361   8.842   0.469   3.536
17006SOL    HW151362   8.822   0.512   3.624
17006SOL    HW251363   8.920   0.407   3.545
17007SOL     OW51364   8.421   0.890   3.434
17007SOL    HW151365   8.467   0.806   3.405
17007SOL    HW251366   8.365   0.924   3.359
17008SOL     OW51367   8.439   0.410   3.104
17008SOL    HW151368   8.362   0.444   3.158
17008SOL    HW251369   8.405   0.359   3.025
17009SOL     OW51370   8.489   0.701   2.291
17009SOL    HW151371   8.515   0.697   2.387
17009SOL    HW251372   8.404   0.650   2.277
17010SOL     OW51373   7.524   0.811   2.651
17010SOL    HW151374   7.623   0.799   2.660
17010SOL    HW251375   7.500   0.906   2.672
17011SOL     OW51376   7.578   1.821   3.433
17011SOL    HW151377   7.568   1.806   3.532
17011SOL    HW251378   7.492   1.857   3.397
17012SOL     OW51379   8.313   0.348   2.057
17012SOL    HW151380   8.372   0.411   2.008
17012SOL    HW251381   8.332   0.254   2.028
17013SOL     OW51382   9.167   0.585   3.693
17013SOL    HW151383   9.141   0.674   3.657
17013SOL    HW251384   9.165   0.517   3.620
17014SOL     OW51385   8.810   1.144   2.407
17014SOL    HW151386   8.893   1.115   2.359
17014SOL    HW251387   8.761   1.211   2.351
17015SOL     OW51388   7.998   0.196   2.747
17015SOL    HW151389   7.993   0.191   2.847
17015SOL    HW251390   8.000   0.292   2.718
17016SOL     OW51391   8.456   1.456   2.339
17016SOL    HW151392   8.410   1.528   2.287
17016SOL    HW251393   8.452   1.476   2.437
17017SOL     OW51394   7.799   1.801   2.715
17017SOL    HW151395   7.849   1.715   2.721
17017SOL    HW251396   7.864   1.878   2.712
17018SOL     OW51397   9.243   1.066   2.735
17018SOL    HW151398   9.181   1.051   2.659
17018SOL    HW251399   9.191   1.077   2.820
17019SOL     OW51400   8.675   1.550   3.368
17019SOL    HW151401   8.681   1.473   3.432
17019SOL    HW251402   8.623   1.524   3.288
17020SOL     OW51403   7.769   0.943   2.104
17020SOL    HW151404   7.851   0.982   2.062
17020SOL    HW251405   7.742   0.861   2.055
17021SOL     OW51406   8.906   0.735   2.590
17021SOL    HW151407   8.901   0.670   2.665
17021SOL    HW251408   8.986   0.794   2.603
17022SOL     OW51409   7.909   1.266   3.589
17022SOL    HW151410   7.859   1.267   3.503
17022SOL    HW251411   7.846   1.248   3.665
17023SOL     OW51412   8.559   1.776   2.099
17023SOL    HW151413   8.499   1.714   2.149
17023SOL    HW251414   8.590   1.732   2.014
17024SOL     OW51415   9.080   1.377   1.943
17024SOL    HW151416   9.048   1.471   1.933
17024SOL    HW251417   9.004   1.314   1.931
17025SOL     OW51418   7.912   1.743   2.185
17025SOL    HW151419   7.945   1.782   2.271
17025SOL    HW251420   7.988   1.736   2.120
17026SOL     OW51421   7.697   1.785   3.103
17026SOL    HW151422   7.754   1.720   3.153
17026SOL    HW251423   7.681   1.752   3.010
17027SOL     OW51424   8.388   1.698   2.766
17027SOL    HW151425   8.468   1.641   2.787
17027SOL    HW251426   8.339   1.658   2.689
17028SOL     OW51427   7.830   0.700   2.342
17028SOL    HW151428   7.875   0.610   2.339
17028SOL    HW251429   7.736   0.689   2.375
17029SOL     OW51430   8.336   1.514   3.057
17029SOL    HW151431   8.313   1.489   2.963
17029SOL    HW251432   8.397   1.445   3.096
17030SOL     OW51433   8.799   0.590   3.295
17030SOL    HW151434   8.827   0.547   3.380
17030SOL    HW251435   8.824   0.686   3.296
17031SOL     OW51436   8.251   1.402   2.786
17031SOL    HW151437   8.341   1.416   2.744
17031SOL    HW251438   8.180   1.404   2.715
17032SOL     OW51439   8.370   0.503   2.761
17032SOL    HW151440   8.345   0.494   2.665
17032SOL    HW251441   8.418   0.421   2.792
17033SOL     OW51442   8.882   1.188   1.903
17033SOL    HW151443   8.914   1.112   1.960
17033SOL    HW251444   8.790   1.215   1.933
17034SOL     OW51445   8.383   0.236   2.342
17034SOL    HW151446   8.335   0.277   2.264
17034SOL    HW251447   8.482   0.234   2.323
17035SOL     OW51448   8.524   0.683   3.326
17035SOL    HW151449   8.444   0.622   3.329
17035SOL    HW251450   8.605   0.630   3.302
17036SOL     OW51451   8.675   1.570   2.655
17036SOL    HW151452   8.696   1.644   2.590
17036SOL    HW251453   8.743   1.570   2.728
17037SOL     OW51454   7.907   1.152   2.603
17037SOL    HW151455   7.836   1.125   2.668
17037SOL    HW251456   7.881   1.124   2.510
17038SOL     OW51457   8.719   1.797   2.453
17038SOL    HW151458   8.763   1.861   2.389
17038SOL    HW251459   8.669   1.849   2.523
17039SOL     OW51460   8.480   0.549   1.878
17039SOL    HW151461   8.439   0.631   1.839
17039SOL    HW251462   8.544   0.575   1.951
17040SOL     OW51463   7.526   0.556   3.248
17040SOL    HW151464   7.618   0.555   3.207
17040SOL    HW251465   7.520   0.630   3.315
17041SOL     OW51466   8.314   0.454   2.504
17041SOL    HW151467   8.282   0.526   2.442
17041SOL    HW251468   8.338   0.373   2.451
17042SOL     OW51469   8.465   0.039   2.615
17042SOL    HW151470   8.393   0.044   2.546
17042SOL    HW251471   8.441  -0.030   2.684
17043SOL     OW51472   8.877   1.173   2.729
17043SOL    HW151473   8.822   1.089   2.722
17043SOL    HW251474   8.903   1.202   2.637
17044SOL     OW51475   8.914   0.590   2.854
17044SOL    HW151476   8.884   0.495   2.861
17044SOL    HW251477   8.987   0.606   2.920
17045SOL     OW51478   9.305   0.833   2.239
17045SOL    HW151479   9.347   0.769   2.303
17045SOL    HW251480   9.267   0.782   2.161
17046SOL     OW51481   7.936   1.385   2.036
17046SOL    HW151482   7.849   1.370   2.083
17046SOL    HW251483   7.919   1.411   1.941
17047SOL     OW51484   9.112   1.280   2.519
17047SOL    HW151485   9.211   1.288   2.533
17047SOL    HW251486   9.067   1.364   2.550
17048SOL     OW51487   8.838   0.575   1.940
17048SOL    HW151488   8.784   0.554   2.021
17048SOL    HW251489   8.929   0.534   1.949
17049SOL     OW51490   9.202   1.223   3.450
17049SOL    HW151491   9.293   1.184   3.437
17049SOL    HW251492   9.210   1.319   3.474
17050SOL     OW51493   8.512   1.347   3.202
17050SOL    HW151494   8.432   1.324   3.257
17050SOL    HW251495   8.595   1.321   3.251
17051SOL     OW51496   9.040   1.629   3.487
17051SOL    HW151497   9.067   1.663   3.397
17051SOL    HW251498   9.119   1.591   3.533
17052SOL     OW51499   8.559   1.195   2.962
17052SOL    HW151500   8.519   1.239   3.043
17052SOL    HW251501   8.518   1.232   2.879
17053SOL     OW51502   9.086   1.099   2.941
17053SOL    HW151503   9.091   1.180   3.000
17053SOL    HW251504   9.000   1.101   2.890
17054SOL     OW51505   8.428   1.116   3.581
17054SOL    HW151506   8.329   1.122   3.591
17054SOL    HW251507   8.451   1.036   3.525
17055SOL     OW51508   8.153   1.050   2.230
17055SOL    HW151509   8.139   1.057   2.329
17055SOL    HW251510   8.237   0.999   2.212
17056SOL     OW51511   7.858   0.813   3.113
17056SOL    HW151512   7.944   0.825   3.163
17056SOL    HW251513   7.816   0.726   3.140
17057SOL     OW51514   8.722   0.386   3.124
17057SOL    HW151515   8.743   0.460   3.188
17057SOL    HW251516   8.633   0.403   3.081
17058SOL     OW51517   7.512   1.564   3.193
17058SOL    HW151518   7.466   1.646   3.159
17058SOL    HW251519   7.610   1.583   3.202
17059SOL     OW51520   7.815   1.100   2.363
17059SOL    HW151521   7.808   1.183   2.307
17059SOL    HW251522   7.819   1.020   2.303
17060SOL     OW51523   8.014   0.537   2.727
17060SOL    HW151524   8.026   0.603   2.653
17060SOL    HW251525   8.060   0.571   2.810
17061SOL     OW51526   8.700   1.348   2.250
17061SOL    HW151527   8.750   1.425   2.290
17061SOL    HW251528   8.605   1.350   2.282
17062SOL     OW51529   8.720   1.445   3.004
17062SOL    HW151530   8.767   1.458   3.091
17062SOL    HW251531   8.654   1.371   3.013
17063SOL     OW51532   9.030   0.639   2.334
17063SOL    HW151533   8.999   0.700   2.407
17063SOL    HW251534   9.080   0.691   2.265
17064SOL     OW51535   7.802   1.510   3.191
17064SOL    HW151536   7.781   1.466   3.104
17064SOL    HW251537   7.899   1.536   3.194
17065SOL     OW51538   7.850   0.751   3.460
17065SOL    HW151539   7.918   0.806   3.413
17065SOL    HW251540   7.890   0.663   3.487
17066SOL     OW51541   9.035   0.779   3.532
17066SOL    HW151542   8.943   0.817   3.527
17066SOL    HW251543   9.095   0.826   3.467
17067SOL     OW51544   8.021   0.870   2.891
17067SOL    HW151545   8.065   0.959   2.882
17067SOL    HW251546   7.958   0.870   2.968
17068SOL     OW51547   8.808   0.862   2.907
17068SOL    HW151548   8.733   0.862   2.841
17068SOL    HW251549   8.845   0.770   2.916
17069SOL     OW51550   8.657   0.525   2.137
17069SOL    HW151551   8.670   0.441   2.191
17069SOL    HW251552   8.628   0.599   2.197
17070SOL     OW51553   7.485   1.310   3.144
17070SOL    HW151554   7.538   1.261   3.212
17070SOL    HW251555   7.507   1.408   3.149
17071SOL     OW51556   8.180   0.634   2.926
17071SOL    HW151557   8.239   0.608   2.850
17071SOL    HW251558   8.152   0.730   2.915
17072SOL     OW51559   9.176   0.935   3.716
17072SOL    HW151560   9.130   0.928   3.627
17072SOL    HW251561   9.114   0.979   3.782
17073SOL     OW51562   8.471   0.766   2.828
17073SOL    HW151563   8.486   0.787   2.924
17073SOL    HW251564   8.441   0.671   2.819
17074SOL     OW51565   8.428   1.573   3.562
17074SOL    HW151566   8.408   1.617   3.474
17074SOL    HW251567   8.467   1.482   3.546
17075SOL     OW51568   9.307   1.518   3.467
17075SOL    HW151569   9.321   1.545   3.372
17075SOL    HW251570   9.390   1.540   3.520
17076SOL     OW51571   7.798   0.898   3.666
17076SOL    HW151572   7.874   0.942   3.714
17076SOL    HW251573   7.833   0.851   3.584
17077SOL     OW51574   8.751   0.838   1.904
17077SOL    HW151575   8.785   0.745   1.919
17077SOL    HW251576   8.769   0.865   1.809
17078SOL     OW51577   8.516   1.333   2.711
17078SOL    HW151578   8.523   1.249   2.656
17078SOL    HW251579   8.578   1.402   2.675
17079SOL     OW51580   7.767   0.810   2.811
17079SOL    HW151581   7.860   0.846   2.816
17079SOL    HW251582   7.761   0.725   2.863
17080SOL     OW51583   7.787   0.509   2.868
17080SOL    HW151584   7.735   0.426   2.851
17080SOL    HW251585   7.864   0.514   2.804
17081SOL     OW51586   7.959   0.415   3.670
17081SOL    HW151587   7.941   0.460   3.758
17081SOL    HW251588   8.001   0.480   3.607
17082SOL     OW51589   7.456   1.326   2.062
17082SOL    HW151590   7.363   1.347   2.031
17082SOL    HW251591   7.466   1.227   2.075
17083SOL     OW51592   7.536   1.801   2.789
17083SOL    HW151593   7.494   1.715   2.762
17083SOL    HW251594   7.630   1.804   2.755
17084SOL     OW51595   7.952   1.568   2.772
17084SOL    HW151596   8.018   1.642   2.781
17084SOL    HW251597   7.996   1.489   2.730
17085SOL     OW51598   8.450   0.796   3.100
17085SOL    HW151599   8.491   0.764   3.186
17085SOL    HW251600   8.354   0.769   3.097
17086SOL     OW51601   7.488   0.544   2.976
17086SOL    HW151602   7.573   0.511   2.935
17086SOL    HW251603   7.501   0.559   3.074
17087SOL     OW51604   7.637   0.520   3.584
17087SOL    HW151605   7.696   0.480   3.514
17087SOL    HW251606   7.579   0.591   3.543
17088SOL     OW51607   8.817   0.950   3.522
17088SOL    HW151608   8.856   1.039   3.542
17088SOL    HW251609   8.827   0.930   3.425
17089SOL     OW51610   8.263   0.572   2.187
17089SOL    HW151611   8.270   0.483   2.141
17089SOL    HW251612   8.169   0.606   2.179
17090SOL     OW51613   9.105   0.604   3.068
17090SOL    HW151614   9.067   0.535   3.130
17090SOL    HW251615   9.187   0.568   3.024
17091SOL     OW51616   7.700   1.564   3.606
17091SOL    HW151617   7.670   1.621   3.682
17091SOL    HW251618   7.693   1.467   3.632
17092SOL     OW51619   8.378   1.678   3.327
17092SOL    HW151620   8.354   1.660   3.232
17092SOL    HW251621   8.408   1.772   3.337
17093SOL     OW51622   7.921   0.500   2.053
17093SOL    HW151623   7.982   0.580   2.057
17093SOL    HW251624   7.826   0.531   2.060
17094SOL     OW51625   7.607   1.137   3.328
17094SOL    HW151626   7.629   1.076   3.404
17094SOL    HW251627   7.617   1.088   3.242
17095SOL     OW51628   8.795   1.059   3.096
17095SOL    HW151629   8.819   0.996   3.022
17095SOL    HW251630   8.705   1.099   3.078
17096SOL     OW51631   8.750   0.855   2.171
17096SOL    HW151632   8.664   0.824   2.213
17096SOL    HW251633   8.746   0.841   2.072
17097SOL     OW51634   9.207   1.747   3.016
17097SOL    HW151635   9.268   1.777   2.943
17097SOL    HW251636   9.169   1.658   2.994
17098SOL     OW51637   8.700   1.731   2.990
17098SOL    HW151638   8.784   1.736   2.936
17098SOL    HW251639   8.677   1.635   3.008
17099SOL     OW51640   7.531   1.258   2.884
17099SOL    HW151641   7.526   1.257   2.984
17099SOL    HW251642   7.448   1.217   2.846
17100SOL     OW51643   8.136   1.662   3.578
17100SOL    HW151644   8.080   1.743   3.587
17100SOL    HW251645   8.188   1.666   3.492
17101SOL     OW51646   8.836   1.573   2.339
17101SOL    HW151647   8.903   1.585   2.265
17101SOL    HW251648   8.796   1.662   2.362
17102SOL     OW51649   7.578   1.794   3.713
17102SOL    HW151650   7.537   1.720   3.766
17102SOL    HW251651   7.642   1.845   3.771
17103SOL     OW51652   8.728   0.927   2.534
17103SOL    HW151653   8.788   0.846   2.536
17103SOL    HW251654   8.768   0.996   2.474
17104SOL     OW51655   8.278   1.273   3.284
17104SOL    HW151656   8.273   1.306   3.379
17104SOL    HW251657   8.192   1.292   3.238
17105SOL     OW51658   8.120   1.616   2.016
17105SOL    HW151659   8.129   1.626   1.917
17105SOL    HW251660   8.080   1.527   2.037
17106SOL     OW51661   9.098   1.720   3.256
17106SOL    HW151662   9.151   1.730   3.172
17106SOL    HW251663   9.071   1.810   3.290
17107SOL     OW51664   7.711   0.326   2.582
17107SOL    HW151665   7.632   0.377   2.548
17107SOL    HW251666   7.702   0.311   2.680
17108SOL     OW51667   8.642   1.612   1.893
17108SOL    HW151668   8.648   1.519   1.930
17108SOL    HW251669   8.583   1.612   1.813
17109SOL     OW51670   8.270   1.002   3.234
17109SOL    HW151671   8.310   1.001   3.142
17109SOL    HW251672   8.280   1.094   3.274
17110SOL     OW51673   8.364   0.910   2.153
17110SOL    HW151674   8.427   0.948   2.085
17110SOL    HW251675   8.404   0.827   2.192
17111SOL     OW51676   8.952   1.607   1.906
17111SOL    HW151677   8.860   1.644   1.913
17111SOL    HW251678   8.990   1.627   1.816
17112SOL     OW51679   7.820   1.288   3.352
17112SOL    HW151680   7.807   1.381   3.318
17112SOL    HW251681   7.736   1.236   3.339
17113SOL     OW51682   9.062   1.292   3.151
17113SOL    HW151683   9.122   1.295   3.231
17113SOL    HW251684   8.987   1.356   3.164
17114SOL     OW51685   8.487   1.098   2.558
17114SOL    HW151686   8.417   1.051   2.612
17114SOL    HW251687   8.546   1.030   2.515
17115SOL     OW51688   8.462   0.236   2.833
17115SOL    HW151689   8.454   0.200   2.740
17115SOL    HW251690   8.460   0.160   2.898
17116SOL     OW51691   8.038   1.487   2.353
17116SOL    HW151692   8.080   1.429   2.283
17116SOL    HW251693   7.994   1.566   2.309
17117SOL     OW51694   7.703   1.348   2.152
17117SOL    HW151695   7.607   1.349   2.125
17117SOL    HW251696   7.715   1.401   2.236
17118SOL     OW51697   7.553   1.013   3.588
17118SOL    HW151698   7.476   0.980   3.642
17118SOL    HW251699   7.638   0.983   3.630
17119SOL     OW51700   7.523   0.345   1.895
17119SOL    HW151701   7.431   0.317   1.866
17119SOL    HW251702   7.554   0.422   1.839
17120SOL     OW51703   8.888   0.856   3.260
17120SOL    HW151704   8.831   0.908   3.197
17120SOL    HW251705   8.984   0.868   3.236
17121SOL     OW51706   7.520   0.166   2.180
17121SOL    HW151707   7.503   0.249   2.126
17121SOL    HW251708   7.610   0.129   2.158
17122SOL     OW51709   8.631   1.335   1.981
17122SOL    HW151710   8.532   1.324   1.983
17122SOL    HW251711   8.665   1.350   2.074
17123SOL     OW51712   8.061   0.842   3.293
17123SOL    HW151713   8.117   0.923   3.276
17123SOL    HW251714   8.120   0.762   3.296
17124SOL     OW51715   8.941   1.767   2.821
17124SOL    HW151716   8.974   1.831   2.752
17124SOL    HW251717   9.007   1.761   2.896
17125SOL     OW51718   8.164   0.565   3.570
17125SOL    HW151719   8.183   0.630   3.644
17125SOL    HW251720   8.224   0.485   3.579
17126SOL     OW51721   8.898   1.220   3.495
17126SOL    HW151722   8.889   1.210   3.594
17126SOL    HW251723   8.994   1.213   3.469
17127SOL     OW51724   7.838   1.741   3.422
17127SOL    HW151725   7.747   1.782   3.420
17127SOL    HW251726   7.831   1.647   3.454
17128SOL     OW51727   9.122   0.883   3.116
17128SOL    HW151728   9.095   0.794   3.079
17128SOL    HW251729   9.123   0.951   3.043
17129SOL     OW51730   8.673   0.325   2.311
17129SOL    HW151731   8.738   0.251   2.300
17129SOL    HW251732   8.693   0.375   2.395
17130SOL     OW51733   8.042   0.745   2.514
17130SOL    HW151734   8.092   0.830   2.495
17130SOL    HW251735   7.954   0.747   2.466
17131SOL     OW51736   9.178   0.934   3.379
17131SOL    HW151737   9.216   1.025   3.394
17131SOL    HW251738   9.170   0.917   3.280
17132SOL     OW51739   8.307   1.374   1.878
17132SOL    HW151740   8.261   1.389   1.966
17132SOL    HW251741   8.351   1.459   1.848
17133SOL     OW51742   8.109   1.790   2.815
17133SOL    HW151743   8.063   1.878   2.802
17133SOL    HW251744   8.208   1.802   2.808
17134SOL     OW51745   8.307   0.956   2.723
17134SOL    HW151746   8.361   0.887   2.771
17134SOL    HW251747   8.275   1.025   2.789
17135SOL     OW51748   8.531   0.984   1.949
17135SOL    HW151749   8.508   1.037   1.867
17135SOL    HW251750   8.612   0.928   1.930
17136SOL     OW51751   9.309   1.569   2.713
17136SOL    HW151752   9.238   1.557   2.643
17136SOL    HW251753   9.310   1.490   2.773
17137SOL     OW51754   7.669   1.314   3.706
17137SOL    HW151755   7.604   1.241   3.685
17137SOL    HW251756   7.673   1.328   3.804
17138SOL     OW51757   7.527   1.240   2.515
17138SOL    HW151758   7.526   1.193   2.603
17138SOL    HW251759   7.609   1.212   2.464
17139SOL     OW51760   8.120   1.391   3.486
17139SOL    HW151761   8.042   1.341   3.524
17139SOL    HW251762   8.117   1.486   3.517
17140SOL     OW51763   9.272   0.192   3.089
17140SOL    HW151764   9.268   0.102   3.133
17140SOL    HW251765   9.275   0.181   2.990
17141SOL     OW51766   9.153   1.487   2.966
17141SOL    HW151767   9.060   1.462   2.939
17141SOL    HW251768   9.179   1.437   3.048
17142SOL     OW51769   7.765   0.547   3.142
17142SOL    HW151770   7.803   0.488   3.214
17142SOL    HW251771   7.805   0.521   3.054
17143SOL     OW51772   8.260   1.586   2.549
17143SOL    HW151773   8.292   1.596   2.455
17143SOL    HW251774   8.181   1.524   2.551
17144SOL     OW51775   8.218   1.330   2.163
17144SOL    HW151776   8.172   1.243   2.180
17144SOL    HW251777   8.309   1.327   2.204
17145SOL     OW51778   8.066   1.567   3.146
17145SOL    HW151779   8.061   1.649   3.203
17145SOL    HW251780   8.155   1.564   3.101
17146SOL     OW51781   8.748   0.453   2.553
17146SOL    HW151782   8.689   0.533   2.557
17146SOL    HW251783   8.763   0.418   2.646
17147SOL     OW51784   7.487   1.077   2.162
17147SOL    HW151785   7.586   1.066   2.153
17147SOL    HW251786   7.447   0.991   2.194
17148SOL     OW51787   8.323   1.646   2.199
17148SOL    HW151788   8.246   1.611   2.145
17148SOL    HW251789   8.291   1.717   2.261
17149SOL     OW51790   7.678   0.628   3.837
17149SOL    HW151791   7.585   0.626   3.874
17149SOL    HW251792   7.679   0.589   3.745
17150SOL     OW51793   7.467   0.368   4.371
17150SOL    HW151794   7.385   0.411   4.410
17150SOL    HW251795   7.439   0.295   4.308
17151SOL     OW51796   8.017   1.275   4.889
17151SOL    HW151797   7.924   1.268   4.852
17151SOL    HW251798   8.028   1.364   4.933
17152SOL     OW51799   9.003   1.511   4.427
17152SOL    HW151800   8.946   1.495   4.508
17152SOL    HW251801   8.944   1.521   4.347
17153SOL     OW51802   8.583   0.703   4.441
17153SOL    HW151803   8.640   0.781   4.416
17153SOL    HW251804   8.523   0.729   4.517
17154SOL     OW51805   9.203   0.607   3.955
17154SOL    HW151806   9.191   0.594   3.856
17154SOL    HW251807   9.173   0.526   4.004
17155SOL     OW51808   8.216   1.144   4.747
17155SOL    HW151809   8.138   1.161   4.807
17155SOL    HW251810   8.250   1.231   4.711
17156SOL     OW51811   8.298   0.798   5.547
17156SOL    HW151812   8.294   0.874   5.612
17156SOL    HW251813   8.320   0.834   5.456
17157SOL     OW51814   8.133   1.012   4.389
17157SOL    HW151815   8.202   0.996   4.459
17157SOL    HW251816   8.060   1.069   4.427
17158SOL     OW51817   8.134   1.161   5.527
17158SOL    HW151818   8.194   1.240   5.541
17158SOL    HW251819   8.048   1.192   5.486
17159SOL     OW51820   7.783   1.435   4.785
17159SOL    HW151821   7.705   1.404   4.732
17159SOL    HW251822   7.841   1.493   4.728
17160SOL     OW51823   8.908   1.505   5.063
17160SOL    HW151824   8.932   1.599   5.089
17160SOL    HW251825   8.892   1.451   5.145
17161SOL     OW51826   9.051   0.447   4.461
17161SOL    HW151827   8.977   0.493   4.411
17161SOL    HW251828   9.102   0.515   4.514
17162SOL     OW51829   7.679   1.713   4.207
17162SOL    HW151830   7.713   1.790   4.261
17162SOL    HW251831   7.723   1.713   4.117
17163SOL     OW51832   8.575   1.341   5.414
17163SOL    HW151833   8.622   1.341   5.502
17163SOL    HW251834   8.527   1.254   5.403
17164SOL     OW51835   7.678   1.434   4.262
17164SOL    HW151836   7.652   1.530   4.262
17164SOL    HW251837   7.607   1.380   4.307
17165SOL     OW51838   7.688   1.091   4.610
17165SOL    HW151839   7.702   1.007   4.662
17165SOL    HW251840   7.633   1.155   4.665
17166SOL     OW51841   8.068   1.786   5.163
17166SOL    HW151842   7.976   1.769   5.198
17166SOL    HW251843   8.096   1.878   5.189
17167SOL     OW51844   8.054   0.964   3.847
17167SOL    HW151845   8.061   1.048   3.793
17167SOL    HW251846   8.100   0.977   3.935
17168SOL     OW51847   7.570   0.643   4.287
17168SOL    HW151848   7.525   0.555   4.304
17168SOL    HW251849   7.569   0.697   4.371
17169SOL     OW51850   9.290   1.767   4.083
17169SOL    HW151851   9.344   1.738   4.163
17169SOL    HW251852   9.320   1.857   4.054
17170SOL     OW51853   7.475   1.596   3.841
17170SOL    HW151854   7.456   1.500   3.862
17170SOL    HW251855   7.442   1.654   3.916
17171SOL     OW51856   9.137   0.922   4.336
17171SOL    HW151857   9.232   0.893   4.344
17171SOL    HW251858   9.129   0.987   4.261
17172SOL     OW51859   9.089   1.108   4.156
17172SOL    HW151860   9.175   1.110   4.104
17172SOL    HW251861   9.103   1.155   4.244
17173SOL     OW51862   7.561   0.737   5.321
17173SOL    HW151863   7.649   0.724   5.366
17173SOL    HW251864   7.548   0.834   5.299
17174SOL     OW51865   8.061   1.365   4.450
17174SOL    HW151866   8.012   1.278   4.459
17174SOL    HW251867   8.038   1.408   4.363
17175SOL     OW51868   8.741   1.228   5.147
17175SOL    HW151869   8.778   1.155   5.089
17175SOL    HW251870   8.793   1.233   5.232
17176SOL     OW51871   7.645   0.976   4.988
17176SOL    HW151872   7.734   0.931   4.974
17176SOL    HW251873   7.572   0.911   4.969
17177SOL     OW51874   8.973   0.999   3.914
17177SOL    HW151875   8.910   0.923   3.927
17177SOL    HW251876   9.021   1.017   4.000
17178SOL     OW51877   8.635   1.792   5.340
17178SOL    HW151878   8.659   1.852   5.264
17178SOL    HW251879   8.642   1.697   5.310
17179SOL     OW51880   8.914   1.417   4.677
17179SOL    HW151881   8.855   1.423   4.757
17179SOL    HW251882   8.899   1.329   4.631
17180SOL     OW51883   9.115   1.714   4.296
17180SOL    HW151884   9.074   1.691   4.208
17180SOL    HW251885   9.097   1.640   4.361
17181SOL     OW51886   8.046   0.729   3.994
17181SOL    HW151887   8.070   0.798   3.926
17181SOL    HW251888   7.968   0.762   4.048
17182SOL     OW51889   9.024   1.662   4.031
17182SOL    HW151890   9.113   1.708   4.034
17182SOL    HW251891   9.003   1.638   3.936
17183SOL     OW51892   8.255   0.605   5.189
17183SOL    HW151893   8.208   0.602   5.278
17183SOL    HW251894   8.204   0.550   5.123
17184SOL     OW51895   8.842   0.469   5.398
17184SOL    HW151896   8.822   0.512   5.486
17184SOL    HW251897   8.920   0.407   5.407
17185SOL     OW51898   8.421   0.890   5.296
17185SOL    HW151899   8.467   0.806   5.267
17185SOL    HW251900   8.365   0.924   5.221
17186SOL     OW51901   8.439   0.410   4.966
17186SOL    HW151902   8.362   0.444   5.020
17186SOL    HW251903   8.405   0.359   4.887
17187SOL     OW51904   8.489   0.701   4.153
17187SOL    HW151905   8.515   0.697   4.249
17187SOL    HW251906   8.404   0.650   4.139
17188SOL     OW51907   7.524   0.811   4.513
17188SOL    HW151908   7.623   0.799   4.522
17188SOL    HW251909   7.500   0.906   4.534
17189SOL     OW51910   7.578   1.821   5.295
17189SOL    HW151911   7.568   1.806   5.394
17189SOL    HW251912   7.492   1.857   5.259
17190SOL     OW51913   8.313   0.348   3.919
17190SOL    HW151914   8.372   0.411   3.870
17190SOL    HW251915   8.332   0.254   3.890
17191SOL     OW51916   9.167   0.585   5.555
17191SOL    HW151917   9.141   0.674   5.519
17191SOL    HW251918   9.165   0.517   5.482
17192SOL     OW51919   8.810   1.144   4.269
17192SOL    HW151920   8.893   1.115   4.221
17192SOL    HW251921   8.761   1.211   4.213
17193SOL     OW51922   7.998   0.196   4.609
17193SOL    HW151923   7.993   0.191   4.709
17193SOL    HW251924   8.000   0.292   4.580
17194SOL     OW51925   8.456   1.456   4.201
17194SOL    HW151926   8.410   1.528   4.149
17194SOL    HW251927   8.452   1.476   4.299
17195SOL     OW51928   7.799   1.801   4.577
17195SOL    HW151929   7.849   1.715   4.583
17195SOL    HW251930   7.864   1.878   4.574
17196SOL     OW51931   9.243   1.066   4.597
17196SOL    HW151932   9.181   1.051   4.521
17196SOL    HW251933   9.191   1.077   4.682
17197SOL     OW51934   8.675   1.550   5.230
17197SOL    HW151935   8.681   1.473   5.294
17197SOL    HW251936   8.623   1.524   5.150
17198SOL     OW51937   7.769   0.943   3.966
17198SOL    HW151938   7.851   0.982   3.924
17198SOL    HW251939   7.742   0.861   3.917
17199SOL     OW51940   8.906   0.735   4.452
17199SOL    HW151941   8.901   0.670   4.527
17199SOL    HW251942   8.986   0.794   4.465
17200SOL     OW51943   7.909   1.266   5.451
17200SOL    HW151944   7.859   1.267   5.365
17200SOL    HW251945   7.846   1.248   5.527
17201SOL     OW51946   8.559   1.776   3.961
17201SOL    HW151947   8.499   1.714   4.011
17201SOL    HW251948   8.590   1.732   3.876
17202SOL     OW51949   9.080   1.377   3.805
17202SOL    HW151950   9.048   1.471   3.795
17202SOL    HW251951   9.004   1.314   3.793
17203SOL     OW51952   7.912   1.743   4.047
17203SOL    HW151953   7.945   1.782   4.133
17203SOL    HW251954   7.988   1.736   3.982
17204SOL     OW51955   7.697   1.785   4.965
17204SOL    HW151956   7.754   1.720   5.015
17204SOL    HW251957   7.681   1.752   4.872
17205SOL     OW51958   8.388   1.698   4.628
17205SOL    HW151959   8.468   1.641   4.649
17205SOL    HW251960   8.339   1.658   4.551
17206SOL     OW51961   7.830   0.700   4.204
17206SOL    HW151962   7.875   0.610   4.201
17206SOL    HW251963   7.736   0.689   4.237
17207SOL     OW51964   8.336   1.514   4.919
17207SOL    HW151965   8.313   1.489   4.825
17207SOL    HW251966   8.397   1.445   4.958
17208SOL     OW51967   8.799   0.590   5.157
17208SOL    HW151968   8.827   0.547   5.242
17208SOL    HW251969   8.824   0.686   5.158
17209SOL     OW51970   8.251   1.402   4.648
17209SOL    HW151971   8.341   1.416   4.606
17209SOL    HW251972   8.180   1.404   4.577
17210SOL     OW51973   8.370   0.503   4.623
17210SOL    HW151974   8.345   0.494   4.527
17210SOL    HW251975   8.418   0.421   4.654
17211SOL     OW51976   8.882   1.188   3.765
17211SOL    HW151977   8.914   1.112   3.822
17211SOL    HW251978   8.790   1.215   3.795
17212SOL     OW51979   8.383   0.236   4.204
17212SOL    HW151980   8.335   0.277   4.126
17212SOL    HW251981   8.482   0.234   4.185
17213SOL     OW51982   8.524   0.683   5.188
17213SOL    HW151983   8.444   0.622   5.191
17213SOL    HW251984   8.605   0.630   5.164
17214SOL     OW51985   8.675   1.570   4.517
17214SOL    HW151986   8.696   1.644   4.452
17214SOL    HW251987   8.743   1.570   4.590
17215SOL     OW51988   7.907   1.152   4.465
17215SOL    HW151989   7.836   1.125   4.530
17215SOL    HW251990   7.881   1.124   4.372
17216SOL     OW51991   8.719   1.797   4.315
17216SOL    HW151992   8.763   1.861   4.251
17216SOL    HW251993   8.669   1.849   4.385
17217SOL     OW51994   8.480   0.549   3.740
17217SOL    HW151995   8.439   0.631   3.701
17217SOL    HW251996   8.544   0.575   3.813
17218SOL     OW51997   7.526   0.556   5.110
17218SOL    HW151998   7.618   0.555   5.069
17218SOL    HW251999   7.520   0.630   5.177
17219SOL     OW52000   8.314   0.454   4.366
17219SOL    HW152001   8.282   0.526   4.304
17219SOL    HW252002   8.338   0.373   4.313
17220SOL     OW52003   8.465   0.039   4.477
17220SOL    HW152004   8.393   0.044   4.408
17220SOL    HW252005   8.441  -0.030   4.546
17221SOL     OW52006   8.877   1.173   4.591
17221SOL    HW152007   8.822   1.089   4.584
17221SOL    HW252008   8.903   1.202   4.499
17222SOL     OW52009   8.914   0.590   4.716
17222SOL    HW152010   8.884   0.495   4.723
17222SOL    HW252011   8.987   0.606   4.782
17223SOL     OW52012   9.305   0.833   4.101
17223SOL    HW152013   9.347   0.769   4.165
17223SOL    HW252014   9.267   0.782   4.023
17224SOL     OW52015   7.936   1.385   3.898
17224SOL    HW152016   7.849   1.370   3.945
17224SOL    HW252017   7.919   1.411   3.803
17225SOL     OW52018   9.112   1.280   4.381
17225SOL    HW152019   9.211   1.288   4.395
17225SOL    HW252020   9.067   1.364   4.412
17226SOL     OW52021   8.838   0.575   3.802
17226SOL    HW152022   8.784   0.554   3.883
17226SOL    HW252023   8.929   0.534   3.811
17227SOL     OW52024   9.202   1.223   5.312
17227SOL    HW152025   9.293   1.184   5.299
17227SOL    HW252026   9.210   1.319   5.336
17228SOL     OW52027   8.512   1.347   5.064
17228SOL    HW152028   8.432   1.324   5.119
17228SOL    HW252029   8.595   1.321   5.113
17229SOL     OW52030   9.040   1.629   5.349
17229SOL    HW152031   9.067   1.663   5.259
17229SOL    HW252032   9.119   1.591   5.395
17230SOL     OW52033   8.559   1.195   4.824
17230SOL    HW152034   8.519   1.239   4.905
17230SOL    HW252035   8.518   1.232   4.741
17231SOL     OW52036   9.086   1.099   4.803
17231SOL    HW152037   9.091   1.180   4.862
17231SOL    HW252038   9.000   1.101   4.752
17232SOL     OW52039   8.428   1.116   5.443
17232SOL    HW152040   8.329   1.122   5.453
17232SOL    HW252041   8.451   1.036   5.387
17233SOL     OW52042   8.153   1.050   4.092
17233SOL    HW152043   8.139   1.057   4.191
17233SOL    HW252044   8.237   0.999   4.074
17234SOL     OW52045   7.858   0.813   4.975
17234SOL    HW152046   7.944   0.825   5.025
17234SOL    HW252047   7.816   0.726   5.002
17235SOL     OW52048   8.722   0.386   4.986
17235SOL    HW152049   8.743   0.460   5.050
17235SOL    HW252050   8.633   0.403   4.943
17236SOL     OW52051   7.512   1.564   5.055
17236SOL    HW152052   7.466   1.646   5.021
17236SOL    HW252053   7.610   1.583   5.064
17237SOL     OW52054   7.815   1.100   4.225
17237SOL    HW152055   7.808   1.183   4.169
17237SOL    HW252056   7.819   1.020   4.165
17238SOL     OW52057   8.014   0.537   4.589
17238SOL    HW152058   8.026   0.603   4.515
17238SOL    HW252059   8.060   0.571   4.672
17239SOL     OW52060   8.700   1.348   4.112
17239SOL    HW152061   8.750   1.425   4.152
17239SOL    HW252062   8.605   1.350   4.144
17240SOL     OW52063   8.720   1.445   4.866
17240SOL    HW152064   8.767   1.458   4.953
17240SOL    HW252065   8.654   1.371   4.875
17241SOL     OW52066   9.030   0.639   4.196
17241SOL    HW152067   8.999   0.700   4.269
17241SOL    HW252068   9.080   0.691   4.127
17242SOL     OW52069   7.802   1.510   5.053
17242SOL    HW152070   7.781   1.466   4.966
17242SOL    HW252071   7.899   1.536   5.056
17243SOL     OW52072   7.850   0.751   5.322
17243SOL    HW152073   7.918   0.806   5.275
17243SOL    HW252074   7.890   0.663   5.349
17244SOL     OW52075   9.035   0.779   5.394
17244SOL    HW152076   8.943   0.817   5.389
17244SOL    HW252077   9.095   0.826   5.329
17245SOL     OW52078   8.021   0.870   4.753
17245SOL    HW152079   8.065   0.959   4.744
17245SOL    HW252080   7.958   0.870   4.830
17246SOL     OW52081   8.808   0.862   4.769
17246SOL    HW152082   8.733   0.862   4.703
17246SOL    HW252083   8.845   0.770   4.778
17247SOL     OW52084   8.657   0.525   3.999
17247SOL    HW152085   8.670   0.441   4.053
17247SOL    HW252086   8.628   0.599   4.059
17248SOL     OW52087   7.485   1.310   5.006
17248SOL    HW152088   7.538   1.261   5.074
17248SOL    HW252089   7.507   1.408   5.011
17249SOL     OW52090   8.180   0.634   4.788
17249SOL    HW152091   8.239   0.608   4.712
17249SOL    HW252092   8.152   0.730   4.777
17250SOL     OW52093   9.176   0.935   5.578
17250SOL    HW152094   9.130   0.928   5.489
17250SOL    HW252095   9.114   0.979   5.644
17251SOL     OW52096   8.471   0.766   4.690
17251SOL    HW152097   8.486   0.787   4.786
17251SOL    HW252098   8.441   0.671   4.681
17252SOL     OW52099   8.428   1.573   5.424
17252SOL    HW152100   8.408   1.617   5.336
17252SOL    HW252101   8.467   1.482   5.408
17253SOL     OW52102   9.307   1.518   5.329
17253SOL    HW152103   9.321   1.545   5.234
17253SOL    HW252104   9.390   1.540   5.382
17254SOL     OW52105   7.798   0.898   5.528
17254SOL    HW152106   7.874   0.942   5.576
17254SOL    HW252107   7.833   0.851   5.446
17255SOL     OW52108   8.751   0.838   3.766
17255SOL    HW152109   8.785   0.745   3.781
17255SOL    HW252110   8.769   0.865   3.671
17256SOL     OW52111   8.516   1.333   4.573
17256SOL    HW152112   8.523   1.249   4.518
17256SOL    HW252113   8.578   1.402   4.537
17257SOL     OW52114   7.767   0.810   4.673
17257SOL    HW152115   7.860   0.846   4.678
17257SOL    HW252116   7.761   0.725   4.725
17258SOL     OW52117   7.787   0.509   4.730
17258SOL    HW152118   7.735   0.426   4.713
17258SOL    HW252119   7.864   0.514   4.666
17259SOL     OW52120   7.959   0.415   5.532
17259SOL    HW152121   7.941   0.460   5.620
17259SOL    HW252122   8.001   0.480   5.469
17260SOL     OW52123   7.456   1.326   3.924
17260SOL    HW152124   7.363   1.347   3.893
17260SOL    HW252125   7.466   1.227   3.937
17261SOL     OW52126   7.536   1.801   4.651
17261SOL    HW152127   7.494   1.715   4.624
17261SOL    HW252128   7.630   1.804   4.617
17262SOL     OW52129   7.952   1.568   4.634
17262SOL    HW152130   8.018   1.642   4.643
17262SOL    HW252131   7.996   1.489   4.592
17263SOL     OW52132   8.450   0.796   4.962
17263SOL    HW152133   8.491   0.764   5.048
17263SOL    HW252134   8.354   0.769   4.959
17264SOL     OW52135   7.488   0.544   4.838
17264SOL    HW152136   7.573   0.511   4.797
17264SOL    HW252137   7.501   0.559   4.936
17265SOL     OW52138   7.637   0.520   5.446
17265SOL    HW152139   7.696   0.480   5.376
17265SOL    HW252140   7.579   0.591   5.405
17266SOL     OW52141   8.817   0.950   5.384
17266SOL    HW152142   8.856   1.039   5.404
17266SOL    HW252143   8.827   0.930   5.287
17267SOL     OW52144   8.263   0.572   4.049
17267SOL    HW152145   8.270   0.483   4.003
17267SOL    HW252146   8.169   0.606   4.041
17268SOL     OW52147   9.105   0.604   4.930
17268SOL    HW152148   9.067   0.535   4.992
17268SOL    HW252149   9.187   0.568   4.886
17269SOL     OW52150   7.700   1.564   5.468
17269SOL    HW152151   7.670   1.621   5.544
17269SOL    HW252152   7.693   1.467   5.494
17270SOL     OW52153   8.378   1.678   5.189
17270SOL    HW152154   8.354   1.660   5.094
17270SOL    HW252155   8.408   1.772   5.199
17271SOL     OW52156   7.921   0.500   3.915
17271SOL    HW152157   7.982   0.580   3.919
17271SOL    HW252158   7.826   0.531   3.922
17272SOL     OW52159   7.607   1.137   5.190
17272SOL    HW152160   7.629   1.076   5.266
17272SOL    HW252161   7.617   1.088   5.104
17273SOL     OW52162   8.795   1.059   4.958
17273SOL    HW152163   8.819   0.996   4.884
17273SOL    HW252164   8.705   1.099   4.940
17274SOL     OW52165   8.750   0.855   4.033
17274SOL    HW152166   8.664   0.824   4.075
17274SOL    HW252167   8.746   0.841   3.934
17275SOL     OW52168   9.207   1.747   4.878
17275SOL    HW152169   9.268   1.777   4.805
17275SOL    HW252170   9.169   1.658   4.856
17276SOL     OW52171   8.700   1.731   4.852
17276SOL    HW152172   8.784   1.736   4.798
17276SOL    HW252173   8.677   1.635   4.870
17277SOL     OW52174   7.531   1.258   4.746
17277SOL    HW152175   7.526   1.257   4.846
17277SOL    HW252176   7.448   1.217   4.708
17278SOL     OW52177   8.136   1.662   5.440
17278SOL    HW152178   8.080   1.743   5.449
17278SOL    HW252179   8.188   1.666   5.354
17279SOL     OW52180   8.836   1.573   4.201
17279SOL    HW152181   8.903   1.585   4.127
17279SOL    HW252182   8.796   1.662   4.224
17280SOL     OW52183   7.578   1.794   5.575
17280SOL    HW152184   7.537   1.720   5.628
17280SOL    HW252185   7.642   1.845   5.633
17281SOL     OW52186   8.728   0.927   4.396
17281SOL    HW152187   8.788   0.846   4.398
17281SOL    HW252188   8.768   0.996   4.336
17282SOL     OW52189   8.278   1.273   5.146
17282SOL    HW152190   8.273   1.306   5.241
17282SOL    HW252191   8.192   1.292   5.100
17283SOL     OW52192   8.120   1.616   3.878
17283SOL    HW152193   8.129   1.626   3.779
17283SOL    HW252194   8.080   1.527   3.899
17284SOL     OW52195   9.098   1.720   5.118
17284SOL    HW152196   9.151   1.730   5.034
17284SOL    HW252197   9.071   1.810   5.152
17285SOL     OW52198   7.711   0.326   4.444
17285SOL    HW152199   7.632   0.377   4.410
17285SOL    HW252200   7.702   0.311   4.542
17286SOL     OW52201   8.642   1.612   3.755
17286SOL    HW152202   8.648   1.519   3.792
17286SOL    HW252203   8.583   1.612   3.675
17287SOL     OW52204   8.270   1.002   5.096
17287SOL    HW152205   8.310   1.001   5.004
17287SOL    HW252206   8.280   1.094   5.136
17288SOL     OW52207   8.364   0.910   4.015
17288SOL    HW152208   8.427   0.948   3.947
17288SOL    HW252209   8.404   0.827   4.054
17289SOL     OW52210   8.952   1.607   3.768
17289SOL    HW152211   8.860   1.644   3.775
17289SOL    HW252212   8.990   1.627   3.678
17290SOL     OW52213   7.820   1.288   5.214
17290SOL    HW152214   7.807   1.381   5.180
17290SOL    HW252215   7.736   1.236   5.201
17291SOL     OW52216   9.062   1.292   5.013
17291SOL    HW152217   9.122   1.295   5.093
17291SOL    HW252218   8.987   1.356   5.026
17292SOL     OW52219   8.487   1.098   4.420
17292SOL    HW152220   8.417   1.051   4.474
17292SOL    HW252221   8.546   1.030   4.377
17293SOL     OW52222   8.462   0.236   4.695
17293SOL    HW152223   8.454   0.200   4.602
17293SOL    HW252224   8.460   0.160   4.760
17294SOL     OW52225   8.038   1.487   4.215
17294SOL    HW152226   8.080   1.429   4.145
17294SOL    HW252227   7.994   1.566   4.171
17295SOL     OW52228   7.703   1.348   4.014
17295SOL    HW152229   7.607   1.349   3.987
17295SOL    HW252230   7.715   1.401   4.098
17296SOL     OW52231   7.553   1.013   5.450
17296SOL    HW152232   7.476   0.980   5.504
17296SOL    HW252233   7.638   0.983   5.492
17297SOL     OW52234   7.523   0.345   3.757
17297SOL    HW152235   7.431   0.317   3.728
17297SOL    HW252236   7.554   0.422   3.701
17298SOL     OW52237   8.888   0.856   5.122
17298SOL    HW152238   8.831   0.908   5.059
17298SOL    HW252239   8.984   0.868   5.098
17299SOL     OW52240   7.520   0.166   4.042
17299SOL    HW152241   7.503   0.249   3.988
17299SOL    HW252242   7.610   0.129   4.020
17300SOL     OW52243   8.631   1.335   3.843
17300SOL    HW152244   8.532   1.324   3.845
17300SOL    HW252245   8.665   1.350   3.936
17301SOL     OW52246   8.061   0.842   5.155
17301SOL    HW152247   8.117   0.923   5.138
17301SOL    HW252248   8.120   0.762   5.158
17302SOL     OW52249   8.941   1.767   4.683
17302SOL    HW152250   8.974   1.831   4.614
17302SOL    HW252251   9.007   1.761   4.758
17303SOL     OW52252   8.164   0.565   5.432
17303SOL    HW152253   8.183   0.630   5.506
17303SOL    HW252254   8.224   0.485   5.441
17304SOL     OW52255   8.898   1.220   5.357
17304SOL    HW152256   8.889   1.210   5.456
17304SOL    HW252257   8.994   1.213   5.331
17305SOL     OW52258   7.838   1.741   5.284
17305SOL    HW152259   7.747   1.782   5.282
17305SOL    HW252260   7.831   1.647   5.316
17306SOL     OW52261   9.122   0.883   4.978
17306SOL    HW152262   9.095   0.794   4.941
17306SOL    HW252263   9.123   0.951   4.905
17307SOL     OW52264   8.673   0.325   4.173
17307SOL    HW152265   8.738   0.251   4.162
17307SOL    HW252266   8.693   0.375   4.257
17308SOL     OW52267   8.042   0.745   4.376
17308SOL    HW152268   8.092   0.830   4.357
17308SOL    HW252269   7.954   0.747   4.328
17309SOL     OW52270   9.178   0.934   5.241
17309SOL    HW152271   9.216   1.025   5.256
17309SOL    HW252272   9.170   0.917   5.142
17310SOL     OW52273   8.307   1.374   3.740
17310SOL    HW152274   8.261   1.389   3.828
17310SOL    HW252275   8.351   1.459   3.710
17311SOL     OW52276   8.109   1.790   4.677
17311SOL    HW152277   8.063   1.878   4.664
17311SOL    HW252278   8.208   1.802   4.670
17312SOL     OW52279   8.307   0.956   4.585
17312SOL    HW152280   8.361   0.887   4.633
17312SOL    HW252281   8.275   1.025   4.651
17313SOL     OW52282   8.531   0.984   3.811
17313SOL    HW152283   8.508   1.037   3.729
17313SOL    HW252284   8.612   0.928   3.792
17314SOL     OW52285   9.309   1.569   4.575
17314SOL    HW152286   9.238   1.557   4.505
17314SOL    HW252287   9.310   1.490   4.635
17315SOL     OW52288   7.669   1.314   5.568
17315SOL    HW152289   7.604   1.241   5.547
17315SOL    HW252290   7.673   1.328   5.666
17316SOL     OW52291   7.527   1.240   4.377
17316SOL    HW152292   7.526   1.193   4.465
17316SOL    HW252293   7.609   1.212   4.326
17317SOL     OW52294   8.120   1.391   5.348
17317SOL    HW152295   8.042   1.341   5.386
17317SOL    HW252296   8.117   1.486   5.379
17318SOL     OW52297   9.272   0.192   4.951
17318SOL    HW152298   9.268   0.102   4.995
17318SOL    HW252299   9.275   0.181   4.852
17319SOL     OW52300   9.153   1.487   4.828
17319SOL    HW152301   9.060   1.462   4.801
17319SOL    HW252302   9.179   1.437   4.910
17320SOL     OW52303   7.765   0.547   5.004
17320SOL    HW152304   7.803   0.488   5.076
17320SOL    HW252305   7.805   0.521   4.916
17321SOL     OW52306   8.260   1.586   4.411
17321SOL    HW152307   8.292   1.596   4.317
17321SOL    HW252308   8.181   1.524   4.413
17322SOL     OW52309   8.218   1.330   4.025
17322SOL    HW152310   8.172   1.243   4.042
17322SOL    HW252311   8.309   1.327   4.066
17323SOL     OW52312   8.066   1.567   5.008
17323SOL    HW152313   8.061   1.649   5.065
17323SOL    HW252314   8.155   1.564   4.963
17324SOL     OW52315   8.748   0.453   4.415
17324SOL    HW152316   8.689   0.533   4.419
17324SOL    HW252317   8.763   0.418   4.508
17325SOL     OW52318   7.487   1.077   4.024
17325SOL    HW152319   7.586   1.066   4.015
17325SOL    HW252320   7.447   0.991   4.056
17326SOL     OW52321   8.323   1.646   4.061
17326SOL    HW152322   8.246   1.611   4.007
17326SOL    HW252323   8.291   1.717   4.123
17327SOL     OW52324   7.678   0.628   5.699
17327SOL    HW152325   7.585   0.626   5.736
17327SOL    HW252326   7.679   0.589   5.607
17328SOL     OW52327   7.467   0.368   6.233
17328SOL    HW152328   7.385   0.411   6.272
17328SOL    HW252329   7.439   0.295   6.170
17329SOL     OW52330   8.017   1.275   6.751
17329SOL    HW152331   7.924   1.268   6.714
17329SOL    HW252332   8.028   1.364   6.795
17330SOL     OW52333   9.003   1.511   6.289
17330SOL    HW152334   8.946   1.495   6.370
17330SOL    HW252335   8.944   1.521   6.209
17331SOL     OW52336   8.583   0.703   6.303
17331SOL    HW152337   8.640   0.781   6.278
17331SOL    HW252338   8.523   0.729   6.379
17332SOL     OW52339   9.203   0.607   5.817
17332SOL    HW152340   9.191   0.594   5.718
17332SOL    HW252341   9.173   0.526   5.866
17333SOL     OW52342   8.216   1.144   6.609
17333SOL    HW152343   8.138   1.161   6.669
17333SOL    HW252344   8.250   1.231   6.573
17334SOL     OW52345   8.298   0.798   7.409
17334SOL    HW152346   8.294   0.874   7.474
17334SOL    HW252347   8.320   0.834   7.318
17335SOL     OW52348   8.133   1.012   6.251
17335SOL    HW152349   8.202   0.996   6.321
17335SOL    HW252350   8.060   1.069   6.289
17336SOL     OW52351   8.134   1.161   7.389
17336SOL    HW152352   8.194   1.240   7.403
17336SOL    HW252353   8.048   1.192   7.348
17337SOL     OW52354   7.783   1.435   6.647
17337SOL    HW152355   7.705   1.404   6.594
17337SOL    HW252356   7.841   1.493   6.590
17338SOL     OW52357   8.908   1.505   6.925
17338SOL    HW152358   8.932   1.599   6.951
17338SOL    HW252359   8.892   1.451   7.007
17339SOL     OW52360   9.051   0.447   6.323
17339SOL    HW152361   8.977   0.493   6.273
17339SOL    HW252362   9.102   0.515   6.376
17340SOL     OW52363   7.679   1.713   6.069
17340SOL    HW152364   7.713   1.790   6.123
17340SOL    HW252365   7.723   1.713   5.979
17341SOL     OW52366   8.575   1.341   7.276
17341SOL    HW152367   8.622   1.341   7.364
17341SOL    HW252368   8.527   1.254   7.265
17342SOL     OW52369   7.678   1.434   6.124
17342SOL    HW152370   7.652   1.530   6.124
17342SOL    HW252371   7.607   1.380   6.169
17343SOL     OW52372   7.688   1.091   6.472
17343SOL    HW152373   7.702   1.007   6.524
17343SOL    HW252374   7.633   1.155   6.527
17344SOL     OW52375   8.068   1.786   7.025
17344SOL    HW152376   7.976   1.769   7.060
17344SOL    HW252377   8.096   1.878   7.051
17345SOL     OW52378   8.054   0.964   5.709
17345SOL    HW152379   8.061   1.048   5.655
17345SOL    HW252380   8.100   0.977   5.797
17346SOL     OW52381   7.570   0.643   6.149
17346SOL    HW152382   7.525   0.555   6.166
17346SOL    HW252383   7.569   0.697   6.233
17347SOL     OW52384   9.290   1.767   5.945
17347SOL    HW152385   9.344   1.738   6.025
17347SOL    HW252386   9.320   1.857   5.916
17348SOL     OW52387   7.475   1.596   5.703
17348SOL    HW152388   7.456   1.500   5.724
17348SOL    HW252389   7.442   1.654   5.778
17349SOL     OW52390   9.137   0.922   6.198
17349SOL    HW152391   9.232   0.893   6.206
17349SOL    HW252392   9.129   0.987   6.123
17350SOL     OW52393   9.089   1.108   6.018
17350SOL    HW152394   9.175   1.110   5.966
17350SOL    HW252395   9.103   1.155   6.106
17351SOL     OW52396   7.561   0.737   7.183
17351SOL    HW152397   7.649   0.724   7.228
17351SOL    HW252398   7.548   0.834   7.161
17352SOL     OW52399   8.061   1.365   6.312
17352SOL    HW152400   8.012   1.278   6.321
17352SOL    HW252401   8.038   1.408   6.225
17353SOL     OW52402   8.741   1.228   7.009
17353SOL    HW152403   8.778   1.155   6.951
17353SOL    HW252404   8.793   1.233   7.094
17354SOL     OW52405   7.645   0.976   6.850
17354SOL    HW152406   7.734   0.931   6.836
17354SOL    HW252407   7.572   0.911   6.831
17355SOL     OW52408   8.973   0.999   5.776
17355SOL    HW152409   8.910   0.923   5.789
17355SOL    HW252410   9.021   1.017   5.862
17356SOL     OW52411   8.635   1.792   7.202
17356SOL    HW152412   8.659   1.852   7.126
17356SOL    HW252413   8.642   1.697   7.172
17357SOL     OW52414   8.914   1.417   6.539
17357SOL    HW152415   8.855   1.423   6.619
17357SOL    HW252416   8.899   1.329   6.493
17358SOL     OW52417   9.115   1.714   6.158
17358SOL    HW152418   9.074   1.691   6.070
17358SOL    HW252419   9.097   1.640   6.223
17359SOL     OW52420   8.046   0.729   5.856
17359SOL    HW152421   8.070   0.798   5.788
17359SOL    HW252422   7.968   0.762   5.910
17360SOL     OW52423   9.024   1.662   5.893
17360SOL    HW152424   9.113   1.708   5.896
17360SOL    HW252425   9.003   1.638   5.798
17361SOL     OW52426   8.255   0.605   7.051
17361SOL    HW152427   8.208   0.602   7.140
17361SOL    HW252428   8.204   0.550   6.985
17362SOL     OW52429   8.842   0.469   7.260
17362SOL    HW152430   8.822   0.512   7.348
17362SOL    HW252431   8.920   0.407   7.269
17363SOL     OW52432   8.421   0.890   7.158
17363SOL    HW152433   8.467   0.806   7.129
17363SOL    HW252434   8.365   0.924   7.083
17364SOL     OW52435   8.439   0.410   6.828
17364SOL    HW152436   8.362   0.444   6.882
17364SOL    HW252437   8.405   0.359   6.749
17365SOL     OW52438   8.489   0.701   6.015
17365SOL    HW152439   8.515   0.697   6.111
17365SOL    HW252440   8.404   0.650   6.001
17366SOL     OW52441   7.524   0.811   6.375
17366SOL    HW152442   7.623   0.799   6.384
17366SOL    HW252443   7.500   0.906   6.396
17367SOL     OW52444   7.578   1.821   7.157
17367SOL    HW152445   7.568   1.806   7.256
17367SOL    HW252446   7.492   1.857   7.121
17368SOL     OW52447   8.313   0.348   5.781
17368SOL    HW152448   8.372   0.411   5.732
17368SOL    HW252449   8.332   0.254   5.752
17369SOL     OW52450   9.167   0.585   7.417
17369SOL    HW152451   9.141   0.674   7.381
17369SOL    HW252452   9.165   0.517   7.344
17370SOL     OW52453   8.810   1.144   6.131
17370SOL    HW152454   8.893   1.115   6.083
17370SOL    HW252455   8.761   1.211   6.075
17371SOL     OW52456   7.998   0.196   6.471
17371SOL    HW152457   7.993   0.191   6.571
17371SOL    HW252458   8.000   0.292   6.442
17372SOL     OW52459   8.456   1.456   6.063
17372SOL    HW152460   8.410   1.528   6.011
17372SOL    HW252461   8.452   1.476   6.161
17373SOL     OW52462   7.799   1.801   6.439
17373SOL    HW152463   7.849   1.715   6.445
17373SOL    HW252464   7.864   1.878   6.436
17374SOL     OW52465   9.243   1.066   6.459
17374SOL    HW152466   9.181   1.051   6.383
17374SOL    HW252467   9.191   1.077   6.544
17375SOL     OW52468   8.675   1.550   7.092
17375SOL    HW152469   8.681   1.473   7.156
17375SOL    HW252470   8.623   1.524   7.012
17376SOL     OW52471   7.769   0.943   5.828
17376SOL    HW152472   7.851   0.982   5.786
17376SOL    HW252473   7.742   0.861   5.779
17377SOL     OW52474   8.906   0.735   6.314
17377SOL    HW152475   8.901   0.670   6.389
17377SOL    HW252476   8.986   0.794   6.327
17378SOL     OW52477   7.909   1.266   7.313
17378SOL    HW152478   7.859   1.267   7.227
17378SOL    HW252479   7.846   1.248   7.389
17379SOL     OW52480   8.559   1.776   5.823
17379SOL    HW152481   8.499   1.714   5.873
17379SOL    HW252482   8.590   1.732   5.738
17380SOL     OW52483   9.080   1.377   5.667
17380SOL    HW152484   9.048   1.471   5.657
17380SOL    HW252485   9.004   1.314   5.655
17381SOL     OW52486   7.912   1.743   5.909
17381SOL    HW152487   7.945   1.782   5.995
17381SOL    HW252488   7.988   1.736   5.844
17382SOL     OW52489   7.697   1.785   6.827
17382SOL    HW152490   7.754   1.720   6.877
17382SOL    HW252491   7.681   1.752   6.734
17383SOL     OW52492   8.388   1.698   6.490
17383SOL    HW152493   8.468   1.641   6.511
17383SOL    HW252494   8.339   1.658   6.413
17384SOL     OW52495   7.830   0.700   6.066
17384SOL    HW152496   7.875   0.610   6.063
17384SOL    HW252497   7.736   0.689   6.099
17385SOL     OW52498   8.336   1.514   6.781
17385SOL    HW152499   8.313   1.489   6.687
17385SOL    HW252500   8.397   1.445   6.820
17386SOL     OW52501   8.799   0.590   7.019
17386SOL    HW152502   8.827   0.547   7.104
17386SOL    HW252503   8.824   0.686   7.020
17387SOL     OW52504   8.251   1.402   6.510
17387SOL    HW152505   8.341   1.416   6.468
17387SOL    HW252506   8.180   1.404   6.439
17388SOL     OW52507   8.370   0.503   6.485
17388SOL    HW152508   8.345   0.494   6.389
17388SOL    HW252509   8.418   0.421   6.516
17389SOL     OW52510   8.882   1.188   5.627
17389SOL    HW152511   8.914   1.112   5.684
17389SOL    HW252512   8.790   1.215   5.657
17390SOL     OW52513   8.383   0.236   6.066
17390SOL    HW152514   8.335   0.277   5.988
17390SOL    HW252515   8.482   0.234   6.047
17391SOL     OW52516   8.524   0.683   7.050
17391SOL    HW152517   8.444   0.622   7.053
17391SOL    HW252518   8.605   0.630   7.026
17392SOL     OW52519   8.675   1.570   6.379
17392SOL    HW152520   8.696   1.644   6.314
17392SOL    HW252521   8.743   1.570   6.452
17393SOL     OW52522   7.907   1.152   6.327
17393SOL    HW152523   7.836   1.125   6.392
17393SOL    HW252524   7.881   1.124   6.234
17394SOL     OW52525   8.719   1.797   6.177
17394SOL    HW152526   8.763   1.861   6.113
17394SOL    HW252527   8.669   1.849   6.247
17395SOL     OW52528   8.480   0.549   5.602
17395SOL    HW152529   8.439   0.631   5.563
17395SOL    HW252530   8.544   0.575   5.675
17396SOL     OW52531   7.526   0.556   6.972
17396SOL    HW152532   7.618   0.555   6.931
17396SOL    HW252533   7.520   0.630   7.039
17397SOL     OW52534   8.314   0.454   6.228
17397SOL    HW152535   8.282   0.526   6.166
17397SOL    HW252536   8.338   0.373   6.175
17398SOL     OW52537   8.465   0.039   6.339
17398SOL    HW152538   8.393   0.044   6.270
17398SOL    HW252539   8.441  -0.030   6.408
17399SOL     OW52540   8.877   1.173   6.453
17399SOL    HW152541   8.822   1.089   6.446
17399SOL    HW252542   8.903   1.202   6.361
17400SOL     OW52543   8.914   0.590   6.578
17400SOL    HW152544   8.884   0.495   6.585
17400SOL    HW252545   8.987   0.606   6.644
17401SOL     OW52546   9.305   0.833   5.963
17401SOL    HW152547   9.347   0.769   6.027
17401SOL    HW252548   9.267   0.782   5.885
17402SOL     OW52549   7.936   1.385   5.760
17402SOL    HW152550   7.849   1.370   5.807
17402SOL    HW252551   7.919   1.411   5.665
17403SOL     OW52552   9.112   1.280   6.243
17403SOL    HW152553   9.211   1.288   6.257
17403SOL    HW252554   9.067   1.364   6.274
17404SOL     OW52555   8.838   0.575   5.664
17404SOL    HW152556   8.784   0.554   5.745
17404SOL    HW252557   8.929   0.534   5.673
17405SOL     OW52558   9.202   1.223   7.174
17405SOL    HW152559   9.293   1.184   7.161
17405SOL    HW252560   9.210   1.319   7.198
17406SOL     OW52561   8.512   1.347   6.926
17406SOL    HW152562   8.432   1.324   6.981
17406SOL    HW252563   8.595   1.321   6.975
17407SOL     OW52564   9.040   1.629   7.211
17407SOL    HW152565   9.067   1.663   7.121
17407SOL    HW252566   9.119   1.591   7.257
17408SOL     OW52567   8.559   1.195   6.686
17408SOL    HW152568   8.519   1.239   6.767
17408SOL    HW252569   8.518   1.232   6.603
17409SOL     OW52570   9.086   1.099   6.665
17409SOL    HW152571   9.091   1.180   6.724
17409SOL    HW252572   9.000   1.101   6.614
17410SOL     OW52573   8.428   1.116   7.305
17410SOL    HW152574   8.329   1.122   7.315
17410SOL    HW252575   8.451   1.036   7.249
17411SOL     OW52576   8.153   1.050   5.954
17411SOL    HW152577   8.139   1.057   6.053
17411SOL    HW252578   8.237   0.999   5.936
17412SOL     OW52579   7.858   0.813   6.837
17412SOL    HW152580   7.944   0.825   6.887
17412SOL    HW252581   7.816   0.726   6.864
17413SOL     OW52582   8.722   0.386   6.848
17413SOL    HW152583   8.743   0.460   6.912
17413SOL    HW252584   8.633   0.403   6.805
17414SOL     OW52585   7.512   1.564   6.917
17414SOL    HW152586   7.466   1.646   6.883
17414SOL    HW252587   7.610   1.583   6.926
17415SOL     OW52588   7.815   1.100   6.087
17415SOL    HW152589   7.808   1.183   6.031
17415SOL    HW252590   7.819   1.020   6.027
17416SOL     OW52591   8.014   0.537   6.451
17416SOL    HW152592   8.026   0.603   6.377
17416SOL    HW252593   8.060   0.571   6.534
17417SOL     OW52594   8.700   1.348   5.974
17417SOL    HW152595   8.750   1.425   6.014
17417SOL    HW252596   8.605   1.350   6.006
17418SOL     OW52597   8.720   1.445   6.728
17418SOL    HW152598   8.767   1.458   6.815
17418SOL    HW252599   8.654   1.371   6.737
17419SOL     OW52600   9.030   0.639   6.058
17419SOL    HW152601   8.999   0.700   6.131
17419SOL    HW252602   9.080   0.691   5.989
17420SOL     OW52603   7.802   1.510   6.915
17420SOL    HW152604   7.781   1.466   6.828
17420SOL    HW252605   7.899   1.536   6.918
17421SOL     OW52606   7.850   0.751   7.184
17421SOL    HW152607   7.918   0.806   7.137
17421SOL    HW252608   7.890   0.663   7.211
17422SOL     OW52609   9.035   0.779   7.256
17422SOL    HW152610   8.943   0.817   7.251
17422SOL    HW252611   9.095   0.826   7.191
17423SOL     OW52612   8.021   0.870   6.615
17423SOL    HW152613   8.065   0.959   6.606
17423SOL    HW252614   7.958   0.870   6.692
17424SOL     OW52615   8.808   0.862   6.631
17424SOL    HW152616   8.733   0.862   6.565
17424SOL    HW252617   8.845   0.770   6.640
17425SOL     OW52618   8.657   0.525   5.861
17425SOL    HW152619   8.670   0.441   5.915
17425SOL    HW252620   8.628   0.599   5.921
17426SOL     OW52621   7.485   1.310   6.868
17426SOL    HW152622   7.538   1.261   6.936
17426SOL    HW252623   7.507   1.408   6.873
17427SOL     OW52624   8.180   0.634   6.650
17427SOL    HW152625   8.239   0.608   6.574
17427SOL    HW252626   8.152   0.730   6.639
17428SOL     OW52627   9.176   0.935   7.440
17428SOL    HW152628   9.130   0.928   7.351
17428SOL    HW252629   9.114   0.979   7.506
17429SOL     OW52630   8.471   0.766   6.552
17429SOL    HW152631   8.486   0.787   6.648
17429SOL    HW252632   8.441   0.671   6.543
17430SOL     OW52633   8.428   1.573   7.286
17430SOL    HW152634   8.408   1.617   7.198
17430SOL    HW252635   8.467   1.482   7.270
17431SOL     OW52636   9.307   1.518   7.191
17431SOL    HW152637   9.321   1.545   7.096
17431SOL    HW252638   9.390   1.540   7.244
17432SOL     OW52639   7.798   0.898   7.390
17432SOL    HW152640   7.874   0.942   7.438
17432SOL    HW252641   7.833   0.851   7.308
17433SOL     OW52642   8.751   0.838   5.628
17433SOL    HW152643   8.785   0.745   5.643
17433SOL    HW252644   8.769   0.865   5.533
17434SOL     OW52645   8.516   1.333   6.435
17434SOL    HW152646   8.523   1.249   6.380
17434SOL    HW252647   8.578   1.402   6.399
17435SOL     OW52648   7.767   0.810   6.535
17435SOL    HW152649   7.860   0.846   6.540
17435SOL    HW252650   7.761   0.725   6.587
17436SOL     OW52651   7.787   0.509   6.592
17436SOL    HW152652   7.735   0.426   6.575
17436SOL    HW252653   7.864   0.514   6.528
17437SOL     OW52654   7.959   0.415   7.394
17437SOL    HW152655   7.941   0.460   7.482
17437SOL    HW252656   8.001   0.480   7.331
17438SOL     OW52657   7.456   1.326   5.786
17438SOL    HW152658   7.363   1.347   5.755
17438SOL    HW252659   7.466   1.227   5.799
17439SOL     OW52660   7.536   1.801   6.513
17439SOL    HW152661   7.494   1.715   6.486
17439SOL    HW252662   7.630   1.804   6.479
17440SOL     OW52663   7.952   1.568   6.496
17440SOL    HW152664   8.018   1.642   6.505
17440SOL    HW252665   7.996   1.489   6.454
17441SOL     OW52666   8.450   0.796   6.824
17441SOL    HW152667   8.491   0.764   6.910
17441SOL    HW252668   8.354   0.769   6.821
17442SOL     OW52669   7.488   0.544   6.700
17442SOL    HW152670   7.573   0.511   6.659
17442SOL    HW252671   7.501   0.559   6.798
17443SOL     OW52672   7.637   0.520   7.308
17443SOL    HW152673   7.696   0.480   7.238
17443SOL    HW252674   7.579   0.591   7.267
17444SOL     OW52675   8.817   0.950   7.246
17444SOL    HW152676   8.856   1.039   7.266
17444SOL    HW252677   8.827   0.930   7.149
17445SOL     OW52678   8.263   0.572   5.911
17445SOL    HW152679   8.270   0.483   5.865
17445SOL    HW252680   8.169   0.606   5.903
17446SOL     OW52681   9.105   0.604   6.792
17446SOL    HW152682   9.067   0.535   6.854
17446SOL    HW252683   9.187   0.568   6.748
17447SOL     OW52684   7.700   1.564   7.330
17447SOL    HW152685   7.670   1.621   7.406
17447SOL    HW252686   7.693   1.467   7.356
17448SOL     OW52687   8.378   1.678   7.051
17448SOL    HW152688   8.354   1.660   6.956
17448SOL    HW252689   8.408   1.772   7.061
17449SOL     OW52690   7.921   0.500   5.777
17449SOL    HW152691   7.982   0.580   5.781
17449SOL    HW252692   7.826   0.531   5.784
17450SOL     OW52693   7.607   1.137   7.052
17450SOL    HW152694   7.629   1.076   7.128
17450SOL    HW252695   7.617   1.088   6.966
17451SOL     OW52696   8.795   1.059   6.820
17451SOL    HW152697   8.819   0.996   6.746
17451SOL    HW252698   8.705   1.099   6.802
17452SOL     OW52699   8.750   0.855   5.895
17452SOL    HW152700   8.664   0.824   5.937
17452SOL    HW252701   8.746   0.841   5.796
17453SOL     OW52702   9.207   1.747   6.740
17453SOL    HW152703   9.268   1.777   6.667
17453SOL    HW252704   9.169   1.658   6.718
17454SOL     OW52705   8.700   1.731   6.714
17454SOL    HW152706   8.784   1.736   6.660
17454SOL    HW252707   8.677   1.635   6.732
17455SOL     OW52708   7.531   1.258   6.608
17455SOL    HW152709   7.526   1.257   6.708
17455SOL    HW252710   7.448   1.217   6.570
17456SOL     OW52711   8.136   1.662   7.302
17456SOL    HW152712   8.080   1.743   7.311
17456SOL    HW252713   8.188   1.666   7.216
17457SOL     OW52714   8.836   1.573   6.063
17457SOL    HW152715   8.903   1.585   5.989
17457SOL    HW252716   8.796   1.662   6.086
17458SOL     OW52717   7.578   1.794   7.437
17458SOL    HW152718   7.537   1.720   7.490
17458SOL    HW252719   7.642   1.845   7.495
17459SOL     OW52720   8.728   0.927   6.258
17459SOL    HW152721   8.788   0.846   6.260
17459SOL    HW252722   8.768   0.996   6.198
17460SOL     OW52723   8.278   1.273   7.008
17460SOL    HW152724   8.273   1.306   7.103
17460SOL    HW252725   8.192   1.292   6.962
17461SOL     OW52726   8.120   1.616   5.740
17461SOL    HW152727   8.129   1.626   5.641
17461SOL    HW252728   8.080   1.527   5.761
17462SOL     OW52729   9.098   1.720   6.980
17462SOL    HW152730   9.151   1.730   6.896
17462SOL    HW252731   9.071   1.810   7.014
17463SOL     OW52732   7.711   0.326   6.306
17463SOL    HW152733   7.632   0.377   6.272
17463SOL    HW252734   7.702   0.311   6.404
17464SOL     OW52735   8.642   1.612   5.617
17464SOL    HW152736   8.648   1.519   5.654
17464SOL    HW252737   8.583   1.612   5.537
17465SOL     OW52738   8.270   1.002   6.958
17465SOL    HW152739   8.310   1.001   6.866
17465SOL    HW252740   8.280   1.094   6.998
17466SOL     OW52741   8.364   0.910   5.877
17466SOL    HW152742   8.427   0.948   5.809
17466SOL    HW252743   8.404   0.827   5.916
17467SOL     OW52744   8.952   1.607   5.630
17467SOL    HW152745   8.860   1.644   5.637
17467SOL    HW252746   8.990   1.627   5.540
17468SOL     OW52747   7.820   1.288   7.076
17468SOL    HW152748   7.807   1.381   7.042
17468SOL    HW252749   7.736   1.236   7.063
17469SOL     OW52750   9.062   1.292   6.875
17469SOL    HW152751   9.122   1.295   6.955
17469SOL    HW252752   8.987   1.356   6.888
17470SOL     OW52753   8.487   1.098   6.282
17470SOL    HW152754   8.417   1.051   6.336
17470SOL    HW252755   8.546   1.030   6.239
17471SOL     OW52756   8.462   0.236   6.557
17471SOL    HW152757   8.454   0.200   6.464
17471SOL    HW252758   8.460   0.160   6.622
17472SOL     OW52759   8.038   1.487   6.077
17472SOL    HW152760   8.080   1.429   6.007
17472SOL    HW252761   7.994   1.566   6.033
17473SOL     OW52762   7.703   1.348   5.876
17473SOL    HW152763   7.607   1.349   5.849
17473SOL    HW252764   7.715   1.401   5.960
17474SOL     OW52765   7.553   1.013   7.312
17474SOL    HW152766   7.476   0.980   7.366
17474SOL    HW252767   7.638   0.983   7.354
17475SOL     OW52768   7.523   0.345   5.619
17475SOL    HW152769   7.431   0.317   5.590
17475SOL    HW252770   7.554   0.422   5.563
17476SOL     OW52771   8.888   0.856   6.984
17476SOL    HW152772   8.831   0.908   6.921
17476SOL    HW252773   8.984   0.868   6.960
17477SOL     OW52774   7.520   0.166   5.904
17477SOL    HW152775   7.503   0.249   5.850
17477SOL    HW252776   7.610   0.129   5.882
17478SOL     OW52777   8.631   1.335   5.705
17478SOL    HW152778   8.532   1.324   5.707
17478SOL    HW252779   8.665   1.350   5.798
17479SOL     OW52780   8.061   0.842   7.017
17479SOL    HW152781   8.117   0.923   7.000
17479SOL    HW252782   8.120   0.762   7.020
17480SOL     OW52783   8.941   1.767   6.545
17480SOL    HW152784   8.974   1.831   6.476
17480SOL    HW252785   9.007   1.761   6.620
17481SOL     OW52786   8.164   0.565   7.294
17481SOL    HW152787   8.183   0.630   7.368
17481SOL    HW252788   8.224   0.485   7.303
17482SOL     OW52789   8.898   1.220   7.219
17482SOL    HW152790   8.889   1.210   7.318
17482SOL    HW252791   8.994   1.213   7.193
17483SOL     OW52792   7.838   1.741   7.146
17483SOL    HW152793   7.747   1.782   7.144
17483SOL    HW252794   7.831   1.647   7.178
17484SOL     OW52795   9.122   0.883   6.840
17484SOL    HW152796   9.095   0.794   6.803
17484SOL    HW252797   9.123   0.951   6.767
17485SOL     OW52798   8.673   0.325   6.035
17485SOL    HW152799   8.738   0.251   6.024
17485SOL    HW252800   8.693   0.375   6.119
17486SOL     OW52801   8.042   0.745   6.238
17486SOL    HW152802   8.092   0.830   6.219
17486SOL    HW252803   7.954   0.747   6.190
17487SOL     OW52804   9.178   0.934   7.103
17487SOL    HW152805   9.216   1.025   7.118
17487SOL    HW252806   9.170   0.917   7.004
17488SOL     OW52807   8.307   1.374   5.602
17488SOL    HW152808   8.261   1.389   5.690
17488SOL    HW252809   8.351   1.459   5.572
17489SOL     OW52810   8.109   1.790   6.539
17489SOL    HW152811   8.063   1.878   6.526
17489SOL    HW252812   8.208   1.802   6.532
17490SOL     OW52813   8.307   0.956   6.447
17490SOL    HW152814   8.361   0.887   6.495
17490SOL    HW252815   8.275   1.025   6.513
17491SOL     OW52816   8.531   0.984   5.673
17491SOL    HW152817   8.508   1.037   5.591
17491SOL    HW252818   8.612   0.928   5.654
17492SOL     OW52819   9.309   1.569   6.437
17492SOL    HW152820   9.238   1.557   6.367
17492SOL    HW252821   9.310   1.490   6.497
17493SOL     OW52822   7.669   1.314   7.430
17493SOL    HW152823   7.604   1.241   7.409
17493SOL    HW252824   7.673   1.328   7.528
17494SOL     OW52825   7.527   1.240   6.239
17494SOL    HW152826   7.526   1.193   6.327
17494SOL    HW252827   7.609   1.212   6.188
17495SOL     OW52828   8.120   1.391   7.210
17495SOL    HW152829   8.042   1.341   7.248
17495SOL    HW252830   8.117   1.486   7.241
17496SOL     OW52831   9.272   0.192   6.813
17496SOL    HW152832   9.268   0.102   6.857
17496SOL    HW252833   9.275   0.181   6.714
17497SOL     OW52834   9.153   1.487   6.690
17497SOL    HW152835   9.060   1.462   6.663
17497SOL    HW252836   9.179   1.437   6.772
17498SOL     OW52837   7.765   0.547   6.866
17498SOL    HW152838   7.803   0.488   6.938
17498SOL    HW252839   7.805   0.521   6.778
17499SOL     OW52840   8.260   1.586   6.273
17499SOL    HW152841   8.292   1.596   6.179
17499SOL    HW252842   8.181   1.524   6.275
17500SOL     OW52843   8.218   1.330   5.887
17500SOL    HW152844   8.172   1.243   5.904
17500SOL    HW252845   8.309   1.327   5.928
17501SOL     OW52846   8.066   1.567   6.870
17501SOL    HW152847   8.061   1.649   6.927
17501SOL    HW252848   8.155   1.564   6.825
17502SOL     OW52849   8.748   0.453   6.277
17502SOL    HW152850   8.689   0.533   6.281
17502SOL    HW252851   8.763   0.418   6.370
17503SOL     OW52852   7.487   1.077   5.886
17503SOL    HW152853   7.586   1.066   5.877
17503SOL    HW252854   7.447   0.991   5.918
17504SOL     OW52855   8.323   1.646   5.923
17504SOL    HW152856   8.246   1.611   5.869
17504SOL    HW252857   8.291   1.717   5.985
17505SOL     OW52858   7.475   1.596   7.565
17505SOL    HW152859   7.456   1.500   7.586
17505SOL    HW252860   7.442   1.654   7.640
17506SOL     OW52861   8.973   0.999   7.638
17506SOL    HW152862   8.910   0.923   7.651
17506SOL    HW252863   9.021   1.017   7.724
17507SOL     OW52864   7.769   0.943   7.690
17507SOL    HW152865   7.851   0.982   7.648
17507SOL    HW252866   7.742   0.861   7.641
17508SOL     OW52867   8.559   1.776   7.685
17508SOL    HW152868   8.499   1.714   7.735
17508SOL    HW252869   8.590   1.732   7.600
17509SOL     OW52870   9.080   1.377   7.529
17509SOL    HW152871   9.048   1.471   7.519
17509SOL    HW252872   9.004   1.314   7.517
17510SOL     OW52873   8.882   1.188   7.489
17510SOL    HW152874   8.914   1.112   7.546
17510SOL    HW252875   8.790   1.215   7.519
17511SOL     OW52876   8.480   0.549   7.464
17511SOL    HW152877   8.439   0.631   7.425
17511SOL    HW252878   8.544   0.575   7.537
17512SOL     OW52879   7.936   1.385   7.622
17512SOL    HW152880   7.849   1.370   7.669
17512SOL    HW252881   7.919   1.411   7.527
17513SOL     OW52882   8.838   0.575   7.526
17513SOL    HW152883   8.784   0.554   7.607
17513SOL    HW252884   8.929   0.534   7.535
17514SOL     OW52885   8.751   0.838   7.490
17514SOL    HW152886   8.785   0.745   7.505
17514SOL    HW252887   8.769   0.865   7.395
17515SOL     OW52888   7.921   0.500   7.639
17515SOL    HW152889   7.982   0.580   7.643
17515SOL    HW252890   7.826   0.531   7.646
17516SOL     OW52891   8.836   1.573   7.925
17516SOL    HW152892   8.903   1.585   7.851
17516SOL    HW252893   8.796   1.662   7.948
17517SOL     OW52894   8.120   1.616   7.602
17517SOL    HW152895   8.129   1.626   7.503
17517SOL    HW252896   8.080   1.527   7.623
17518SOL     OW52897   8.642   1.612   7.479
17518SOL    HW152898   8.648   1.519   7.516
17518SOL    HW252899   8.583   1.612   7.399
17519SOL     OW52900   8.952   1.607   7.492
17519SOL    HW152901   8.860   1.644   7.499
17519SOL    HW252902   8.990   1.627   7.402
17520SOL     OW52903   7.523   0.345   7.481
17520SOL    HW152904   7.431   0.317   7.452
17520SOL    HW252905   7.554   0.422   7.425
17521SOL     OW52906   7.520   0.166   7.766
17521SOL    HW152907   7.503   0.249   7.712
17521SOL    HW252908   7.610   0.129   7.744
17522SOL     OW52909   8.307   1.374   7.464
17522SOL    HW152910   8.261   1.389   7.552
17522SOL    HW252911   8.351   1.459   7.434
17523SOL     OW52912   8.531   0.984   7.535
17523SOL    HW152913   8.508   1.037   7.453
17523SOL    HW252914   8.612   0.928   7.516
17524SOL     OW52915   7.487   1.077   7.748
17524SOL    HW152916   7.586   1.066   7.739
17524SOL    HW252917   7.447   0.991   7.780
17525SOL     OW52918   7.673   2.137   0.996
17525SOL    HW152919   7.708   2.120   1.088
17525SOL    HW252920   7.585   2.092   0.984
17526SOL     OW52921   7.467   2.230   0.647
17526SOL    HW152922   7.385   2.273   0.686
17526SOL    HW252923   7.439   2.157   0.584
17527SOL     OW52924   8.017   3.137   1.165
17527SOL    HW152925   7.924   3.130   1.128
17527SOL    HW252926   8.028   3.226   1.209
17528SOL     OW52927   9.003   3.373   0.703
17528SOL    HW152928   8.946   3.357   0.784
17528SOL    HW252929   8.944   3.383   0.623
17529SOL     OW52930   8.583   2.565   0.717
17529SOL    HW152931   8.640   2.643   0.692
17529SOL    HW252932   8.523   2.591   0.793
17530SOL     OW52933   9.203   2.469   0.231
17530SOL    HW152934   9.191   2.456   0.132
17530SOL    HW252935   9.173   2.388   0.280
17531SOL     OW52936   8.216   3.006   1.023
17531SOL    HW152937   8.138   3.023   1.083
17531SOL    HW252938   8.250   3.093   0.987
17532SOL     OW52939   8.298   2.660   1.823
17532SOL    HW152940   8.294   2.736   1.888
17532SOL    HW252941   8.320   2.696   1.732
17533SOL     OW52942   8.133   2.874   0.665
17533SOL    HW152943   8.202   2.858   0.735
17533SOL    HW252944   8.060   2.931   0.703
17534SOL     OW52945   8.134   3.023   1.803
17534SOL    HW152946   8.194   3.102   1.817
17534SOL    HW252947   8.048   3.054   1.762
17535SOL     OW52948   7.783   3.297   1.061
17535SOL    HW152949   7.705   3.266   1.008
17535SOL    HW252950   7.841   3.355   1.004
17536SOL     OW52951   8.908   3.367   1.339
17536SOL    HW152952   8.932   3.461   1.365
17536SOL    HW252953   8.892   3.313   1.421
17537SOL     OW52954   7.886   2.254   1.499
17537SOL    HW152955   7.968   2.198   1.508
17537SOL    HW252956   7.805   2.196   1.503
17538SOL     OW52957   9.051   2.309   0.737
17538SOL    HW152958   8.977   2.355   0.687
17538SOL    HW252959   9.102   2.377   0.790
17539SOL     OW52960   7.679   3.575   0.483
17539SOL    HW152961   7.713   3.652   0.537
17539SOL    HW252962   7.723   3.575   0.393
17540SOL     OW52963   8.575   3.203   1.690
17540SOL    HW152964   8.622   3.203   1.778
17540SOL    HW252965   8.527   3.116   1.679
17541SOL     OW52966   7.678   3.296   0.538
17541SOL    HW152967   7.652   3.392   0.538
17541SOL    HW252968   7.607   3.242   0.583
17542SOL     OW52969   7.688   2.953   0.886
17542SOL    HW152970   7.702   2.869   0.938
17542SOL    HW252971   7.633   3.017   0.941
17543SOL     OW52972   8.068   3.648   1.439
17543SOL    HW152973   7.976   3.631   1.474
17543SOL    HW252974   8.096   3.740   1.465
17544SOL     OW52975   9.042   1.976   1.480
17544SOL    HW152976   9.024   2.043   1.408
17544SOL    HW252977   9.039   2.022   1.569
17545SOL     OW52978   7.570   2.505   0.563
17545SOL    HW152979   7.525   2.417   0.580
17545SOL    HW252980   7.569   2.559   0.647
17546SOL     OW52981   9.290   3.629   0.359
17546SOL    HW152982   9.344   3.600   0.439
17546SOL    HW252983   9.320   3.719   0.330
17547SOL     OW52984   9.137   2.784   0.612
17547SOL    HW152985   9.232   2.755   0.620
17547SOL    HW252986   9.129   2.849   0.537
17548SOL     OW52987   9.089   2.970   0.432
17548SOL    HW152988   9.175   2.972   0.380
17548SOL    HW252989   9.103   3.017   0.520
17549SOL     OW52990   7.561   2.599   1.597
17549SOL    HW152991   7.649   2.586   1.642
17549SOL    HW252992   7.548   2.696   1.575
17550SOL     OW52993   8.061   3.227   0.726
17550SOL    HW152994   8.012   3.140   0.735
17550SOL    HW252995   8.038   3.270   0.639
17551SOL     OW52996   8.741   3.090   1.423
17551SOL    HW152997   8.778   3.017   1.365
17551SOL    HW252998   8.793   3.095   1.508
17552SOL     OW52999   8.257   1.866   0.502
17552SOL    HW153000   8.297   1.957   0.493
17552SOL    HW253001   8.157   1.874   0.508
17553SOL     OW53002   7.645   2.838   1.264
17553SOL    HW153003   7.734   2.793   1.250
17553SOL    HW253004   7.572   2.773   1.245
17554SOL     OW53005   8.635   3.654   1.616
17554SOL    HW153006   8.659   3.714   1.540
17554SOL    HW253007   8.642   3.559   1.586
17555SOL     OW53008   7.765   2.113   1.801
17555SOL    HW153009   7.836   2.184   1.807
17555SOL    HW253010   7.677   2.152   1.829
17556SOL     OW53011   8.914   3.279   0.953
17556SOL    HW153012   8.855   3.285   1.033
17556SOL    HW253013   8.899   3.191   0.907
17557SOL     OW53014   9.115   3.576   0.572
17557SOL    HW153015   9.074   3.553   0.484
17557SOL    HW253016   9.097   3.502   0.637
17558SOL     OW53017   8.729   2.207   0.944
17558SOL    HW153018   8.643   2.157   0.931
17558SOL    HW253019   8.791   2.153   1.000
17559SOL     OW53020   8.255   2.467   1.465
17559SOL    HW153021   8.208   2.464   1.554
17559SOL    HW253022   8.204   2.412   1.399
17560SOL     OW53023   8.842   2.331   1.674
17560SOL    HW153024   8.822   2.374   1.762
17560SOL    HW253025   8.920   2.269   1.683
17561SOL     OW53026   8.421   2.752   1.572
17561SOL    HW153027   8.467   2.668   1.543
17561SOL    HW253028   8.365   2.786   1.497
17562SOL     OW53029   8.439   2.272   1.242
17562SOL    HW153030   8.362   2.306   1.296
17562SOL    HW253031   8.405   2.221   1.163
17563SOL     OW53032   8.489   2.563   0.429
17563SOL    HW153033   8.515   2.559   0.525
17563SOL    HW253034   8.404   2.512   0.415
17564SOL     OW53035   7.524   2.673   0.789
17564SOL    HW153036   7.623   2.661   0.798
17564SOL    HW253037   7.500   2.768   0.810
17565SOL     OW53038   7.578   3.683   1.571
17565SOL    HW153039   7.568   3.668   1.670
17565SOL    HW253040   7.492   3.719   1.535
17566SOL     OW53041   9.167   2.447   1.831
17566SOL    HW153042   9.141   2.536   1.795
17566SOL    HW253043   9.165   2.379   1.758
17567SOL     OW53044   8.810   3.006   0.545
17567SOL    HW153045   8.893   2.977   0.497
17567SOL    HW253046   8.761   3.073   0.489
17568SOL     OW53047   7.998   2.058   0.885
17568SOL    HW153048   7.993   2.053   0.985
17568SOL    HW253049   8.000   2.154   0.856
17569SOL     OW53050   8.456   3.318   0.477
17569SOL    HW153051   8.410   3.390   0.425
17569SOL    HW253052   8.452   3.338   0.575
17570SOL     OW53053   7.799   3.663   0.853
17570SOL    HW153054   7.849   3.577   0.859
17570SOL    HW253055   7.864   3.740   0.850
17571SOL     OW53056   9.243   2.928   0.873
17571SOL    HW153057   9.181   2.913   0.797
17571SOL    HW253058   9.191   2.939   0.958
17572SOL     OW53059   8.675   3.412   1.506
17572SOL    HW153060   8.681   3.335   1.570
17572SOL    HW253061   8.623   3.386   1.426
17573SOL     OW53062   8.906   2.597   0.728
17573SOL    HW153063   8.901   2.532   0.803
17573SOL    HW253064   8.986   2.656   0.741
17574SOL     OW53065   7.909   3.128   1.727
17574SOL    HW153066   7.859   3.129   1.641
17574SOL    HW253067   7.846   3.110   1.803
17575SOL     OW53068   7.650   2.147   1.498
17575SOL    HW153069   7.570   2.207   1.485
17575SOL    HW253070   7.640   2.098   1.584
17576SOL     OW53071   8.848   1.969   0.426
17576SOL    HW153072   8.824   1.932   0.336
17576SOL    HW253073   8.947   1.985   0.430
17577SOL     OW53074   7.697   3.647   1.241
17577SOL    HW153075   7.754   3.582   1.291
17577SOL    HW253076   7.681   3.614   1.148
17578SOL     OW53077   8.388   3.560   0.904
17578SOL    HW153078   8.468   3.503   0.925
17578SOL    HW253079   8.339   3.520   0.827
17579SOL     OW53080   7.830   2.562   0.480
17579SOL    HW153081   7.875   2.472   0.477
17579SOL    HW253082   7.736   2.551   0.513
17580SOL     OW53083   8.995   2.084   1.729
17580SOL    HW153084   8.990   2.121   1.821
17580SOL    HW253085   8.923   2.015   1.717
17581SOL     OW53086   8.229   2.126   1.749
17581SOL    HW153087   8.296   2.065   1.792
17581SOL    HW253088   8.156   2.145   1.814
17582SOL     OW53089   8.336   3.376   1.195
17582SOL    HW153090   8.313   3.351   1.101
17582SOL    HW253091   8.397   3.307   1.234
17583SOL     OW53092   8.799   2.452   1.433
17583SOL    HW153093   8.827   2.409   1.518
17583SOL    HW253094   8.824   2.548   1.434
17584SOL     OW53095   8.251   3.264   0.924
17584SOL    HW153096   8.341   3.278   0.882
17584SOL    HW253097   8.180   3.266   0.853
17585SOL     OW53098   8.370   2.365   0.899
17585SOL    HW153099   8.345   2.356   0.803
17585SOL    HW253100   8.418   2.283   0.930
17586SOL     OW53101   7.987   1.926   0.512
17586SOL    HW153102   7.906   1.927   0.570
17586SOL    HW253103   7.990   2.009   0.457
17587SOL     OW53104   8.383   2.098   0.480
17587SOL    HW153105   8.335   2.139   0.402
17587SOL    HW253106   8.482   2.096   0.461
17588SOL     OW53107   8.524   2.545   1.464
17588SOL    HW153108   8.444   2.484   1.467
17588SOL    HW253109   8.605   2.492   1.440
17589SOL     OW53110   8.675   3.432   0.793
17589SOL    HW153111   8.696   3.506   0.728
17589SOL    HW253112   8.743   3.432   0.866
17590SOL     OW53113   7.907   3.014   0.741
17590SOL    HW153114   7.836   2.987   0.806
17590SOL    HW253115   7.881   2.986   0.648
17591SOL     OW53116   8.719   3.659   0.591
17591SOL    HW153117   8.763   3.723   0.527
17591SOL    HW253118   8.669   3.711   0.661
17592SOL     OW53119   8.480   2.411   0.016
17592SOL    HW153120   8.439   2.493  -0.023
17592SOL    HW253121   8.544   2.437   0.089
17593SOL     OW53122   7.526   2.418   1.386
17593SOL    HW153123   7.618   2.417   1.345
17593SOL    HW253124   7.520   2.492   1.453
17594SOL     OW53125   8.009   2.084   1.147
17594SOL    HW153126   8.047   2.000   1.184
17594SOL    HW253127   7.921   2.103   1.191
17595SOL     OW53128   8.314   2.316   0.642
17595SOL    HW153129   8.282   2.388   0.580
17595SOL    HW253130   8.338   2.235   0.589
17596SOL     OW53131   8.465   1.901   0.753
17596SOL    HW153132   8.393   1.906   0.684
17596SOL    HW253133   8.441   1.832   0.822
17597SOL     OW53134   8.877   3.035   0.867
17597SOL    HW153135   8.822   2.951   0.860
17597SOL    HW253136   8.903   3.064   0.775
17598SOL     OW53137   8.914   2.452   0.992
17598SOL    HW153138   8.884   2.357   0.999
17598SOL    HW253139   8.987   2.468   1.058
17599SOL     OW53140   9.112   3.142   0.657
17599SOL    HW153141   9.211   3.150   0.671
17599SOL    HW253142   9.067   3.226   0.688
17600SOL     OW53143   7.975   2.118   0.328
17600SOL    HW153144   8.002   2.059   0.253
17600SOL    HW253145   7.975   2.213   0.297
17601SOL     OW53146   9.202   3.085   1.588
17601SOL    HW153147   9.293   3.046   1.575
17601SOL    HW253148   9.210   3.181   1.612
17602SOL     OW53149   8.512   3.209   1.340
17602SOL    HW153150   8.432   3.186   1.395
17602SOL    HW253151   8.595   3.183   1.389
17603SOL     OW53152   9.040   3.491   1.625
17603SOL    HW153153   9.067   3.525   1.535
17603SOL    HW253154   9.119   3.453   1.671
17604SOL     OW53155   8.559   3.057   1.100
17604SOL    HW153156   8.519   3.101   1.181
17604SOL    HW253157   8.518   3.094   1.017
17605SOL     OW53158   9.086   2.961   1.079
17605SOL    HW153159   9.091   3.042   1.138
17605SOL    HW253160   9.000   2.963   1.028
17606SOL     OW53161   8.363   1.951   1.402
17606SOL    HW153162   8.388   1.931   1.307
17606SOL    HW253163   8.435   2.007   1.444
17607SOL     OW53164   8.428   2.978   1.719
17607SOL    HW153165   8.329   2.984   1.729
17607SOL    HW253166   8.451   2.898   1.663
17608SOL     OW53167   7.858   2.675   1.251
17608SOL    HW153168   7.944   2.687   1.301
17608SOL    HW253169   7.816   2.588   1.278
17609SOL     OW53170   8.722   2.248   1.262
17609SOL    HW153171   8.743   2.322   1.326
17609SOL    HW253172   8.633   2.265   1.219
17610SOL     OW53173   7.512   3.426   1.331
17610SOL    HW153174   7.466   3.508   1.297
17610SOL    HW253175   7.610   3.445   1.340
17611SOL     OW53176   7.815   2.962   0.501
17611SOL    HW153177   7.808   3.045   0.445
17611SOL    HW253178   7.819   2.882   0.441
17612SOL     OW53179   8.014   2.399   0.865
17612SOL    HW153180   8.026   2.465   0.791
17612SOL    HW253181   8.060   2.433   0.948
17613SOL     OW53182   8.700   3.210   0.388
17613SOL    HW153183   8.750   3.287   0.428
17613SOL    HW253184   8.605   3.212   0.420
17614SOL     OW53185   8.720   3.307   1.142
17614SOL    HW153186   8.767   3.320   1.229
17614SOL    HW253187   8.654   3.233   1.151
17615SOL     OW53188   9.030   2.501   0.472
17615SOL    HW153189   8.999   2.562   0.545
17615SOL    HW253190   9.080   2.553   0.403
17616SOL     OW53191   7.802   3.372   1.329
17616SOL    HW153192   7.781   3.328   1.242
17616SOL    HW253193   7.899   3.398   1.332
17617SOL     OW53194   7.850   2.613   1.598
17617SOL    HW153195   7.918   2.668   1.551
17617SOL    HW253196   7.890   2.525   1.625
17618SOL     OW53197   9.035   2.641   1.670
17618SOL    HW153198   8.943   2.679   1.665
17618SOL    HW253199   9.095   2.688   1.605
17619SOL     OW53200   8.461   1.967   1.770
17619SOL    HW153201   8.467   2.052   1.718
17619SOL    HW253202   8.493   1.891   1.713
17620SOL     OW53203   7.952   1.912   1.740
17620SOL    HW153204   7.910   1.855   1.670
17620SOL    HW253205   7.886   1.981   1.772
17621SOL     OW53206   8.021   2.732   1.029
17621SOL    HW153207   8.065   2.821   1.020
17621SOL    HW253208   7.958   2.732   1.106
17622SOL     OW53209   8.808   2.724   1.045
17622SOL    HW153210   8.733   2.724   0.979
17622SOL    HW253211   8.845   2.632   1.054
17623SOL     OW53212   8.657   2.387   0.275
17623SOL    HW153213   8.670   2.303   0.329
17623SOL    HW253214   8.628   2.461   0.335
17624SOL     OW53215   7.755   2.075   1.231
17624SOL    HW153216   7.732   2.112   1.321
17624SOL    HW253217   7.725   1.980   1.225
17625SOL     OW53218   7.485   3.172   1.282
17625SOL    HW153219   7.538   3.123   1.350
17625SOL    HW253220   7.507   3.270   1.287
17626SOL     OW53221   8.180   2.496   1.064
17626SOL    HW153222   8.239   2.470   0.988
17626SOL    HW253223   8.152   2.592   1.053
17627SOL     OW53224   9.176   2.797   1.854
17627SOL    HW153225   9.130   2.790   1.765
17627SOL    HW253226   9.114   2.841   1.920
17628SOL     OW53227   7.755   1.925   0.618
17628SOL    HW153228   7.744   2.019   0.651
17628SOL    HW253229   7.750   1.862   0.695
17629SOL     OW53230   8.471   2.628   0.966
17629SOL    HW153231   8.486   2.649   1.062
17629SOL    HW253232   8.441   2.533   0.957
17630SOL     OW53233   8.428   3.435   1.700
17630SOL    HW153234   8.408   3.479   1.612
17630SOL    HW253235   8.467   3.344   1.684
17631SOL     OW53236   9.307   3.380   1.605
17631SOL    HW153237   9.321   3.407   1.510
17631SOL    HW253238   9.390   3.402   1.658
17632SOL     OW53239   7.798   2.760   1.804
17632SOL    HW153240   7.874   2.804   1.852
17632SOL    HW253241   7.833   2.713   1.722
17633SOL     OW53242   8.516   3.195   0.849
17633SOL    HW153243   8.523   3.111   0.794
17633SOL    HW253244   8.578   3.264   0.813
17634SOL     OW53245   7.767   2.672   0.949
17634SOL    HW153246   7.860   2.708   0.954
17634SOL    HW253247   7.761   2.587   1.001
17635SOL     OW53248   7.787   2.371   1.006
17635SOL    HW153249   7.735   2.288   0.989
17635SOL    HW253250   7.864   2.376   0.942
17636SOL     OW53251   8.586   2.242   1.678
17636SOL    HW153252   8.541   2.305   1.742
17636SOL    HW253253   8.679   2.273   1.661
17637SOL     OW53254   8.608   2.069   1.477
17637SOL    HW153255   8.608   2.133   1.554
17637SOL    HW253256   8.636   2.117   1.394
17638SOL     OW53257   7.536   3.663   0.927
17638SOL    HW153258   7.494   3.577   0.900
17638SOL    HW253259   7.630   3.666   0.893
17639SOL     OW53260   7.952   3.430   0.910
17639SOL    HW153261   8.018   3.504   0.919
17639SOL    HW253262   7.996   3.351   0.868
17640SOL     OW53263   8.450   2.658   1.238
17640SOL    HW153264   8.491   2.626   1.324
17640SOL    HW253265   8.354   2.631   1.235
17641SOL     OW53266   7.488   2.406   1.114
17641SOL    HW153267   7.573   2.373   1.073
17641SOL    HW253268   7.501   2.421   1.212
17642SOL     OW53269   7.637   2.382   1.722
17642SOL    HW153270   7.696   2.342   1.652
17642SOL    HW253271   7.579   2.453   1.681
17643SOL     OW53272   8.817   2.812   1.660
17643SOL    HW153273   8.856   2.901   1.680
17643SOL    HW253274   8.827   2.792   1.563
17644SOL     OW53275   9.105   2.466   1.206
17644SOL    HW153276   9.067   2.397   1.268
17644SOL    HW253277   9.187   2.430   1.162
17645SOL     OW53278   7.700   3.426   1.744
17645SOL    HW153279   7.670   3.483   1.820
17645SOL    HW253280   7.693   3.329   1.770
17646SOL     OW53281   8.119   2.326   1.269
17646SOL    HW153282   8.085   2.237   1.239
17646SOL    HW253283   8.145   2.380   1.189
17647SOL     OW53284   8.378   3.540   1.465
17647SOL    HW153285   8.354   3.522   1.370
17647SOL    HW253286   8.408   3.634   1.475
17648SOL     OW53287   7.607   2.999   1.466
17648SOL    HW153288   7.629   2.938   1.542
17648SOL    HW253289   7.617   2.950   1.380
17649SOL     OW53290   8.795   2.921   1.234
17649SOL    HW153291   8.819   2.858   1.160
17649SOL    HW253292   8.705   2.961   1.216
17650SOL     OW53293   8.750   2.717   0.309
17650SOL    HW153294   8.664   2.686   0.351
17650SOL    HW253295   8.746   2.703   0.210
17651SOL     OW53296   9.207   3.609   1.154
17651SOL    HW153297   9.268   3.639   1.081
17651SOL    HW253298   9.169   3.520   1.132
17652SOL     OW53299   8.700   3.593   1.128
17652SOL    HW153300   8.784   3.598   1.074
17652SOL    HW253301   8.677   3.497   1.146
17653SOL     OW53302   7.531   3.120   1.022
17653SOL    HW153303   7.526   3.119   1.122
17653SOL    HW253304   7.448   3.079   0.984
17654SOL     OW53305   8.136   3.524   1.716
17654SOL    HW153306   8.080   3.605   1.725
17654SOL    HW253307   8.188   3.528   1.630
17655SOL     OW53308   9.174   1.997   0.523
17655SOL    HW153309   9.247   1.980   0.456
17655SOL    HW253310   9.143   1.910   0.561
17656SOL     OW53311   8.836   3.435   0.477
17656SOL    HW153312   8.903   3.447   0.403
17656SOL    HW253313   8.796   3.524   0.500
17657SOL     OW53314   7.578   3.656   1.851
17657SOL    HW153315   7.537   3.582   1.904
17657SOL    HW253316   7.642   3.707   1.909
17658SOL     OW53317   8.728   2.789   0.672
17658SOL    HW153318   8.788   2.708   0.674
17658SOL    HW253319   8.768   2.858   0.612
17659SOL     OW53320   8.278   3.135   1.422
17659SOL    HW153321   8.273   3.168   1.517
17659SOL    HW253322   8.192   3.154   1.376
17660SOL     OW53323   9.098   3.582   1.394
17660SOL    HW153324   9.151   3.592   1.310
17660SOL    HW253325   9.071   3.672   1.428
17661SOL     OW53326   9.289   2.037   0.963
17661SOL    HW153327   9.328   1.952   0.927
17661SOL    HW253328   9.191   2.039   0.944
17662SOL     OW53329   7.711   2.188   0.720
17662SOL    HW153330   7.632   2.239   0.686
17662SOL    HW253331   7.702   2.173   0.818
17663SOL     OW53332   8.270   2.864   1.372
17663SOL    HW153333   8.310   2.863   1.280
17663SOL    HW253334   8.280   2.956   1.412
17664SOL     OW53335   7.820   3.150   1.490
17664SOL    HW153336   7.807   3.243   1.456
17664SOL    HW253337   7.736   3.098   1.477
17665SOL     OW53338   9.062   3.154   1.289
17665SOL    HW153339   9.122   3.157   1.369
17665SOL    HW253340   8.987   3.218   1.302
17666SOL     OW53341   8.487   2.960   0.696
17666SOL    HW153342   8.417   2.913   0.750
17666SOL    HW253343   8.546   2.892   0.653
17667SOL     OW53344   8.462   2.098   0.971
17667SOL    HW153345   8.454   2.062   0.878
17667SOL    HW253346   8.460   2.022   1.036
17668SOL     OW53347   8.038   3.349   0.491
17668SOL    HW153348   8.080   3.291   0.421
17668SOL    HW253349   7.994   3.428   0.447
17669SOL     OW53350   9.157   2.247   1.381
17669SOL    HW153351   9.230   2.316   1.385
17669SOL    HW253352   9.185   2.172   1.322
17670SOL     OW53353   7.553   2.875   1.726
17670SOL    HW153354   7.476   2.842   1.780
17670SOL    HW253355   7.638   2.845   1.768
17671SOL     OW53356   8.120   2.065   1.489
17671SOL    HW153357   8.210   2.049   1.449
17671SOL    HW253358   8.128   2.070   1.588
17672SOL     OW53359   8.888   2.718   1.398
17672SOL    HW153360   8.831   2.770   1.335
17672SOL    HW253361   8.984   2.730   1.374
17673SOL     OW53362   8.061   2.704   1.431
17673SOL    HW153363   8.117   2.785   1.414
17673SOL    HW253364   8.120   2.624   1.434
17674SOL     OW53365   8.941   3.629   0.959
17674SOL    HW153366   8.974   3.693   0.890
17674SOL    HW253367   9.007   3.623   1.034
17675SOL     OW53368   8.164   2.427   1.708
17675SOL    HW153369   8.183   2.492   1.782
17675SOL    HW253370   8.224   2.347   1.717
17676SOL     OW53371   8.898   3.082   1.633
17676SOL    HW153372   8.889   3.072   1.732
17676SOL    HW253373   8.994   3.075   1.607
17677SOL     OW53374   7.838   3.603   1.560
17677SOL    HW153375   7.747   3.644   1.558
17677SOL    HW253376   7.831   3.509   1.592
17678SOL     OW53377   9.122   2.745   1.254
17678SOL    HW153378   9.095   2.656   1.217
17678SOL    HW253379   9.123   2.813   1.181
17679SOL     OW53380   8.673   2.187   0.449
17679SOL    HW153381   8.738   2.113   0.438
17679SOL    HW253382   8.693   2.237   0.533
17680SOL     OW53383   8.042   2.607   0.652
17680SOL    HW153384   8.092   2.692   0.633
17680SOL    HW253385   7.954   2.609   0.604
17681SOL     OW53386   9.225   2.204   1.642
17681SOL    HW153387   9.208   2.235   1.548
17681SOL    HW253388   9.141   2.167   1.680
17682SOL     OW53389   9.178   2.796   1.517
17682SOL    HW153390   9.216   2.887   1.532
17682SOL    HW253391   9.170   2.779   1.418
17683SOL     OW53392   8.109   3.652   0.953
17683SOL    HW153393   8.063   3.740   0.940
17683SOL    HW253394   8.208   3.664   0.946
17684SOL     OW53395   8.307   2.818   0.861
17684SOL    HW153396   8.361   2.749   0.909
17684SOL    HW253397   8.275   2.887   0.927
17685SOL     OW53398   9.309   3.431   0.851
17685SOL    HW153399   9.238   3.419   0.781
17685SOL    HW253400   9.310   3.352   0.911
17686SOL     OW53401   7.669   3.176   1.844
17686SOL    HW153402   7.604   3.103   1.823
17686SOL    HW253403   7.673   3.190   1.942
17687SOL     OW53404   7.527   3.102   0.653
17687SOL    HW153405   7.526   3.055   0.741
17687SOL    HW253406   7.609   3.074   0.602
17688SOL     OW53407   8.120   3.253   1.624
17688SOL    HW153408   8.042   3.203   1.662
17688SOL    HW253409   8.117   3.348   1.655
17689SOL     OW53410   9.272   2.054   1.227
17689SOL    HW153411   9.268   1.964   1.271
17689SOL    HW253412   9.275   2.043   1.128
17690SOL     OW53413   7.876   2.286   0.520
17690SOL    HW153414   7.906   2.214   0.458
17690SOL    HW253415   7.837   2.246   0.603
17691SOL     OW53416   9.153   3.349   1.104
17691SOL    HW153417   9.060   3.324   1.077
17691SOL    HW253418   9.179   3.299   1.186
17692SOL     OW53419   7.765   2.409   1.280
17692SOL    HW153420   7.803   2.350   1.352
17692SOL    HW253421   7.805   2.383   1.192
17693SOL     OW53422   8.260   3.448   0.687
17693SOL    HW153423   8.292   3.458   0.593
17693SOL    HW253424   8.181   3.386   0.689
17694SOL     OW53425   8.872   2.076   1.112
17694SOL    HW153426   8.924   2.011   1.167
17694SOL    HW253427   8.823   2.139   1.173
17695SOL     OW53428   8.449   1.896   1.154
17695SOL    HW153429   8.386   1.824   1.123
17695SOL    HW253430   8.542   1.860   1.154
17696SOL     OW53431   8.066   3.429   1.284
17696SOL    HW153432   8.061   3.511   1.341
17696SOL    HW253433   8.155   3.426   1.239
17697SOL     OW53434   8.748   2.315   0.691
17697SOL    HW153435   8.689   2.395   0.695
17697SOL    HW253436   8.763   2.280   0.784
17698SOL     OW53437   9.041   2.083   0.882
17698SOL    HW153438   8.957   2.082   0.936
17698SOL    HW253439   9.043   2.166   0.826
17699SOL     OW53440   8.323   3.508   0.337
17699SOL    HW153441   8.246   3.473   0.283
17699SOL    HW253442   8.291   3.579   0.399
17700SOL     OW53443   7.678   2.490   1.975
17700SOL    HW153444   7.585   2.488   2.012
17700SOL    HW253445   7.679   2.451   1.883
17701SOL     OW53446   7.673   2.137   2.858
17701SOL    HW153447   7.708   2.120   2.950
17701SOL    HW253448   7.585   2.092   2.846
17702SOL     OW53449   7.467   2.230   2.509
17702SOL    HW153450   7.385   2.273   2.548
17702SOL    HW253451   7.439   2.157   2.446
17703SOL     OW53452   8.017   3.137   3.027
17703SOL    HW153453   7.924   3.130   2.990
17703SOL    HW253454   8.028   3.226   3.071
17704SOL     OW53455   9.003   3.373   2.565
17704SOL    HW153456   8.946   3.357   2.646
17704SOL    HW253457   8.944   3.383   2.485
17705SOL     OW53458   8.583   2.565   2.579
17705SOL    HW153459   8.640   2.643   2.554
17705SOL    HW253460   8.523   2.591   2.655
17706SOL     OW53461   9.203   2.469   2.093
17706SOL    HW153462   9.191   2.456   1.994
17706SOL    HW253463   9.173   2.388   2.142
17707SOL     OW53464   8.216   3.006   2.885
17707SOL    HW153465   8.138   3.023   2.945
17707SOL    HW253466   8.250   3.093   2.849
17708SOL     OW53467   8.298   2.660   3.685
17708SOL    HW153468   8.294   2.736   3.750
17708SOL    HW253469   8.320   2.696   3.594
17709SOL     OW53470   8.133   2.874   2.527
17709SOL    HW153471   8.202   2.858   2.597
17709SOL    HW253472   8.060   2.931   2.565
17710SOL     OW53473   8.134   3.023   3.665
17710SOL    HW153474   8.194   3.102   3.679
17710SOL    HW253475   8.048   3.054   3.624
17711SOL     OW53476   7.783   3.297   2.923
17711SOL    HW153477   7.705   3.266   2.870
17711SOL    HW253478   7.841   3.355   2.866
17712SOL     OW53479   8.908   3.367   3.201
17712SOL    HW153480   8.932   3.461   3.227
17712SOL    HW253481   8.892   3.313   3.283
17713SOL     OW53482   7.886   2.254   3.361
17713SOL    HW153483   7.968   2.198   3.370
17713SOL    HW253484   7.805   2.196   3.365
17714SOL     OW53485   9.051   2.309   2.599
17714SOL    HW153486   8.977   2.355   2.549
17714SOL    HW253487   9.102   2.377   2.652
17715SOL     OW53488   7.679   3.575   2.345
17715SOL    HW153489   7.713   3.652   2.399
17715SOL    HW253490   7.723   3.575   2.255
17716SOL     OW53491   8.575   3.203   3.552
17716SOL    HW153492   8.622   3.203   3.640
17716SOL    HW253493   8.527   3.116   3.541
17717SOL     OW53494   7.678   3.296   2.400
17717SOL    HW153495   7.652   3.392   2.400
17717SOL    HW253496   7.607   3.242   2.445
17718SOL     OW53497   7.688   2.953   2.748
17718SOL    HW153498   7.702   2.869   2.800
17718SOL    HW253499   7.633   3.017   2.803
17719SOL     OW53500   8.068   3.648   3.301
17719SOL    HW153501   7.976   3.631   3.336
17719SOL    HW253502   8.096   3.740   3.327
17720SOL     OW53503   8.054   2.826   1.985
17720SOL    HW153504   8.061   2.910   1.931
17720SOL    HW253505   8.100   2.839   2.073
17721SOL     OW53506   9.042   1.976   3.342
17721SOL    HW153507   9.024   2.043   3.270
17721SOL    HW253508   9.039   2.022   3.431
17722SOL     OW53509   7.570   2.505   2.425
17722SOL    HW153510   7.525   2.417   2.442
17722SOL    HW253511   7.569   2.559   2.509
17723SOL     OW53512   9.290   3.629   2.221
17723SOL    HW153513   9.344   3.600   2.301
17723SOL    HW253514   9.320   3.719   2.192
17724SOL     OW53515   7.475   3.458   1.979
17724SOL    HW153516   7.456   3.362   2.000
17724SOL    HW253517   7.442   3.516   2.054
17725SOL     OW53518   9.137   2.784   2.474
17725SOL    HW153519   9.232   2.755   2.482
17725SOL    HW253520   9.129   2.849   2.399
17726SOL     OW53521   9.089   2.970   2.294
17726SOL    HW153522   9.175   2.972   2.242
17726SOL    HW253523   9.103   3.017   2.382
17727SOL     OW53524   7.561   2.599   3.459
17727SOL    HW153525   7.649   2.586   3.504
17727SOL    HW253526   7.548   2.696   3.437
17728SOL     OW53527   8.061   3.227   2.588
17728SOL    HW153528   8.012   3.140   2.597
17728SOL    HW253529   8.038   3.270   2.501
17729SOL     OW53530   8.741   3.090   3.285
17729SOL    HW153531   8.778   3.017   3.227
17729SOL    HW253532   8.793   3.095   3.370
17730SOL     OW53533   8.257   1.866   2.364
17730SOL    HW153534   8.297   1.957   2.355
17730SOL    HW253535   8.157   1.874   2.370
17731SOL     OW53536   7.645   2.838   3.126
17731SOL    HW153537   7.734   2.793   3.112
17731SOL    HW253538   7.572   2.773   3.107
17732SOL     OW53539   8.973   2.861   2.052
17732SOL    HW153540   8.910   2.785   2.065
17732SOL    HW253541   9.021   2.879   2.138
17733SOL     OW53542   8.635   3.654   3.478
17733SOL    HW153543   8.659   3.714   3.402
17733SOL    HW253544   8.642   3.559   3.448
17734SOL     OW53545   7.765   2.113   3.663
17734SOL    HW153546   7.836   2.184   3.669
17734SOL    HW253547   7.677   2.152   3.691
17735SOL     OW53548   8.914   3.279   2.815
17735SOL    HW153549   8.855   3.285   2.895
17735SOL    HW253550   8.899   3.191   2.769
17736SOL     OW53551   9.115   3.576   2.434
17736SOL    HW153552   9.074   3.553   2.346
17736SOL    HW253553   9.097   3.502   2.499
17737SOL     OW53554   8.046   2.591   2.132
17737SOL    HW153555   8.070   2.660   2.064
17737SOL    HW253556   7.968   2.624   2.186
17738SOL     OW53557   8.729   2.207   2.806
17738SOL    HW153558   8.643   2.157   2.793
17738SOL    HW253559   8.791   2.153   2.862
17739SOL     OW53560   9.024   3.524   2.169
17739SOL    HW153561   9.113   3.570   2.172
17739SOL    HW253562   9.003   3.500   2.074
17740SOL     OW53563   8.255   2.467   3.327
17740SOL    HW153564   8.208   2.464   3.416
17740SOL    HW253565   8.204   2.412   3.261
17741SOL     OW53566   8.842   2.331   3.536
17741SOL    HW153567   8.822   2.374   3.624
17741SOL    HW253568   8.920   2.269   3.545
17742SOL     OW53569   8.421   2.752   3.434
17742SOL    HW153570   8.467   2.668   3.405
17742SOL    HW253571   8.365   2.786   3.359
17743SOL     OW53572   8.439   2.272   3.104
17743SOL    HW153573   8.362   2.306   3.158
17743SOL    HW253574   8.405   2.221   3.025
17744SOL     OW53575   8.489   2.563   2.291
17744SOL    HW153576   8.515   2.559   2.387
17744SOL    HW253577   8.404   2.512   2.277
17745SOL     OW53578   7.524   2.673   2.651
17745SOL    HW153579   7.623   2.661   2.660
17745SOL    HW253580   7.500   2.768   2.672
17746SOL     OW53581   7.578   3.683   3.433
17746SOL    HW153582   7.568   3.668   3.532
17746SOL    HW253583   7.492   3.719   3.397
17747SOL     OW53584   8.313   2.210   2.057
17747SOL    HW153585   8.372   2.273   2.008
17747SOL    HW253586   8.332   2.116   2.028
17748SOL     OW53587   9.167   2.447   3.693
17748SOL    HW153588   9.141   2.536   3.657
17748SOL    HW253589   9.165   2.379   3.620
17749SOL     OW53590   8.810   3.006   2.407
17749SOL    HW153591   8.893   2.977   2.359
17749SOL    HW253592   8.761   3.073   2.351
17750SOL     OW53593   7.998   2.058   2.747
17750SOL    HW153594   7.993   2.053   2.847
17750SOL    HW253595   8.000   2.154   2.718
17751SOL     OW53596   8.456   3.318   2.339
17751SOL    HW153597   8.410   3.390   2.287
17751SOL    HW253598   8.452   3.338   2.437
17752SOL     OW53599   7.799   3.663   2.715
17752SOL    HW153600   7.849   3.577   2.721
17752SOL    HW253601   7.864   3.740   2.712
17753SOL     OW53602   9.243   2.928   2.735
17753SOL    HW153603   9.181   2.913   2.659
17753SOL    HW253604   9.191   2.939   2.820
17754SOL     OW53605   8.675   3.412   3.368
17754SOL    HW153606   8.681   3.335   3.432
17754SOL    HW253607   8.623   3.386   3.288
17755SOL     OW53608   7.769   2.805   2.104
17755SOL    HW153609   7.851   2.844   2.062
17755SOL    HW253610   7.742   2.723   2.055
17756SOL     OW53611   8.906   2.597   2.590
17756SOL    HW153612   8.901   2.532   2.665
17756SOL    HW253613   8.986   2.656   2.603
17757SOL     OW53614   7.909   3.128   3.589
17757SOL    HW153615   7.859   3.129   3.503
17757SOL    HW253616   7.846   3.110   3.665
17758SOL     OW53617   8.559   3.638   2.099
17758SOL    HW153618   8.499   3.576   2.149
17758SOL    HW253619   8.590   3.594   2.014
17759SOL     OW53620   7.650   2.147   3.360
17759SOL    HW153621   7.570   2.207   3.347
17759SOL    HW253622   7.640   2.098   3.446
17760SOL     OW53623   9.080   3.239   1.943
17760SOL    HW153624   9.048   3.333   1.933
17760SOL    HW253625   9.004   3.176   1.931
17761SOL     OW53626   7.912   3.605   2.185
17761SOL    HW153627   7.945   3.644   2.271
17761SOL    HW253628   7.988   3.598   2.120
17762SOL     OW53629   8.848   1.969   2.288
17762SOL    HW153630   8.824   1.932   2.198
17762SOL    HW253631   8.947   1.985   2.292
17763SOL     OW53632   7.697   3.647   3.103
17763SOL    HW153633   7.754   3.582   3.153
17763SOL    HW253634   7.681   3.614   3.010
17764SOL     OW53635   8.388   3.560   2.766
17764SOL    HW153636   8.468   3.503   2.787
17764SOL    HW253637   8.339   3.520   2.689
17765SOL     OW53638   7.830   2.562   2.342
17765SOL    HW153639   7.875   2.472   2.339
17765SOL    HW253640   7.736   2.551   2.375
17766SOL     OW53641   8.995   2.084   3.591
17766SOL    HW153642   8.990   2.121   3.683
17766SOL    HW253643   8.923   2.015   3.579
17767SOL     OW53644   8.062   1.984   1.979
17767SOL    HW153645   8.160   1.962   1.986
17767SOL    HW253646   8.031   1.967   1.886
17768SOL     OW53647   8.229   2.126   3.611
17768SOL    HW153648   8.296   2.065   3.654
17768SOL    HW253649   8.156   2.145   3.676
17769SOL     OW53650   8.336   3.376   3.057
17769SOL    HW153651   8.313   3.351   2.963
17769SOL    HW253652   8.397   3.307   3.096
17770SOL     OW53653   8.799   2.452   3.295
17770SOL    HW153654   8.827   2.409   3.380
17770SOL    HW253655   8.824   2.548   3.296
17771SOL     OW53656   8.251   3.264   2.786
17771SOL    HW153657   8.341   3.278   2.744
17771SOL    HW253658   8.180   3.266   2.715
17772SOL     OW53659   8.370   2.365   2.761
17772SOL    HW153660   8.345   2.356   2.665
17772SOL    HW253661   8.418   2.283   2.792
17773SOL     OW53662   7.987   1.926   2.374
17773SOL    HW153663   7.906   1.927   2.432
17773SOL    HW253664   7.990   2.009   2.319
17774SOL     OW53665   8.882   3.050   1.903
17774SOL    HW153666   8.914   2.974   1.960
17774SOL    HW253667   8.790   3.077   1.933
17775SOL     OW53668   7.745   1.897   2.033
17775SOL    HW153669   7.794   1.981   2.012
17775SOL    HW253670   7.807   1.832   2.078
17776SOL     OW53671   8.383   2.098   2.342
17776SOL    HW153672   8.335   2.139   2.264
17776SOL    HW253673   8.482   2.096   2.323
17777SOL     OW53674   8.524   2.545   3.326
17777SOL    HW153675   8.444   2.484   3.329
17777SOL    HW253676   8.605   2.492   3.302
17778SOL     OW53677   8.675   3.432   2.655
17778SOL    HW153678   8.696   3.506   2.590
17778SOL    HW253679   8.743   3.432   2.728
17779SOL     OW53680   7.907   3.014   2.603
17779SOL    HW153681   7.836   2.987   2.668
17779SOL    HW253682   7.881   2.986   2.510
17780SOL     OW53683   8.719   3.659   2.453
17780SOL    HW153684   8.763   3.723   2.389
17780SOL    HW253685   8.669   3.711   2.523
17781SOL     OW53686   8.480   2.411   1.878
17781SOL    HW153687   8.439   2.493   1.839
17781SOL    HW253688   8.544   2.437   1.951
17782SOL     OW53689   7.526   2.418   3.248
17782SOL    HW153690   7.618   2.417   3.207
17782SOL    HW253691   7.520   2.492   3.315
17783SOL     OW53692   8.009   2.084   3.009
17783SOL    HW153693   8.047   2.000   3.046
17783SOL    HW253694   7.921   2.103   3.053
17784SOL     OW53695   8.314   2.316   2.504
17784SOL    HW153696   8.282   2.388   2.442
17784SOL    HW253697   8.338   2.235   2.451
17785SOL     OW53698   8.465   1.901   2.615
17785SOL    HW153699   8.393   1.906   2.546
17785SOL    HW253700   8.441   1.832   2.684
17786SOL     OW53701   8.877   3.035   2.729
17786SOL    HW153702   8.822   2.951   2.722
17786SOL    HW253703   8.903   3.064   2.637
17787SOL     OW53704   8.914   2.452   2.854
17787SOL    HW153705   8.884   2.357   2.861
17787SOL    HW253706   8.987   2.468   2.920
17788SOL     OW53707   9.305   2.695   2.239
17788SOL    HW153708   9.347   2.631   2.303
17788SOL    HW253709   9.267   2.644   2.161
17789SOL     OW53710   7.936   3.247   2.036
17789SOL    HW153711   7.849   3.232   2.083
17789SOL    HW253712   7.919   3.273   1.941
17790SOL     OW53713   9.112   3.142   2.519
17790SOL    HW153714   9.211   3.150   2.533
17790SOL    HW253715   9.067   3.226   2.550
17791SOL     OW53716   8.838   2.437   1.940
17791SOL    HW153717   8.784   2.416   2.021
17791SOL    HW253718   8.929   2.396   1.949
17792SOL     OW53719   7.975   2.118   2.190
17792SOL    HW153720   8.002   2.059   2.115
17792SOL    HW253721   7.975   2.213   2.159
17793SOL     OW53722   9.202   3.085   3.450
17793SOL    HW153723   9.293   3.046   3.437
17793SOL    HW253724   9.210   3.181   3.474
17794SOL     OW53725   8.512   3.209   3.202
17794SOL    HW153726   8.432   3.186   3.257
17794SOL    HW253727   8.595   3.183   3.251
17795SOL     OW53728   9.040   3.491   3.487
17795SOL    HW153729   9.067   3.525   3.397
17795SOL    HW253730   9.119   3.453   3.533
17796SOL     OW53731   8.559   3.057   2.962
17796SOL    HW153732   8.519   3.101   3.043
17796SOL    HW253733   8.518   3.094   2.879
17797SOL     OW53734   9.086   2.961   2.941
17797SOL    HW153735   9.091   3.042   3.000
17797SOL    HW253736   9.000   2.963   2.890
17798SOL     OW53737   8.363   1.951   3.264
17798SOL    HW153738   8.388   1.931   3.169
17798SOL    HW253739   8.435   2.007   3.306
17799SOL     OW53740   8.428   2.978   3.581
17799SOL    HW153741   8.329   2.984   3.591
17799SOL    HW253742   8.451   2.898   3.525
17800SOL     OW53743   8.153   2.912   2.230
17800SOL    HW153744   8.139   2.919   2.329
17800SOL    HW253745   8.237   2.861   2.212
17801SOL     OW53746   7.858   2.675   3.113
17801SOL    HW153747   7.944   2.687   3.163
17801SOL    HW253748   7.816   2.588   3.140
17802SOL     OW53749   8.722   2.248   3.124
17802SOL    HW153750   8.743   2.322   3.188
17802SOL    HW253751   8.633   2.265   3.081
17803SOL     OW53752   7.512   3.426   3.193
17803SOL    HW153753   7.466   3.508   3.159
17803SOL    HW253754   7.610   3.445   3.202
17804SOL     OW53755   7.815   2.962   2.363
17804SOL    HW153756   7.808   3.045   2.307
17804SOL    HW253757   7.819   2.882   2.303
17805SOL     OW53758   8.014   2.399   2.727
17805SOL    HW153759   8.026   2.465   2.653
17805SOL    HW253760   8.060   2.433   2.810
17806SOL     OW53761   8.700   3.210   2.250
17806SOL    HW153762   8.750   3.287   2.290
17806SOL    HW253763   8.605   3.212   2.282
17807SOL     OW53764   8.720   3.307   3.004
17807SOL    HW153765   8.767   3.320   3.091
17807SOL    HW253766   8.654   3.233   3.013
17808SOL     OW53767   9.030   2.501   2.334
17808SOL    HW153768   8.999   2.562   2.407
17808SOL    HW253769   9.080   2.553   2.265
17809SOL     OW53770   7.802   3.372   3.191
17809SOL    HW153771   7.781   3.328   3.104
17809SOL    HW253772   7.899   3.398   3.194
17810SOL     OW53773   7.850   2.613   3.460
17810SOL    HW153774   7.918   2.668   3.413
17810SOL    HW253775   7.890   2.525   3.487
17811SOL     OW53776   9.035   2.641   3.532
17811SOL    HW153777   8.943   2.679   3.527
17811SOL    HW253778   9.095   2.688   3.467
17812SOL     OW53779   8.461   1.967   3.632
17812SOL    HW153780   8.467   2.052   3.580
17812SOL    HW253781   8.493   1.891   3.575
17813SOL     OW53782   7.952   1.912   3.602
17813SOL    HW153783   7.910   1.855   3.532
17813SOL    HW253784   7.886   1.981   3.634
17814SOL     OW53785   8.021   2.732   2.891
17814SOL    HW153786   8.065   2.821   2.882
17814SOL    HW253787   7.958   2.732   2.968
17815SOL     OW53788   8.808   2.724   2.907
17815SOL    HW153789   8.733   2.724   2.841
17815SOL    HW253790   8.845   2.632   2.916
17816SOL     OW53791   8.657   2.387   2.137
17816SOL    HW153792   8.670   2.303   2.191
17816SOL    HW253793   8.628   2.461   2.197
17817SOL     OW53794   7.755   2.075   3.093
17817SOL    HW153795   7.732   2.112   3.183
17817SOL    HW253796   7.725   1.980   3.087
17818SOL     OW53797   7.485   3.172   3.144
17818SOL    HW153798   7.538   3.123   3.212
17818SOL    HW253799   7.507   3.270   3.149
17819SOL     OW53800   8.180   2.496   2.926
17819SOL    HW153801   8.239   2.470   2.850
17819SOL    HW253802   8.152   2.592   2.915
17820SOL     OW53803   9.176   2.797   3.716
17820SOL    HW153804   9.130   2.790   3.627
17820SOL    HW253805   9.114   2.841   3.782
17821SOL     OW53806   7.755   1.925   2.480
17821SOL    HW153807   7.744   2.019   2.513
17821SOL    HW253808   7.750   1.862   2.557
17822SOL     OW53809   9.070   2.229   2.236
17822SOL    HW153810   9.072   2.153   2.300
17822SOL    HW253811   9.022   2.306   2.276
17823SOL     OW53812   8.471   2.628   2.828
17823SOL    HW153813   8.486   2.649   2.924
17823SOL    HW253814   8.441   2.533   2.819
17824SOL     OW53815   8.428   3.435   3.562
17824SOL    HW153816   8.408   3.479   3.474
17824SOL    HW253817   8.467   3.344   3.546
17825SOL     OW53818   9.307   3.380   3.467
17825SOL    HW153819   9.321   3.407   3.372
17825SOL    HW253820   9.390   3.402   3.520
17826SOL     OW53821   7.798   2.760   3.666
17826SOL    HW153822   7.874   2.804   3.714
17826SOL    HW253823   7.833   2.713   3.584
17827SOL     OW53824   8.988   2.136   1.987
17827SOL    HW153825   8.927   2.061   2.010
17827SOL    HW253826   9.010   2.188   2.070
17828SOL     OW53827   8.751   2.700   1.904
17828SOL    HW153828   8.785   2.607   1.919
17828SOL    HW253829   8.769   2.727   1.809
17829SOL     OW53830   8.516   3.195   2.711
17829SOL    HW153831   8.523   3.111   2.656
17829SOL    HW253832   8.578   3.264   2.675
17830SOL     OW53833   7.767   2.672   2.811
17830SOL    HW153834   7.860   2.708   2.816
17830SOL    HW253835   7.761   2.587   2.863
17831SOL     OW53836   7.787   2.371   2.868
17831SOL    HW153837   7.735   2.288   2.851
17831SOL    HW253838   7.864   2.376   2.804
17832SOL     OW53839   8.586   2.242   3.540
17832SOL    HW153840   8.541   2.305   3.604
17832SOL    HW253841   8.679   2.273   3.523
17833SOL     OW53842   8.608   2.069   3.339
17833SOL    HW153843   8.608   2.133   3.416
17833SOL    HW253844   8.636   2.117   3.256
17834SOL     OW53845   7.456   3.188   2.062
17834SOL    HW153846   7.363   3.209   2.031
17834SOL    HW253847   7.466   3.089   2.075
17835SOL     OW53848   7.536   3.663   2.789
17835SOL    HW153849   7.494   3.577   2.762
17835SOL    HW253850   7.630   3.666   2.755
17836SOL     OW53851   7.952   3.430   2.772
17836SOL    HW153852   8.018   3.504   2.781
17836SOL    HW253853   7.996   3.351   2.730
17837SOL     OW53854   8.450   2.658   3.100
17837SOL    HW153855   8.491   2.626   3.186
17837SOL    HW253856   8.354   2.631   3.097
17838SOL     OW53857   7.488   2.406   2.976
17838SOL    HW153858   7.573   2.373   2.935
17838SOL    HW253859   7.501   2.421   3.074
17839SOL     OW53860   7.637   2.382   3.584
17839SOL    HW153861   7.696   2.342   3.514
17839SOL    HW253862   7.579   2.453   3.543
17840SOL     OW53863   8.817   2.812   3.522
17840SOL    HW153864   8.856   2.901   3.542
17840SOL    HW253865   8.827   2.792   3.425
17841SOL     OW53866   8.263   2.434   2.187
17841SOL    HW153867   8.270   2.345   2.141
17841SOL    HW253868   8.169   2.468   2.179
17842SOL     OW53869   9.105   2.466   3.068
17842SOL    HW153870   9.067   2.397   3.130
17842SOL    HW253871   9.187   2.430   3.024
17843SOL     OW53872   7.700   3.426   3.606
17843SOL    HW153873   7.670   3.483   3.682
17843SOL    HW253874   7.693   3.329   3.632
17844SOL     OW53875   8.119   2.326   3.131
17844SOL    HW153876   8.085   2.237   3.101
17844SOL    HW253877   8.145   2.380   3.051
17845SOL     OW53878   8.378   3.540   3.327
17845SOL    HW153879   8.354   3.522   3.232
17845SOL    HW253880   8.408   3.634   3.337
17846SOL     OW53881   7.921   2.362   2.053
17846SOL    HW153882   7.982   2.442   2.057
17846SOL    HW253883   7.826   2.393   2.060
17847SOL     OW53884   7.607   2.999   3.328
17847SOL    HW153885   7.629   2.938   3.404
17847SOL    HW253886   7.617   2.950   3.242
17848SOL     OW53887   8.795   2.921   3.096
17848SOL    HW153888   8.819   2.858   3.022
17848SOL    HW253889   8.705   2.961   3.078
17849SOL     OW53890   8.750   2.717   2.171
17849SOL    HW153891   8.664   2.686   2.213
17849SOL    HW253892   8.746   2.703   2.072
17850SOL     OW53893   9.207   3.609   3.016
17850SOL    HW153894   9.268   3.639   2.943
17850SOL    HW253895   9.169   3.520   2.994
17851SOL     OW53896   8.700   3.593   2.990
17851SOL    HW153897   8.784   3.598   2.936
17851SOL    HW253898   8.677   3.497   3.008
17852SOL     OW53899   7.531   3.120   2.884
17852SOL    HW153900   7.526   3.119   2.984
17852SOL    HW253901   7.448   3.079   2.846
17853SOL     OW53902   8.136   3.524   3.578
17853SOL    HW153903   8.080   3.605   3.587
17853SOL    HW253904   8.188   3.528   3.492
17854SOL     OW53905   9.174   1.997   2.385
17854SOL    HW153906   9.247   1.980   2.318
17854SOL    HW253907   9.143   1.910   2.423
17855SOL     OW53908   8.836   3.435   2.339
17855SOL    HW153909   8.903   3.447   2.265
17855SOL    HW253910   8.796   3.524   2.362
17856SOL     OW53911   7.578   3.656   3.713
17856SOL    HW153912   7.537   3.582   3.766
17856SOL    HW253913   7.642   3.707   3.771
17857SOL     OW53914   8.728   2.789   2.534
17857SOL    HW153915   8.788   2.708   2.536
17857SOL    HW253916   8.768   2.858   2.474
17858SOL     OW53917   8.278   3.135   3.284
17858SOL    HW153918   8.273   3.168   3.379
17858SOL    HW253919   8.192   3.154   3.238
17859SOL     OW53920   8.120   3.478   2.016
17859SOL    HW153921   8.129   3.488   1.917
17859SOL    HW253922   8.080   3.389   2.037
17860SOL     OW53923   9.098   3.582   3.256
17860SOL    HW153924   9.151   3.592   3.172
17860SOL    HW253925   9.071   3.672   3.290
17861SOL     OW53926   9.289   2.037   2.825
17861SOL    HW153927   9.328   1.952   2.789
17861SOL    HW253928   9.191   2.039   2.806
17862SOL     OW53929   7.711   2.188   2.582
17862SOL    HW153930   7.632   2.239   2.548
17862SOL    HW253931   7.702   2.173   2.680
17863SOL     OW53932   8.642   3.474   1.893
17863SOL    HW153933   8.648   3.381   1.930
17863SOL    HW253934   8.583   3.474   1.813
17864SOL     OW53935   8.270   2.864   3.234
17864SOL    HW153936   8.310   2.863   3.142
17864SOL    HW253937   8.280   2.956   3.274
17865SOL     OW53938   8.364   2.772   2.153
17865SOL    HW153939   8.427   2.810   2.085
17865SOL    HW253940   8.404   2.689   2.192
17866SOL     OW53941   8.952   3.469   1.906
17866SOL    HW153942   8.860   3.506   1.913
17866SOL    HW253943   8.990   3.489   1.816
17867SOL     OW53944   7.820   3.150   3.352
17867SOL    HW153945   7.807   3.243   3.318
17867SOL    HW253946   7.736   3.098   3.339
17868SOL     OW53947   9.062   3.154   3.151
17868SOL    HW153948   9.122   3.157   3.231
17868SOL    HW253949   8.987   3.218   3.164
17869SOL     OW53950   8.487   2.960   2.558
17869SOL    HW153951   8.417   2.913   2.612
17869SOL    HW253952   8.546   2.892   2.515
17870SOL     OW53953   8.462   2.098   2.833
17870SOL    HW153954   8.454   2.062   2.740
17870SOL    HW253955   8.460   2.022   2.898
17871SOL     OW53956   8.038   3.349   2.353
17871SOL    HW153957   8.080   3.291   2.283
17871SOL    HW253958   7.994   3.428   2.309
17872SOL     OW53959   9.157   2.247   3.243
17872SOL    HW153960   9.230   2.316   3.247
17872SOL    HW253961   9.185   2.172   3.184
17873SOL     OW53962   7.703   3.210   2.152
17873SOL    HW153963   7.607   3.211   2.125
17873SOL    HW253964   7.715   3.263   2.236
17874SOL     OW53965   7.553   2.875   3.588
17874SOL    HW153966   7.476   2.842   3.642
17874SOL    HW253967   7.638   2.845   3.630
17875SOL     OW53968   8.120   2.065   3.351
17875SOL    HW153969   8.210   2.049   3.311
17875SOL    HW253970   8.128   2.070   3.450
17876SOL     OW53971   7.523   2.207   1.895
17876SOL    HW153972   7.431   2.179   1.866
17876SOL    HW253973   7.554   2.284   1.839
17877SOL     OW53974   8.888   2.718   3.260
17877SOL    HW153975   8.831   2.770   3.197
17877SOL    HW253976   8.984   2.730   3.236
17878SOL     OW53977   7.520   2.028   2.180
17878SOL    HW153978   7.503   2.111   2.126
17878SOL    HW253979   7.610   1.991   2.158
17879SOL     OW53980   8.631   3.197   1.981
17879SOL    HW153981   8.532   3.186   1.983
17879SOL    HW253982   8.665   3.212   2.074
17880SOL     OW53983   8.061   2.704   3.293
17880SOL    HW153984   8.117   2.785   3.276
17880SOL    HW253985   8.120   2.624   3.296
17881SOL     OW53986   8.941   3.629   2.821
17881SOL    HW153987   8.974   3.693   2.752
17881SOL    HW253988   9.007   3.623   2.896
17882SOL     OW53989   8.164   2.427   3.570
17882SOL    HW153990   8.183   2.492   3.644
17882SOL    HW253991   8.224   2.347   3.579
17883SOL     OW53992   8.898   3.082   3.495
17883SOL    HW153993   8.889   3.072   3.594
17883SOL    HW253994   8.994   3.075   3.469
17884SOL     OW53995   7.838   3.603   3.422
17884SOL    HW153996   7.747   3.644   3.420
17884SOL    HW253997   7.831   3.509   3.454
17885SOL     OW53998   9.122   2.745   3.116
17885SOL    HW153999   9.095   2.656   3.079
17885SOL    HW254000   9.123   2.813   3.043
17886SOL     OW54001   8.673   2.187   2.311
17886SOL    HW154002   8.738   2.113   2.300
17886SOL    HW254003   8.693   2.237   2.395
17887SOL     OW54004   8.042   2.607   2.514
17887SOL    HW154005   8.092   2.692   2.495
17887SOL    HW254006   7.954   2.609   2.466
17888SOL     OW54007   9.225   2.204   3.504
17888SOL    HW154008   9.208   2.235   3.410
17888SOL    HW254009   9.141   2.167   3.542
17889SOL     OW54010   9.178   2.796   3.379
17889SOL    HW154011   9.216   2.887   3.394
17889SOL    HW254012   9.170   2.779   3.280
17890SOL     OW54013   8.307   3.236   1.878
17890SOL    HW154014   8.261   3.251   1.966
17890SOL    HW254015   8.351   3.321   1.848
17891SOL     OW54016   8.109   3.652   2.815
17891SOL    HW154017   8.063   3.740   2.802
17891SOL    HW254018   8.208   3.664   2.808
17892SOL     OW54019   8.307   2.818   2.723
17892SOL    HW154020   8.361   2.749   2.771
17892SOL    HW254021   8.275   2.887   2.789
17893SOL     OW54022   8.531   2.846   1.949
17893SOL    HW154023   8.508   2.899   1.867
17893SOL    HW254024   8.612   2.790   1.930
17894SOL     OW54025   9.309   3.431   2.713
17894SOL    HW154026   9.238   3.419   2.643
17894SOL    HW254027   9.310   3.352   2.773
17895SOL     OW54028   7.669   3.176   3.706
17895SOL    HW154029   7.604   3.103   3.685
17895SOL    HW254030   7.673   3.190   3.804
17896SOL     OW54031   7.527   3.102   2.515
17896SOL    HW154032   7.526   3.055   2.603
17896SOL    HW254033   7.609   3.074   2.464
17897SOL     OW54034   8.120   3.253   3.486
17897SOL    HW154035   8.042   3.203   3.524
17897SOL    HW254036   8.117   3.348   3.517
17898SOL     OW54037   9.272   2.054   3.089
17898SOL    HW154038   9.268   1.964   3.133
17898SOL    HW254039   9.275   2.043   2.990
17899SOL     OW54040   7.876   2.286   2.382
17899SOL    HW154041   7.906   2.214   2.320
17899SOL    HW254042   7.837   2.246   2.465
17900SOL     OW54043   9.153   3.349   2.966
17900SOL    HW154044   9.060   3.324   2.939
17900SOL    HW254045   9.179   3.299   3.048
17901SOL     OW54046   7.765   2.409   3.142
17901SOL    HW154047   7.803   2.350   3.214
17901SOL    HW254048   7.805   2.383   3.054
17902SOL     OW54049   8.260   3.448   2.549
17902SOL    HW154050   8.292   3.458   2.455
17902SOL    HW254051   8.181   3.386   2.551
17903SOL     OW54052   8.872   2.076   2.974
17903SOL    HW154053   8.924   2.011   3.029
17903SOL    HW254054   8.823   2.139   3.035
17904SOL     OW54055   8.449   1.896   3.016
17904SOL    HW154056   8.386   1.824   2.985
17904SOL    HW254057   8.542   1.860   3.016
17905SOL     OW54058   8.218   3.192   2.163
17905SOL    HW154059   8.172   3.105   2.180
17905SOL    HW254060   8.309   3.189   2.204
17906SOL     OW54061   8.066   3.429   3.146
17906SOL    HW154062   8.061   3.511   3.203
17906SOL    HW254063   8.155   3.426   3.101
17907SOL     OW54064   8.800   1.914   2.030
17907SOL    HW154065   8.835   1.873   1.946
17907SOL    HW254066   8.710   1.876   2.050
17908SOL     OW54067   8.748   2.315   2.553
17908SOL    HW154068   8.689   2.395   2.557
17908SOL    HW254069   8.763   2.280   2.646
17909SOL     OW54070   9.041   2.083   2.744
17909SOL    HW154071   8.957   2.082   2.798
17909SOL    HW254072   9.043   2.166   2.688
17910SOL     OW54073   7.487   2.939   2.162
17910SOL    HW154074   7.586   2.928   2.153
17910SOL    HW254075   7.447   2.853   2.194
17911SOL     OW54076   8.323   3.508   2.199
17911SOL    HW154077   8.246   3.473   2.145
17911SOL    HW254078   8.291   3.579   2.261
17912SOL     OW54079   7.678   2.490   3.837
17912SOL    HW154080   7.585   2.488   3.874
17912SOL    HW254081   7.679   2.451   3.745
17913SOL     OW54082   7.673   2.137   4.720
17913SOL    HW154083   7.708   2.120   4.812
17913SOL    HW254084   7.585   2.092   4.708
17914SOL     OW54085   7.467   2.230   4.371
17914SOL    HW154086   7.385   2.273   4.410
17914SOL    HW254087   7.439   2.157   4.308
17915SOL     OW54088   8.017   3.137   4.889
17915SOL    HW154089   7.924   3.130   4.852
17915SOL    HW254090   8.028   3.226   4.933
17916SOL     OW54091   9.003   3.373   4.427
17916SOL    HW154092   8.946   3.357   4.508
17916SOL    HW254093   8.944   3.383   4.347
17917SOL     OW54094   8.583   2.565   4.441
17917SOL    HW154095   8.640   2.643   4.416
17917SOL    HW254096   8.523   2.591   4.517
17918SOL     OW54097   9.203   2.469   3.955
17918SOL    HW154098   9.191   2.456   3.856
17918SOL    HW254099   9.173   2.388   4.004
17919SOL     OW54100   8.216   3.006   4.747
17919SOL    HW154101   8.138   3.023   4.807
17919SOL    HW254102   8.250   3.093   4.711
17920SOL     OW54103   8.298   2.660   5.547
17920SOL    HW154104   8.294   2.736   5.612
17920SOL    HW254105   8.320   2.696   5.456
17921SOL     OW54106   8.133   2.874   4.389
17921SOL    HW154107   8.202   2.858   4.459
17921SOL    HW254108   8.060   2.931   4.427
17922SOL     OW54109   8.134   3.023   5.527
17922SOL    HW154110   8.194   3.102   5.541
17922SOL    HW254111   8.048   3.054   5.486
17923SOL     OW54112   7.783   3.297   4.785
17923SOL    HW154113   7.705   3.266   4.732
17923SOL    HW254114   7.841   3.355   4.728
17924SOL     OW54115   8.908   3.367   5.063
17924SOL    HW154116   8.932   3.461   5.089
17924SOL    HW254117   8.892   3.313   5.145
17925SOL     OW54118   7.886   2.254   5.223
17925SOL    HW154119   7.968   2.198   5.232
17925SOL    HW254120   7.805   2.196   5.227
17926SOL     OW54121   9.051   2.309   4.461
17926SOL    HW154122   8.977   2.355   4.411
17926SOL    HW254123   9.102   2.377   4.514
17927SOL     OW54124   7.679   3.575   4.207
17927SOL    HW154125   7.713   3.652   4.261
17927SOL    HW254126   7.723   3.575   4.117
17928SOL     OW54127   8.575   3.203   5.414
17928SOL    HW154128   8.622   3.203   5.502
17928SOL    HW254129   8.527   3.116   5.403
17929SOL     OW54130   7.678   3.296   4.262
17929SOL    HW154131   7.652   3.392   4.262
17929SOL    HW254132   7.607   3.242   4.307
17930SOL     OW54133   7.688   2.953   4.610
17930SOL    HW154134   7.702   2.869   4.662
17930SOL    HW254135   7.633   3.017   4.665
17931SOL     OW54136   8.068   3.648   5.163
17931SOL    HW154137   7.976   3.631   5.198
17931SOL    HW254138   8.096   3.740   5.189
17932SOL     OW54139   8.054   2.826   3.847
17932SOL    HW154140   8.061   2.910   3.793
17932SOL    HW254141   8.100   2.839   3.935
17933SOL     OW54142   9.042   1.976   5.204
17933SOL    HW154143   9.024   2.043   5.132
17933SOL    HW254144   9.039   2.022   5.293
17934SOL     OW54145   7.570   2.505   4.287
17934SOL    HW154146   7.525   2.417   4.304
17934SOL    HW254147   7.569   2.559   4.371
17935SOL     OW54148   9.290   3.629   4.083
17935SOL    HW154149   9.344   3.600   4.163
17935SOL    HW254150   9.320   3.719   4.054
17936SOL     OW54151   7.475   3.458   3.841
17936SOL    HW154152   7.456   3.362   3.862
17936SOL    HW254153   7.442   3.516   3.916
17937SOL     OW54154   9.137   2.784   4.336
17937SOL    HW154155   9.232   2.755   4.344
17937SOL    HW254156   9.129   2.849   4.261
17938SOL     OW54157   9.089   2.970   4.156
17938SOL    HW154158   9.175   2.972   4.104
17938SOL    HW254159   9.103   3.017   4.244
17939SOL     OW54160   7.561   2.599   5.321
17939SOL    HW154161   7.649   2.586   5.366
17939SOL    HW254162   7.548   2.696   5.299
17940SOL     OW54163   8.061   3.227   4.450
17940SOL    HW154164   8.012   3.140   4.459
17940SOL    HW254165   8.038   3.270   4.363
17941SOL     OW54166   8.741   3.090   5.147
17941SOL    HW154167   8.778   3.017   5.089
17941SOL    HW254168   8.793   3.095   5.232
17942SOL     OW54169   8.257   1.866   4.226
17942SOL    HW154170   8.297   1.957   4.217
17942SOL    HW254171   8.157   1.874   4.232
17943SOL     OW54172   7.645   2.838   4.988
17943SOL    HW154173   7.734   2.793   4.974
17943SOL    HW254174   7.572   2.773   4.969
17944SOL     OW54175   8.973   2.861   3.914
17944SOL    HW154176   8.910   2.785   3.927
17944SOL    HW254177   9.021   2.879   4.000
17945SOL     OW54178   8.635   3.654   5.340
17945SOL    HW154179   8.659   3.714   5.264
17945SOL    HW254180   8.642   3.559   5.310
17946SOL     OW54181   7.765   2.113   5.525
17946SOL    HW154182   7.836   2.184   5.531
17946SOL    HW254183   7.677   2.152   5.553
17947SOL     OW54184   8.914   3.279   4.677
17947SOL    HW154185   8.855   3.285   4.757
17947SOL    HW254186   8.899   3.191   4.631
17948SOL     OW54187   9.115   3.576   4.296
17948SOL    HW154188   9.074   3.553   4.208
17948SOL    HW254189   9.097   3.502   4.361
17949SOL     OW54190   8.046   2.591   3.994
17949SOL    HW154191   8.070   2.660   3.926
17949SOL    HW254192   7.968   2.624   4.048
17950SOL     OW54193   8.729   2.207   4.668
17950SOL    HW154194   8.643   2.157   4.655
17950SOL    HW254195   8.791   2.153   4.724
17951SOL     OW54196   9.024   3.524   4.031
17951SOL    HW154197   9.113   3.570   4.034
17951SOL    HW254198   9.003   3.500   3.936
17952SOL     OW54199   8.255   2.467   5.189
17952SOL    HW154200   8.208   2.464   5.278
17952SOL    HW254201   8.204   2.412   5.123
17953SOL     OW54202   8.842   2.331   5.398
17953SOL    HW154203   8.822   2.374   5.486
17953SOL    HW254204   8.920   2.269   5.407
17954SOL     OW54205   8.421   2.752   5.296
17954SOL    HW154206   8.467   2.668   5.267
17954SOL    HW254207   8.365   2.786   5.221
17955SOL     OW54208   8.439   2.272   4.966
17955SOL    HW154209   8.362   2.306   5.020
17955SOL    HW254210   8.405   2.221   4.887
17956SOL     OW54211   8.489   2.563   4.153
17956SOL    HW154212   8.515   2.559   4.249
17956SOL    HW254213   8.404   2.512   4.139
17957SOL     OW54214   7.524   2.673   4.513
17957SOL    HW154215   7.623   2.661   4.522
17957SOL    HW254216   7.500   2.768   4.534
17958SOL     OW54217   7.578   3.683   5.295
17958SOL    HW154218   7.568   3.668   5.394
17958SOL    HW254219   7.492   3.719   5.259
17959SOL     OW54220   8.313   2.210   3.919
17959SOL    HW154221   8.372   2.273   3.870
17959SOL    HW254222   8.332   2.116   3.890
17960SOL     OW54223   9.167   2.447   5.555
17960SOL    HW154224   9.141   2.536   5.519
17960SOL    HW254225   9.165   2.379   5.482
17961SOL     OW54226   8.810   3.006   4.269
17961SOL    HW154227   8.893   2.977   4.221
17961SOL    HW254228   8.761   3.073   4.213
17962SOL     OW54229   7.998   2.058   4.609
17962SOL    HW154230   7.993   2.053   4.709
17962SOL    HW254231   8.000   2.154   4.580
17963SOL     OW54232   8.456   3.318   4.201
17963SOL    HW154233   8.410   3.390   4.149
17963SOL    HW254234   8.452   3.338   4.299
17964SOL     OW54235   7.799   3.663   4.577
17964SOL    HW154236   7.849   3.577   4.583
17964SOL    HW254237   7.864   3.740   4.574
17965SOL     OW54238   9.243   2.928   4.597
17965SOL    HW154239   9.181   2.913   4.521
17965SOL    HW254240   9.191   2.939   4.682
17966SOL     OW54241   8.675   3.412   5.230
17966SOL    HW154242   8.681   3.335   5.294
17966SOL    HW254243   8.623   3.386   5.150
17967SOL     OW54244   7.769   2.805   3.966
17967SOL    HW154245   7.851   2.844   3.924
17967SOL    HW254246   7.742   2.723   3.917
17968SOL     OW54247   8.906   2.597   4.452
17968SOL    HW154248   8.901   2.532   4.527
17968SOL    HW254249   8.986   2.656   4.465
17969SOL     OW54250   7.909   3.128   5.451
17969SOL    HW154251   7.859   3.129   5.365
17969SOL    HW254252   7.846   3.110   5.527
17970SOL     OW54253   8.559   3.638   3.961
17970SOL    HW154254   8.499   3.576   4.011
17970SOL    HW254255   8.590   3.594   3.876
17971SOL     OW54256   7.650   2.147   5.222
17971SOL    HW154257   7.570   2.207   5.209
17971SOL    HW254258   7.640   2.098   5.308
17972SOL     OW54259   9.080   3.239   3.805
17972SOL    HW154260   9.048   3.333   3.795
17972SOL    HW254261   9.004   3.176   3.793
17973SOL     OW54262   7.912   3.605   4.047
17973SOL    HW154263   7.945   3.644   4.133
17973SOL    HW254264   7.988   3.598   3.982
17974SOL     OW54265   8.848   1.969   4.150
17974SOL    HW154266   8.824   1.932   4.060
17974SOL    HW254267   8.947   1.985   4.154
17975SOL     OW54268   7.697   3.647   4.965
17975SOL    HW154269   7.754   3.582   5.015
17975SOL    HW254270   7.681   3.614   4.872
17976SOL     OW54271   8.388   3.560   4.628
17976SOL    HW154272   8.468   3.503   4.649
17976SOL    HW254273   8.339   3.520   4.551
17977SOL     OW54274   7.830   2.562   4.204
17977SOL    HW154275   7.875   2.472   4.201
17977SOL    HW254276   7.736   2.551   4.237
17978SOL     OW54277   8.995   2.084   5.453
17978SOL    HW154278   8.990   2.121   5.545
17978SOL    HW254279   8.923   2.015   5.441
17979SOL     OW54280   8.062   1.984   3.841
17979SOL    HW154281   8.160   1.962   3.848
17979SOL    HW254282   8.031   1.967   3.748
17980SOL     OW54283   8.229   2.126   5.473
17980SOL    HW154284   8.296   2.065   5.516
17980SOL    HW254285   8.156   2.145   5.538
17981SOL     OW54286   8.336   3.376   4.919
17981SOL    HW154287   8.313   3.351   4.825
17981SOL    HW254288   8.397   3.307   4.958
17982SOL     OW54289   8.799   2.452   5.157
17982SOL    HW154290   8.827   2.409   5.242
17982SOL    HW254291   8.824   2.548   5.158
17983SOL     OW54292   8.251   3.264   4.648
17983SOL    HW154293   8.341   3.278   4.606
17983SOL    HW254294   8.180   3.266   4.577
17984SOL     OW54295   8.370   2.365   4.623
17984SOL    HW154296   8.345   2.356   4.527
17984SOL    HW254297   8.418   2.283   4.654
17985SOL     OW54298   7.987   1.926   4.236
17985SOL    HW154299   7.906   1.927   4.294
17985SOL    HW254300   7.990   2.009   4.181
17986SOL     OW54301   8.882   3.050   3.765
17986SOL    HW154302   8.914   2.974   3.822
17986SOL    HW254303   8.790   3.077   3.795
17987SOL     OW54304   7.745   1.897   3.895
17987SOL    HW154305   7.794   1.981   3.874
17987SOL    HW254306   7.807   1.832   3.940
17988SOL     OW54307   8.383   2.098   4.204
17988SOL    HW154308   8.335   2.139   4.126
17988SOL    HW254309   8.482   2.096   4.185
17989SOL     OW54310   8.524   2.545   5.188
17989SOL    HW154311   8.444   2.484   5.191
17989SOL    HW254312   8.605   2.492   5.164
17990SOL     OW54313   8.675   3.432   4.517
17990SOL    HW154314   8.696   3.506   4.452
17990SOL    HW254315   8.743   3.432   4.590
17991SOL     OW54316   7.907   3.014   4.465
17991SOL    HW154317   7.836   2.987   4.530
17991SOL    HW254318   7.881   2.986   4.372
17992SOL     OW54319   8.719   3.659   4.315
17992SOL    HW154320   8.763   3.723   4.251
17992SOL    HW254321   8.669   3.711   4.385
17993SOL     OW54322   8.480   2.411   3.740
17993SOL    HW154323   8.439   2.493   3.701
17993SOL    HW254324   8.544   2.437   3.813
17994SOL     OW54325   7.526   2.418   5.110
17994SOL    HW154326   7.618   2.417   5.069
17994SOL    HW254327   7.520   2.492   5.177
17995SOL     OW54328   8.009   2.084   4.871
17995SOL    HW154329   8.047   2.000   4.908
17995SOL    HW254330   7.921   2.103   4.915
17996SOL     OW54331   8.314   2.316   4.366
17996SOL    HW154332   8.282   2.388   4.304
17996SOL    HW254333   8.338   2.235   4.313
17997SOL     OW54334   8.465   1.901   4.477
17997SOL    HW154335   8.393   1.906   4.408
17997SOL    HW254336   8.441   1.832   4.546
17998SOL     OW54337   8.877   3.035   4.591
17998SOL    HW154338   8.822   2.951   4.584
17998SOL    HW254339   8.903   3.064   4.499
17999SOL     OW54340   8.914   2.452   4.716
17999SOL    HW154341   8.884   2.357   4.723
17999SOL    HW254342   8.987   2.468   4.782
18000SOL     OW54343   9.305   2.695   4.101
18000SOL    HW154344   9.347   2.631   4.165
18000SOL    HW254345   9.267   2.644   4.023
18001SOL     OW54346   7.936   3.247   3.898
18001SOL    HW154347   7.849   3.232   3.945
18001SOL    HW254348   7.919   3.273   3.803
18002SOL     OW54349   9.112   3.142   4.381
18002SOL    HW154350   9.211   3.150   4.395
18002SOL    HW254351   9.067   3.226   4.412
18003SOL     OW54352   8.838   2.437   3.802
18003SOL    HW154353   8.784   2.416   3.883
18003SOL    HW254354   8.929   2.396   3.811
18004SOL     OW54355   7.975   2.118   4.052
18004SOL    HW154356   8.002   2.059   3.977
18004SOL    HW254357   7.975   2.213   4.021
18005SOL     OW54358   9.202   3.085   5.312
18005SOL    HW154359   9.293   3.046   5.299
18005SOL    HW254360   9.210   3.181   5.336
18006SOL     OW54361   8.512   3.209   5.064
18006SOL    HW154362   8.432   3.186   5.119
18006SOL    HW254363   8.595   3.183   5.113
18007SOL     OW54364   9.040   3.491   5.349
18007SOL    HW154365   9.067   3.525   5.259
18007SOL    HW254366   9.119   3.453   5.395
18008SOL     OW54367   8.559   3.057   4.824
18008SOL    HW154368   8.519   3.101   4.905
18008SOL    HW254369   8.518   3.094   4.741
18009SOL     OW54370   9.086   2.961   4.803
18009SOL    HW154371   9.091   3.042   4.862
18009SOL    HW254372   9.000   2.963   4.752
18010SOL     OW54373   8.363   1.951   5.126
18010SOL    HW154374   8.388   1.931   5.031
18010SOL    HW254375   8.435   2.007   5.168
18011SOL     OW54376   8.428   2.978   5.443
18011SOL    HW154377   8.329   2.984   5.453
18011SOL    HW254378   8.451   2.898   5.387
18012SOL     OW54379   8.153   2.912   4.092
18012SOL    HW154380   8.139   2.919   4.191
18012SOL    HW254381   8.237   2.861   4.074
18013SOL     OW54382   7.858   2.675   4.975
18013SOL    HW154383   7.944   2.687   5.025
18013SOL    HW254384   7.816   2.588   5.002
18014SOL     OW54385   8.722   2.248   4.986
18014SOL    HW154386   8.743   2.322   5.050
18014SOL    HW254387   8.633   2.265   4.943
18015SOL     OW54388   7.512   3.426   5.055
18015SOL    HW154389   7.466   3.508   5.021
18015SOL    HW254390   7.610   3.445   5.064
18016SOL     OW54391   7.815   2.962   4.225
18016SOL    HW154392   7.808   3.045   4.169
18016SOL    HW254393   7.819   2.882   4.165
18017SOL     OW54394   8.014   2.399   4.589
18017SOL    HW154395   8.026   2.465   4.515
18017SOL    HW254396   8.060   2.433   4.672
18018SOL     OW54397   8.700   3.210   4.112
18018SOL    HW154398   8.750   3.287   4.152
18018SOL    HW254399   8.605   3.212   4.144
18019SOL     OW54400   8.720   3.307   4.866
18019SOL    HW154401   8.767   3.320   4.953
18019SOL    HW254402   8.654   3.233   4.875
18020SOL     OW54403   9.030   2.501   4.196
18020SOL    HW154404   8.999   2.562   4.269
18020SOL    HW254405   9.080   2.553   4.127
18021SOL     OW54406   7.802   3.372   5.053
18021SOL    HW154407   7.781   3.328   4.966
18021SOL    HW254408   7.899   3.398   5.056
18022SOL     OW54409   7.850   2.613   5.322
18022SOL    HW154410   7.918   2.668   5.275
18022SOL    HW254411   7.890   2.525   5.349
18023SOL     OW54412   9.035   2.641   5.394
18023SOL    HW154413   8.943   2.679   5.389
18023SOL    HW254414   9.095   2.688   5.329
18024SOL     OW54415   8.461   1.967   5.494
18024SOL    HW154416   8.467   2.052   5.442
18024SOL    HW254417   8.493   1.891   5.437
18025SOL     OW54418   7.952   1.912   5.464
18025SOL    HW154419   7.910   1.855   5.394
18025SOL    HW254420   7.886   1.981   5.496
18026SOL     OW54421   8.021   2.732   4.753
18026SOL    HW154422   8.065   2.821   4.744
18026SOL    HW254423   7.958   2.732   4.830
18027SOL     OW54424   8.808   2.724   4.769
18027SOL    HW154425   8.733   2.724   4.703
18027SOL    HW254426   8.845   2.632   4.778
18028SOL     OW54427   8.657   2.387   3.999
18028SOL    HW154428   8.670   2.303   4.053
18028SOL    HW254429   8.628   2.461   4.059
18029SOL     OW54430   7.755   2.075   4.955
18029SOL    HW154431   7.732   2.112   5.045
18029SOL    HW254432   7.725   1.980   4.949
18030SOL     OW54433   7.485   3.172   5.006
18030SOL    HW154434   7.538   3.123   5.074
18030SOL    HW254435   7.507   3.270   5.011
18031SOL     OW54436   8.180   2.496   4.788
18031SOL    HW154437   8.239   2.470   4.712
18031SOL    HW254438   8.152   2.592   4.777
18032SOL     OW54439   9.176   2.797   5.578
18032SOL    HW154440   9.130   2.790   5.489
18032SOL    HW254441   9.114   2.841   5.644
18033SOL     OW54442   7.755   1.925   4.342
18033SOL    HW154443   7.744   2.019   4.375
18033SOL    HW254444   7.750   1.862   4.419
18034SOL     OW54445   9.070   2.229   4.098
18034SOL    HW154446   9.072   2.153   4.162
18034SOL    HW254447   9.022   2.306   4.138
18035SOL     OW54448   8.471   2.628   4.690
18035SOL    HW154449   8.486   2.649   4.786
18035SOL    HW254450   8.441   2.533   4.681
18036SOL     OW54451   8.428   3.435   5.424
18036SOL    HW154452   8.408   3.479   5.336
18036SOL    HW254453   8.467   3.344   5.408
18037SOL     OW54454   9.307   3.380   5.329
18037SOL    HW154455   9.321   3.407   5.234
18037SOL    HW254456   9.390   3.402   5.382
18038SOL     OW54457   7.798   2.760   5.528
18038SOL    HW154458   7.874   2.804   5.576
18038SOL    HW254459   7.833   2.713   5.446
18039SOL     OW54460   8.988   2.136   3.849
18039SOL    HW154461   8.927   2.061   3.872
18039SOL    HW254462   9.010   2.188   3.932
18040SOL     OW54463   8.751   2.700   3.766
18040SOL    HW154464   8.785   2.607   3.781
18040SOL    HW254465   8.769   2.727   3.671
18041SOL     OW54466   8.516   3.195   4.573
18041SOL    HW154467   8.523   3.111   4.518
18041SOL    HW254468   8.578   3.264   4.537
18042SOL     OW54469   7.767   2.672   4.673
18042SOL    HW154470   7.860   2.708   4.678
18042SOL    HW254471   7.761   2.587   4.725
18043SOL     OW54472   7.787   2.371   4.730
18043SOL    HW154473   7.735   2.288   4.713
18043SOL    HW254474   7.864   2.376   4.666
18044SOL     OW54475   8.586   2.242   5.402
18044SOL    HW154476   8.541   2.305   5.466
18044SOL    HW254477   8.679   2.273   5.385
18045SOL     OW54478   8.608   2.069   5.201
18045SOL    HW154479   8.608   2.133   5.278
18045SOL    HW254480   8.636   2.117   5.118
18046SOL     OW54481   7.456   3.188   3.924
18046SOL    HW154482   7.363   3.209   3.893
18046SOL    HW254483   7.466   3.089   3.937
18047SOL     OW54484   7.536   3.663   4.651
18047SOL    HW154485   7.494   3.577   4.624
18047SOL    HW254486   7.630   3.666   4.617
18048SOL     OW54487   7.952   3.430   4.634
18048SOL    HW154488   8.018   3.504   4.643
18048SOL    HW254489   7.996   3.351   4.592
18049SOL     OW54490   8.450   2.658   4.962
18049SOL    HW154491   8.491   2.626   5.048
18049SOL    HW254492   8.354   2.631   4.959
18050SOL     OW54493   7.488   2.406   4.838
18050SOL    HW154494   7.573   2.373   4.797
18050SOL    HW254495   7.501   2.421   4.936
18051SOL     OW54496   7.637   2.382   5.446
18051SOL    HW154497   7.696   2.342   5.376
18051SOL    HW254498   7.579   2.453   5.405
18052SOL     OW54499   8.817   2.812   5.384
18052SOL    HW154500   8.856   2.901   5.404
18052SOL    HW254501   8.827   2.792   5.287
18053SOL     OW54502   8.263   2.434   4.049
18053SOL    HW154503   8.270   2.345   4.003
18053SOL    HW254504   8.169   2.468   4.041
18054SOL     OW54505   9.105   2.466   4.930
18054SOL    HW154506   9.067   2.397   4.992
18054SOL    HW254507   9.187   2.430   4.886
18055SOL     OW54508   7.700   3.426   5.468
18055SOL    HW154509   7.670   3.483   5.544
18055SOL    HW254510   7.693   3.329   5.494
18056SOL     OW54511   8.119   2.326   4.993
18056SOL    HW154512   8.085   2.237   4.963
18056SOL    HW254513   8.145   2.380   4.913
18057SOL     OW54514   8.378   3.540   5.189
18057SOL    HW154515   8.354   3.522   5.094
18057SOL    HW254516   8.408   3.634   5.199
18058SOL     OW54517   7.921   2.362   3.915
18058SOL    HW154518   7.982   2.442   3.919
18058SOL    HW254519   7.826   2.393   3.922
18059SOL     OW54520   7.607   2.999   5.190
18059SOL    HW154521   7.629   2.938   5.266
18059SOL    HW254522   7.617   2.950   5.104
18060SOL     OW54523   8.795   2.921   4.958
18060SOL    HW154524   8.819   2.858   4.884
18060SOL    HW254525   8.705   2.961   4.940
18061SOL     OW54526   8.750   2.717   4.033
18061SOL    HW154527   8.664   2.686   4.075
18061SOL    HW254528   8.746   2.703   3.934
18062SOL     OW54529   9.207   3.609   4.878
18062SOL    HW154530   9.268   3.639   4.805
18062SOL    HW254531   9.169   3.520   4.856
18063SOL     OW54532   8.700   3.593   4.852
18063SOL    HW154533   8.784   3.598   4.798
18063SOL    HW254534   8.677   3.497   4.870
18064SOL     OW54535   7.531   3.120   4.746
18064SOL    HW154536   7.526   3.119   4.846
18064SOL    HW254537   7.448   3.079   4.708
18065SOL     OW54538   8.136   3.524   5.440
18065SOL    HW154539   8.080   3.605   5.449
18065SOL    HW254540   8.188   3.528   5.354
18066SOL     OW54541   9.174   1.997   4.247
18066SOL    HW154542   9.247   1.980   4.180
18066SOL    HW254543   9.143   1.910   4.285
18067SOL     OW54544   8.836   3.435   4.201
18067SOL    HW154545   8.903   3.447   4.127
18067SOL    HW254546   8.796   3.524   4.224
18068SOL     OW54547   7.578   3.656   5.575
18068SOL    HW154548   7.537   3.582   5.628
18068SOL    HW254549   7.642   3.707   5.633
18069SOL     OW54550   8.728   2.789   4.396
18069SOL    HW154551   8.788   2.708   4.398
18069SOL    HW254552   8.768   2.858   4.336
18070SOL     OW54553   8.278   3.135   5.146
18070SOL    HW154554   8.273   3.168   5.241
18070SOL    HW254555   8.192   3.154   5.100
18071SOL     OW54556   8.120   3.478   3.878
18071SOL    HW154557   8.129   3.488   3.779
18071SOL    HW254558   8.080   3.389   3.899
18072SOL     OW54559   9.098   3.582   5.118
18072SOL    HW154560   9.151   3.592   5.034
18072SOL    HW254561   9.071   3.672   5.152
18073SOL     OW54562   9.289   2.037   4.687
18073SOL    HW154563   9.328   1.952   4.651
18073SOL    HW254564   9.191   2.039   4.668
18074SOL     OW54565   7.711   2.188   4.444
18074SOL    HW154566   7.632   2.239   4.410
18074SOL    HW254567   7.702   2.173   4.542
18075SOL     OW54568   8.642   3.474   3.755
18075SOL    HW154569   8.648   3.381   3.792
18075SOL    HW254570   8.583   3.474   3.675
18076SOL     OW54571   8.270   2.864   5.096
18076SOL    HW154572   8.310   2.863   5.004
18076SOL    HW254573   8.280   2.956   5.136
18077SOL     OW54574   8.364   2.772   4.015
18077SOL    HW154575   8.427   2.810   3.947
18077SOL    HW254576   8.404   2.689   4.054
18078SOL     OW54577   8.952   3.469   3.768
18078SOL    HW154578   8.860   3.506   3.775
18078SOL    HW254579   8.990   3.489   3.678
18079SOL     OW54580   7.820   3.150   5.214
18079SOL    HW154581   7.807   3.243   5.180
18079SOL    HW254582   7.736   3.098   5.201
18080SOL     OW54583   9.062   3.154   5.013
18080SOL    HW154584   9.122   3.157   5.093
18080SOL    HW254585   8.987   3.218   5.026
18081SOL     OW54586   8.487   2.960   4.420
18081SOL    HW154587   8.417   2.913   4.474
18081SOL    HW254588   8.546   2.892   4.377
18082SOL     OW54589   8.462   2.098   4.695
18082SOL    HW154590   8.454   2.062   4.602
18082SOL    HW254591   8.460   2.022   4.760
18083SOL     OW54592   8.038   3.349   4.215
18083SOL    HW154593   8.080   3.291   4.145
18083SOL    HW254594   7.994   3.428   4.171
18084SOL     OW54595   9.157   2.247   5.105
18084SOL    HW154596   9.230   2.316   5.109
18084SOL    HW254597   9.185   2.172   5.046
18085SOL     OW54598   7.703   3.210   4.014
18085SOL    HW154599   7.607   3.211   3.987
18085SOL    HW254600   7.715   3.263   4.098
18086SOL     OW54601   7.553   2.875   5.450
18086SOL    HW154602   7.476   2.842   5.504
18086SOL    HW254603   7.638   2.845   5.492
18087SOL     OW54604   8.120   2.065   5.213
18087SOL    HW154605   8.210   2.049   5.173
18087SOL    HW254606   8.128   2.070   5.312
18088SOL     OW54607   7.523   2.207   3.757
18088SOL    HW154608   7.431   2.179   3.728
18088SOL    HW254609   7.554   2.284   3.701
18089SOL     OW54610   8.888   2.718   5.122
18089SOL    HW154611   8.831   2.770   5.059
18089SOL    HW254612   8.984   2.730   5.098
18090SOL     OW54613   7.520   2.028   4.042
18090SOL    HW154614   7.503   2.111   3.988
18090SOL    HW254615   7.610   1.991   4.020
18091SOL     OW54616   8.631   3.197   3.843
18091SOL    HW154617   8.532   3.186   3.845
18091SOL    HW254618   8.665   3.212   3.936
18092SOL     OW54619   8.061   2.704   5.155
18092SOL    HW154620   8.117   2.785   5.138
18092SOL    HW254621   8.120   2.624   5.158
18093SOL     OW54622   8.941   3.629   4.683
18093SOL    HW154623   8.974   3.693   4.614
18093SOL    HW254624   9.007   3.623   4.758
18094SOL     OW54625   8.164   2.427   5.432
18094SOL    HW154626   8.183   2.492   5.506
18094SOL    HW254627   8.224   2.347   5.441
18095SOL     OW54628   8.898   3.082   5.357
18095SOL    HW154629   8.889   3.072   5.456
18095SOL    HW254630   8.994   3.075   5.331
18096SOL     OW54631   7.838   3.603   5.284
18096SOL    HW154632   7.747   3.644   5.282
18096SOL    HW254633   7.831   3.509   5.316
18097SOL     OW54634   9.122   2.745   4.978
18097SOL    HW154635   9.095   2.656   4.941
18097SOL    HW254636   9.123   2.813   4.905
18098SOL     OW54637   8.673   2.187   4.173
18098SOL    HW154638   8.738   2.113   4.162
18098SOL    HW254639   8.693   2.237   4.257
18099SOL     OW54640   8.042   2.607   4.376
18099SOL    HW154641   8.092   2.692   4.357
18099SOL    HW254642   7.954   2.609   4.328
18100SOL     OW54643   9.225   2.204   5.366
18100SOL    HW154644   9.208   2.235   5.272
18100SOL    HW254645   9.141   2.167   5.404
18101SOL     OW54646   9.178   2.796   5.241
18101SOL    HW154647   9.216   2.887   5.256
18101SOL    HW254648   9.170   2.779   5.142
18102SOL     OW54649   8.307   3.236   3.740
18102SOL    HW154650   8.261   3.251   3.828
18102SOL    HW254651   8.351   3.321   3.710
18103SOL     OW54652   8.109   3.652   4.677
18103SOL    HW154653   8.063   3.740   4.664
18103SOL    HW254654   8.208   3.664   4.670
18104SOL     OW54655   8.307   2.818   4.585
18104SOL    HW154656   8.361   2.749   4.633
18104SOL    HW254657   8.275   2.887   4.651
18105SOL     OW54658   8.531   2.846   3.811
18105SOL    HW154659   8.508   2.899   3.729
18105SOL    HW254660   8.612   2.790   3.792
18106SOL     OW54661   9.309   3.431   4.575
18106SOL    HW154662   9.238   3.419   4.505
18106SOL    HW254663   9.310   3.352   4.635
18107SOL     OW54664   7.669   3.176   5.568
18107SOL    HW154665   7.604   3.103   5.547
18107SOL    HW254666   7.673   3.190   5.666
18108SOL     OW54667   7.527   3.102   4.377
18108SOL    HW154668   7.526   3.055   4.465
18108SOL    HW254669   7.609   3.074   4.326
18109SOL     OW54670   8.120   3.253   5.348
18109SOL    HW154671   8.042   3.203   5.386
18109SOL    HW254672   8.117   3.348   5.379
18110SOL     OW54673   9.272   2.054   4.951
18110SOL    HW154674   9.268   1.964   4.995
18110SOL    HW254675   9.275   2.043   4.852
18111SOL     OW54676   7.876   2.286   4.244
18111SOL    HW154677   7.906   2.214   4.182
18111SOL    HW254678   7.837   2.246   4.327
18112SOL     OW54679   9.153   3.349   4.828
18112SOL    HW154680   9.060   3.324   4.801
18112SOL    HW254681   9.179   3.299   4.910
18113SOL     OW54682   7.765   2.409   5.004
18113SOL    HW154683   7.803   2.350   5.076
18113SOL    HW254684   7.805   2.383   4.916
18114SOL     OW54685   8.260   3.448   4.411
18114SOL    HW154686   8.292   3.458   4.317
18114SOL    HW254687   8.181   3.386   4.413
18115SOL     OW54688   8.872   2.076   4.836
18115SOL    HW154689   8.924   2.011   4.891
18115SOL    HW254690   8.823   2.139   4.897
18116SOL     OW54691   8.449   1.896   4.878
18116SOL    HW154692   8.386   1.824   4.847
18116SOL    HW254693   8.542   1.860   4.878
18117SOL     OW54694   8.218   3.192   4.025
18117SOL    HW154695   8.172   3.105   4.042
18117SOL    HW254696   8.309   3.189   4.066
18118SOL     OW54697   8.066   3.429   5.008
18118SOL    HW154698   8.061   3.511   5.065
18118SOL    HW254699   8.155   3.426   4.963
18119SOL     OW54700   8.800   1.914   3.892
18119SOL    HW154701   8.835   1.873   3.808
18119SOL    HW254702   8.710   1.876   3.912
18120SOL     OW54703   8.748   2.315   4.415
18120SOL    HW154704   8.689   2.395   4.419
18120SOL    HW254705   8.763   2.280   4.508
18121SOL     OW54706   9.041   2.083   4.606
18121SOL    HW154707   8.957   2.082   4.660
18121SOL    HW254708   9.043   2.166   4.550
18122SOL     OW54709   7.487   2.939   4.024
18122SOL    HW154710   7.586   2.928   4.015
18122SOL    HW254711   7.447   2.853   4.056
18123SOL     OW54712   8.323   3.508   4.061
18123SOL    HW154713   8.246   3.473   4.007
18123SOL    HW254714   8.291   3.579   4.123
18124SOL     OW54715   7.678   2.490   5.699
18124SOL    HW154716   7.585   2.488   5.736
18124SOL    HW254717   7.679   2.451   5.607
18125SOL     OW54718   7.673   2.137   6.582
18125SOL    HW154719   7.708   2.120   6.674
18125SOL    HW254720   7.585   2.092   6.570
18126SOL     OW54721   7.467   2.230   6.233
18126SOL    HW154722   7.385   2.273   6.272
18126SOL    HW254723   7.439   2.157   6.170
18127SOL     OW54724   8.017   3.137   6.751
18127SOL    HW154725   7.924   3.130   6.714
18127SOL    HW254726   8.028   3.226   6.795
18128SOL     OW54727   9.003   3.373   6.289
18128SOL    HW154728   8.946   3.357   6.370
18128SOL    HW254729   8.944   3.383   6.209
18129SOL     OW54730   8.583   2.565   6.303
18129SOL    HW154731   8.640   2.643   6.278
18129SOL    HW254732   8.523   2.591   6.379
18130SOL     OW54733   9.203   2.469   5.817
18130SOL    HW154734   9.191   2.456   5.718
18130SOL    HW254735   9.173   2.388   5.866
18131SOL     OW54736   8.216   3.006   6.609
18131SOL    HW154737   8.138   3.023   6.669
18131SOL    HW254738   8.250   3.093   6.573
18132SOL     OW54739   8.298   2.660   7.409
18132SOL    HW154740   8.294   2.736   7.474
18132SOL    HW254741   8.320   2.696   7.318
18133SOL     OW54742   8.133   2.874   6.251
18133SOL    HW154743   8.202   2.858   6.321
18133SOL    HW254744   8.060   2.931   6.289
18134SOL     OW54745   8.134   3.023   7.389
18134SOL    HW154746   8.194   3.102   7.403
18134SOL    HW254747   8.048   3.054   7.348
18135SOL     OW54748   7.783   3.297   6.647
18135SOL    HW154749   7.705   3.266   6.594
18135SOL    HW254750   7.841   3.355   6.590
18136SOL     OW54751   8.908   3.367   6.925
18136SOL    HW154752   8.932   3.461   6.951
18136SOL    HW254753   8.892   3.313   7.007
18137SOL     OW54754   7.886   2.254   7.085
18137SOL    HW154755   7.968   2.198   7.094
18137SOL    HW254756   7.805   2.196   7.089
18138SOL     OW54757   9.051   2.309   6.323
18138SOL    HW154758   8.977   2.355   6.273
18138SOL    HW254759   9.102   2.377   6.376
18139SOL     OW54760   7.679   3.575   6.069
18139SOL    HW154761   7.713   3.652   6.123
18139SOL    HW254762   7.723   3.575   5.979
18140SOL     OW54763   8.575   3.203   7.276
18140SOL    HW154764   8.622   3.203   7.364
18140SOL    HW254765   8.527   3.116   7.265
18141SOL     OW54766   7.678   3.296   6.124
18141SOL    HW154767   7.652   3.392   6.124
18141SOL    HW254768   7.607   3.242   6.169
18142SOL     OW54769   7.688   2.953   6.472
18142SOL    HW154770   7.702   2.869   6.524
18142SOL    HW254771   7.633   3.017   6.527
18143SOL     OW54772   8.068   3.648   7.025
18143SOL    HW154773   7.976   3.631   7.060
18143SOL    HW254774   8.096   3.740   7.051
18144SOL     OW54775   8.054   2.826   5.709
18144SOL    HW154776   8.061   2.910   5.655
18144SOL    HW254777   8.100   2.839   5.797
18145SOL     OW54778   9.042   1.976   7.066
18145SOL    HW154779   9.024   2.043   6.994
18145SOL    HW254780   9.039   2.022   7.155
18146SOL     OW54781   7.570   2.505   6.149
18146SOL    HW154782   7.525   2.417   6.166
18146SOL    HW254783   7.569   2.559   6.233
18147SOL     OW54784   9.290   3.629   5.945
18147SOL    HW154785   9.344   3.600   6.025
18147SOL    HW254786   9.320   3.719   5.916
18148SOL     OW54787   7.475   3.458   5.703
18148SOL    HW154788   7.456   3.362   5.724
18148SOL    HW254789   7.442   3.516   5.778
18149SOL     OW54790   9.137   2.784   6.198
18149SOL    HW154791   9.232   2.755   6.206
18149SOL    HW254792   9.129   2.849   6.123
18150SOL     OW54793   9.089   2.970   6.018
18150SOL    HW154794   9.175   2.972   5.966
18150SOL    HW254795   9.103   3.017   6.106
18151SOL     OW54796   7.561   2.599   7.183
18151SOL    HW154797   7.649   2.586   7.228
18151SOL    HW254798   7.548   2.696   7.161
18152SOL     OW54799   8.061   3.227   6.312
18152SOL    HW154800   8.012   3.140   6.321
18152SOL    HW254801   8.038   3.270   6.225
18153SOL     OW54802   8.741   3.090   7.009
18153SOL    HW154803   8.778   3.017   6.951
18153SOL    HW254804   8.793   3.095   7.094
18154SOL     OW54805   8.257   1.866   6.088
18154SOL    HW154806   8.297   1.957   6.079
18154SOL    HW254807   8.157   1.874   6.094
18155SOL     OW54808   7.645   2.838   6.850
18155SOL    HW154809   7.734   2.793   6.836
18155SOL    HW254810   7.572   2.773   6.831
18156SOL     OW54811   8.973   2.861   5.776
18156SOL    HW154812   8.910   2.785   5.789
18156SOL    HW254813   9.021   2.879   5.862
18157SOL     OW54814   8.635   3.654   7.202
18157SOL    HW154815   8.659   3.714   7.126
18157SOL    HW254816   8.642   3.559   7.172
18158SOL     OW54817   7.765   2.113   7.387
18158SOL    HW154818   7.836   2.184   7.393
18158SOL    HW254819   7.677   2.152   7.415
18159SOL     OW54820   8.914   3.279   6.539
18159SOL    HW154821   8.855   3.285   6.619
18159SOL    HW254822   8.899   3.191   6.493
18160SOL     OW54823   9.115   3.576   6.158
18160SOL    HW154824   9.074   3.553   6.070
18160SOL    HW254825   9.097   3.502   6.223
18161SOL     OW54826   8.046   2.591   5.856
18161SOL    HW154827   8.070   2.660   5.788
18161SOL    HW254828   7.968   2.624   5.910
18162SOL     OW54829   8.729   2.207   6.530
18162SOL    HW154830   8.643   2.157   6.517
18162SOL    HW254831   8.791   2.153   6.586
18163SOL     OW54832   9.024   3.524   5.893
18163SOL    HW154833   9.113   3.570   5.896
18163SOL    HW254834   9.003   3.500   5.798
18164SOL     OW54835   8.255   2.467   7.051
18164SOL    HW154836   8.208   2.464   7.140
18164SOL    HW254837   8.204   2.412   6.985
18165SOL     OW54838   8.842   2.331   7.260
18165SOL    HW154839   8.822   2.374   7.348
18165SOL    HW254840   8.920   2.269   7.269
18166SOL     OW54841   8.421   2.752   7.158
18166SOL    HW154842   8.467   2.668   7.129
18166SOL    HW254843   8.365   2.786   7.083
18167SOL     OW54844   8.439   2.272   6.828
18167SOL    HW154845   8.362   2.306   6.882
18167SOL    HW254846   8.405   2.221   6.749
18168SOL     OW54847   8.489   2.563   6.015
18168SOL    HW154848   8.515   2.559   6.111
18168SOL    HW254849   8.404   2.512   6.001
18169SOL     OW54850   7.524   2.673   6.375
18169SOL    HW154851   7.623   2.661   6.384
18169SOL    HW254852   7.500   2.768   6.396
18170SOL     OW54853   7.578   3.683   7.157
18170SOL    HW154854   7.568   3.668   7.256
18170SOL    HW254855   7.492   3.719   7.121
18171SOL     OW54856   8.313   2.210   5.781
18171SOL    HW154857   8.372   2.273   5.732
18171SOL    HW254858   8.332   2.116   5.752
18172SOL     OW54859   9.167   2.447   7.417
18172SOL    HW154860   9.141   2.536   7.381
18172SOL    HW254861   9.165   2.379   7.344
18173SOL     OW54862   8.810   3.006   6.131
18173SOL    HW154863   8.893   2.977   6.083
18173SOL    HW254864   8.761   3.073   6.075
18174SOL     OW54865   7.998   2.058   6.471
18174SOL    HW154866   7.993   2.053   6.571
18174SOL    HW254867   8.000   2.154   6.442
18175SOL     OW54868   8.456   3.318   6.063
18175SOL    HW154869   8.410   3.390   6.011
18175SOL    HW254870   8.452   3.338   6.161
18176SOL     OW54871   7.799   3.663   6.439
18176SOL    HW154872   7.849   3.577   6.445
18176SOL    HW254873   7.864   3.740   6.436
18177SOL     OW54874   9.243   2.928   6.459
18177SOL    HW154875   9.181   2.913   6.383
18177SOL    HW254876   9.191   2.939   6.544
18178SOL     OW54877   8.675   3.412   7.092
18178SOL    HW154878   8.681   3.335   7.156
18178SOL    HW254879   8.623   3.386   7.012
18179SOL     OW54880   7.769   2.805   5.828
18179SOL    HW154881   7.851   2.844   5.786
18179SOL    HW254882   7.742   2.723   5.779
18180SOL     OW54883   8.906   2.597   6.314
18180SOL    HW154884   8.901   2.532   6.389
18180SOL    HW254885   8.986   2.656   6.327
18181SOL     OW54886   7.909   3.128   7.313
18181SOL    HW154887   7.859   3.129   7.227
18181SOL    HW254888   7.846   3.110   7.389
18182SOL     OW54889   8.559   3.638   5.823
18182SOL    HW154890   8.499   3.576   5.873
18182SOL    HW254891   8.590   3.594   5.738
18183SOL     OW54892   7.650   2.147   7.084
18183SOL    HW154893   7.570   2.207   7.071
18183SOL    HW254894   7.640   2.098   7.170
18184SOL     OW54895   9.080   3.239   5.667
18184SOL    HW154896   9.048   3.333   5.657
18184SOL    HW254897   9.004   3.176   5.655
18185SOL     OW54898   7.912   3.605   5.909
18185SOL    HW154899   7.945   3.644   5.995
18185SOL    HW254900   7.988   3.598   5.844
18186SOL     OW54901   8.848   1.969   6.012
18186SOL    HW154902   8.824   1.932   5.922
18186SOL    HW254903   8.947   1.985   6.016
18187SOL     OW54904   7.697   3.647   6.827
18187SOL    HW154905   7.754   3.582   6.877
18187SOL    HW254906   7.681   3.614   6.734
18188SOL     OW54907   8.388   3.560   6.490
18188SOL    HW154908   8.468   3.503   6.511
18188SOL    HW254909   8.339   3.520   6.413
18189SOL     OW54910   7.830   2.562   6.066
18189SOL    HW154911   7.875   2.472   6.063
18189SOL    HW254912   7.736   2.551   6.099
18190SOL     OW54913   8.995   2.084   7.315
18190SOL    HW154914   8.990   2.121   7.407
18190SOL    HW254915   8.923   2.015   7.303
18191SOL     OW54916   8.062   1.984   5.703
18191SOL    HW154917   8.160   1.962   5.710
18191SOL    HW254918   8.031   1.967   5.610
18192SOL     OW54919   8.229   2.126   7.335
18192SOL    HW154920   8.296   2.065   7.378
18192SOL    HW254921   8.156   2.145   7.400
18193SOL     OW54922   8.336   3.376   6.781
18193SOL    HW154923   8.313   3.351   6.687
18193SOL    HW254924   8.397   3.307   6.820
18194SOL     OW54925   8.799   2.452   7.019
18194SOL    HW154926   8.827   2.409   7.104
18194SOL    HW254927   8.824   2.548   7.020
18195SOL     OW54928   8.251   3.264   6.510
18195SOL    HW154929   8.341   3.278   6.468
18195SOL    HW254930   8.180   3.266   6.439
18196SOL     OW54931   8.370   2.365   6.485
18196SOL    HW154932   8.345   2.356   6.389
18196SOL    HW254933   8.418   2.283   6.516
18197SOL     OW54934   7.987   1.926   6.098
18197SOL    HW154935   7.906   1.927   6.156
18197SOL    HW254936   7.990   2.009   6.043
18198SOL     OW54937   8.882   3.050   5.627
18198SOL    HW154938   8.914   2.974   5.684
18198SOL    HW254939   8.790   3.077   5.657
18199SOL     OW54940   7.745   1.897   5.757
18199SOL    HW154941   7.794   1.981   5.736
18199SOL    HW254942   7.807   1.832   5.802
18200SOL     OW54943   8.383   2.098   6.066
18200SOL    HW154944   8.335   2.139   5.988
18200SOL    HW254945   8.482   2.096   6.047
18201SOL     OW54946   8.524   2.545   7.050
18201SOL    HW154947   8.444   2.484   7.053
18201SOL    HW254948   8.605   2.492   7.026
18202SOL     OW54949   8.675   3.432   6.379
18202SOL    HW154950   8.696   3.506   6.314
18202SOL    HW254951   8.743   3.432   6.452
18203SOL     OW54952   7.907   3.014   6.327
18203SOL    HW154953   7.836   2.987   6.392
18203SOL    HW254954   7.881   2.986   6.234
18204SOL     OW54955   8.719   3.659   6.177
18204SOL    HW154956   8.763   3.723   6.113
18204SOL    HW254957   8.669   3.711   6.247
18205SOL     OW54958   8.480   2.411   5.602
18205SOL    HW154959   8.439   2.493   5.563
18205SOL    HW254960   8.544   2.437   5.675
18206SOL     OW54961   7.526   2.418   6.972
18206SOL    HW154962   7.618   2.417   6.931
18206SOL    HW254963   7.520   2.492   7.039
18207SOL     OW54964   8.009   2.084   6.733
18207SOL    HW154965   8.047   2.000   6.770
18207SOL    HW254966   7.921   2.103   6.777
18208SOL     OW54967   8.314   2.316   6.228
18208SOL    HW154968   8.282   2.388   6.166
18208SOL    HW254969   8.338   2.235   6.175
18209SOL     OW54970   8.465   1.901   6.339
18209SOL    HW154971   8.393   1.906   6.270
18209SOL    HW254972   8.441   1.832   6.408
18210SOL     OW54973   8.877   3.035   6.453
18210SOL    HW154974   8.822   2.951   6.446
18210SOL    HW254975   8.903   3.064   6.361
18211SOL     OW54976   8.914   2.452   6.578
18211SOL    HW154977   8.884   2.357   6.585
18211SOL    HW254978   8.987   2.468   6.644
18212SOL     OW54979   9.305   2.695   5.963
18212SOL    HW154980   9.347   2.631   6.027
18212SOL    HW254981   9.267   2.644   5.885
18213SOL     OW54982   7.936   3.247   5.760
18213SOL    HW154983   7.849   3.232   5.807
18213SOL    HW254984   7.919   3.273   5.665
18214SOL     OW54985   9.112   3.142   6.243
18214SOL    HW154986   9.211   3.150   6.257
18214SOL    HW254987   9.067   3.226   6.274
18215SOL     OW54988   8.838   2.437   5.664
18215SOL    HW154989   8.784   2.416   5.745
18215SOL    HW254990   8.929   2.396   5.673
18216SOL     OW54991   7.975   2.118   5.914
18216SOL    HW154992   8.002   2.059   5.839
18216SOL    HW254993   7.975   2.213   5.883
18217SOL     OW54994   9.202   3.085   7.174
18217SOL    HW154995   9.293   3.046   7.161
18217SOL    HW254996   9.210   3.181   7.198
18218SOL     OW54997   8.512   3.209   6.926
18218SOL    HW154998   8.432   3.186   6.981
18218SOL    HW254999   8.595   3.183   6.975
18219SOL     OW55000   9.040   3.491   7.211
18219SOL    HW155001   9.067   3.525   7.121
18219SOL    HW255002   9.119   3.453   7.257
18220SOL     OW55003   8.559   3.057   6.686
18220SOL    HW155004   8.519   3.101   6.767
18220SOL    HW255005   8.518   3.094   6.603
18221SOL     OW55006   9.086   2.961   6.665
18221SOL    HW155007   9.091   3.042   6.724
18221SOL    HW255008   9.000   2.963   6.614
18222SOL     OW55009   8.363   1.951   6.988
18222SOL    HW155010   8.388   1.931   6.893
18222SOL    HW255011   8.435   2.007   7.030
18223SOL     OW55012   8.428   2.978   7.305
18223SOL    HW155013   8.329   2.984   7.315
18223SOL    HW255014   8.451   2.898   7.249
18224SOL     OW55015   8.153   2.912   5.954
18224SOL    HW155016   8.139   2.919   6.053
18224SOL    HW255017   8.237   2.861   5.936
18225SOL     OW55018   7.858   2.675   6.837
18225SOL    HW155019   7.944   2.687   6.887
18225SOL    HW255020   7.816   2.588   6.864
18226SOL     OW55021   8.722   2.248   6.848
18226SOL    HW155022   8.743   2.322   6.912
18226SOL    HW255023   8.633   2.265   6.805
18227SOL     OW55024   7.512   3.426   6.917
18227SOL    HW155025   7.466   3.508   6.883
18227SOL    HW255026   7.610   3.445   6.926
18228SOL     OW55027   7.815   2.962   6.087
18228SOL    HW155028   7.808   3.045   6.031
18228SOL    HW255029   7.819   2.882   6.027
18229SOL     OW55030   8.014   2.399   6.451
18229SOL    HW155031   8.026   2.465   6.377
18229SOL    HW255032   8.060   2.433   6.534
18230SOL     OW55033   8.700   3.210   5.974
18230SOL    HW155034   8.750   3.287   6.014
18230SOL    HW255035   8.605   3.212   6.006
18231SOL     OW55036   8.720   3.307   6.728
18231SOL    HW155037   8.767   3.320   6.815
18231SOL    HW255038   8.654   3.233   6.737
18232SOL     OW55039   9.030   2.501   6.058
18232SOL    HW155040   8.999   2.562   6.131
18232SOL    HW255041   9.080   2.553   5.989
18233SOL     OW55042   7.802   3.372   6.915
18233SOL    HW155043   7.781   3.328   6.828
18233SOL    HW255044   7.899   3.398   6.918
18234SOL     OW55045   7.850   2.613   7.184
18234SOL    HW155046   7.918   2.668   7.137
18234SOL    HW255047   7.890   2.525   7.211
18235SOL     OW55048   9.035   2.641   7.256
18235SOL    HW155049   8.943   2.679   7.251
18235SOL    HW255050   9.095   2.688   7.191
18236SOL     OW55051   8.461   1.967   7.356
18236SOL    HW155052   8.467   2.052   7.304
18236SOL    HW255053   8.493   1.891   7.299
18237SOL     OW55054   7.952   1.912   7.326
18237SOL    HW155055   7.910   1.855   7.256
18237SOL    HW255056   7.886   1.981   7.358
18238SOL     OW55057   8.021   2.732   6.615
18238SOL    HW155058   8.065   2.821   6.606
18238SOL    HW255059   7.958   2.732   6.692
18239SOL     OW55060   8.808   2.724   6.631
18239SOL    HW155061   8.733   2.724   6.565
18239SOL    HW255062   8.845   2.632   6.640
18240SOL     OW55063   8.657   2.387   5.861
18240SOL    HW155064   8.670   2.303   5.915
18240SOL    HW255065   8.628   2.461   5.921
18241SOL     OW55066   7.755   2.075   6.817
18241SOL    HW155067   7.732   2.112   6.907
18241SOL    HW255068   7.725   1.980   6.811
18242SOL     OW55069   7.485   3.172   6.868
18242SOL    HW155070   7.538   3.123   6.936
18242SOL    HW255071   7.507   3.270   6.873
18243SOL     OW55072   8.180   2.496   6.650
18243SOL    HW155073   8.239   2.470   6.574
18243SOL    HW255074   8.152   2.592   6.639
18244SOL     OW55075   9.176   2.797   7.440
18244SOL    HW155076   9.130   2.790   7.351
18244SOL    HW255077   9.114   2.841   7.506
18245SOL     OW55078   7.755   1.925   6.204
18245SOL    HW155079   7.744   2.019   6.237
18245SOL    HW255080   7.750   1.862   6.281
18246SOL     OW55081   9.070   2.229   5.960
18246SOL    HW155082   9.072   2.153   6.024
18246SOL    HW255083   9.022   2.306   6.000
18247SOL     OW55084   8.471   2.628   6.552
18247SOL    HW155085   8.486   2.649   6.648
18247SOL    HW255086   8.441   2.533   6.543
18248SOL     OW55087   8.428   3.435   7.286
18248SOL    HW155088   8.408   3.479   7.198
18248SOL    HW255089   8.467   3.344   7.270
18249SOL     OW55090   9.307   3.380   7.191
18249SOL    HW155091   9.321   3.407   7.096
18249SOL    HW255092   9.390   3.402   7.244
18250SOL     OW55093   7.798   2.760   7.390
18250SOL    HW155094   7.874   2.804   7.438
18250SOL    HW255095   7.833   2.713   7.308
18251SOL     OW55096   8.988   2.136   5.711
18251SOL    HW155097   8.927   2.061   5.734
18251SOL    HW255098   9.010   2.188   5.794
18252SOL     OW55099   8.751   2.700   5.628
18252SOL    HW155100   8.785   2.607   5.643
18252SOL    HW255101   8.769   2.727   5.533
18253SOL     OW55102   8.516   3.195   6.435
18253SOL    HW155103   8.523   3.111   6.380
18253SOL    HW255104   8.578   3.264   6.399
18254SOL     OW55105   7.767   2.672   6.535
18254SOL    HW155106   7.860   2.708   6.540
18254SOL    HW255107   7.761   2.587   6.587
18255SOL     OW55108   7.787   2.371   6.592
18255SOL    HW155109   7.735   2.288   6.575
18255SOL    HW255110   7.864   2.376   6.528
18256SOL     OW55111   8.586   2.242   7.264
18256SOL    HW155112   8.541   2.305   7.328
18256SOL    HW255113   8.679   2.273   7.247
18257SOL     OW55114   8.608   2.069   7.063
18257SOL    HW155115   8.608   2.133   7.140
18257SOL    HW255116   8.636   2.117   6.980
18258SOL     OW55117   7.456   3.188   5.786
18258SOL    HW155118   7.363   3.209   5.755
18258SOL    HW255119   7.466   3.089   5.799
18259SOL     OW55120   7.536   3.663   6.513
18259SOL    HW155121   7.494   3.577   6.486
18259SOL    HW255122   7.630   3.666   6.479
18260SOL     OW55123   7.952   3.430   6.496
18260SOL    HW155124   8.018   3.504   6.505
18260SOL    HW255125   7.996   3.351   6.454
18261SOL     OW55126   8.450   2.658   6.824
18261SOL    HW155127   8.491   2.626   6.910
18261SOL    HW255128   8.354   2.631   6.821
18262SOL     OW55129   7.488   2.406   6.700
18262SOL    HW155130   7.573   2.373   6.659
18262SOL    HW255131   7.501   2.421   6.798
18263SOL     OW55132   7.637   2.382   7.308
18263SOL    HW155133   7.696   2.342   7.238
18263SOL    HW255134   7.579   2.453   7.267
18264SOL     OW55135   8.817   2.812   7.246
18264SOL    HW155136   8.856   2.901   7.266
18264SOL    HW255137   8.827   2.792   7.149
18265SOL     OW55138   8.263   2.434   5.911
18265SOL    HW155139   8.270   2.345   5.865
18265SOL    HW255140   8.169   2.468   5.903
18266SOL     OW55141   9.105   2.466   6.792
18266SOL    HW155142   9.067   2.397   6.854
18266SOL    HW255143   9.187   2.430   6.748
18267SOL     OW55144   7.700   3.426   7.330
18267SOL    HW155145   7.670   3.483   7.406
18267SOL    HW255146   7.693   3.329   7.356
18268SOL     OW55147   8.119   2.326   6.855
18268SOL    HW155148   8.085   2.237   6.825
18268SOL    HW255149   8.145   2.380   6.775
18269SOL     OW55150   8.378   3.540   7.051
18269SOL    HW155151   8.354   3.522   6.956
18269SOL    HW255152   8.408   3.634   7.061
18270SOL     OW55153   7.921   2.362   5.777
18270SOL    HW155154   7.982   2.442   5.781
18270SOL    HW255155   7.826   2.393   5.784
18271SOL     OW55156   7.607   2.999   7.052
18271SOL    HW155157   7.629   2.938   7.128
18271SOL    HW255158   7.617   2.950   6.966
18272SOL     OW55159   8.795   2.921   6.820
18272SOL    HW155160   8.819   2.858   6.746
18272SOL    HW255161   8.705   2.961   6.802
18273SOL     OW55162   8.750   2.717   5.895
18273SOL    HW155163   8.664   2.686   5.937
18273SOL    HW255164   8.746   2.703   5.796
18274SOL     OW55165   9.207   3.609   6.740
18274SOL    HW155166   9.268   3.639   6.667
18274SOL    HW255167   9.169   3.520   6.718
18275SOL     OW55168   8.700   3.593   6.714
18275SOL    HW155169   8.784   3.598   6.660
18275SOL    HW255170   8.677   3.497   6.732
18276SOL     OW55171   7.531   3.120   6.608
18276SOL    HW155172   7.526   3.119   6.708
18276SOL    HW255173   7.448   3.079   6.570
18277SOL     OW55174   8.136   3.524   7.302
18277SOL    HW155175   8.080   3.605   7.311
18277SOL    HW255176   8.188   3.528   7.216
18278SOL     OW55177   9.174   1.997   6.109
18278SOL    HW155178   9.247   1.980   6.042
18278SOL    HW255179   9.143   1.910   6.147
18279SOL     OW55180   8.836   3.435   6.063
18279SOL    HW155181   8.903   3.447   5.989
18279SOL    HW255182   8.796   3.524   6.086
18280SOL     OW55183   7.578   3.656   7.437
18280SOL    HW155184   7.537   3.582   7.490
18280SOL    HW255185   7.642   3.707   7.495
18281SOL     OW55186   8.728   2.789   6.258
18281SOL    HW155187   8.788   2.708   6.260
18281SOL    HW255188   8.768   2.858   6.198
18282SOL     OW55189   8.278   3.135   7.008
18282SOL    HW155190   8.273   3.168   7.103
18282SOL    HW255191   8.192   3.154   6.962
18283SOL     OW55192   8.120   3.478   5.740
18283SOL    HW155193   8.129   3.488   5.641
18283SOL    HW255194   8.080   3.389   5.761
18284SOL     OW55195   9.098   3.582   6.980
18284SOL    HW155196   9.151   3.592   6.896
18284SOL    HW255197   9.071   3.672   7.014
18285SOL     OW55198   9.289   2.037   6.549
18285SOL    HW155199   9.328   1.952   6.513
18285SOL    HW255200   9.191   2.039   6.530
18286SOL     OW55201   7.711   2.188   6.306
18286SOL    HW155202   7.632   2.239   6.272
18286SOL    HW255203   7.702   2.173   6.404
18287SOL     OW55204   8.642   3.474   5.617
18287SOL    HW155205   8.648   3.381   5.654
18287SOL    HW255206   8.583   3.474   5.537
18288SOL     OW55207   8.270   2.864   6.958
18288SOL    HW155208   8.310   2.863   6.866
18288SOL    HW255209   8.280   2.956   6.998
18289SOL     OW55210   8.364   2.772   5.877
18289SOL    HW155211   8.427   2.810   5.809
18289SOL    HW255212   8.404   2.689   5.916
18290SOL     OW55213   8.952   3.469   5.630
18290SOL    HW155214   8.860   3.506   5.637
18290SOL    HW255215   8.990   3.489   5.540
18291SOL     OW55216   7.820   3.150   7.076
18291SOL    HW155217   7.807   3.243   7.042
18291SOL    HW255218   7.736   3.098   7.063
18292SOL     OW55219   9.062   3.154   6.875
18292SOL    HW155220   9.122   3.157   6.955
18292SOL    HW255221   8.987   3.218   6.888
18293SOL     OW55222   8.487   2.960   6.282
18293SOL    HW155223   8.417   2.913   6.336
18293SOL    HW255224   8.546   2.892   6.239
18294SOL     OW55225   8.462   2.098   6.557
18294SOL    HW155226   8.454   2.062   6.464
18294SOL    HW255227   8.460   2.022   6.622
18295SOL     OW55228   8.038   3.349   6.077
18295SOL    HW155229   8.080   3.291   6.007
18295SOL    HW255230   7.994   3.428   6.033
18296SOL     OW55231   9.157   2.247   6.967
18296SOL    HW155232   9.230   2.316   6.971
18296SOL    HW255233   9.185   2.172   6.908
18297SOL     OW55234   7.703   3.210   5.876
18297SOL    HW155235   7.607   3.211   5.849
18297SOL    HW255236   7.715   3.263   5.960
18298SOL     OW55237   7.553   2.875   7.312
18298SOL    HW155238   7.476   2.842   7.366
18298SOL    HW255239   7.638   2.845   7.354
18299SOL     OW55240   8.120   2.065   7.075
18299SOL    HW155241   8.210   2.049   7.035
18299SOL    HW255242   8.128   2.070   7.174
18300SOL     OW55243   7.523   2.207   5.619
18300SOL    HW155244   7.431   2.179   5.590
18300SOL    HW255245   7.554   2.284   5.563
18301SOL     OW55246   8.888   2.718   6.984
18301SOL    HW155247   8.831   2.770   6.921
18301SOL    HW255248   8.984   2.730   6.960
18302SOL     OW55249   7.520   2.028   5.904
18302SOL    HW155250   7.503   2.111   5.850
18302SOL    HW255251   7.610   1.991   5.882
18303SOL     OW55252   8.631   3.197   5.705
18303SOL    HW155253   8.532   3.186   5.707
18303SOL    HW255254   8.665   3.212   5.798
18304SOL     OW55255   8.061   2.704   7.017
18304SOL    HW155256   8.117   2.785   7.000
18304SOL    HW255257   8.120   2.624   7.020
18305SOL     OW55258   8.941   3.629   6.545
18305SOL    HW155259   8.974   3.693   6.476
18305SOL    HW255260   9.007   3.623   6.620
18306SOL     OW55261   8.164   2.427   7.294
18306SOL    HW155262   8.183   2.492   7.368
18306SOL    HW255263   8.224   2.347   7.303
18307SOL     OW55264   8.898   3.082   7.219
18307SOL    HW155265   8.889   3.072   7.318
18307SOL    HW255266   8.994   3.075   7.193
18308SOL     OW55267   7.838   3.603   7.146
18308SOL    HW155268   7.747   3.644   7.144
18308SOL    HW255269   7.831   3.509   7.178
18309SOL     OW55270   9.122   2.745   6.840
18309SOL    HW155271   9.095   2.656   6.803
18309SOL    HW255272   9.123   2.813   6.767
18310SOL     OW55273   8.673   2.187   6.035
18310SOL    HW155274   8.738   2.113   6.024
18310SOL    HW255275   8.693   2.237   6.119
18311SOL     OW55276   8.042   2.607   6.238
18311SOL    HW155277   8.092   2.692   6.219
18311SOL    HW255278   7.954   2.609   6.190
18312SOL     OW55279   9.225   2.204   7.228
18312SOL    HW155280   9.208   2.235   7.134
18312SOL    HW255281   9.141   2.167   7.266
18313SOL     OW55282   9.178   2.796   7.103
18313SOL    HW155283   9.216   2.887   7.118
18313SOL    HW255284   9.170   2.779   7.004
18314SOL     OW55285   8.307   3.236   5.602
18314SOL    HW155286   8.261   3.251   5.690
18314SOL    HW255287   8.351   3.321   5.572
18315SOL     OW55288   8.109   3.652   6.539
18315SOL    HW155289   8.063   3.740   6.526
18315SOL    HW255290   8.208   3.664   6.532
18316SOL     OW55291   8.307   2.818   6.447
18316SOL    HW155292   8.361   2.749   6.495
18316SOL    HW255293   8.275   2.887   6.513
18317SOL     OW55294   8.531   2.846   5.673
18317SOL    HW155295   8.508   2.899   5.591
18317SOL    HW255296   8.612   2.790   5.654
18318SOL     OW55297   9.309   3.431   6.437
18318SOL    HW155298   9.238   3.419   6.367
18318SOL    HW255299   9.310   3.352   6.497
18319SOL     OW55300   7.669   3.176   7.430
18319SOL    HW155301   7.604   3.103   7.409
18319SOL    HW255302   7.673   3.190   7.528
18320SOL     OW55303   7.527   3.102   6.239
18320SOL    HW155304   7.526   3.055   6.327
18320SOL    HW255305   7.609   3.074   6.188
18321SOL     OW55306   8.120   3.253   7.210
18321SOL    HW155307   8.042   3.203   7.248
18321SOL    HW255308   8.117   3.348   7.241
18322SOL     OW55309   9.272   2.054   6.813
18322SOL    HW155310   9.268   1.964   6.857
18322SOL    HW255311   9.275   2.043   6.714
18323SOL     OW55312   7.876   2.286   6.106
18323SOL    HW155313   7.906   2.214   6.044
18323SOL    HW255314   7.837   2.246   6.189
18324SOL     OW55315   9.153   3.349   6.690
18324SOL    HW155316   9.060   3.324   6.663
18324SOL    HW255317   9.179   3.299   6.772
18325SOL     OW55318   7.765   2.409   6.866
18325SOL    HW155319   7.803   2.350   6.938
18325SOL    HW255320   7.805   2.383   6.778
18326SOL     OW55321   8.260   3.448   6.273
18326SOL    HW155322   8.292   3.458   6.179
18326SOL    HW255323   8.181   3.386   6.275
18327SOL     OW55324   8.872   2.076   6.698
18327SOL    HW155325   8.924   2.011   6.753
18327SOL    HW255326   8.823   2.139   6.759
18328SOL     OW55327   8.449   1.896   6.740
18328SOL    HW155328   8.386   1.824   6.709
18328SOL    HW255329   8.542   1.860   6.740
18329SOL     OW55330   8.218   3.192   5.887
18329SOL    HW155331   8.172   3.105   5.904
18329SOL    HW255332   8.309   3.189   5.928
18330SOL     OW55333   8.066   3.429   6.870
18330SOL    HW155334   8.061   3.511   6.927
18330SOL    HW255335   8.155   3.426   6.825
18331SOL     OW55336   8.800   1.914   5.754
18331SOL    HW155337   8.835   1.873   5.670
18331SOL    HW255338   8.710   1.876   5.774
18332SOL     OW55339   8.748   2.315   6.277
18332SOL    HW155340   8.689   2.395   6.281
18332SOL    HW255341   8.763   2.280   6.370
18333SOL     OW55342   9.041   2.083   6.468
18333SOL    HW155343   8.957   2.082   6.522
18333SOL    HW255344   9.043   2.166   6.412
18334SOL     OW55345   7.487   2.939   5.886
18334SOL    HW155346   7.586   2.928   5.877
18334SOL    HW255347   7.447   2.853   5.918
18335SOL     OW55348   8.323   3.508   5.923
18335SOL    HW155349   8.246   3.473   5.869
18335SOL    HW255350   8.291   3.579   5.985
18336SOL     OW55351   7.475   3.458   7.565
18336SOL    HW155352   7.456   3.362   7.586
18336SOL    HW255353   7.442   3.516   7.640
18337SOL     OW55354   8.973   2.861   7.638
18337SOL    HW155355   8.910   2.785   7.651
18337SOL    HW255356   9.021   2.879   7.724
18338SOL     OW55357   7.769   2.805   7.690
18338SOL    HW155358   7.851   2.844   7.648
18338SOL    HW255359   7.742   2.723   7.641
18339SOL     OW55360   8.559   3.638   7.685
18339SOL    HW155361   8.499   3.576   7.735
18339SOL    HW255362   8.590   3.594   7.600
18340SOL     OW55363   9.080   3.239   7.529
18340SOL    HW155364   9.048   3.333   7.519
18340SOL    HW255365   9.004   3.176   7.517
18341SOL     OW55366   8.882   3.050   7.489
18341SOL    HW155367   8.914   2.974   7.546
18341SOL    HW255368   8.790   3.077   7.519
18342SOL     OW55369   8.480   2.411   7.464
18342SOL    HW155370   8.439   2.493   7.425
18342SOL    HW255371   8.544   2.437   7.537
18343SOL     OW55372   7.936   3.247   7.622
18343SOL    HW155373   7.849   3.232   7.669
18343SOL    HW255374   7.919   3.273   7.527
18344SOL     OW55375   8.838   2.437   7.526
18344SOL    HW155376   8.784   2.416   7.607
18344SOL    HW255377   8.929   2.396   7.535
18345SOL     OW55378   8.988   2.136   7.573
18345SOL    HW155379   8.927   2.061   7.596
18345SOL    HW255380   9.010   2.188   7.656
18346SOL     OW55381   8.751   2.700   7.490
18346SOL    HW155382   8.785   2.607   7.505
18346SOL    HW255383   8.769   2.727   7.395
18347SOL     OW55384   7.921   2.362   7.639
18347SOL    HW155385   7.982   2.442   7.643
18347SOL    HW255386   7.826   2.393   7.646
18348SOL     OW55387   8.836   3.435   7.925
18348SOL    HW155388   8.903   3.447   7.851
18348SOL    HW255389   8.796   3.524   7.948
18349SOL     OW55390   8.120   3.478   7.602
18349SOL    HW155391   8.129   3.488   7.503
18349SOL    HW255392   8.080   3.389   7.623
18350SOL     OW55393   8.642   3.474   7.479
18350SOL    HW155394   8.648   3.381   7.516
18350SOL    HW255395   8.583   3.474   7.399
18351SOL     OW55396   8.952   3.469   7.492
18351SOL    HW155397   8.860   3.506   7.499
18351SOL    HW255398   8.990   3.489   7.402
18352SOL     OW55399   7.523   2.207   7.481
18352SOL    HW155400   7.431   2.179   7.452
18352SOL    HW255401   7.554   2.284   7.425
18353SOL     OW55402   8.307   3.236   7.464
18353SOL    HW155403   8.261   3.251   7.552
18353SOL    HW255404   8.351   3.321   7.434
18354SOL     OW55405   8.531   2.846   7.535
18354SOL    HW155406   8.508   2.899   7.453
18354SOL    HW255407   8.612   2.790   7.516
18355SOL     OW55408   8.800   1.914   7.616
18355SOL    HW155409   8.835   1.873   7.532
18355SOL    HW255410   8.710   1.876   7.636
18356SOL     OW55411   7.487   2.939   7.748
18356SOL    HW155412   7.586   2.928   7.739
18356SOL    HW255413   7.447   2.853   7.780
18357SOL     OW55414   7.673   3.999   0.996
18357SOL    HW155415   7.708   3.982   1.088
18357SOL    HW255416   7.585   3.954   0.984
18358SOL     OW55417   7.467   4.092   0.647
18358SOL    HW155418   7.385   4.135   0.686
18358SOL    HW255419   7.439   4.019   0.584
18359SOL     OW55420   8.017   4.999   1.165
18359SOL    HW155421   7.924   4.992   1.128
18359SOL    HW255422   8.028   5.088   1.209
18360SOL     OW55423   9.003   5.235   0.703
18360SOL    HW155424   8.946   5.219   0.784
18360SOL    HW255425   8.944   5.245   0.623
18361SOL     OW55426   8.583   4.427   0.717
18361SOL    HW155427   8.640   4.505   0.692
18361SOL    HW255428   8.523   4.453   0.793
18362SOL     OW55429   9.203   4.331   0.231
18362SOL    HW155430   9.191   4.318   0.132
18362SOL    HW255431   9.173   4.250   0.280
18363SOL     OW55432   8.216   4.868   1.023
18363SOL    HW155433   8.138   4.885   1.083
18363SOL    HW255434   8.250   4.955   0.987
18364SOL     OW55435   8.298   4.522   1.823
18364SOL    HW155436   8.294   4.598   1.888
18364SOL    HW255437   8.320   4.558   1.732
18365SOL     OW55438   8.133   4.736   0.665
18365SOL    HW155439   8.202   4.720   0.735
18365SOL    HW255440   8.060   4.793   0.703
18366SOL     OW55441   8.134   4.885   1.803
18366SOL    HW155442   8.194   4.964   1.817
18366SOL    HW255443   8.048   4.916   1.762
18367SOL     OW55444   7.783   5.159   1.061
18367SOL    HW155445   7.705   5.128   1.008
18367SOL    HW255446   7.841   5.217   1.004
18368SOL     OW55447   8.908   5.229   1.339
18368SOL    HW155448   8.932   5.323   1.365
18368SOL    HW255449   8.892   5.175   1.421
18369SOL     OW55450   7.886   4.116   1.499
18369SOL    HW155451   7.968   4.060   1.508
18369SOL    HW255452   7.805   4.058   1.503
18370SOL     OW55453   9.051   4.171   0.737
18370SOL    HW155454   8.977   4.217   0.687
18370SOL    HW255455   9.102   4.239   0.790
18371SOL     OW55456   7.679   5.437   0.483
18371SOL    HW155457   7.713   5.514   0.537
18371SOL    HW255458   7.723   5.437   0.393
18372SOL     OW55459   8.575   5.065   1.690
18372SOL    HW155460   8.622   5.065   1.778
18372SOL    HW255461   8.527   4.978   1.679
18373SOL     OW55462   7.678   5.158   0.538
18373SOL    HW155463   7.652   5.254   0.538
18373SOL    HW255464   7.607   5.104   0.583
18374SOL     OW55465   7.688   4.815   0.886
18374SOL    HW155466   7.702   4.731   0.938
18374SOL    HW255467   7.633   4.879   0.941
18375SOL     OW55468   8.068   5.510   1.439
18375SOL    HW155469   7.976   5.493   1.474
18375SOL    HW255470   8.096   5.602   1.465
18376SOL     OW55471   9.042   3.838   1.480
18376SOL    HW155472   9.024   3.905   1.408
18376SOL    HW255473   9.039   3.884   1.569
18377SOL     OW55474   7.570   4.367   0.563
18377SOL    HW155475   7.525   4.279   0.580
18377SOL    HW255476   7.569   4.421   0.647
18378SOL     OW55477   9.290   5.491   0.359
18378SOL    HW155478   9.344   5.462   0.439
18378SOL    HW255479   9.320   5.581   0.330
18379SOL     OW55480   9.137   4.646   0.612
18379SOL    HW155481   9.232   4.617   0.620
18379SOL    HW255482   9.129   4.711   0.537
18380SOL     OW55483   9.089   4.832   0.432
18380SOL    HW155484   9.175   4.834   0.380
18380SOL    HW255485   9.103   4.879   0.520
18381SOL     OW55486   7.561   4.461   1.597
18381SOL    HW155487   7.649   4.448   1.642
18381SOL    HW255488   7.548   4.558   1.575
18382SOL     OW55489   8.061   5.089   0.726
18382SOL    HW155490   8.012   5.002   0.735
18382SOL    HW255491   8.038   5.132   0.639
18383SOL     OW55492   8.741   4.952   1.423
18383SOL    HW155493   8.778   4.879   1.365
18383SOL    HW255494   8.793   4.957   1.508
18384SOL     OW55495   8.257   3.728   0.502
18384SOL    HW155496   8.297   3.819   0.493
18384SOL    HW255497   8.157   3.736   0.508
18385SOL     OW55498   7.645   4.700   1.264
18385SOL    HW155499   7.734   4.655   1.250
18385SOL    HW255500   7.572   4.635   1.245
18386SOL     OW55501   8.635   5.516   1.616
18386SOL    HW155502   8.659   5.576   1.540
18386SOL    HW255503   8.642   5.421   1.586
18387SOL     OW55504   7.765   3.975   1.801
18387SOL    HW155505   7.836   4.046   1.807
18387SOL    HW255506   7.677   4.014   1.829
18388SOL     OW55507   8.914   5.141   0.953
18388SOL    HW155508   8.855   5.147   1.033
18388SOL    HW255509   8.899   5.053   0.907
18389SOL     OW55510   9.115   5.438   0.572
18389SOL    HW155511   9.074   5.415   0.484
18389SOL    HW255512   9.097   5.364   0.637
18390SOL     OW55513   8.729   4.069   0.944
18390SOL    HW155514   8.643   4.019   0.931
18390SOL    HW255515   8.791   4.015   1.000
18391SOL     OW55516   9.024   5.386   0.307
18391SOL    HW155517   9.113   5.432   0.310
18391SOL    HW255518   9.003   5.362   0.212
18392SOL     OW55519   8.255   4.329   1.465
18392SOL    HW155520   8.208   4.326   1.554
18392SOL    HW255521   8.204   4.274   1.399
18393SOL     OW55522   8.842   4.193   1.674
18393SOL    HW155523   8.822   4.236   1.762
18393SOL    HW255524   8.920   4.131   1.683
18394SOL     OW55525   8.421   4.614   1.572
18394SOL    HW155526   8.467   4.530   1.543
18394SOL    HW255527   8.365   4.648   1.497
18395SOL     OW55528   8.439   4.134   1.242
18395SOL    HW155529   8.362   4.168   1.296
18395SOL    HW255530   8.405   4.083   1.163
18396SOL     OW55531   8.489   4.425   0.429
18396SOL    HW155532   8.515   4.421   0.525
18396SOL    HW255533   8.404   4.374   0.415
18397SOL     OW55534   7.524   4.535   0.789
18397SOL    HW155535   7.623   4.523   0.798
18397SOL    HW255536   7.500   4.630   0.810
18398SOL     OW55537   7.578   5.545   1.571
18398SOL    HW155538   7.568   5.530   1.670
18398SOL    HW255539   7.492   5.581   1.535
18399SOL     OW55540   9.167   4.309   1.831
18399SOL    HW155541   9.141   4.398   1.795
18399SOL    HW255542   9.165   4.241   1.758
18400SOL     OW55543   8.810   4.868   0.545
18400SOL    HW155544   8.893   4.839   0.497
18400SOL    HW255545   8.761   4.935   0.489
18401SOL     OW55546   7.998   3.920   0.885
18401SOL    HW155547   7.993   3.915   0.985
18401SOL    HW255548   8.000   4.016   0.856
18402SOL     OW55549   8.456   5.180   0.477
18402SOL    HW155550   8.410   5.252   0.425
18402SOL    HW255551   8.452   5.200   0.575
18403SOL     OW55552   7.799   5.525   0.853
18403SOL    HW155553   7.849   5.439   0.859
18403SOL    HW255554   7.864   5.602   0.850
18404SOL     OW55555   9.243   4.790   0.873
18404SOL    HW155556   9.181   4.775   0.797
18404SOL    HW255557   9.191   4.801   0.958
18405SOL     OW55558   8.675   5.274   1.506
18405SOL    HW155559   8.681   5.197   1.570
18405SOL    HW255560   8.623   5.248   1.426
18406SOL     OW55561   8.906   4.459   0.728
18406SOL    HW155562   8.901   4.394   0.803
18406SOL    HW255563   8.986   4.518   0.741
18407SOL     OW55564   7.909   4.990   1.727
18407SOL    HW155565   7.859   4.991   1.641
18407SOL    HW255566   7.846   4.972   1.803
18408SOL     OW55567   7.650   4.009   1.498
18408SOL    HW155568   7.570   4.069   1.485
18408SOL    HW255569   7.640   3.960   1.584
18409SOL     OW55570   8.848   3.831   0.426
18409SOL    HW155571   8.824   3.794   0.336
18409SOL    HW255572   8.947   3.847   0.430
18410SOL     OW55573   7.697   5.509   1.241
18410SOL    HW155574   7.754   5.444   1.291
18410SOL    HW255575   7.681   5.476   1.148
18411SOL     OW55576   8.388   5.422   0.904
18411SOL    HW155577   8.468   5.365   0.925
18411SOL    HW255578   8.339   5.382   0.827
18412SOL     OW55579   7.830   4.424   0.480
18412SOL    HW155580   7.875   4.334   0.477
18412SOL    HW255581   7.736   4.413   0.513
18413SOL     OW55582   8.995   3.946   1.729
18413SOL    HW155583   8.990   3.983   1.821
18413SOL    HW255584   8.923   3.877   1.717
18414SOL     OW55585   8.229   3.988   1.749
18414SOL    HW155586   8.296   3.927   1.792
18414SOL    HW255587   8.156   4.007   1.814
18415SOL     OW55588   8.336   5.238   1.195
18415SOL    HW155589   8.313   5.213   1.101
18415SOL    HW255590   8.397   5.169   1.234
18416SOL     OW55591   8.799   4.314   1.433
18416SOL    HW155592   8.827   4.271   1.518
18416SOL    HW255593   8.824   4.410   1.434
18417SOL     OW55594   8.251   5.126   0.924
18417SOL    HW155595   8.341   5.140   0.882
18417SOL    HW255596   8.180   5.128   0.853
18418SOL     OW55597   8.370   4.227   0.899
18418SOL    HW155598   8.345   4.218   0.803
18418SOL    HW255599   8.418   4.145   0.930
18419SOL     OW55600   7.987   3.788   0.512
18419SOL    HW155601   7.906   3.789   0.570
18419SOL    HW255602   7.990   3.871   0.457
18420SOL     OW55603   8.383   3.960   0.480
18420SOL    HW155604   8.335   4.001   0.402
18420SOL    HW255605   8.482   3.958   0.461
18421SOL     OW55606   8.524   4.407   1.464
18421SOL    HW155607   8.444   4.346   1.467
18421SOL    HW255608   8.605   4.354   1.440
18422SOL     OW55609   8.675   5.294   0.793
18422SOL    HW155610   8.696   5.368   0.728
18422SOL    HW255611   8.743   5.294   0.866
18423SOL     OW55612   7.907   4.876   0.741
18423SOL    HW155613   7.836   4.849   0.806
18423SOL    HW255614   7.881   4.848   0.648
18424SOL     OW55615   8.719   5.521   0.591
18424SOL    HW155616   8.763   5.585   0.527
18424SOL    HW255617   8.669   5.573   0.661
18425SOL     OW55618   7.526   4.280   1.386
18425SOL    HW155619   7.618   4.279   1.345
18425SOL    HW255620   7.520   4.354   1.453
18426SOL     OW55621   8.009   3.946   1.147
18426SOL    HW155622   8.047   3.862   1.184
18426SOL    HW255623   7.921   3.965   1.191
18427SOL     OW55624   8.314   4.178   0.642
18427SOL    HW155625   8.282   4.250   0.580
18427SOL    HW255626   8.338   4.097   0.589
18428SOL     OW55627   8.465   3.763   0.753
18428SOL    HW155628   8.393   3.768   0.684
18428SOL    HW255629   8.441   3.694   0.822
18429SOL     OW55630   8.877   4.897   0.867
18429SOL    HW155631   8.822   4.813   0.860
18429SOL    HW255632   8.903   4.926   0.775
18430SOL     OW55633   8.914   4.314   0.992
18430SOL    HW155634   8.884   4.219   0.999
18430SOL    HW255635   8.987   4.330   1.058
18431SOL     OW55636   9.112   5.004   0.657
18431SOL    HW155637   9.211   5.012   0.671
18431SOL    HW255638   9.067   5.088   0.688
18432SOL     OW55639   7.975   3.980   0.328
18432SOL    HW155640   8.002   3.921   0.253
18432SOL    HW255641   7.975   4.075   0.297
18433SOL     OW55642   9.202   4.947   1.588
18433SOL    HW155643   9.293   4.908   1.575
18433SOL    HW255644   9.210   5.043   1.612
18434SOL     OW55645   8.512   5.071   1.340
18434SOL    HW155646   8.432   5.048   1.395
18434SOL    HW255647   8.595   5.045   1.389
18435SOL     OW55648   9.040   5.353   1.625
18435SOL    HW155649   9.067   5.387   1.535
18435SOL    HW255650   9.119   5.315   1.671
18436SOL     OW55651   8.559   4.919   1.100
18436SOL    HW155652   8.519   4.963   1.181
18436SOL    HW255653   8.518   4.956   1.017
18437SOL     OW55654   9.086   4.823   1.079
18437SOL    HW155655   9.091   4.904   1.138
18437SOL    HW255656   9.000   4.825   1.028
18438SOL     OW55657   8.363   3.813   1.402
18438SOL    HW155658   8.388   3.793   1.307
18438SOL    HW255659   8.435   3.869   1.444
18439SOL     OW55660   8.428   4.840   1.719
18439SOL    HW155661   8.329   4.846   1.729
18439SOL    HW255662   8.451   4.760   1.663
18440SOL     OW55663   8.153   4.774   0.368
18440SOL    HW155664   8.139   4.781   0.467
18440SOL    HW255665   8.237   4.723   0.350
18441SOL     OW55666   7.858   4.537   1.251
18441SOL    HW155667   7.944   4.549   1.301
18441SOL    HW255668   7.816   4.450   1.278
18442SOL     OW55669   8.722   4.110   1.262
18442SOL    HW155670   8.743   4.184   1.326
18442SOL    HW255671   8.633   4.127   1.219
18443SOL     OW55672   7.512   5.288   1.331
18443SOL    HW155673   7.466   5.370   1.297
18443SOL    HW255674   7.610   5.307   1.340
18444SOL     OW55675   7.815   4.824   0.501
18444SOL    HW155676   7.808   4.907   0.445
18444SOL    HW255677   7.819   4.744   0.441
18445SOL     OW55678   8.014   4.261   0.865
18445SOL    HW155679   8.026   4.327   0.791
18445SOL    HW255680   8.060   4.295   0.948
18446SOL     OW55681   8.700   5.072   0.388
18446SOL    HW155682   8.750   5.149   0.428
18446SOL    HW255683   8.605   5.074   0.420
18447SOL     OW55684   8.720   5.169   1.142
18447SOL    HW155685   8.767   5.182   1.229
18447SOL    HW255686   8.654   5.095   1.151
18448SOL     OW55687   9.030   4.363   0.472
18448SOL    HW155688   8.999   4.424   0.545
18448SOL    HW255689   9.080   4.415   0.403
18449SOL     OW55690   7.802   5.234   1.329
18449SOL    HW155691   7.781   5.190   1.242
18449SOL    HW255692   7.899   5.260   1.332
18450SOL     OW55693   7.850   4.475   1.598
18450SOL    HW155694   7.918   4.530   1.551
18450SOL    HW255695   7.890   4.387   1.625
18451SOL     OW55696   9.035   4.503   1.670
18451SOL    HW155697   8.943   4.541   1.665
18451SOL    HW255698   9.095   4.550   1.605
18452SOL     OW55699   8.461   3.829   1.770
18452SOL    HW155700   8.467   3.914   1.718
18452SOL    HW255701   8.493   3.753   1.713
18453SOL     OW55702   7.952   3.774   1.740
18453SOL    HW155703   7.910   3.717   1.670
18453SOL    HW255704   7.886   3.843   1.772
18454SOL     OW55705   8.021   4.594   1.029
18454SOL    HW155706   8.065   4.683   1.020
18454SOL    HW255707   7.958   4.594   1.106
18455SOL     OW55708   8.808   4.586   1.045
18455SOL    HW155709   8.733   4.586   0.979
18455SOL    HW255710   8.845   4.494   1.054
18456SOL     OW55711   8.657   4.249   0.275
18456SOL    HW155712   8.670   4.165   0.329
18456SOL    HW255713   8.628   4.323   0.335
18457SOL     OW55714   7.755   3.937   1.231
18457SOL    HW155715   7.732   3.974   1.321
18457SOL    HW255716   7.725   3.842   1.225
18458SOL     OW55717   7.485   5.034   1.282
18458SOL    HW155718   7.538   4.985   1.350
18458SOL    HW255719   7.507   5.132   1.287
18459SOL     OW55720   8.180   4.358   1.064
18459SOL    HW155721   8.239   4.332   0.988
18459SOL    HW255722   8.152   4.454   1.053
18460SOL     OW55723   9.176   4.659   1.854
18460SOL    HW155724   9.130   4.652   1.765
18460SOL    HW255725   9.114   4.703   1.920
18461SOL     OW55726   7.755   3.787   0.618
18461SOL    HW155727   7.744   3.881   0.651
18461SOL    HW255728   7.750   3.724   0.695
18462SOL     OW55729   8.471   4.490   0.966
18462SOL    HW155730   8.486   4.511   1.062
18462SOL    HW255731   8.441   4.395   0.957
18463SOL     OW55732   8.428   5.297   1.700
18463SOL    HW155733   8.408   5.341   1.612
18463SOL    HW255734   8.467   5.206   1.684
18464SOL     OW55735   9.307   5.242   1.605
18464SOL    HW155736   9.321   5.269   1.510
18464SOL    HW255737   9.390   5.264   1.658
18465SOL     OW55738   7.798   4.622   1.804
18465SOL    HW155739   7.874   4.666   1.852
18465SOL    HW255740   7.833   4.575   1.722
18466SOL     OW55741   8.516   5.057   0.849
18466SOL    HW155742   8.523   4.973   0.794
18466SOL    HW255743   8.578   5.126   0.813
18467SOL     OW55744   7.767   4.534   0.949
18467SOL    HW155745   7.860   4.570   0.954
18467SOL    HW255746   7.761   4.449   1.001
18468SOL     OW55747   7.787   4.233   1.006
18468SOL    HW155748   7.735   4.150   0.989
18468SOL    HW255749   7.864   4.238   0.942
18469SOL     OW55750   8.586   4.104   1.678
18469SOL    HW155751   8.541   4.167   1.742
18469SOL    HW255752   8.679   4.135   1.661
18470SOL     OW55753   8.608   3.931   1.477
18470SOL    HW155754   8.608   3.995   1.554
18470SOL    HW255755   8.636   3.979   1.394
18471SOL     OW55756   7.536   5.525   0.927
18471SOL    HW155757   7.494   5.439   0.900
18471SOL    HW255758   7.630   5.528   0.893
18472SOL     OW55759   7.952   5.292   0.910
18472SOL    HW155760   8.018   5.366   0.919
18472SOL    HW255761   7.996   5.213   0.868
18473SOL     OW55762   8.450   4.520   1.238
18473SOL    HW155763   8.491   4.488   1.324
18473SOL    HW255764   8.354   4.493   1.235
18474SOL     OW55765   7.488   4.268   1.114
18474SOL    HW155766   7.573   4.235   1.073
18474SOL    HW255767   7.501   4.283   1.212
18475SOL     OW55768   7.637   4.244   1.722
18475SOL    HW155769   7.696   4.204   1.652
18475SOL    HW255770   7.579   4.315   1.681
18476SOL     OW55771   8.817   4.674   1.660
18476SOL    HW155772   8.856   4.763   1.680
18476SOL    HW255773   8.827   4.654   1.563
18477SOL     OW55774   9.105   4.328   1.206
18477SOL    HW155775   9.067   4.259   1.268
18477SOL    HW255776   9.187   4.292   1.162
18478SOL     OW55777   7.700   5.288   1.744
18478SOL    HW155778   7.670   5.345   1.820
18478SOL    HW255779   7.693   5.191   1.770
18479SOL     OW55780   8.119   4.188   1.269
18479SOL    HW155781   8.085   4.099   1.239
18479SOL    HW255782   8.145   4.242   1.189
18480SOL     OW55783   8.378   5.402   1.465
18480SOL    HW155784   8.354   5.384   1.370
18480SOL    HW255785   8.408   5.496   1.475
18481SOL     OW55786   7.607   4.861   1.466
18481SOL    HW155787   7.629   4.800   1.542
18481SOL    HW255788   7.617   4.812   1.380
18482SOL     OW55789   8.795   4.783   1.234
18482SOL    HW155790   8.819   4.720   1.160
18482SOL    HW255791   8.705   4.823   1.216
18483SOL     OW55792   9.207   5.471   1.154
18483SOL    HW155793   9.268   5.501   1.081
18483SOL    HW255794   9.169   5.382   1.132
18484SOL     OW55795   8.700   5.455   1.128
18484SOL    HW155796   8.784   5.460   1.074
18484SOL    HW255797   8.677   5.359   1.146
18485SOL     OW55798   7.531   4.982   1.022
18485SOL    HW155799   7.526   4.981   1.122
18485SOL    HW255800   7.448   4.941   0.984
18486SOL     OW55801   8.136   5.386   1.716
18486SOL    HW155802   8.080   5.467   1.725
18486SOL    HW255803   8.188   5.390   1.630
18487SOL     OW55804   9.174   3.859   0.523
18487SOL    HW155805   9.247   3.842   0.456
18487SOL    HW255806   9.143   3.772   0.561
18488SOL     OW55807   8.836   5.297   0.477
18488SOL    HW155808   8.903   5.309   0.403
18488SOL    HW255809   8.796   5.386   0.500
18489SOL     OW55810   7.578   5.518   1.851
18489SOL    HW155811   7.537   5.444   1.904
18489SOL    HW255812   7.642   5.569   1.909
18490SOL     OW55813   8.728   4.651   0.672
18490SOL    HW155814   8.788   4.570   0.674
18490SOL    HW255815   8.768   4.720   0.612
18491SOL     OW55816   8.278   4.997   1.422
18491SOL    HW155817   8.273   5.030   1.517
18491SOL    HW255818   8.192   5.016   1.376
18492SOL     OW55819   9.098   5.444   1.394
18492SOL    HW155820   9.151   5.454   1.310
18492SOL    HW255821   9.071   5.534   1.428
18493SOL     OW55822   9.289   3.899   0.963
18493SOL    HW155823   9.328   3.814   0.927
18493SOL    HW255824   9.191   3.901   0.944
18494SOL     OW55825   7.711   4.050   0.720
18494SOL    HW155826   7.632   4.101   0.686
18494SOL    HW255827   7.702   4.035   0.818
18495SOL     OW55828   8.270   4.726   1.372
18495SOL    HW155829   8.310   4.725   1.280
18495SOL    HW255830   8.280   4.818   1.412
18496SOL     OW55831   8.364   4.634   0.291
18496SOL    HW155832   8.427   4.672   0.223
18496SOL    HW255833   8.404   4.551   0.330
18497SOL     OW55834   7.820   5.012   1.490
18497SOL    HW155835   7.807   5.105   1.456
18497SOL    HW255836   7.736   4.960   1.477
18498SOL     OW55837   9.062   5.016   1.289
18498SOL    HW155838   9.122   5.019   1.369
18498SOL    HW255839   8.987   5.080   1.302
18499SOL     OW55840   8.487   4.822   0.696
18499SOL    HW155841   8.417   4.775   0.750
18499SOL    HW255842   8.546   4.754   0.653
18500SOL     OW55843   8.462   3.960   0.971
18500SOL    HW155844   8.454   3.924   0.878
18500SOL    HW255845   8.460   3.884   1.036
18501SOL     OW55846   8.038   5.211   0.491
18501SOL    HW155847   8.080   5.153   0.421
18501SOL    HW255848   7.994   5.290   0.447
18502SOL     OW55849   9.157   4.109   1.381
18502SOL    HW155850   9.230   4.178   1.385
18502SOL    HW255851   9.185   4.034   1.322
18503SOL     OW55852   7.703   5.072   0.290
18503SOL    HW155853   7.607   5.073   0.263
18503SOL    HW255854   7.715   5.125   0.374
18504SOL     OW55855   7.553   4.737   1.726
18504SOL    HW155856   7.476   4.704   1.780
18504SOL    HW255857   7.638   4.707   1.768
18505SOL     OW55858   8.120   3.927   1.489
18505SOL    HW155859   8.210   3.911   1.449
18505SOL    HW255860   8.128   3.932   1.588
18506SOL     OW55861   8.888   4.580   1.398
18506SOL    HW155862   8.831   4.632   1.335
18506SOL    HW255863   8.984   4.592   1.374
18507SOL     OW55864   8.061   4.566   1.431
18507SOL    HW155865   8.117   4.647   1.414
18507SOL    HW255866   8.120   4.486   1.434
18508SOL     OW55867   8.941   5.491   0.959
18508SOL    HW155868   8.974   5.555   0.890
18508SOL    HW255869   9.007   5.485   1.034
18509SOL     OW55870   8.164   4.289   1.708
18509SOL    HW155871   8.183   4.354   1.782
18509SOL    HW255872   8.224   4.209   1.717
18510SOL     OW55873   8.898   4.944   1.633
18510SOL    HW155874   8.889   4.934   1.732
18510SOL    HW255875   8.994   4.937   1.607
18511SOL     OW55876   7.838   5.465   1.560
18511SOL    HW155877   7.747   5.506   1.558
18511SOL    HW255878   7.831   5.371   1.592
18512SOL     OW55879   9.122   4.607   1.254
18512SOL    HW155880   9.095   4.518   1.217
18512SOL    HW255881   9.123   4.675   1.181
18513SOL     OW55882   8.673   4.049   0.449
18513SOL    HW155883   8.738   3.975   0.438
18513SOL    HW255884   8.693   4.099   0.533
18514SOL     OW55885   8.042   4.469   0.652
18514SOL    HW155886   8.092   4.554   0.633
18514SOL    HW255887   7.954   4.471   0.604
18515SOL     OW55888   9.225   4.066   1.642
18515SOL    HW155889   9.208   4.097   1.548
18515SOL    HW255890   9.141   4.029   1.680
18516SOL     OW55891   9.178   4.658   1.517
18516SOL    HW155892   9.216   4.749   1.532
18516SOL    HW255893   9.170   4.641   1.418
18517SOL     OW55894   8.109   5.514   0.953
18517SOL    HW155895   8.063   5.602   0.940
18517SOL    HW255896   8.208   5.526   0.946
18518SOL     OW55897   8.307   4.680   0.861
18518SOL    HW155898   8.361   4.611   0.909
18518SOL    HW255899   8.275   4.749   0.927
18519SOL     OW55900   9.309   5.293   0.851
18519SOL    HW155901   9.238   5.281   0.781
18519SOL    HW255902   9.310   5.214   0.911
18520SOL     OW55903   7.669   5.038   1.844
18520SOL    HW155904   7.604   4.965   1.823
18520SOL    HW255905   7.673   5.052   1.942
18521SOL     OW55906   7.527   4.964   0.653
18521SOL    HW155907   7.526   4.917   0.741
18521SOL    HW255908   7.609   4.936   0.602
18522SOL     OW55909   8.120   5.115   1.624
18522SOL    HW155910   8.042   5.065   1.662
18522SOL    HW255911   8.117   5.210   1.655
18523SOL     OW55912   9.272   3.916   1.227
18523SOL    HW155913   9.268   3.826   1.271
18523SOL    HW255914   9.275   3.905   1.128
18524SOL     OW55915   7.876   4.148   0.520
18524SOL    HW155916   7.906   4.076   0.458
18524SOL    HW255917   7.837   4.108   0.603
18525SOL     OW55918   9.153   5.211   1.104
18525SOL    HW155919   9.060   5.186   1.077
18525SOL    HW255920   9.179   5.161   1.186
18526SOL     OW55921   7.765   4.271   1.280
18526SOL    HW155922   7.803   4.212   1.352
18526SOL    HW255923   7.805   4.245   1.192
18527SOL     OW55924   8.260   5.310   0.687
18527SOL    HW155925   8.292   5.320   0.593
18527SOL    HW255926   8.181   5.248   0.689
18528SOL     OW55927   8.872   3.938   1.112
18528SOL    HW155928   8.924   3.873   1.167
18528SOL    HW255929   8.823   4.001   1.173
18529SOL     OW55930   8.449   3.758   1.154
18529SOL    HW155931   8.386   3.686   1.123
18529SOL    HW255932   8.542   3.722   1.154
18530SOL     OW55933   8.218   5.054   0.301
18530SOL    HW155934   8.172   4.967   0.318
18530SOL    HW255935   8.309   5.051   0.342
18531SOL     OW55936   8.066   5.291   1.284
18531SOL    HW155937   8.061   5.373   1.341
18531SOL    HW255938   8.155   5.288   1.239
18532SOL     OW55939   8.748   4.177   0.691
18532SOL    HW155940   8.689   4.257   0.695
18532SOL    HW255941   8.763   4.142   0.784
18533SOL     OW55942   9.041   3.945   0.882
18533SOL    HW155943   8.957   3.944   0.936
18533SOL    HW255944   9.043   4.028   0.826
18534SOL     OW55945   8.323   5.370   0.337
18534SOL    HW155946   8.246   5.335   0.283
18534SOL    HW255947   8.291   5.441   0.399
18535SOL     OW55948   7.678   4.352   1.975
18535SOL    HW155949   7.585   4.350   2.012
18535SOL    HW255950   7.679   4.313   1.883
18536SOL     OW55951   7.673   3.999   2.858
18536SOL    HW155952   7.708   3.982   2.950
18536SOL    HW255953   7.585   3.954   2.846
18537SOL     OW55954   7.467   4.092   2.509
18537SOL    HW155955   7.385   4.135   2.548
18537SOL    HW255956   7.439   4.019   2.446
18538SOL     OW55957   8.017   4.999   3.027
18538SOL    HW155958   7.924   4.992   2.990
18538SOL    HW255959   8.028   5.088   3.071
18539SOL     OW55960   9.003   5.235   2.565
18539SOL    HW155961   8.946   5.219   2.646
18539SOL    HW255962   8.944   5.245   2.485
18540SOL     OW55963   8.583   4.427   2.579
18540SOL    HW155964   8.640   4.505   2.554
18540SOL    HW255965   8.523   4.453   2.655
18541SOL     OW55966   9.203   4.331   2.093
18541SOL    HW155967   9.191   4.318   1.994
18541SOL    HW255968   9.173   4.250   2.142
18542SOL     OW55969   8.216   4.868   2.885
18542SOL    HW155970   8.138   4.885   2.945
18542SOL    HW255971   8.250   4.955   2.849
18543SOL     OW55972   8.298   4.522   3.685
18543SOL    HW155973   8.294   4.598   3.750
18543SOL    HW255974   8.320   4.558   3.594
18544SOL     OW55975   8.133   4.736   2.527
18544SOL    HW155976   8.202   4.720   2.597
18544SOL    HW255977   8.060   4.793   2.565
18545SOL     OW55978   8.134   4.885   3.665
18545SOL    HW155979   8.194   4.964   3.679
18545SOL    HW255980   8.048   4.916   3.624
18546SOL     OW55981   7.783   5.159   2.923
18546SOL    HW155982   7.705   5.128   2.870
18546SOL    HW255983   7.841   5.217   2.866
18547SOL     OW55984   8.908   5.229   3.201
18547SOL    HW155985   8.932   5.323   3.227
18547SOL    HW255986   8.892   5.175   3.283
18548SOL     OW55987   7.886   4.116   3.361
18548SOL    HW155988   7.968   4.060   3.370
18548SOL    HW255989   7.805   4.058   3.365
18549SOL     OW55990   9.051   4.171   2.599
18549SOL    HW155991   8.977   4.217   2.549
18549SOL    HW255992   9.102   4.239   2.652
18550SOL     OW55993   7.679   5.437   2.345
18550SOL    HW155994   7.713   5.514   2.399
18550SOL    HW255995   7.723   5.437   2.255
18551SOL     OW55996   8.575   5.065   3.552
18551SOL    HW155997   8.622   5.065   3.640
18551SOL    HW255998   8.527   4.978   3.541
18552SOL     OW55999   7.678   5.158   2.400
18552SOL    HW156000   7.652   5.254   2.400
18552SOL    HW256001   7.607   5.104   2.445
18553SOL     OW56002   7.688   4.815   2.748
18553SOL    HW156003   7.702   4.731   2.800
18553SOL    HW256004   7.633   4.879   2.803
18554SOL     OW56005   8.068   5.510   3.301
18554SOL    HW156006   7.976   5.493   3.336
18554SOL    HW256007   8.096   5.602   3.327
18555SOL     OW56008   8.054   4.688   1.985
18555SOL    HW156009   8.061   4.772   1.931
18555SOL    HW256010   8.100   4.701   2.073
18556SOL     OW56011   9.042   3.838   3.342
18556SOL    HW156012   9.024   3.905   3.270
18556SOL    HW256013   9.039   3.884   3.431
18557SOL     OW56014   7.570   4.367   2.425
18557SOL    HW156015   7.525   4.279   2.442
18557SOL    HW256016   7.569   4.421   2.509
18558SOL     OW56017   9.290   5.491   2.221
18558SOL    HW156018   9.344   5.462   2.301
18558SOL    HW256019   9.320   5.581   2.192
18559SOL     OW56020   7.475   5.320   1.979
18559SOL    HW156021   7.456   5.224   2.000
18559SOL    HW256022   7.442   5.378   2.054
18560SOL     OW56023   9.137   4.646   2.474
18560SOL    HW156024   9.232   4.617   2.482
18560SOL    HW256025   9.129   4.711   2.399
18561SOL     OW56026   9.089   4.832   2.294
18561SOL    HW156027   9.175   4.834   2.242
18561SOL    HW256028   9.103   4.879   2.382
18562SOL     OW56029   7.561   4.461   3.459
18562SOL    HW156030   7.649   4.448   3.504
18562SOL    HW256031   7.548   4.558   3.437
18563SOL     OW56032   8.061   5.089   2.588
18563SOL    HW156033   8.012   5.002   2.597
18563SOL    HW256034   8.038   5.132   2.501
18564SOL     OW56035   8.741   4.952   3.285
18564SOL    HW156036   8.778   4.879   3.227
18564SOL    HW256037   8.793   4.957   3.370
18565SOL     OW56038   8.257   3.728   2.364
18565SOL    HW156039   8.297   3.819   2.355
18565SOL    HW256040   8.157   3.736   2.370
18566SOL     OW56041   7.645   4.700   3.126
18566SOL    HW156042   7.734   4.655   3.112
18566SOL    HW256043   7.572   4.635   3.107
18567SOL     OW56044   8.973   4.723   2.052
18567SOL    HW156045   8.910   4.647   2.065
18567SOL    HW256046   9.021   4.741   2.138
18568SOL     OW56047   8.635   5.516   3.478
18568SOL    HW156048   8.659   5.576   3.402
18568SOL    HW256049   8.642   5.421   3.448
18569SOL     OW56050   7.765   3.975   3.663
18569SOL    HW156051   7.836   4.046   3.669
18569SOL    HW256052   7.677   4.014   3.691
18570SOL     OW56053   8.914   5.141   2.815
18570SOL    HW156054   8.855   5.147   2.895
18570SOL    HW256055   8.899   5.053   2.769
18571SOL     OW56056   9.115   5.438   2.434
18571SOL    HW156057   9.074   5.415   2.346
18571SOL    HW256058   9.097   5.364   2.499
18572SOL     OW56059   8.046   4.453   2.132
18572SOL    HW156060   8.070   4.522   2.064
18572SOL    HW256061   7.968   4.486   2.186
18573SOL     OW56062   8.729   4.069   2.806
18573SOL    HW156063   8.643   4.019   2.793
18573SOL    HW256064   8.791   4.015   2.862
18574SOL     OW56065   9.024   5.386   2.169
18574SOL    HW156066   9.113   5.432   2.172
18574SOL    HW256067   9.003   5.362   2.074
18575SOL     OW56068   8.255   4.329   3.327
18575SOL    HW156069   8.208   4.326   3.416
18575SOL    HW256070   8.204   4.274   3.261
18576SOL     OW56071   8.842   4.193   3.536
18576SOL    HW156072   8.822   4.236   3.624
18576SOL    HW256073   8.920   4.131   3.545
18577SOL     OW56074   8.421   4.614   3.434
18577SOL    HW156075   8.467   4.530   3.405
18577SOL    HW256076   8.365   4.648   3.359
18578SOL     OW56077   8.439   4.134   3.104
18578SOL    HW156078   8.362   4.168   3.158
18578SOL    HW256079   8.405   4.083   3.025
18579SOL     OW56080   8.489   4.425   2.291
18579SOL    HW156081   8.515   4.421   2.387
18579SOL    HW256082   8.404   4.374   2.277
18580SOL     OW56083   7.524   4.535   2.651
18580SOL    HW156084   7.623   4.523   2.660
18580SOL    HW256085   7.500   4.630   2.672
18581SOL     OW56086   7.578   5.545   3.433
18581SOL    HW156087   7.568   5.530   3.532
18581SOL    HW256088   7.492   5.581   3.397
18582SOL     OW56089   8.313   4.072   2.057
18582SOL    HW156090   8.372   4.135   2.008
18582SOL    HW256091   8.332   3.978   2.028
18583SOL     OW56092   9.167   4.309   3.693
18583SOL    HW156093   9.141   4.398   3.657
18583SOL    HW256094   9.165   4.241   3.620
18584SOL     OW56095   8.810   4.868   2.407
18584SOL    HW156096   8.893   4.839   2.359
18584SOL    HW256097   8.761   4.935   2.351
18585SOL     OW56098   7.998   3.920   2.747
18585SOL    HW156099   7.993   3.915   2.847
18585SOL    HW256100   8.000   4.016   2.718
18586SOL     OW56101   8.456   5.180   2.339
18586SOL    HW156102   8.410   5.252   2.287
18586SOL    HW256103   8.452   5.200   2.437
18587SOL     OW56104   7.799   5.525   2.715
18587SOL    HW156105   7.849   5.439   2.721
18587SOL    HW256106   7.864   5.602   2.712
18588SOL     OW56107   9.243   4.790   2.735
18588SOL    HW156108   9.181   4.775   2.659
18588SOL    HW256109   9.191   4.801   2.820
18589SOL     OW56110   8.675   5.274   3.368
18589SOL    HW156111   8.681   5.197   3.432
18589SOL    HW256112   8.623   5.248   3.288
18590SOL     OW56113   7.769   4.667   2.104
18590SOL    HW156114   7.851   4.706   2.062
18590SOL    HW256115   7.742   4.585   2.055
18591SOL     OW56116   8.906   4.459   2.590
18591SOL    HW156117   8.901   4.394   2.665
18591SOL    HW256118   8.986   4.518   2.603
18592SOL     OW56119   7.909   4.990   3.589
18592SOL    HW156120   7.859   4.991   3.503
18592SOL    HW256121   7.846   4.972   3.665
18593SOL     OW56122   8.559   5.500   2.099
18593SOL    HW156123   8.499   5.438   2.149
18593SOL    HW256124   8.590   5.456   2.014
18594SOL     OW56125   7.650   4.009   3.360
18594SOL    HW156126   7.570   4.069   3.347
18594SOL    HW256127   7.640   3.960   3.446
18595SOL     OW56128   9.080   5.101   1.943
18595SOL    HW156129   9.048   5.195   1.933
18595SOL    HW256130   9.004   5.038   1.931
18596SOL     OW56131   7.912   5.467   2.185
18596SOL    HW156132   7.945   5.506   2.271
18596SOL    HW256133   7.988   5.460   2.120
18597SOL     OW56134   8.848   3.831   2.288
18597SOL    HW156135   8.824   3.794   2.198
18597SOL    HW256136   8.947   3.847   2.292
18598SOL     OW56137   7.697   5.509   3.103
18598SOL    HW156138   7.754   5.444   3.153
18598SOL    HW256139   7.681   5.476   3.010
18599SOL     OW56140   8.388   5.422   2.766
18599SOL    HW156141   8.468   5.365   2.787
18599SOL    HW256142   8.339   5.382   2.689
18600SOL     OW56143   7.830   4.424   2.342
18600SOL    HW156144   7.875   4.334   2.339
18600SOL    HW256145   7.736   4.413   2.375
18601SOL     OW56146   8.995   3.946   3.591
18601SOL    HW156147   8.990   3.983   3.683
18601SOL    HW256148   8.923   3.877   3.579
18602SOL     OW56149   8.062   3.846   1.979
18602SOL    HW156150   8.160   3.824   1.986
18602SOL    HW256151   8.031   3.829   1.886
18603SOL     OW56152   8.229   3.988   3.611
18603SOL    HW156153   8.296   3.927   3.654
18603SOL    HW256154   8.156   4.007   3.676
18604SOL     OW56155   8.336   5.238   3.057
18604SOL    HW156156   8.313   5.213   2.963
18604SOL    HW256157   8.397   5.169   3.096
18605SOL     OW56158   8.799   4.314   3.295
18605SOL    HW156159   8.827   4.271   3.380
18605SOL    HW256160   8.824   4.410   3.296
18606SOL     OW56161   8.251   5.126   2.786
18606SOL    HW156162   8.341   5.140   2.744
18606SOL    HW256163   8.180   5.128   2.715
18607SOL     OW56164   8.370   4.227   2.761
18607SOL    HW156165   8.345   4.218   2.665
18607SOL    HW256166   8.418   4.145   2.792
18608SOL     OW56167   7.987   3.788   2.374
18608SOL    HW156168   7.906   3.789   2.432
18608SOL    HW256169   7.990   3.871   2.319
18609SOL     OW56170   8.882   4.912   1.903
18609SOL    HW156171   8.914   4.836   1.960
18609SOL    HW256172   8.790   4.939   1.933
18610SOL     OW56173   7.745   3.759   2.033
18610SOL    HW156174   7.794   3.843   2.012
18610SOL    HW256175   7.807   3.694   2.078
18611SOL     OW56176   8.383   3.960   2.342
18611SOL    HW156177   8.335   4.001   2.264
18611SOL    HW256178   8.482   3.958   2.323
18612SOL     OW56179   8.524   4.407   3.326
18612SOL    HW156180   8.444   4.346   3.329
18612SOL    HW256181   8.605   4.354   3.302
18613SOL     OW56182   8.675   5.294   2.655
18613SOL    HW156183   8.696   5.368   2.590
18613SOL    HW256184   8.743   5.294   2.728
18614SOL     OW56185   7.907   4.876   2.603
18614SOL    HW156186   7.836   4.849   2.668
18614SOL    HW256187   7.881   4.848   2.510
18615SOL     OW56188   8.719   5.521   2.453
18615SOL    HW156189   8.763   5.585   2.389
18615SOL    HW256190   8.669   5.573   2.523
18616SOL     OW56191   8.480   4.273   1.878
18616SOL    HW156192   8.439   4.355   1.839
18616SOL    HW256193   8.544   4.299   1.951
18617SOL     OW56194   7.526   4.280   3.248
18617SOL    HW156195   7.618   4.279   3.207
18617SOL    HW256196   7.520   4.354   3.315
18618SOL     OW56197   8.009   3.946   3.009
18618SOL    HW156198   8.047   3.862   3.046
18618SOL    HW256199   7.921   3.965   3.053
18619SOL     OW56200   8.314   4.178   2.504
18619SOL    HW156201   8.282   4.250   2.442
18619SOL    HW256202   8.338   4.097   2.451
18620SOL     OW56203   8.465   3.763   2.615
18620SOL    HW156204   8.393   3.768   2.546
18620SOL    HW256205   8.441   3.694   2.684
18621SOL     OW56206   8.877   4.897   2.729
18621SOL    HW156207   8.822   4.813   2.722
18621SOL    HW256208   8.903   4.926   2.637
18622SOL     OW56209   8.914   4.314   2.854
18622SOL    HW156210   8.884   4.219   2.861
18622SOL    HW256211   8.987   4.330   2.920
18623SOL     OW56212   9.305   4.557   2.239
18623SOL    HW156213   9.347   4.493   2.303
18623SOL    HW256214   9.267   4.506   2.161
18624SOL     OW56215   7.936   5.109   2.036
18624SOL    HW156216   7.849   5.094   2.083
18624SOL    HW256217   7.919   5.135   1.941
18625SOL     OW56218   9.112   5.004   2.519
18625SOL    HW156219   9.211   5.012   2.533
18625SOL    HW256220   9.067   5.088   2.550
18626SOL     OW56221   8.838   4.299   1.940
18626SOL    HW156222   8.784   4.278   2.021
18626SOL    HW256223   8.929   4.258   1.949
18627SOL     OW56224   7.975   3.980   2.190
18627SOL    HW156225   8.002   3.921   2.115
18627SOL    HW256226   7.975   4.075   2.159
18628SOL     OW56227   9.202   4.947   3.450
18628SOL    HW156228   9.293   4.908   3.437
18628SOL    HW256229   9.210   5.043   3.474
18629SOL     OW56230   8.512   5.071   3.202
18629SOL    HW156231   8.432   5.048   3.257
18629SOL    HW256232   8.595   5.045   3.251
18630SOL     OW56233   9.040   5.353   3.487
18630SOL    HW156234   9.067   5.387   3.397
18630SOL    HW256235   9.119   5.315   3.533
18631SOL     OW56236   8.559   4.919   2.962
18631SOL    HW156237   8.519   4.963   3.043
18631SOL    HW256238   8.518   4.956   2.879
18632SOL     OW56239   9.086   4.823   2.941
18632SOL    HW156240   9.091   4.904   3.000
18632SOL    HW256241   9.000   4.825   2.890
18633SOL     OW56242   8.363   3.813   3.264
18633SOL    HW156243   8.388   3.793   3.169
18633SOL    HW256244   8.435   3.869   3.306
18634SOL     OW56245   8.428   4.840   3.581
18634SOL    HW156246   8.329   4.846   3.591
18634SOL    HW256247   8.451   4.760   3.525
18635SOL     OW56248   8.153   4.774   2.230
18635SOL    HW156249   8.139   4.781   2.329
18635SOL    HW256250   8.237   4.723   2.212
18636SOL     OW56251   7.858   4.537   3.113
18636SOL    HW156252   7.944   4.549   3.163
18636SOL    HW256253   7.816   4.450   3.140
18637SOL     OW56254   8.722   4.110   3.124
18637SOL    HW156255   8.743   4.184   3.188
18637SOL    HW256256   8.633   4.127   3.081
18638SOL     OW56257   7.512   5.288   3.193
18638SOL    HW156258   7.466   5.370   3.159
18638SOL    HW256259   7.610   5.307   3.202
18639SOL     OW56260   7.815   4.824   2.363
18639SOL    HW156261   7.808   4.907   2.307
18639SOL    HW256262   7.819   4.744   2.303
18640SOL     OW56263   8.014   4.261   2.727
18640SOL    HW156264   8.026   4.327   2.653
18640SOL    HW256265   8.060   4.295   2.810
18641SOL     OW56266   8.700   5.072   2.250
18641SOL    HW156267   8.750   5.149   2.290
18641SOL    HW256268   8.605   5.074   2.282
18642SOL     OW56269   8.720   5.169   3.004
18642SOL    HW156270   8.767   5.182   3.091
18642SOL    HW256271   8.654   5.095   3.013
18643SOL     OW56272   9.030   4.363   2.334
18643SOL    HW156273   8.999   4.424   2.407
18643SOL    HW256274   9.080   4.415   2.265
18644SOL     OW56275   7.802   5.234   3.191
18644SOL    HW156276   7.781   5.190   3.104
18644SOL    HW256277   7.899   5.260   3.194
18645SOL     OW56278   7.850   4.475   3.460
18645SOL    HW156279   7.918   4.530   3.413
18645SOL    HW256280   7.890   4.387   3.487
18646SOL     OW56281   9.035   4.503   3.532
18646SOL    HW156282   8.943   4.541   3.527
18646SOL    HW256283   9.095   4.550   3.467
18647SOL     OW56284   8.461   3.829   3.632
18647SOL    HW156285   8.467   3.914   3.580
18647SOL    HW256286   8.493   3.753   3.575
18648SOL     OW56287   7.952   3.774   3.602
18648SOL    HW156288   7.910   3.717   3.532
18648SOL    HW256289   7.886   3.843   3.634
18649SOL     OW56290   8.021   4.594   2.891
18649SOL    HW156291   8.065   4.683   2.882
18649SOL    HW256292   7.958   4.594   2.968
18650SOL     OW56293   8.808   4.586   2.907
18650SOL    HW156294   8.733   4.586   2.841
18650SOL    HW256295   8.845   4.494   2.916
18651SOL     OW56296   8.657   4.249   2.137
18651SOL    HW156297   8.670   4.165   2.191
18651SOL    HW256298   8.628   4.323   2.197
18652SOL     OW56299   7.755   3.937   3.093
18652SOL    HW156300   7.732   3.974   3.183
18652SOL    HW256301   7.725   3.842   3.087
18653SOL     OW56302   7.485   5.034   3.144
18653SOL    HW156303   7.538   4.985   3.212
18653SOL    HW256304   7.507   5.132   3.149
18654SOL     OW56305   8.180   4.358   2.926
18654SOL    HW156306   8.239   4.332   2.850
18654SOL    HW256307   8.152   4.454   2.915
18655SOL     OW56308   9.176   4.659   3.716
18655SOL    HW156309   9.130   4.652   3.627
18655SOL    HW256310   9.114   4.703   3.782
18656SOL     OW56311   7.755   3.787   2.480
18656SOL    HW156312   7.744   3.881   2.513
18656SOL    HW256313   7.750   3.724   2.557
18657SOL     OW56314   9.070   4.091   2.236
18657SOL    HW156315   9.072   4.015   2.300
18657SOL    HW256316   9.022   4.168   2.276
18658SOL     OW56317   8.471   4.490   2.828
18658SOL    HW156318   8.486   4.511   2.924
18658SOL    HW256319   8.441   4.395   2.819
18659SOL     OW56320   8.428   5.297   3.562
18659SOL    HW156321   8.408   5.341   3.474
18659SOL    HW256322   8.467   5.206   3.546
18660SOL     OW56323   9.307   5.242   3.467
18660SOL    HW156324   9.321   5.269   3.372
18660SOL    HW256325   9.390   5.264   3.520
18661SOL     OW56326   7.798   4.622   3.666
18661SOL    HW156327   7.874   4.666   3.714
18661SOL    HW256328   7.833   4.575   3.584
18662SOL     OW56329   8.988   3.998   1.987
18662SOL    HW156330   8.927   3.923   2.010
18662SOL    HW256331   9.010   4.050   2.070
18663SOL     OW56332   8.751   4.562   1.904
18663SOL    HW156333   8.785   4.469   1.919
18663SOL    HW256334   8.769   4.589   1.809
18664SOL     OW56335   8.516   5.057   2.711
18664SOL    HW156336   8.523   4.973   2.656
18664SOL    HW256337   8.578   5.126   2.675
18665SOL     OW56338   7.767   4.534   2.811
18665SOL    HW156339   7.860   4.570   2.816
18665SOL    HW256340   7.761   4.449   2.863
18666SOL     OW56341   7.787   4.233   2.868
18666SOL    HW156342   7.735   4.150   2.851
18666SOL    HW256343   7.864   4.238   2.804
18667SOL     OW56344   8.586   4.104   3.540
18667SOL    HW156345   8.541   4.167   3.604
18667SOL    HW256346   8.679   4.135   3.523
18668SOL     OW56347   8.608   3.931   3.339
18668SOL    HW156348   8.608   3.995   3.416
18668SOL    HW256349   8.636   3.979   3.256
18669SOL     OW56350   7.456   5.050   2.062
18669SOL    HW156351   7.363   5.071   2.031
18669SOL    HW256352   7.466   4.951   2.075
18670SOL     OW56353   7.536   5.525   2.789
18670SOL    HW156354   7.494   5.439   2.762
18670SOL    HW256355   7.630   5.528   2.755
18671SOL     OW56356   7.952   5.292   2.772
18671SOL    HW156357   8.018   5.366   2.781
18671SOL    HW256358   7.996   5.213   2.730
18672SOL     OW56359   8.450   4.520   3.100
18672SOL    HW156360   8.491   4.488   3.186
18672SOL    HW256361   8.354   4.493   3.097
18673SOL     OW56362   7.488   4.268   2.976
18673SOL    HW156363   7.573   4.235   2.935
18673SOL    HW256364   7.501   4.283   3.074
18674SOL     OW56365   7.637   4.244   3.584
18674SOL    HW156366   7.696   4.204   3.514
18674SOL    HW256367   7.579   4.315   3.543
18675SOL     OW56368   8.817   4.674   3.522
18675SOL    HW156369   8.856   4.763   3.542
18675SOL    HW256370   8.827   4.654   3.425
18676SOL     OW56371   8.263   4.296   2.187
18676SOL    HW156372   8.270   4.207   2.141
18676SOL    HW256373   8.169   4.330   2.179
18677SOL     OW56374   9.105   4.328   3.068
18677SOL    HW156375   9.067   4.259   3.130
18677SOL    HW256376   9.187   4.292   3.024
18678SOL     OW56377   7.700   5.288   3.606
18678SOL    HW156378   7.670   5.345   3.682
18678SOL    HW256379   7.693   5.191   3.632
18679SOL     OW56380   8.119   4.188   3.131
18679SOL    HW156381   8.085   4.099   3.101
18679SOL    HW256382   8.145   4.242   3.051
18680SOL     OW56383   8.378   5.402   3.327
18680SOL    HW156384   8.354   5.384   3.232
18680SOL    HW256385   8.408   5.496   3.337
18681SOL     OW56386   7.921   4.224   2.053
18681SOL    HW156387   7.982   4.304   2.057
18681SOL    HW256388   7.826   4.255   2.060
18682SOL     OW56389   7.607   4.861   3.328
18682SOL    HW156390   7.629   4.800   3.404
18682SOL    HW256391   7.617   4.812   3.242
18683SOL     OW56392   8.795   4.783   3.096
18683SOL    HW156393   8.819   4.720   3.022
18683SOL    HW256394   8.705   4.823   3.078
18684SOL     OW56395   8.750   4.579   2.171
18684SOL    HW156396   8.664   4.548   2.213
18684SOL    HW256397   8.746   4.565   2.072
18685SOL     OW56398   9.207   5.471   3.016
18685SOL    HW156399   9.268   5.501   2.943
18685SOL    HW256400   9.169   5.382   2.994
18686SOL     OW56401   8.700   5.455   2.990
18686SOL    HW156402   8.784   5.460   2.936
18686SOL    HW256403   8.677   5.359   3.008
18687SOL     OW56404   7.531   4.982   2.884
18687SOL    HW156405   7.526   4.981   2.984
18687SOL    HW256406   7.448   4.941   2.846
18688SOL     OW56407   8.136   5.386   3.578
18688SOL    HW156408   8.080   5.467   3.587
18688SOL    HW256409   8.188   5.390   3.492
18689SOL     OW56410   9.174   3.859   2.385
18689SOL    HW156411   9.247   3.842   2.318
18689SOL    HW256412   9.143   3.772   2.423
18690SOL     OW56413   8.836   5.297   2.339
18690SOL    HW156414   8.903   5.309   2.265
18690SOL    HW256415   8.796   5.386   2.362
18691SOL     OW56416   7.578   5.518   3.713
18691SOL    HW156417   7.537   5.444   3.766
18691SOL    HW256418   7.642   5.569   3.771
18692SOL     OW56419   8.728   4.651   2.534
18692SOL    HW156420   8.788   4.570   2.536
18692SOL    HW256421   8.768   4.720   2.474
18693SOL     OW56422   8.278   4.997   3.284
18693SOL    HW156423   8.273   5.030   3.379
18693SOL    HW256424   8.192   5.016   3.238
18694SOL     OW56425   8.120   5.340   2.016
18694SOL    HW156426   8.129   5.350   1.917
18694SOL    HW256427   8.080   5.251   2.037
18695SOL     OW56428   9.098   5.444   3.256
18695SOL    HW156429   9.151   5.454   3.172
18695SOL    HW256430   9.071   5.534   3.290
18696SOL     OW56431   9.289   3.899   2.825
18696SOL    HW156432   9.328   3.814   2.789
18696SOL    HW256433   9.191   3.901   2.806
18697SOL     OW56434   7.711   4.050   2.582
18697SOL    HW156435   7.632   4.101   2.548
18697SOL    HW256436   7.702   4.035   2.680
18698SOL     OW56437   8.642   5.336   1.893
18698SOL    HW156438   8.648   5.243   1.930
18698SOL    HW256439   8.583   5.336   1.813
18699SOL     OW56440   8.270   4.726   3.234
18699SOL    HW156441   8.310   4.725   3.142
18699SOL    HW256442   8.280   4.818   3.274
18700SOL     OW56443   8.364   4.634   2.153
18700SOL    HW156444   8.427   4.672   2.085
18700SOL    HW256445   8.404   4.551   2.192
18701SOL     OW56446   8.952   5.331   1.906
18701SOL    HW156447   8.860   5.368   1.913
18701SOL    HW256448   8.990   5.351   1.816
18702SOL     OW56449   7.820   5.012   3.352
18702SOL    HW156450   7.807   5.105   3.318
18702SOL    HW256451   7.736   4.960   3.339
18703SOL     OW56452   9.062   5.016   3.151
18703SOL    HW156453   9.122   5.019   3.231
18703SOL    HW256454   8.987   5.080   3.164
18704SOL     OW56455   8.487   4.822   2.558
18704SOL    HW156456   8.417   4.775   2.612
18704SOL    HW256457   8.546   4.754   2.515
18705SOL     OW56458   8.462   3.960   2.833
18705SOL    HW156459   8.454   3.924   2.740
18705SOL    HW256460   8.460   3.884   2.898
18706SOL     OW56461   8.038   5.211   2.353
18706SOL    HW156462   8.080   5.153   2.283
18706SOL    HW256463   7.994   5.290   2.309
18707SOL     OW56464   9.157   4.109   3.243
18707SOL    HW156465   9.230   4.178   3.247
18707SOL    HW256466   9.185   4.034   3.184
18708SOL     OW56467   7.703   5.072   2.152
18708SOL    HW156468   7.607   5.073   2.125
18708SOL    HW256469   7.715   5.125   2.236
18709SOL     OW56470   7.553   4.737   3.588
18709SOL    HW156471   7.476   4.704   3.642
18709SOL    HW256472   7.638   4.707   3.630
18710SOL     OW56473   8.120   3.927   3.351
18710SOL    HW156474   8.210   3.911   3.311
18710SOL    HW256475   8.128   3.932   3.450
18711SOL     OW56476   7.523   4.069   1.895
18711SOL    HW156477   7.431   4.041   1.866
18711SOL    HW256478   7.554   4.146   1.839
18712SOL     OW56479   8.888   4.580   3.260
18712SOL    HW156480   8.831   4.632   3.197
18712SOL    HW256481   8.984   4.592   3.236
18713SOL     OW56482   7.520   3.890   2.180
18713SOL    HW156483   7.503   3.973   2.126
18713SOL    HW256484   7.610   3.853   2.158
18714SOL     OW56485   8.631   5.059   1.981
18714SOL    HW156486   8.532   5.048   1.983
18714SOL    HW256487   8.665   5.074   2.074
18715SOL     OW56488   8.061   4.566   3.293
18715SOL    HW156489   8.117   4.647   3.276
18715SOL    HW256490   8.120   4.486   3.296
18716SOL     OW56491   8.941   5.491   2.821
18716SOL    HW156492   8.974   5.555   2.752
18716SOL    HW256493   9.007   5.485   2.896
18717SOL     OW56494   8.164   4.289   3.570
18717SOL    HW156495   8.183   4.354   3.644
18717SOL    HW256496   8.224   4.209   3.579
18718SOL     OW56497   8.898   4.944   3.495
18718SOL    HW156498   8.889   4.934   3.594
18718SOL    HW256499   8.994   4.937   3.469
18719SOL     OW56500   7.838   5.465   3.422
18719SOL    HW156501   7.747   5.506   3.420
18719SOL    HW256502   7.831   5.371   3.454
18720SOL     OW56503   9.122   4.607   3.116
18720SOL    HW156504   9.095   4.518   3.079
18720SOL    HW256505   9.123   4.675   3.043
18721SOL     OW56506   8.673   4.049   2.311
18721SOL    HW156507   8.738   3.975   2.300
18721SOL    HW256508   8.693   4.099   2.395
18722SOL     OW56509   8.042   4.469   2.514
18722SOL    HW156510   8.092   4.554   2.495
18722SOL    HW256511   7.954   4.471   2.466
18723SOL     OW56512   9.225   4.066   3.504
18723SOL    HW156513   9.208   4.097   3.410
18723SOL    HW256514   9.141   4.029   3.542
18724SOL     OW56515   9.178   4.658   3.379
18724SOL    HW156516   9.216   4.749   3.394
18724SOL    HW256517   9.170   4.641   3.280
18725SOL     OW56518   8.307   5.098   1.878
18725SOL    HW156519   8.261   5.113   1.966
18725SOL    HW256520   8.351   5.183   1.848
18726SOL     OW56521   8.109   5.514   2.815
18726SOL    HW156522   8.063   5.602   2.802
18726SOL    HW256523   8.208   5.526   2.808
18727SOL     OW56524   8.307   4.680   2.723
18727SOL    HW156525   8.361   4.611   2.771
18727SOL    HW256526   8.275   4.749   2.789
18728SOL     OW56527   8.531   4.708   1.949
18728SOL    HW156528   8.508   4.761   1.867
18728SOL    HW256529   8.612   4.652   1.930
18729SOL     OW56530   9.309   5.293   2.713
18729SOL    HW156531   9.238   5.281   2.643
18729SOL    HW256532   9.310   5.214   2.773
18730SOL     OW56533   7.669   5.038   3.706
18730SOL    HW156534   7.604   4.965   3.685
18730SOL    HW256535   7.673   5.052   3.804
18731SOL     OW56536   7.527   4.964   2.515
18731SOL    HW156537   7.526   4.917   2.603
18731SOL    HW256538   7.609   4.936   2.464
18732SOL     OW56539   8.120   5.115   3.486
18732SOL    HW156540   8.042   5.065   3.524
18732SOL    HW256541   8.117   5.210   3.517
18733SOL     OW56542   9.272   3.916   3.089
18733SOL    HW156543   9.268   3.826   3.133
18733SOL    HW256544   9.275   3.905   2.990
18734SOL     OW56545   7.876   4.148   2.382
18734SOL    HW156546   7.906   4.076   2.320
18734SOL    HW256547   7.837   4.108   2.465
18735SOL     OW56548   9.153   5.211   2.966
18735SOL    HW156549   9.060   5.186   2.939
18735SOL    HW256550   9.179   5.161   3.048
18736SOL     OW56551   7.765   4.271   3.142
18736SOL    HW156552   7.803   4.212   3.214
18736SOL    HW256553   7.805   4.245   3.054
18737SOL     OW56554   8.260   5.310   2.549
18737SOL    HW156555   8.292   5.320   2.455
18737SOL    HW256556   8.181   5.248   2.551
18738SOL     OW56557   8.872   3.938   2.974
18738SOL    HW156558   8.924   3.873   3.029
18738SOL    HW256559   8.823   4.001   3.035
18739SOL     OW56560   8.449   3.758   3.016
18739SOL    HW156561   8.386   3.686   2.985
18739SOL    HW256562   8.542   3.722   3.016
18740SOL     OW56563   8.218   5.054   2.163
18740SOL    HW156564   8.172   4.967   2.180
18740SOL    HW256565   8.309   5.051   2.204
18741SOL     OW56566   8.066   5.291   3.146
18741SOL    HW156567   8.061   5.373   3.203
18741SOL    HW256568   8.155   5.288   3.101
18742SOL     OW56569   8.800   3.776   2.030
18742SOL    HW156570   8.835   3.735   1.946
18742SOL    HW256571   8.710   3.738   2.050
18743SOL     OW56572   8.748   4.177   2.553
18743SOL    HW156573   8.689   4.257   2.557
18743SOL    HW256574   8.763   4.142   2.646
18744SOL     OW56575   9.041   3.945   2.744
18744SOL    HW156576   8.957   3.944   2.798
18744SOL    HW256577   9.043   4.028   2.688
18745SOL     OW56578   7.487   4.801   2.162
18745SOL    HW156579   7.586   4.790   2.153
18745SOL    HW256580   7.447   4.715   2.194
18746SOL     OW56581   8.323   5.370   2.199
18746SOL    HW156582   8.246   5.335   2.145
18746SOL    HW256583   8.291   5.441   2.261
18747SOL     OW56584   7.678   4.352   3.837
18747SOL    HW156585   7.585   4.350   3.874
18747SOL    HW256586   7.679   4.313   3.745
18748SOL     OW56587   7.673   3.999   4.720
18748SOL    HW156588   7.708   3.982   4.812
18748SOL    HW256589   7.585   3.954   4.708
18749SOL     OW56590   7.467   4.092   4.371
18749SOL    HW156591   7.385   4.135   4.410
18749SOL    HW256592   7.439   4.019   4.308
18750SOL     OW56593   8.017   4.999   4.889
18750SOL    HW156594   7.924   4.992   4.852
18750SOL    HW256595   8.028   5.088   4.933
18751SOL     OW56596   9.003   5.235   4.427
18751SOL    HW156597   8.946   5.219   4.508
18751SOL    HW256598   8.944   5.245   4.347
18752SOL     OW56599   8.583   4.427   4.441
18752SOL    HW156600   8.640   4.505   4.416
18752SOL    HW256601   8.523   4.453   4.517
18753SOL     OW56602   9.203   4.331   3.955
18753SOL    HW156603   9.191   4.318   3.856
18753SOL    HW256604   9.173   4.250   4.004
18754SOL     OW56605   8.216   4.868   4.747
18754SOL    HW156606   8.138   4.885   4.807
18754SOL    HW256607   8.250   4.955   4.711
18755SOL     OW56608   8.298   4.522   5.547
18755SOL    HW156609   8.294   4.598   5.612
18755SOL    HW256610   8.320   4.558   5.456
18756SOL     OW56611   8.133   4.736   4.389
18756SOL    HW156612   8.202   4.720   4.459
18756SOL    HW256613   8.060   4.793   4.427
18757SOL     OW56614   8.134   4.885   5.527
18757SOL    HW156615   8.194   4.964   5.541
18757SOL    HW256616   8.048   4.916   5.486
18758SOL     OW56617   7.783   5.159   4.785
18758SOL    HW156618   7.705   5.128   4.732
18758SOL    HW256619   7.841   5.217   4.728
18759SOL     OW56620   8.908   5.229   5.063
18759SOL    HW156621   8.932   5.323   5.089
18759SOL    HW256622   8.892   5.175   5.145
18760SOL     OW56623   7.886   4.116   5.223
18760SOL    HW156624   7.968   4.060   5.232
18760SOL    HW256625   7.805   4.058   5.227
18761SOL     OW56626   9.051   4.171   4.461
18761SOL    HW156627   8.977   4.217   4.411
18761SOL    HW256628   9.102   4.239   4.514
18762SOL     OW56629   7.679   5.437   4.207
18762SOL    HW156630   7.713   5.514   4.261
18762SOL    HW256631   7.723   5.437   4.117
18763SOL     OW56632   8.575   5.065   5.414
18763SOL    HW156633   8.622   5.065   5.502
18763SOL    HW256634   8.527   4.978   5.403
18764SOL     OW56635   7.678   5.158   4.262
18764SOL    HW156636   7.652   5.254   4.262
18764SOL    HW256637   7.607   5.104   4.307
18765SOL     OW56638   7.688   4.815   4.610
18765SOL    HW156639   7.702   4.731   4.662
18765SOL    HW256640   7.633   4.879   4.665
18766SOL     OW56641   8.068   5.510   5.163
18766SOL    HW156642   7.976   5.493   5.198
18766SOL    HW256643   8.096   5.602   5.189
18767SOL     OW56644   8.054   4.688   3.847
18767SOL    HW156645   8.061   4.772   3.793
18767SOL    HW256646   8.100   4.701   3.935
18768SOL     OW56647   9.042   3.838   5.204
18768SOL    HW156648   9.024   3.905   5.132
18768SOL    HW256649   9.039   3.884   5.293
18769SOL     OW56650   7.570   4.367   4.287
18769SOL    HW156651   7.525   4.279   4.304
18769SOL    HW256652   7.569   4.421   4.371
18770SOL     OW56653   9.290   5.491   4.083
18770SOL    HW156654   9.344   5.462   4.163
18770SOL    HW256655   9.320   5.581   4.054
18771SOL     OW56656   7.475   5.320   3.841
18771SOL    HW156657   7.456   5.224   3.862
18771SOL    HW256658   7.442   5.378   3.916
18772SOL     OW56659   9.137   4.646   4.336
18772SOL    HW156660   9.232   4.617   4.344
18772SOL    HW256661   9.129   4.711   4.261
18773SOL     OW56662   9.089   4.832   4.156
18773SOL    HW156663   9.175   4.834   4.104
18773SOL    HW256664   9.103   4.879   4.244
18774SOL     OW56665   7.561   4.461   5.321
18774SOL    HW156666   7.649   4.448   5.366
18774SOL    HW256667   7.548   4.558   5.299
18775SOL     OW56668   8.061   5.089   4.450
18775SOL    HW156669   8.012   5.002   4.459
18775SOL    HW256670   8.038   5.132   4.363
18776SOL     OW56671   8.741   4.952   5.147
18776SOL    HW156672   8.778   4.879   5.089
18776SOL    HW256673   8.793   4.957   5.232
18777SOL     OW56674   8.257   3.728   4.226
18777SOL    HW156675   8.297   3.819   4.217
18777SOL    HW256676   8.157   3.736   4.232
18778SOL     OW56677   7.645   4.700   4.988
18778SOL    HW156678   7.734   4.655   4.974
18778SOL    HW256679   7.572   4.635   4.969
18779SOL     OW56680   8.973   4.723   3.914
18779SOL    HW156681   8.910   4.647   3.927
18779SOL    HW256682   9.021   4.741   4.000
18780SOL     OW56683   8.635   5.516   5.340
18780SOL    HW156684   8.659   5.576   5.264
18780SOL    HW256685   8.642   5.421   5.310
18781SOL     OW56686   7.765   3.975   5.525
18781SOL    HW156687   7.836   4.046   5.531
18781SOL    HW256688   7.677   4.014   5.553
18782SOL     OW56689   8.914   5.141   4.677
18782SOL    HW156690   8.855   5.147   4.757
18782SOL    HW256691   8.899   5.053   4.631
18783SOL     OW56692   9.115   5.438   4.296
18783SOL    HW156693   9.074   5.415   4.208
18783SOL    HW256694   9.097   5.364   4.361
18784SOL     OW56695   8.046   4.453   3.994
18784SOL    HW156696   8.070   4.522   3.926
18784SOL    HW256697   7.968   4.486   4.048
18785SOL     OW56698   8.729   4.069   4.668
18785SOL    HW156699   8.643   4.019   4.655
18785SOL    HW256700   8.791   4.015   4.724
18786SOL     OW56701   9.024   5.386   4.031
18786SOL    HW156702   9.113   5.432   4.034
18786SOL    HW256703   9.003   5.362   3.936
18787SOL     OW56704   8.255   4.329   5.189
18787SOL    HW156705   8.208   4.326   5.278
18787SOL    HW256706   8.204   4.274   5.123
18788SOL     OW56707   8.842   4.193   5.398
18788SOL    HW156708   8.822   4.236   5.486
18788SOL    HW256709   8.920   4.131   5.407
18789SOL     OW56710   8.421   4.614   5.296
18789SOL    HW156711   8.467   4.530   5.267
18789SOL    HW256712   8.365   4.648   5.221
18790SOL     OW56713   8.439   4.134   4.966
18790SOL    HW156714   8.362   4.168   5.020
18790SOL    HW256715   8.405   4.083   4.887
18791SOL     OW56716   8.489   4.425   4.153
18791SOL    HW156717   8.515   4.421   4.249
18791SOL    HW256718   8.404   4.374   4.139
18792SOL     OW56719   7.524   4.535   4.513
18792SOL    HW156720   7.623   4.523   4.522
18792SOL    HW256721   7.500   4.630   4.534
18793SOL     OW56722   7.578   5.545   5.295
18793SOL    HW156723   7.568   5.530   5.394
18793SOL    HW256724   7.492   5.581   5.259
18794SOL     OW56725   8.313   4.072   3.919
18794SOL    HW156726   8.372   4.135   3.870
18794SOL    HW256727   8.332   3.978   3.890
18795SOL     OW56728   9.167   4.309   5.555
18795SOL    HW156729   9.141   4.398   5.519
18795SOL    HW256730   9.165   4.241   5.482
18796SOL     OW56731   8.810   4.868   4.269
18796SOL    HW156732   8.893   4.839   4.221
18796SOL    HW256733   8.761   4.935   4.213
18797SOL     OW56734   7.998   3.920   4.609
18797SOL    HW156735   7.993   3.915   4.709
18797SOL    HW256736   8.000   4.016   4.580
18798SOL     OW56737   8.456   5.180   4.201
18798SOL    HW156738   8.410   5.252   4.149
18798SOL    HW256739   8.452   5.200   4.299
18799SOL     OW56740   7.799   5.525   4.577
18799SOL    HW156741   7.849   5.439   4.583
18799SOL    HW256742   7.864   5.602   4.574
18800SOL     OW56743   9.243   4.790   4.597
18800SOL    HW156744   9.181   4.775   4.521
18800SOL    HW256745   9.191   4.801   4.682
18801SOL     OW56746   8.675   5.274   5.230
18801SOL    HW156747   8.681   5.197   5.294
18801SOL    HW256748   8.623   5.248   5.150
18802SOL     OW56749   7.769   4.667   3.966
18802SOL    HW156750   7.851   4.706   3.924
18802SOL    HW256751   7.742   4.585   3.917
18803SOL     OW56752   8.906   4.459   4.452
18803SOL    HW156753   8.901   4.394   4.527
18803SOL    HW256754   8.986   4.518   4.465
18804SOL     OW56755   7.909   4.990   5.451
18804SOL    HW156756   7.859   4.991   5.365
18804SOL    HW256757   7.846   4.972   5.527
18805SOL     OW56758   8.559   5.500   3.961
18805SOL    HW156759   8.499   5.438   4.011
18805SOL    HW256760   8.590   5.456   3.876
18806SOL     OW56761   7.650   4.009   5.222
18806SOL    HW156762   7.570   4.069   5.209
18806SOL    HW256763   7.640   3.960   5.308
18807SOL     OW56764   9.080   5.101   3.805
18807SOL    HW156765   9.048   5.195   3.795
18807SOL    HW256766   9.004   5.038   3.793
18808SOL     OW56767   7.912   5.467   4.047
18808SOL    HW156768   7.945   5.506   4.133
18808SOL    HW256769   7.988   5.460   3.982
18809SOL     OW56770   8.848   3.831   4.150
18809SOL    HW156771   8.824   3.794   4.060
18809SOL    HW256772   8.947   3.847   4.154
18810SOL     OW56773   7.697   5.509   4.965
18810SOL    HW156774   7.754   5.444   5.015
18810SOL    HW256775   7.681   5.476   4.872
18811SOL     OW56776   8.388   5.422   4.628
18811SOL    HW156777   8.468   5.365   4.649
18811SOL    HW256778   8.339   5.382   4.551
18812SOL     OW56779   7.830   4.424   4.204
18812SOL    HW156780   7.875   4.334   4.201
18812SOL    HW256781   7.736   4.413   4.237
18813SOL     OW56782   8.995   3.946   5.453
18813SOL    HW156783   8.990   3.983   5.545
18813SOL    HW256784   8.923   3.877   5.441
18814SOL     OW56785   8.062   3.846   3.841
18814SOL    HW156786   8.160   3.824   3.848
18814SOL    HW256787   8.031   3.829   3.748
18815SOL     OW56788   8.229   3.988   5.473
18815SOL    HW156789   8.296   3.927   5.516
18815SOL    HW256790   8.156   4.007   5.538
18816SOL     OW56791   8.336   5.238   4.919
18816SOL    HW156792   8.313   5.213   4.825
18816SOL    HW256793   8.397   5.169   4.958
18817SOL     OW56794   8.799   4.314   5.157
18817SOL    HW156795   8.827   4.271   5.242
18817SOL    HW256796   8.824   4.410   5.158
18818SOL     OW56797   8.251   5.126   4.648
18818SOL    HW156798   8.341   5.140   4.606
18818SOL    HW256799   8.180   5.128   4.577
18819SOL     OW56800   8.370   4.227   4.623
18819SOL    HW156801   8.345   4.218   4.527
18819SOL    HW256802   8.418   4.145   4.654
18820SOL     OW56803   7.987   3.788   4.236
18820SOL    HW156804   7.906   3.789   4.294
18820SOL    HW256805   7.990   3.871   4.181
18821SOL     OW56806   8.882   4.912   3.765
18821SOL    HW156807   8.914   4.836   3.822
18821SOL    HW256808   8.790   4.939   3.795
18822SOL     OW56809   7.745   3.759   3.895
18822SOL    HW156810   7.794   3.843   3.874
18822SOL    HW256811   7.807   3.694   3.940
18823SOL     OW56812   8.383   3.960   4.204
18823SOL    HW156813   8.335   4.001   4.126
18823SOL    HW256814   8.482   3.958   4.185
18824SOL     OW56815   8.524   4.407   5.188
18824SOL    HW156816   8.444   4.346   5.191
18824SOL    HW256817   8.605   4.354   5.164
18825SOL     OW56818   8.675   5.294   4.517
18825SOL    HW156819   8.696   5.368   4.452
18825SOL    HW256820   8.743   5.294   4.590
18826SOL     OW56821   7.907   4.876   4.465
18826SOL    HW156822   7.836   4.849   4.530
18826SOL    HW256823   7.881   4.848   4.372
18827SOL     OW56824   8.719   5.521   4.315
18827SOL    HW156825   8.763   5.585   4.251
18827SOL    HW256826   8.669   5.573   4.385
18828SOL     OW56827   8.480   4.273   3.740
18828SOL    HW156828   8.439   4.355   3.701
18828SOL    HW256829   8.544   4.299   3.813
18829SOL     OW56830   7.526   4.280   5.110
18829SOL    HW156831   7.618   4.279   5.069
18829SOL    HW256832   7.520   4.354   5.177
18830SOL     OW56833   8.009   3.946   4.871
18830SOL    HW156834   8.047   3.862   4.908
18830SOL    HW256835   7.921   3.965   4.915
18831SOL     OW56836   8.314   4.178   4.366
18831SOL    HW156837   8.282   4.250   4.304
18831SOL    HW256838   8.338   4.097   4.313
18832SOL     OW56839   8.465   3.763   4.477
18832SOL    HW156840   8.393   3.768   4.408
18832SOL    HW256841   8.441   3.694   4.546
18833SOL     OW56842   8.877   4.897   4.591
18833SOL    HW156843   8.822   4.813   4.584
18833SOL    HW256844   8.903   4.926   4.499
18834SOL     OW56845   8.914   4.314   4.716
18834SOL    HW156846   8.884   4.219   4.723
18834SOL    HW256847   8.987   4.330   4.782
18835SOL     OW56848   9.305   4.557   4.101
18835SOL    HW156849   9.347   4.493   4.165
18835SOL    HW256850   9.267   4.506   4.023
18836SOL     OW56851   7.936   5.109   3.898
18836SOL    HW156852   7.849   5.094   3.945
18836SOL    HW256853   7.919   5.135   3.803
18837SOL     OW56854   9.112   5.004   4.381
18837SOL    HW156855   9.211   5.012   4.395
18837SOL    HW256856   9.067   5.088   4.412
18838SOL     OW56857   8.838   4.299   3.802
18838SOL    HW156858   8.784   4.278   3.883
18838SOL    HW256859   8.929   4.258   3.811
18839SOL     OW56860   7.975   3.980   4.052
18839SOL    HW156861   8.002   3.921   3.977
18839SOL    HW256862   7.975   4.075   4.021
18840SOL     OW56863   9.202   4.947   5.312
18840SOL    HW156864   9.293   4.908   5.299
18840SOL    HW256865   9.210   5.043   5.336
18841SOL     OW56866   8.512   5.071   5.064
18841SOL    HW156867   8.432   5.048   5.119
18841SOL    HW256868   8.595   5.045   5.113
18842SOL     OW56869   9.040   5.353   5.349
18842SOL    HW156870   9.067   5.387   5.259
18842SOL    HW256871   9.119   5.315   5.395
18843SOL     OW56872   8.559   4.919   4.824
18843SOL    HW156873   8.519   4.963   4.905
18843SOL    HW256874   8.518   4.956   4.741
18844SOL     OW56875   9.086   4.823   4.803
18844SOL    HW156876   9.091   4.904   4.862
18844SOL    HW256877   9.000   4.825   4.752
18845SOL     OW56878   8.363   3.813   5.126
18845SOL    HW156879   8.388   3.793   5.031
18845SOL    HW256880   8.435   3.869   5.168
18846SOL     OW56881   8.428   4.840   5.443
18846SOL    HW156882   8.329   4.846   5.453
18846SOL    HW256883   8.451   4.760   5.387
18847SOL     OW56884   8.153   4.774   4.092
18847SOL    HW156885   8.139   4.781   4.191
18847SOL    HW256886   8.237   4.723   4.074
18848SOL     OW56887   7.858   4.537   4.975
18848SOL    HW156888   7.944   4.549   5.025
18848SOL    HW256889   7.816   4.450   5.002
18849SOL     OW56890   8.722   4.110   4.986
18849SOL    HW156891   8.743   4.184   5.050
18849SOL    HW256892   8.633   4.127   4.943
18850SOL     OW56893   7.512   5.288   5.055
18850SOL    HW156894   7.466   5.370   5.021
18850SOL    HW256895   7.610   5.307   5.064
18851SOL     OW56896   7.815   4.824   4.225
18851SOL    HW156897   7.808   4.907   4.169
18851SOL    HW256898   7.819   4.744   4.165
18852SOL     OW56899   8.014   4.261   4.589
18852SOL    HW156900   8.026   4.327   4.515
18852SOL    HW256901   8.060   4.295   4.672
18853SOL     OW56902   8.700   5.072   4.112
18853SOL    HW156903   8.750   5.149   4.152
18853SOL    HW256904   8.605   5.074   4.144
18854SOL     OW56905   8.720   5.169   4.866
18854SOL    HW156906   8.767   5.182   4.953
18854SOL    HW256907   8.654   5.095   4.875
18855SOL     OW56908   9.030   4.363   4.196
18855SOL    HW156909   8.999   4.424   4.269
18855SOL    HW256910   9.080   4.415   4.127
18856SOL     OW56911   7.802   5.234   5.053
18856SOL    HW156912   7.781   5.190   4.966
18856SOL    HW256913   7.899   5.260   5.056
18857SOL     OW56914   7.850   4.475   5.322
18857SOL    HW156915   7.918   4.530   5.275
18857SOL    HW256916   7.890   4.387   5.349
18858SOL     OW56917   9.035   4.503   5.394
18858SOL    HW156918   8.943   4.541   5.389
18858SOL    HW256919   9.095   4.550   5.329
18859SOL     OW56920   8.461   3.829   5.494
18859SOL    HW156921   8.467   3.914   5.442
18859SOL    HW256922   8.493   3.753   5.437
18860SOL     OW56923   7.952   3.774   5.464
18860SOL    HW156924   7.910   3.717   5.394
18860SOL    HW256925   7.886   3.843   5.496
18861SOL     OW56926   8.021   4.594   4.753
18861SOL    HW156927   8.065   4.683   4.744
18861SOL    HW256928   7.958   4.594   4.830
18862SOL     OW56929   8.808   4.586   4.769
18862SOL    HW156930   8.733   4.586   4.703
18862SOL    HW256931   8.845   4.494   4.778
18863SOL     OW56932   8.657   4.249   3.999
18863SOL    HW156933   8.670   4.165   4.053
18863SOL    HW256934   8.628   4.323   4.059
18864SOL     OW56935   7.755   3.937   4.955
18864SOL    HW156936   7.732   3.974   5.045
18864SOL    HW256937   7.725   3.842   4.949
18865SOL     OW56938   7.485   5.034   5.006
18865SOL    HW156939   7.538   4.985   5.074
18865SOL    HW256940   7.507   5.132   5.011
18866SOL     OW56941   8.180   4.358   4.788
18866SOL    HW156942   8.239   4.332   4.712
18866SOL    HW256943   8.152   4.454   4.777
18867SOL     OW56944   9.176   4.659   5.578
18867SOL    HW156945   9.130   4.652   5.489
18867SOL    HW256946   9.114   4.703   5.644
18868SOL     OW56947   7.755   3.787   4.342
18868SOL    HW156948   7.744   3.881   4.375
18868SOL    HW256949   7.750   3.724   4.419
18869SOL     OW56950   9.070   4.091   4.098
18869SOL    HW156951   9.072   4.015   4.162
18869SOL    HW256952   9.022   4.168   4.138
18870SOL     OW56953   8.471   4.490   4.690
18870SOL    HW156954   8.486   4.511   4.786
18870SOL    HW256955   8.441   4.395   4.681
18871SOL     OW56956   8.428   5.297   5.424
18871SOL    HW156957   8.408   5.341   5.336
18871SOL    HW256958   8.467   5.206   5.408
18872SOL     OW56959   9.307   5.242   5.329
18872SOL    HW156960   9.321   5.269   5.234
18872SOL    HW256961   9.390   5.264   5.382
18873SOL     OW56962   7.798   4.622   5.528
18873SOL    HW156963   7.874   4.666   5.576
18873SOL    HW256964   7.833   4.575   5.446
18874SOL     OW56965   8.988   3.998   3.849
18874SOL    HW156966   8.927   3.923   3.872
18874SOL    HW256967   9.010   4.050   3.932
18875SOL     OW56968   8.751   4.562   3.766
18875SOL    HW156969   8.785   4.469   3.781
18875SOL    HW256970   8.769   4.589   3.671
18876SOL     OW56971   8.516   5.057   4.573
18876SOL    HW156972   8.523   4.973   4.518
18876SOL    HW256973   8.578   5.126   4.537
18877SOL     OW56974   7.767   4.534   4.673
18877SOL    HW156975   7.860   4.570   4.678
18877SOL    HW256976   7.761   4.449   4.725
18878SOL     OW56977   7.787   4.233   4.730
18878SOL    HW156978   7.735   4.150   4.713
18878SOL    HW256979   7.864   4.238   4.666
18879SOL     OW56980   8.586   4.104   5.402
18879SOL    HW156981   8.541   4.167   5.466
18879SOL    HW256982   8.679   4.135   5.385
18880SOL     OW56983   8.608   3.931   5.201
18880SOL    HW156984   8.608   3.995   5.278
18880SOL    HW256985   8.636   3.979   5.118
18881SOL     OW56986   7.456   5.050   3.924
18881SOL    HW156987   7.363   5.071   3.893
18881SOL    HW256988   7.466   4.951   3.937
18882SOL     OW56989   7.536   5.525   4.651
18882SOL    HW156990   7.494   5.439   4.624
18882SOL    HW256991   7.630   5.528   4.617
18883SOL     OW56992   7.952   5.292   4.634
18883SOL    HW156993   8.018   5.366   4.643
18883SOL    HW256994   7.996   5.213   4.592
18884SOL     OW56995   8.450   4.520   4.962
18884SOL    HW156996   8.491   4.488   5.048
18884SOL    HW256997   8.354   4.493   4.959
18885SOL     OW56998   7.488   4.268   4.838
18885SOL    HW156999   7.573   4.235   4.797
18885SOL    HW257000   7.501   4.283   4.936
18886SOL     OW57001   7.637   4.244   5.446
18886SOL    HW157002   7.696   4.204   5.376
18886SOL    HW257003   7.579   4.315   5.405
18887SOL     OW57004   8.817   4.674   5.384
18887SOL    HW157005   8.856   4.763   5.404
18887SOL    HW257006   8.827   4.654   5.287
18888SOL     OW57007   8.263   4.296   4.049
18888SOL    HW157008   8.270   4.207   4.003
18888SOL    HW257009   8.169   4.330   4.041
18889SOL     OW57010   9.105   4.328   4.930
18889SOL    HW157011   9.067   4.259   4.992
18889SOL    HW257012   9.187   4.292   4.886
18890SOL     OW57013   7.700   5.288   5.468
18890SOL    HW157014   7.670   5.345   5.544
18890SOL    HW257015   7.693   5.191   5.494
18891SOL     OW57016   8.119   4.188   4.993
18891SOL    HW157017   8.085   4.099   4.963
18891SOL    HW257018   8.145   4.242   4.913
18892SOL     OW57019   8.378   5.402   5.189
18892SOL    HW157020   8.354   5.384   5.094
18892SOL    HW257021   8.408   5.496   5.199
18893SOL     OW57022   7.921   4.224   3.915
18893SOL    HW157023   7.982   4.304   3.919
18893SOL    HW257024   7.826   4.255   3.922
18894SOL     OW57025   7.607   4.861   5.190
18894SOL    HW157026   7.629   4.800   5.266
18894SOL    HW257027   7.617   4.812   5.104
18895SOL     OW57028   8.795   4.783   4.958
18895SOL    HW157029   8.819   4.720   4.884
18895SOL    HW257030   8.705   4.823   4.940
18896SOL     OW57031   8.750   4.579   4.033
18896SOL    HW157032   8.664   4.548   4.075
18896SOL    HW257033   8.746   4.565   3.934
18897SOL     OW57034   9.207   5.471   4.878
18897SOL    HW157035   9.268   5.501   4.805
18897SOL    HW257036   9.169   5.382   4.856
18898SOL     OW57037   8.700   5.455   4.852
18898SOL    HW157038   8.784   5.460   4.798
18898SOL    HW257039   8.677   5.359   4.870
18899SOL     OW57040   7.531   4.982   4.746
18899SOL    HW157041   7.526   4.981   4.846
18899SOL    HW257042   7.448   4.941   4.708
18900SOL     OW57043   8.136   5.386   5.440
18900SOL    HW157044   8.080   5.467   5.449
18900SOL    HW257045   8.188   5.390   5.354
18901SOL     OW57046   9.174   3.859   4.247
18901SOL    HW157047   9.247   3.842   4.180
18901SOL    HW257048   9.143   3.772   4.285
18902SOL     OW57049   8.836   5.297   4.201
18902SOL    HW157050   8.903   5.309   4.127
18902SOL    HW257051   8.796   5.386   4.224
18903SOL     OW57052   7.578   5.518   5.575
18903SOL    HW157053   7.537   5.444   5.628
18903SOL    HW257054   7.642   5.569   5.633
18904SOL     OW57055   8.728   4.651   4.396
18904SOL    HW157056   8.788   4.570   4.398
18904SOL    HW257057   8.768   4.720   4.336
18905SOL     OW57058   8.278   4.997   5.146
18905SOL    HW157059   8.273   5.030   5.241
18905SOL    HW257060   8.192   5.016   5.100
18906SOL     OW57061   8.120   5.340   3.878
18906SOL    HW157062   8.129   5.350   3.779
18906SOL    HW257063   8.080   5.251   3.899
18907SOL     OW57064   9.098   5.444   5.118
18907SOL    HW157065   9.151   5.454   5.034
18907SOL    HW257066   9.071   5.534   5.152
18908SOL     OW57067   9.289   3.899   4.687
18908SOL    HW157068   9.328   3.814   4.651
18908SOL    HW257069   9.191   3.901   4.668
18909SOL     OW57070   7.711   4.050   4.444
18909SOL    HW157071   7.632   4.101   4.410
18909SOL    HW257072   7.702   4.035   4.542
18910SOL     OW57073   8.642   5.336   3.755
18910SOL    HW157074   8.648   5.243   3.792
18910SOL    HW257075   8.583   5.336   3.675
18911SOL     OW57076   8.270   4.726   5.096
18911SOL    HW157077   8.310   4.725   5.004
18911SOL    HW257078   8.280   4.818   5.136
18912SOL     OW57079   8.364   4.634   4.015
18912SOL    HW157080   8.427   4.672   3.947
18912SOL    HW257081   8.404   4.551   4.054
18913SOL     OW57082   8.952   5.331   3.768
18913SOL    HW157083   8.860   5.368   3.775
18913SOL    HW257084   8.990   5.351   3.678
18914SOL     OW57085   7.820   5.012   5.214
18914SOL    HW157086   7.807   5.105   5.180
18914SOL    HW257087   7.736   4.960   5.201
18915SOL     OW57088   9.062   5.016   5.013
18915SOL    HW157089   9.122   5.019   5.093
18915SOL    HW257090   8.987   5.080   5.026
18916SOL     OW57091   8.487   4.822   4.420
18916SOL    HW157092   8.417   4.775   4.474
18916SOL    HW257093   8.546   4.754   4.377
18917SOL     OW57094   8.462   3.960   4.695
18917SOL    HW157095   8.454   3.924   4.602
18917SOL    HW257096   8.460   3.884   4.760
18918SOL     OW57097   8.038   5.211   4.215
18918SOL    HW157098   8.080   5.153   4.145
18918SOL    HW257099   7.994   5.290   4.171
18919SOL     OW57100   9.157   4.109   5.105
18919SOL    HW157101   9.230   4.178   5.109
18919SOL    HW257102   9.185   4.034   5.046
18920SOL     OW57103   7.703   5.072   4.014
18920SOL    HW157104   7.607   5.073   3.987
18920SOL    HW257105   7.715   5.125   4.098
18921SOL     OW57106   7.553   4.737   5.450
18921SOL    HW157107   7.476   4.704   5.504
18921SOL    HW257108   7.638   4.707   5.492
18922SOL     OW57109   8.120   3.927   5.213
18922SOL    HW157110   8.210   3.911   5.173
18922SOL    HW257111   8.128   3.932   5.312
18923SOL     OW57112   7.523   4.069   3.757
18923SOL    HW157113   7.431   4.041   3.728
18923SOL    HW257114   7.554   4.146   3.701
18924SOL     OW57115   8.888   4.580   5.122
18924SOL    HW157116   8.831   4.632   5.059
18924SOL    HW257117   8.984   4.592   5.098
18925SOL     OW57118   7.520   3.890   4.042
18925SOL    HW157119   7.503   3.973   3.988
18925SOL    HW257120   7.610   3.853   4.020
18926SOL     OW57121   8.631   5.059   3.843
18926SOL    HW157122   8.532   5.048   3.845
18926SOL    HW257123   8.665   5.074   3.936
18927SOL     OW57124   8.061   4.566   5.155
18927SOL    HW157125   8.117   4.647   5.138
18927SOL    HW257126   8.120   4.486   5.158
18928SOL     OW57127   8.941   5.491   4.683
18928SOL    HW157128   8.974   5.555   4.614
18928SOL    HW257129   9.007   5.485   4.758
18929SOL     OW57130   8.164   4.289   5.432
18929SOL    HW157131   8.183   4.354   5.506
18929SOL    HW257132   8.224   4.209   5.441
18930SOL     OW57133   8.898   4.944   5.357
18930SOL    HW157134   8.889   4.934   5.456
18930SOL    HW257135   8.994   4.937   5.331
18931SOL     OW57136   7.838   5.465   5.284
18931SOL    HW157137   7.747   5.506   5.282
18931SOL    HW257138   7.831   5.371   5.316
18932SOL     OW57139   9.122   4.607   4.978
18932SOL    HW157140   9.095   4.518   4.941
18932SOL    HW257141   9.123   4.675   4.905
18933SOL     OW57142   8.673   4.049   4.173
18933SOL    HW157143   8.738   3.975   4.162
18933SOL    HW257144   8.693   4.099   4.257
18934SOL     OW57145   8.042   4.469   4.376
18934SOL    HW157146   8.092   4.554   4.357
18934SOL    HW257147   7.954   4.471   4.328
18935SOL     OW57148   9.225   4.066   5.366
18935SOL    HW157149   9.208   4.097   5.272
18935SOL    HW257150   9.141   4.029   5.404
18936SOL     OW57151   9.178   4.658   5.241
18936SOL    HW157152   9.216   4.749   5.256
18936SOL    HW257153   9.170   4.641   5.142
18937SOL     OW57154   8.307   5.098   3.740
18937SOL    HW157155   8.261   5.113   3.828
18937SOL    HW257156   8.351   5.183   3.710
18938SOL     OW57157   8.109   5.514   4.677
18938SOL    HW157158   8.063   5.602   4.664
18938SOL    HW257159   8.208   5.526   4.670
18939SOL     OW57160   8.307   4.680   4.585
18939SOL    HW157161   8.361   4.611   4.633
18939SOL    HW257162   8.275   4.749   4.651
18940SOL     OW57163   8.531   4.708   3.811
18940SOL    HW157164   8.508   4.761   3.729
18940SOL    HW257165   8.612   4.652   3.792
18941SOL     OW57166   9.309   5.293   4.575
18941SOL    HW157167   9.238   5.281   4.505
18941SOL    HW257168   9.310   5.214   4.635
18942SOL     OW57169   7.669   5.038   5.568
18942SOL    HW157170   7.604   4.965   5.547
18942SOL    HW257171   7.673   5.052   5.666
18943SOL     OW57172   7.527   4.964   4.377
18943SOL    HW157173   7.526   4.917   4.465
18943SOL    HW257174   7.609   4.936   4.326
18944SOL     OW57175   8.120   5.115   5.348
18944SOL    HW157176   8.042   5.065   5.386
18944SOL    HW257177   8.117   5.210   5.379
18945SOL     OW57178   9.272   3.916   4.951
18945SOL    HW157179   9.268   3.826   4.995
18945SOL    HW257180   9.275   3.905   4.852
18946SOL     OW57181   7.876   4.148   4.244
18946SOL    HW157182   7.906   4.076   4.182
18946SOL    HW257183   7.837   4.108   4.327
18947SOL     OW57184   9.153   5.211   4.828
18947SOL    HW157185   9.060   5.186   4.801
18947SOL    HW257186   9.179   5.161   4.910
18948SOL     OW57187   7.765   4.271   5.004
18948SOL    HW157188   7.803   4.212   5.076
18948SOL    HW257189   7.805   4.245   4.916
18949SOL     OW57190   8.260   5.310   4.411
18949SOL    HW157191   8.292   5.320   4.317
18949SOL    HW257192   8.181   5.248   4.413
18950SOL     OW57193   8.872   3.938   4.836
18950SOL    HW157194   8.924   3.873   4.891
18950SOL    HW257195   8.823   4.001   4.897
18951SOL     OW57196   8.449   3.758   4.878
18951SOL    HW157197   8.386   3.686   4.847
18951SOL    HW257198   8.542   3.722   4.878
18952SOL     OW57199   8.218   5.054   4.025
18952SOL    HW157200   8.172   4.967   4.042
18952SOL    HW257201   8.309   5.051   4.066
18953SOL     OW57202   8.066   5.291   5.008
18953SOL    HW157203   8.061   5.373   5.065
18953SOL    HW257204   8.155   5.288   4.963
18954SOL     OW57205   8.800   3.776   3.892
18954SOL    HW157206   8.835   3.735   3.808
18954SOL    HW257207   8.710   3.738   3.912
18955SOL     OW57208   8.748   4.177   4.415
18955SOL    HW157209   8.689   4.257   4.419
18955SOL    HW257210   8.763   4.142   4.508
18956SOL     OW57211   9.041   3.945   4.606
18956SOL    HW157212   8.957   3.944   4.660
18956SOL    HW257213   9.043   4.028   4.550
18957SOL     OW57214   7.487   4.801   4.024
18957SOL    HW157215   7.586   4.790   4.015
18957SOL    HW257216   7.447   4.715   4.056
18958SOL     OW57217   8.323   5.370   4.061
18958SOL    HW157218   8.246   5.335   4.007
18958SOL    HW257219   8.291   5.441   4.123
18959SOL     OW57220   7.678   4.352   5.699
18959SOL    HW157221   7.585   4.350   5.736
18959SOL    HW257222   7.679   4.313   5.607
18960SOL     OW57223   7.673   3.999   6.582
18960SOL    HW157224   7.708   3.982   6.674
18960SOL    HW257225   7.585   3.954   6.570
18961SOL     OW57226   7.467   4.092   6.233
18961SOL    HW157227   7.385   4.135   6.272
18961SOL    HW257228   7.439   4.019   6.170
18962SOL     OW57229   8.017   4.999   6.751
18962SOL    HW157230   7.924   4.992   6.714
18962SOL    HW257231   8.028   5.088   6.795
18963SOL     OW57232   9.003   5.235   6.289
18963SOL    HW157233   8.946   5.219   6.370
18963SOL    HW257234   8.944   5.245   6.209
18964SOL     OW57235   8.583   4.427   6.303
18964SOL    HW157236   8.640   4.505   6.278
18964SOL    HW257237   8.523   4.453   6.379
18965SOL     OW57238   9.203   4.331   5.817
18965SOL    HW157239   9.191   4.318   5.718
18965SOL    HW257240   9.173   4.250   5.866
18966SOL     OW57241   8.216   4.868   6.609
18966SOL    HW157242   8.138   4.885   6.669
18966SOL    HW257243   8.250   4.955   6.573
18967SOL     OW57244   8.298   4.522   7.409
18967SOL    HW157245   8.294   4.598   7.474
18967SOL    HW257246   8.320   4.558   7.318
18968SOL     OW57247   8.133   4.736   6.251
18968SOL    HW157248   8.202   4.720   6.321
18968SOL    HW257249   8.060   4.793   6.289
18969SOL     OW57250   8.134   4.885   7.389
18969SOL    HW157251   8.194   4.964   7.403
18969SOL    HW257252   8.048   4.916   7.348
18970SOL     OW57253   7.783   5.159   6.647
18970SOL    HW157254   7.705   5.128   6.594
18970SOL    HW257255   7.841   5.217   6.590
18971SOL     OW57256   8.908   5.229   6.925
18971SOL    HW157257   8.932   5.323   6.951
18971SOL    HW257258   8.892   5.175   7.007
18972SOL     OW57259   7.886   4.116   7.085
18972SOL    HW157260   7.968   4.060   7.094
18972SOL    HW257261   7.805   4.058   7.089
18973SOL     OW57262   9.051   4.171   6.323
18973SOL    HW157263   8.977   4.217   6.273
18973SOL    HW257264   9.102   4.239   6.376
18974SOL     OW57265   7.679   5.437   6.069
18974SOL    HW157266   7.713   5.514   6.123
18974SOL    HW257267   7.723   5.437   5.979
18975SOL     OW57268   8.575   5.065   7.276
18975SOL    HW157269   8.622   5.065   7.364
18975SOL    HW257270   8.527   4.978   7.265
18976SOL     OW57271   7.678   5.158   6.124
18976SOL    HW157272   7.652   5.254   6.124
18976SOL    HW257273   7.607   5.104   6.169
18977SOL     OW57274   7.688   4.815   6.472
18977SOL    HW157275   7.702   4.731   6.524
18977SOL    HW257276   7.633   4.879   6.527
18978SOL     OW57277   8.068   5.510   7.025
18978SOL    HW157278   7.976   5.493   7.060
18978SOL    HW257279   8.096   5.602   7.051
18979SOL     OW57280   8.054   4.688   5.709
18979SOL    HW157281   8.061   4.772   5.655
18979SOL    HW257282   8.100   4.701   5.797
18980SOL     OW57283   9.042   3.838   7.066
18980SOL    HW157284   9.024   3.905   6.994
18980SOL    HW257285   9.039   3.884   7.155
18981SOL     OW57286   7.570   4.367   6.149
18981SOL    HW157287   7.525   4.279   6.166
18981SOL    HW257288   7.569   4.421   6.233
18982SOL     OW57289   9.290   5.491   5.945
18982SOL    HW157290   9.344   5.462   6.025
18982SOL    HW257291   9.320   5.581   5.916
18983SOL     OW57292   7.475   5.320   5.703
18983SOL    HW157293   7.456   5.224   5.724
18983SOL    HW257294   7.442   5.378   5.778
18984SOL     OW57295   9.137   4.646   6.198
18984SOL    HW157296   9.232   4.617   6.206
18984SOL    HW257297   9.129   4.711   6.123
18985SOL     OW57298   9.089   4.832   6.018
18985SOL    HW157299   9.175   4.834   5.966
18985SOL    HW257300   9.103   4.879   6.106
18986SOL     OW57301   7.561   4.461   7.183
18986SOL    HW157302   7.649   4.448   7.228
18986SOL    HW257303   7.548   4.558   7.161
18987SOL     OW57304   8.061   5.089   6.312
18987SOL    HW157305   8.012   5.002   6.321
18987SOL    HW257306   8.038   5.132   6.225
18988SOL     OW57307   8.741   4.952   7.009
18988SOL    HW157308   8.778   4.879   6.951
18988SOL    HW257309   8.793   4.957   7.094
18989SOL     OW57310   8.257   3.728   6.088
18989SOL    HW157311   8.297   3.819   6.079
18989SOL    HW257312   8.157   3.736   6.094
18990SOL     OW57313   7.645   4.700   6.850
18990SOL    HW157314   7.734   4.655   6.836
18990SOL    HW257315   7.572   4.635   6.831
18991SOL     OW57316   8.973   4.723   5.776
18991SOL    HW157317   8.910   4.647   5.789
18991SOL    HW257318   9.021   4.741   5.862
18992SOL     OW57319   8.635   5.516   7.202
18992SOL    HW157320   8.659   5.576   7.126
18992SOL    HW257321   8.642   5.421   7.172
18993SOL     OW57322   7.765   3.975   7.387
18993SOL    HW157323   7.836   4.046   7.393
18993SOL    HW257324   7.677   4.014   7.415
18994SOL     OW57325   8.914   5.141   6.539
18994SOL    HW157326   8.855   5.147   6.619
18994SOL    HW257327   8.899   5.053   6.493
18995SOL     OW57328   9.115   5.438   6.158
18995SOL    HW157329   9.074   5.415   6.070
18995SOL    HW257330   9.097   5.364   6.223
18996SOL     OW57331   8.046   4.453   5.856
18996SOL    HW157332   8.070   4.522   5.788
18996SOL    HW257333   7.968   4.486   5.910
18997SOL     OW57334   8.729   4.069   6.530
18997SOL    HW157335   8.643   4.019   6.517
18997SOL    HW257336   8.791   4.015   6.586
18998SOL     OW57337   9.024   5.386   5.893
18998SOL    HW157338   9.113   5.432   5.896
18998SOL    HW257339   9.003   5.362   5.798
18999SOL     OW57340   8.255   4.329   7.051
18999SOL    HW157341   8.208   4.326   7.140
18999SOL    HW257342   8.204   4.274   6.985
19000SOL     OW57343   8.842   4.193   7.260
19000SOL    HW157344   8.822   4.236   7.348
19000SOL    HW257345   8.920   4.131   7.269
19001SOL     OW57346   8.421   4.614   7.158
19001SOL    HW157347   8.467   4.530   7.129
19001SOL    HW257348   8.365   4.648   7.083
19002SOL     OW57349   8.439   4.134   6.828
19002SOL    HW157350   8.362   4.168   6.882
19002SOL    HW257351   8.405   4.083   6.749
19003SOL     OW57352   8.489   4.425   6.015
19003SOL    HW157353   8.515   4.421   6.111
19003SOL    HW257354   8.404   4.374   6.001
19004SOL     OW57355   7.524   4.535   6.375
19004SOL    HW157356   7.623   4.523   6.384
19004SOL    HW257357   7.500   4.630   6.396
19005SOL     OW57358   7.578   5.545   7.157
19005SOL    HW157359   7.568   5.530   7.256
19005SOL    HW257360   7.492   5.581   7.121
19006SOL     OW57361   8.313   4.072   5.781
19006SOL    HW157362   8.372   4.135   5.732
19006SOL    HW257363   8.332   3.978   5.752
19007SOL     OW57364   9.167   4.309   7.417
19007SOL    HW157365   9.141   4.398   7.381
19007SOL    HW257366   9.165   4.241   7.344
19008SOL     OW57367   8.810   4.868   6.131
19008SOL    HW157368   8.893   4.839   6.083
19008SOL    HW257369   8.761   4.935   6.075
19009SOL     OW57370   7.998   3.920   6.471
19009SOL    HW157371   7.993   3.915   6.571
19009SOL    HW257372   8.000   4.016   6.442
19010SOL     OW57373   8.456   5.180   6.063
19010SOL    HW157374   8.410   5.252   6.011
19010SOL    HW257375   8.452   5.200   6.161
19011SOL     OW57376   7.799   5.525   6.439
19011SOL    HW157377   7.849   5.439   6.445
19011SOL    HW257378   7.864   5.602   6.436
19012SOL     OW57379   9.243   4.790   6.459
19012SOL    HW157380   9.181   4.775   6.383
19012SOL    HW257381   9.191   4.801   6.544
19013SOL     OW57382   8.675   5.274   7.092
19013SOL    HW157383   8.681   5.197   7.156
19013SOL    HW257384   8.623   5.248   7.012
19014SOL     OW57385   7.769   4.667   5.828
19014SOL    HW157386   7.851   4.706   5.786
19014SOL    HW257387   7.742   4.585   5.779
19015SOL     OW57388   8.906   4.459   6.314
19015SOL    HW157389   8.901   4.394   6.389
19015SOL    HW257390   8.986   4.518   6.327
19016SOL     OW57391   7.909   4.990   7.313
19016SOL    HW157392   7.859   4.991   7.227
19016SOL    HW257393   7.846   4.972   7.389
19017SOL     OW57394   8.559   5.500   5.823
19017SOL    HW157395   8.499   5.438   5.873
19017SOL    HW257396   8.590   5.456   5.738
19018SOL     OW57397   7.650   4.009   7.084
19018SOL    HW157398   7.570   4.069   7.071
19018SOL    HW257399   7.640   3.960   7.170
19019SOL     OW57400   9.080   5.101   5.667
19019SOL    HW157401   9.048   5.195   5.657
19019SOL    HW257402   9.004   5.038   5.655
19020SOL     OW57403   7.912   5.467   5.909
19020SOL    HW157404   7.945   5.506   5.995
19020SOL    HW257405   7.988   5.460   5.844
19021SOL     OW57406   8.848   3.831   6.012
19021SOL    HW157407   8.824   3.794   5.922
19021SOL    HW257408   8.947   3.847   6.016
19022SOL     OW57409   7.697   5.509   6.827
19022SOL    HW157410   7.754   5.444   6.877
19022SOL    HW257411   7.681   5.476   6.734
19023SOL     OW57412   8.388   5.422   6.490
19023SOL    HW157413   8.468   5.365   6.511
19023SOL    HW257414   8.339   5.382   6.413
19024SOL     OW57415   7.830   4.424   6.066
19024SOL    HW157416   7.875   4.334   6.063
19024SOL    HW257417   7.736   4.413   6.099
19025SOL     OW57418   8.995   3.946   7.315
19025SOL    HW157419   8.990   3.983   7.407
19025SOL    HW257420   8.923   3.877   7.303
19026SOL     OW57421   8.062   3.846   5.703
19026SOL    HW157422   8.160   3.824   5.710
19026SOL    HW257423   8.031   3.829   5.610
19027SOL     OW57424   8.229   3.988   7.335
19027SOL    HW157425   8.296   3.927   7.378
19027SOL    HW257426   8.156   4.007   7.400
19028SOL     OW57427   8.336   5.238   6.781
19028SOL    HW157428   8.313   5.213   6.687
19028SOL    HW257429   8.397   5.169   6.820
19029SOL     OW57430   8.799   4.314   7.019
19029SOL    HW157431   8.827   4.271   7.104
19029SOL    HW257432   8.824   4.410   7.020
19030SOL     OW57433   8.251   5.126   6.510
19030SOL    HW157434   8.341   5.140   6.468
19030SOL    HW257435   8.180   5.128   6.439
19031SOL     OW57436   8.370   4.227   6.485
19031SOL    HW157437   8.345   4.218   6.389
19031SOL    HW257438   8.418   4.145   6.516
19032SOL     OW57439   7.987   3.788   6.098
19032SOL    HW157440   7.906   3.789   6.156
19032SOL    HW257441   7.990   3.871   6.043
19033SOL     OW57442   8.882   4.912   5.627
19033SOL    HW157443   8.914   4.836   5.684
19033SOL    HW257444   8.790   4.939   5.657
19034SOL     OW57445   7.745   3.759   5.757
19034SOL    HW157446   7.794   3.843   5.736
19034SOL    HW257447   7.807   3.694   5.802
19035SOL     OW57448   8.383   3.960   6.066
19035SOL    HW157449   8.335   4.001   5.988
19035SOL    HW257450   8.482   3.958   6.047
19036SOL     OW57451   8.524   4.407   7.050
19036SOL    HW157452   8.444   4.346   7.053
19036SOL    HW257453   8.605   4.354   7.026
19037SOL     OW57454   8.675   5.294   6.379
19037SOL    HW157455   8.696   5.368   6.314
19037SOL    HW257456   8.743   5.294   6.452
19038SOL     OW57457   7.907   4.876   6.327
19038SOL    HW157458   7.836   4.849   6.392
19038SOL    HW257459   7.881   4.848   6.234
19039SOL     OW57460   8.719   5.521   6.177
19039SOL    HW157461   8.763   5.585   6.113
19039SOL    HW257462   8.669   5.573   6.247
19040SOL     OW57463   8.480   4.273   5.602
19040SOL    HW157464   8.439   4.355   5.563
19040SOL    HW257465   8.544   4.299   5.675
19041SOL     OW57466   7.526   4.280   6.972
19041SOL    HW157467   7.618   4.279   6.931
19041SOL    HW257468   7.520   4.354   7.039
19042SOL     OW57469   8.009   3.946   6.733
19042SOL    HW157470   8.047   3.862   6.770
19042SOL    HW257471   7.921   3.965   6.777
19043SOL     OW57472   8.314   4.178   6.228
19043SOL    HW157473   8.282   4.250   6.166
19043SOL    HW257474   8.338   4.097   6.175
19044SOL     OW57475   8.465   3.763   6.339
19044SOL    HW157476   8.393   3.768   6.270
19044SOL    HW257477   8.441   3.694   6.408
19045SOL     OW57478   8.877   4.897   6.453
19045SOL    HW157479   8.822   4.813   6.446
19045SOL    HW257480   8.903   4.926   6.361
19046SOL     OW57481   8.914   4.314   6.578
19046SOL    HW157482   8.884   4.219   6.585
19046SOL    HW257483   8.987   4.330   6.644
19047SOL     OW57484   9.305   4.557   5.963
19047SOL    HW157485   9.347   4.493   6.027
19047SOL    HW257486   9.267   4.506   5.885
19048SOL     OW57487   7.936   5.109   5.760
19048SOL    HW157488   7.849   5.094   5.807
19048SOL    HW257489   7.919   5.135   5.665
19049SOL     OW57490   9.112   5.004   6.243
19049SOL    HW157491   9.211   5.012   6.257
19049SOL    HW257492   9.067   5.088   6.274
19050SOL     OW57493   8.838   4.299   5.664
19050SOL    HW157494   8.784   4.278   5.745
19050SOL    HW257495   8.929   4.258   5.673
19051SOL     OW57496   7.975   3.980   5.914
19051SOL    HW157497   8.002   3.921   5.839
19051SOL    HW257498   7.975   4.075   5.883
19052SOL     OW57499   9.202   4.947   7.174
19052SOL    HW157500   9.293   4.908   7.161
19052SOL    HW257501   9.210   5.043   7.198
19053SOL     OW57502   8.512   5.071   6.926
19053SOL    HW157503   8.432   5.048   6.981
19053SOL    HW257504   8.595   5.045   6.975
19054SOL     OW57505   9.040   5.353   7.211
19054SOL    HW157506   9.067   5.387   7.121
19054SOL    HW257507   9.119   5.315   7.257
19055SOL     OW57508   8.559   4.919   6.686
19055SOL    HW157509   8.519   4.963   6.767
19055SOL    HW257510   8.518   4.956   6.603
19056SOL     OW57511   9.086   4.823   6.665
19056SOL    HW157512   9.091   4.904   6.724
19056SOL    HW257513   9.000   4.825   6.614
19057SOL     OW57514   8.363   3.813   6.988
19057SOL    HW157515   8.388   3.793   6.893
19057SOL    HW257516   8.435   3.869   7.030
19058SOL     OW57517   8.428   4.840   7.305
19058SOL    HW157518   8.329   4.846   7.315
19058SOL    HW257519   8.451   4.760   7.249
19059SOL     OW57520   8.153   4.774   5.954
19059SOL    HW157521   8.139   4.781   6.053
19059SOL    HW257522   8.237   4.723   5.936
19060SOL     OW57523   7.858   4.537   6.837
19060SOL    HW157524   7.944   4.549   6.887
19060SOL    HW257525   7.816   4.450   6.864
19061SOL     OW57526   8.722   4.110   6.848
19061SOL    HW157527   8.743   4.184   6.912
19061SOL    HW257528   8.633   4.127   6.805
19062SOL     OW57529   7.512   5.288   6.917
19062SOL    HW157530   7.466   5.370   6.883
19062SOL    HW257531   7.610   5.307   6.926
19063SOL     OW57532   7.815   4.824   6.087
19063SOL    HW157533   7.808   4.907   6.031
19063SOL    HW257534   7.819   4.744   6.027
19064SOL     OW57535   8.014   4.261   6.451
19064SOL    HW157536   8.026   4.327   6.377
19064SOL    HW257537   8.060   4.295   6.534
19065SOL     OW57538   8.700   5.072   5.974
19065SOL    HW157539   8.750   5.149   6.014
19065SOL    HW257540   8.605   5.074   6.006
19066SOL     OW57541   8.720   5.169   6.728
19066SOL    HW157542   8.767   5.182   6.815
19066SOL    HW257543   8.654   5.095   6.737
19067SOL     OW57544   9.030   4.363   6.058
19067SOL    HW157545   8.999   4.424   6.131
19067SOL    HW257546   9.080   4.415   5.989
19068SOL     OW57547   7.802   5.234   6.915
19068SOL    HW157548   7.781   5.190   6.828
19068SOL    HW257549   7.899   5.260   6.918
19069SOL     OW57550   7.850   4.475   7.184
19069SOL    HW157551   7.918   4.530   7.137
19069SOL    HW257552   7.890   4.387   7.211
19070SOL     OW57553   9.035   4.503   7.256
19070SOL    HW157554   8.943   4.541   7.251
19070SOL    HW257555   9.095   4.550   7.191
19071SOL     OW57556   8.461   3.829   7.356
19071SOL    HW157557   8.467   3.914   7.304
19071SOL    HW257558   8.493   3.753   7.299
19072SOL     OW57559   7.952   3.774   7.326
19072SOL    HW157560   7.910   3.717   7.256
19072SOL    HW257561   7.886   3.843   7.358
19073SOL     OW57562   8.021   4.594   6.615
19073SOL    HW157563   8.065   4.683   6.606
19073SOL    HW257564   7.958   4.594   6.692
19074SOL     OW57565   8.808   4.586   6.631
19074SOL    HW157566   8.733   4.586   6.565
19074SOL    HW257567   8.845   4.494   6.640
19075SOL     OW57568   8.657   4.249   5.861
19075SOL    HW157569   8.670   4.165   5.915
19075SOL    HW257570   8.628   4.323   5.921
19076SOL     OW57571   7.755   3.937   6.817
19076SOL    HW157572   7.732   3.974   6.907
19076SOL    HW257573   7.725   3.842   6.811
19077SOL     OW57574   7.485   5.034   6.868
19077SOL    HW157575   7.538   4.985   6.936
19077SOL    HW257576   7.507   5.132   6.873
19078SOL     OW57577   8.180   4.358   6.650
19078SOL    HW157578   8.239   4.332   6.574
19078SOL    HW257579   8.152   4.454   6.639
19079SOL     OW57580   9.176   4.659   7.440
19079SOL    HW157581   9.130   4.652   7.351
19079SOL    HW257582   9.114   4.703   7.506
19080SOL     OW57583   7.755   3.787   6.204
19080SOL    HW157584   7.744   3.881   6.237
19080SOL    HW257585   7.750   3.724   6.281
19081SOL     OW57586   9.070   4.091   5.960
19081SOL    HW157587   9.072   4.015   6.024
19081SOL    HW257588   9.022   4.168   6.000
19082SOL     OW57589   8.471   4.490   6.552
19082SOL    HW157590   8.486   4.511   6.648
19082SOL    HW257591   8.441   4.395   6.543
19083SOL     OW57592   8.428   5.297   7.286
19083SOL    HW157593   8.408   5.341   7.198
19083SOL    HW257594   8.467   5.206   7.270
19084SOL     OW57595   9.307   5.242   7.191
19084SOL    HW157596   9.321   5.269   7.096
19084SOL    HW257597   9.390   5.264   7.244
19085SOL     OW57598   7.798   4.622   7.390
19085SOL    HW157599   7.874   4.666   7.438
19085SOL    HW257600   7.833   4.575   7.308
19086SOL     OW57601   8.988   3.998   5.711
19086SOL    HW157602   8.927   3.923   5.734
19086SOL    HW257603   9.010   4.050   5.794
19087SOL     OW57604   8.751   4.562   5.628
19087SOL    HW157605   8.785   4.469   5.643
19087SOL    HW257606   8.769   4.589   5.533
19088SOL     OW57607   8.516   5.057   6.435
19088SOL    HW157608   8.523   4.973   6.380
19088SOL    HW257609   8.578   5.126   6.399
19089SOL     OW57610   7.767   4.534   6.535
19089SOL    HW157611   7.860   4.570   6.540
19089SOL    HW257612   7.761   4.449   6.587
19090SOL     OW57613   7.787   4.233   6.592
19090SOL    HW157614   7.735   4.150   6.575
19090SOL    HW257615   7.864   4.238   6.528
19091SOL     OW57616   8.586   4.104   7.264
19091SOL    HW157617   8.541   4.167   7.328
19091SOL    HW257618   8.679   4.135   7.247
19092SOL     OW57619   8.608   3.931   7.063
19092SOL    HW157620   8.608   3.995   7.140
19092SOL    HW257621   8.636   3.979   6.980
19093SOL     OW57622   7.456   5.050   5.786
19093SOL    HW157623   7.363   5.071   5.755
19093SOL    HW257624   7.466   4.951   5.799
19094SOL     OW57625   7.536   5.525   6.513
19094SOL    HW157626   7.494   5.439   6.486
19094SOL    HW257627   7.630   5.528   6.479
19095SOL     OW57628   7.952   5.292   6.496
19095SOL    HW157629   8.018   5.366   6.505
19095SOL    HW257630   7.996   5.213   6.454
19096SOL     OW57631   8.450   4.520   6.824
19096SOL    HW157632   8.491   4.488   6.910
19096SOL    HW257633   8.354   4.493   6.821
19097SOL     OW57634   7.488   4.268   6.700
19097SOL    HW157635   7.573   4.235   6.659
19097SOL    HW257636   7.501   4.283   6.798
19098SOL     OW57637   7.637   4.244   7.308
19098SOL    HW157638   7.696   4.204   7.238
19098SOL    HW257639   7.579   4.315   7.267
19099SOL     OW57640   8.817   4.674   7.246
19099SOL    HW157641   8.856   4.763   7.266
19099SOL    HW257642   8.827   4.654   7.149
19100SOL     OW57643   8.263   4.296   5.911
19100SOL    HW157644   8.270   4.207   5.865
19100SOL    HW257645   8.169   4.330   5.903
19101SOL     OW57646   9.105   4.328   6.792
19101SOL    HW157647   9.067   4.259   6.854
19101SOL    HW257648   9.187   4.292   6.748
19102SOL     OW57649   7.700   5.288   7.330
19102SOL    HW157650   7.670   5.345   7.406
19102SOL    HW257651   7.693   5.191   7.356
19103SOL     OW57652   8.119   4.188   6.855
19103SOL    HW157653   8.085   4.099   6.825
19103SOL    HW257654   8.145   4.242   6.775
19104SOL     OW57655   8.378   5.402   7.051
19104SOL    HW157656   8.354   5.384   6.956
19104SOL    HW257657   8.408   5.496   7.061
19105SOL     OW57658   7.921   4.224   5.777
19105SOL    HW157659   7.982   4.304   5.781
19105SOL    HW257660   7.826   4.255   5.784
19106SOL     OW57661   7.607   4.861   7.052
19106SOL    HW157662   7.629   4.800   7.128
19106SOL    HW257663   7.617   4.812   6.966
19107SOL     OW57664   8.795   4.783   6.820
19107SOL    HW157665   8.819   4.720   6.746
19107SOL    HW257666   8.705   4.823   6.802
19108SOL     OW57667   8.750   4.579   5.895
19108SOL    HW157668   8.664   4.548   5.937
19108SOL    HW257669   8.746   4.565   5.796
19109SOL     OW57670   9.207   5.471   6.740
19109SOL    HW157671   9.268   5.501   6.667
19109SOL    HW257672   9.169   5.382   6.718
19110SOL     OW57673   8.700   5.455   6.714
19110SOL    HW157674   8.784   5.460   6.660
19110SOL    HW257675   8.677   5.359   6.732
19111SOL     OW57676   7.531   4.982   6.608
19111SOL    HW157677   7.526   4.981   6.708
19111SOL    HW257678   7.448   4.941   6.570
19112SOL     OW57679   8.136   5.386   7.302
19112SOL    HW157680   8.080   5.467   7.311
19112SOL    HW257681   8.188   5.390   7.216
19113SOL     OW57682   9.174   3.859   6.109
19113SOL    HW157683   9.247   3.842   6.042
19113SOL    HW257684   9.143   3.772   6.147
19114SOL     OW57685   8.836   5.297   6.063
19114SOL    HW157686   8.903   5.309   5.989
19114SOL    HW257687   8.796   5.386   6.086
19115SOL     OW57688   7.578   5.518   7.437
19115SOL    HW157689   7.537   5.444   7.490
19115SOL    HW257690   7.642   5.569   7.495
19116SOL     OW57691   8.728   4.651   6.258
19116SOL    HW157692   8.788   4.570   6.260
19116SOL    HW257693   8.768   4.720   6.198
19117SOL     OW57694   8.278   4.997   7.008
19117SOL    HW157695   8.273   5.030   7.103
19117SOL    HW257696   8.192   5.016   6.962
19118SOL     OW57697   8.120   5.340   5.740
19118SOL    HW157698   8.129   5.350   5.641
19118SOL    HW257699   8.080   5.251   5.761
19119SOL     OW57700   9.098   5.444   6.980
19119SOL    HW157701   9.151   5.454   6.896
19119SOL    HW257702   9.071   5.534   7.014
19120SOL     OW57703   9.289   3.899   6.549
19120SOL    HW157704   9.328   3.814   6.513
19120SOL    HW257705   9.191   3.901   6.530
19121SOL     OW57706   7.711   4.050   6.306
19121SOL    HW157707   7.632   4.101   6.272
19121SOL    HW257708   7.702   4.035   6.404
19122SOL     OW57709   8.642   5.336   5.617
19122SOL    HW157710   8.648   5.243   5.654
19122SOL    HW257711   8.583   5.336   5.537
19123SOL     OW57712   8.270   4.726   6.958
19123SOL    HW157713   8.310   4.725   6.866
19123SOL    HW257714   8.280   4.818   6.998
19124SOL     OW57715   8.364   4.634   5.877
19124SOL    HW157716   8.427   4.672   5.809
19124SOL    HW257717   8.404   4.551   5.916
19125SOL     OW57718   8.952   5.331   5.630
19125SOL    HW157719   8.860   5.368   5.637
19125SOL    HW257720   8.990   5.351   5.540
19126SOL     OW57721   7.820   5.012   7.076
19126SOL    HW157722   7.807   5.105   7.042
19126SOL    HW257723   7.736   4.960   7.063
19127SOL     OW57724   9.062   5.016   6.875
19127SOL    HW157725   9.122   5.019   6.955
19127SOL    HW257726   8.987   5.080   6.888
19128SOL     OW57727   8.487   4.822   6.282
19128SOL    HW157728   8.417   4.775   6.336
19128SOL    HW257729   8.546   4.754   6.239
19129SOL     OW57730   8.462   3.960   6.557
19129SOL    HW157731   8.454   3.924   6.464
19129SOL    HW257732   8.460   3.884   6.622
19130SOL     OW57733   8.038   5.211   6.077
19130SOL    HW157734   8.080   5.153   6.007
19130SOL    HW257735   7.994   5.290   6.033
19131SOL     OW57736   9.157   4.109   6.967
19131SOL    HW157737   9.230   4.178   6.971
19131SOL    HW257738   9.185   4.034   6.908
19132SOL     OW57739   7.703   5.072   5.876
19132SOL    HW157740   7.607   5.073   5.849
19132SOL    HW257741   7.715   5.125   5.960
19133SOL     OW57742   7.553   4.737   7.312
19133SOL    HW157743   7.476   4.704   7.366
19133SOL    HW257744   7.638   4.707   7.354
19134SOL     OW57745   8.120   3.927   7.075
19134SOL    HW157746   8.210   3.911   7.035
19134SOL    HW257747   8.128   3.932   7.174
19135SOL     OW57748   7.523   4.069   5.619
19135SOL    HW157749   7.431   4.041   5.590
19135SOL    HW257750   7.554   4.146   5.563
19136SOL     OW57751   8.888   4.580   6.984
19136SOL    HW157752   8.831   4.632   6.921
19136SOL    HW257753   8.984   4.592   6.960
19137SOL     OW57754   7.520   3.890   5.904
19137SOL    HW157755   7.503   3.973   5.850
19137SOL    HW257756   7.610   3.853   5.882
19138SOL     OW57757   8.631   5.059   5.705
19138SOL    HW157758   8.532   5.048   5.707
19138SOL    HW257759   8.665   5.074   5.798
19139SOL     OW57760   8.061   4.566   7.017
19139SOL    HW157761   8.117   4.647   7.000
19139SOL    HW257762   8.120   4.486   7.020
19140SOL     OW57763   8.941   5.491   6.545
19140SOL    HW157764   8.974   5.555   6.476
19140SOL    HW257765   9.007   5.485   6.620
19141SOL     OW57766   8.164   4.289   7.294
19141SOL    HW157767   8.183   4.354   7.368
19141SOL    HW257768   8.224   4.209   7.303
19142SOL     OW57769   8.898   4.944   7.219
19142SOL    HW157770   8.889   4.934   7.318
19142SOL    HW257771   8.994   4.937   7.193
19143SOL     OW57772   7.838   5.465   7.146
19143SOL    HW157773   7.747   5.506   7.144
19143SOL    HW257774   7.831   5.371   7.178
19144SOL     OW57775   9.122   4.607   6.840
19144SOL    HW157776   9.095   4.518   6.803
19144SOL    HW257777   9.123   4.675   6.767
19145SOL     OW57778   8.673   4.049   6.035
19145SOL    HW157779   8.738   3.975   6.024
19145SOL    HW257780   8.693   4.099   6.119
19146SOL     OW57781   8.042   4.469   6.238
19146SOL    HW157782   8.092   4.554   6.219
19146SOL    HW257783   7.954   4.471   6.190
19147SOL     OW57784   9.225   4.066   7.228
19147SOL    HW157785   9.208   4.097   7.134
19147SOL    HW257786   9.141   4.029   7.266
19148SOL     OW57787   9.178   4.658   7.103
19148SOL    HW157788   9.216   4.749   7.118
19148SOL    HW257789   9.170   4.641   7.004
19149SOL     OW57790   8.307   5.098   5.602
19149SOL    HW157791   8.261   5.113   5.690
19149SOL    HW257792   8.351   5.183   5.572
19150SOL     OW57793   8.109   5.514   6.539
19150SOL    HW157794   8.063   5.602   6.526
19150SOL    HW257795   8.208   5.526   6.532
19151SOL     OW57796   8.307   4.680   6.447
19151SOL    HW157797   8.361   4.611   6.495
19151SOL    HW257798   8.275   4.749   6.513
19152SOL     OW57799   8.531   4.708   5.673
19152SOL    HW157800   8.508   4.761   5.591
19152SOL    HW257801   8.612   4.652   5.654
19153SOL     OW57802   9.309   5.293   6.437
19153SOL    HW157803   9.238   5.281   6.367
19153SOL    HW257804   9.310   5.214   6.497
19154SOL     OW57805   7.669   5.038   7.430
19154SOL    HW157806   7.604   4.965   7.409
19154SOL    HW257807   7.673   5.052   7.528
19155SOL     OW57808   7.527   4.964   6.239
19155SOL    HW157809   7.526   4.917   6.327
19155SOL    HW257810   7.609   4.936   6.188
19156SOL     OW57811   8.120   5.115   7.210
19156SOL    HW157812   8.042   5.065   7.248
19156SOL    HW257813   8.117   5.210   7.241
19157SOL     OW57814   9.272   3.916   6.813
19157SOL    HW157815   9.268   3.826   6.857
19157SOL    HW257816   9.275   3.905   6.714
19158SOL     OW57817   7.876   4.148   6.106
19158SOL    HW157818   7.906   4.076   6.044
19158SOL    HW257819   7.837   4.108   6.189
19159SOL     OW57820   9.153   5.211   6.690
19159SOL    HW157821   9.060   5.186   6.663
19159SOL    HW257822   9.179   5.161   6.772
19160SOL     OW57823   7.765   4.271   6.866
19160SOL    HW157824   7.803   4.212   6.938
19160SOL    HW257825   7.805   4.245   6.778
19161SOL     OW57826   8.260   5.310   6.273
19161SOL    HW157827   8.292   5.320   6.179
19161SOL    HW257828   8.181   5.248   6.275
19162SOL     OW57829   8.872   3.938   6.698
19162SOL    HW157830   8.924   3.873   6.753
19162SOL    HW257831   8.823   4.001   6.759
19163SOL     OW57832   8.449   3.758   6.740
19163SOL    HW157833   8.386   3.686   6.709
19163SOL    HW257834   8.542   3.722   6.740
19164SOL     OW57835   8.218   5.054   5.887
19164SOL    HW157836   8.172   4.967   5.904
19164SOL    HW257837   8.309   5.051   5.928
19165SOL     OW57838   8.066   5.291   6.870
19165SOL    HW157839   8.061   5.373   6.927
19165SOL    HW257840   8.155   5.288   6.825
19166SOL     OW57841   8.800   3.776   5.754
19166SOL    HW157842   8.835   3.735   5.670
19166SOL    HW257843   8.710   3.738   5.774
19167SOL     OW57844   8.748   4.177   6.277
19167SOL    HW157845   8.689   4.257   6.281
19167SOL    HW257846   8.763   4.142   6.370
19168SOL     OW57847   9.041   3.945   6.468
19168SOL    HW157848   8.957   3.944   6.522
19168SOL    HW257849   9.043   4.028   6.412
19169SOL     OW57850   7.487   4.801   5.886
19169SOL    HW157851   7.586   4.790   5.877
19169SOL    HW257852   7.447   4.715   5.918
19170SOL     OW57853   8.323   5.370   5.923
19170SOL    HW157854   8.246   5.335   5.869
19170SOL    HW257855   8.291   5.441   5.985
19171SOL     OW57856   7.678   4.352   7.561
19171SOL    HW157857   7.585   4.350   7.598
19171SOL    HW257858   7.679   4.313   7.469
19172SOL     OW57859   9.203   4.331   7.679
19172SOL    HW157860   9.191   4.318   7.580
19172SOL    HW257861   9.173   4.250   7.728
19173SOL     OW57862   8.973   4.723   7.638
19173SOL    HW157863   8.910   4.647   7.651
19173SOL    HW257864   9.021   4.741   7.724
19174SOL     OW57865   8.559   5.500   7.685
19174SOL    HW157866   8.499   5.438   7.735
19174SOL    HW257867   8.590   5.456   7.600
19175SOL     OW57868   9.080   5.101   7.529
19175SOL    HW157869   9.048   5.195   7.519
19175SOL    HW257870   9.004   5.038   7.517
19176SOL     OW57871   8.882   4.912   7.489
19176SOL    HW157872   8.914   4.836   7.546
19176SOL    HW257873   8.790   4.939   7.519
19177SOL     OW57874   8.480   4.273   7.464
19177SOL    HW157875   8.439   4.355   7.425
19177SOL    HW257876   8.544   4.299   7.537
19178SOL     OW57877   7.936   5.109   7.622
19178SOL    HW157878   7.849   5.094   7.669
19178SOL    HW257879   7.919   5.135   7.527
19179SOL     OW57880   8.838   4.299   7.526
19179SOL    HW157881   8.784   4.278   7.607
19179SOL    HW257882   8.929   4.258   7.535
19180SOL     OW57883   8.988   3.998   7.573
19180SOL    HW157884   8.927   3.923   7.596
19180SOL    HW257885   9.010   4.050   7.656
19181SOL     OW57886   8.751   4.562   7.490
19181SOL    HW157887   8.785   4.469   7.505
19181SOL    HW257888   8.769   4.589   7.395
19182SOL     OW57889   7.921   4.224   7.639
19182SOL    HW157890   7.982   4.304   7.643
19182SOL    HW257891   7.826   4.255   7.646
19183SOL     OW57892   8.120   5.340   7.602
19183SOL    HW157893   8.129   5.350   7.503
19183SOL    HW257894   8.080   5.251   7.623
19184SOL     OW57895   8.642   5.336   7.479
19184SOL    HW157896   8.648   5.243   7.516
19184SOL    HW257897   8.583   5.336   7.399
19185SOL     OW57898   8.952   5.331   7.492
19185SOL    HW157899   8.860   5.368   7.499
19185SOL    HW257900   8.990   5.351   7.402
19186SOL     OW57901   7.523   4.069   7.481
19186SOL    HW157902   7.431   4.041   7.452
19186SOL    HW257903   7.554   4.146   7.425
19187SOL     OW57904   8.631   5.059   7.567
19187SOL    HW157905   8.532   5.048   7.569
19187SOL    HW257906   8.665   5.074   7.660
19188SOL     OW57907   8.307   5.098   7.464
19188SOL    HW157908   8.261   5.113   7.552
19188SOL    HW257909   8.351   5.183   7.434
19189SOL     OW57910   8.531   4.708   7.535
19189SOL    HW157911   8.508   4.761   7.453
19189SOL    HW257912   8.612   4.652   7.516
19190SOL     OW57913   8.800   3.776   7.616
19190SOL    HW157914   8.835   3.735   7.532
19190SOL    HW257915   8.710   3.738   7.636
19191SOL     OW57916   7.487   4.801   7.748
19191SOL    HW157917   7.586   4.790   7.739
19191SOL    HW257918   7.447   4.715   7.780
19192SOL     OW57919   8.323   5.370   7.785
19192SOL    HW157920   8.246   5.335   7.731
19192SOL    HW257921   8.291   5.441   7.847
19193SOL     OW57922   7.678   6.214   0.113
19193SOL    HW157923   7.585   6.212   0.150
19193SOL    HW257924   7.679   6.175   0.021
19194SOL     OW57925   7.673   5.861   0.996
19194SOL    HW157926   7.708   5.844   1.088
19194SOL    HW257927   7.585   5.816   0.984
19195SOL     OW57928   7.467   5.954   0.647
19195SOL    HW157929   7.385   5.997   0.686
19195SOL    HW257930   7.439   5.881   0.584
19196SOL     OW57931   8.017   6.861   1.165
19196SOL    HW157932   7.924   6.854   1.128
19196SOL    HW257933   8.028   6.950   1.209
19197SOL     OW57934   9.003   7.097   0.703
19197SOL    HW157935   8.946   7.081   0.784
19197SOL    HW257936   8.944   7.107   0.623
19198SOL     OW57937   8.583   6.289   0.717
19198SOL    HW157938   8.640   6.367   0.692
19198SOL    HW257939   8.523   6.315   0.793
19199SOL     OW57940   8.216   6.730   1.023
19199SOL    HW157941   8.138   6.747   1.083
19199SOL    HW257942   8.250   6.817   0.987
19200SOL     OW57943   8.298   6.384   1.823
19200SOL    HW157944   8.294   6.460   1.888
19200SOL    HW257945   8.320   6.420   1.732
19201SOL     OW57946   8.133   6.598   0.665
19201SOL    HW157947   8.202   6.582   0.735
19201SOL    HW257948   8.060   6.655   0.703
19202SOL     OW57949   8.134   6.747   1.803
19202SOL    HW157950   8.194   6.826   1.817
19202SOL    HW257951   8.048   6.778   1.762
19203SOL     OW57952   7.783   7.021   1.061
19203SOL    HW157953   7.705   6.990   1.008
19203SOL    HW257954   7.841   7.079   1.004
19204SOL     OW57955   8.908   7.091   1.339
19204SOL    HW157956   8.932   7.185   1.365
19204SOL    HW257957   8.892   7.037   1.421
19205SOL     OW57958   7.886   5.978   1.499
19205SOL    HW157959   7.968   5.922   1.508
19205SOL    HW257960   7.805   5.920   1.503
19206SOL     OW57961   9.051   6.033   0.737
19206SOL    HW157962   8.977   6.079   0.687
19206SOL    HW257963   9.102   6.101   0.790
19207SOL     OW57964   7.679   7.299   0.483
19207SOL    HW157965   7.713   7.376   0.537
19207SOL    HW257966   7.723   7.299   0.393
19208SOL     OW57967   8.575   6.927   1.690
19208SOL    HW157968   8.622   6.927   1.778
19208SOL    HW257969   8.527   6.840   1.679
19209SOL     OW57970   7.678   7.020   0.538
19209SOL    HW157971   7.652   7.116   0.538
19209SOL    HW257972   7.607   6.966   0.583
19210SOL     OW57973   7.688   6.677   0.886
19210SOL    HW157974   7.702   6.593   0.938
19210SOL    HW257975   7.633   6.741   0.941
19211SOL     OW57976   8.068   7.372   1.439
19211SOL    HW157977   7.976   7.355   1.474
19211SOL    HW257978   8.096   7.464   1.465
19212SOL     OW57979   9.042   5.700   1.480
19212SOL    HW157980   9.024   5.767   1.408
19212SOL    HW257981   9.039   5.746   1.569
19213SOL     OW57982   7.570   6.229   0.563
19213SOL    HW157983   7.525   6.141   0.580
19213SOL    HW257984   7.569   6.283   0.647
19214SOL     OW57985   9.290   7.353   0.359
19214SOL    HW157986   9.344   7.324   0.439
19214SOL    HW257987   9.320   7.443   0.330
19215SOL     OW57988   9.137   6.508   0.612
19215SOL    HW157989   9.232   6.479   0.620
19215SOL    HW257990   9.129   6.573   0.537
19216SOL     OW57991   9.089   6.694   0.432
19216SOL    HW157992   9.175   6.696   0.380
19216SOL    HW257993   9.103   6.741   0.520
19217SOL     OW57994   7.561   6.323   1.597
19217SOL    HW157995   7.649   6.310   1.642
19217SOL    HW257996   7.548   6.420   1.575
19218SOL     OW57997   8.061   6.951   0.726
19218SOL    HW157998   8.012   6.864   0.735
19218SOL    HW257999   8.038   6.994   0.639
19219SOL     OW58000   8.741   6.814   1.423
19219SOL    HW158001   8.778   6.741   1.365
19219SOL    HW258002   8.793   6.819   1.508
19220SOL     OW58003   8.257   5.590   0.502
19220SOL    HW158004   8.297   5.681   0.493
19220SOL    HW258005   8.157   5.598   0.508
19221SOL     OW58006   7.645   6.562   1.264
19221SOL    HW158007   7.734   6.517   1.250
19221SOL    HW258008   7.572   6.497   1.245
19222SOL     OW58009   8.635   7.378   1.616
19222SOL    HW158010   8.659   7.438   1.540
19222SOL    HW258011   8.642   7.283   1.586
19223SOL     OW58012   7.765   5.837   1.801
19223SOL    HW158013   7.836   5.908   1.807
19223SOL    HW258014   7.677   5.876   1.829
19224SOL     OW58015   8.914   7.003   0.953
19224SOL    HW158016   8.855   7.009   1.033
19224SOL    HW258017   8.899   6.915   0.907
19225SOL     OW58018   9.115   7.300   0.572
19225SOL    HW158019   9.074   7.277   0.484
19225SOL    HW258020   9.097   7.226   0.637
19226SOL     OW58021   8.729   5.931   0.944
19226SOL    HW158022   8.643   5.881   0.931
19226SOL    HW258023   8.791   5.877   1.000
19227SOL     OW58024   9.024   7.248   0.307
19227SOL    HW158025   9.113   7.294   0.310
19227SOL    HW258026   9.003   7.224   0.212
19228SOL     OW58027   8.255   6.191   1.465
19228SOL    HW158028   8.208   6.188   1.554
19228SOL    HW258029   8.204   6.136   1.399
19229SOL     OW58030   8.842   6.055   1.674
19229SOL    HW158031   8.822   6.098   1.762
19229SOL    HW258032   8.920   5.993   1.683
19230SOL     OW58033   8.421   6.476   1.572
19230SOL    HW158034   8.467   6.392   1.543
19230SOL    HW258035   8.365   6.510   1.497
19231SOL     OW58036   8.439   5.996   1.242
19231SOL    HW158037   8.362   6.030   1.296
19231SOL    HW258038   8.405   5.945   1.163
19232SOL     OW58039   7.524   6.397   0.789
19232SOL    HW158040   7.623   6.385   0.798
19232SOL    HW258041   7.500   6.492   0.810
19233SOL     OW58042   7.578   7.407   1.571
19233SOL    HW158043   7.568   7.392   1.670
19233SOL    HW258044   7.492   7.443   1.535
19234SOL     OW58045   9.167   6.171   1.831
19234SOL    HW158046   9.141   6.260   1.795
19234SOL    HW258047   9.165   6.103   1.758
19235SOL     OW58048   8.810   6.730   0.545
19235SOL    HW158049   8.893   6.701   0.497
19235SOL    HW258050   8.761   6.797   0.489
19236SOL     OW58051   7.998   5.782   0.885
19236SOL    HW158052   7.993   5.777   0.985
19236SOL    HW258053   8.000   5.878   0.856
19237SOL     OW58054   8.456   7.042   0.477
19237SOL    HW158055   8.410   7.114   0.425
19237SOL    HW258056   8.452   7.062   0.575
19238SOL     OW58057   7.799   7.387   0.853
19238SOL    HW158058   7.849   7.301   0.859
19238SOL    HW258059   7.864   7.464   0.850
19239SOL     OW58060   9.243   6.652   0.873
19239SOL    HW158061   9.181   6.637   0.797
19239SOL    HW258062   9.191   6.663   0.958
19240SOL     OW58063   8.675   7.136   1.506
19240SOL    HW158064   8.681   7.059   1.570
19240SOL    HW258065   8.623   7.110   1.426
19241SOL     OW58066   8.906   6.321   0.728
19241SOL    HW158067   8.901   6.256   0.803
19241SOL    HW258068   8.986   6.380   0.741
19242SOL     OW58069   7.909   6.852   1.727
19242SOL    HW158070   7.859   6.853   1.641
19242SOL    HW258071   7.846   6.834   1.803
19243SOL     OW58072   7.650   5.871   1.498
19243SOL    HW158073   7.570   5.931   1.485
19243SOL    HW258074   7.640   5.822   1.584
19244SOL     OW58075   8.848   5.693   0.426
19244SOL    HW158076   8.824   5.656   0.336
19244SOL    HW258077   8.947   5.709   0.430
19245SOL     OW58078   7.697   7.371   1.241
19245SOL    HW158079   7.754   7.306   1.291
19245SOL    HW258080   7.681   7.338   1.148
19246SOL     OW58081   8.388   7.284   0.904
19246SOL    HW158082   8.468   7.227   0.925
19246SOL    HW258083   8.339   7.244   0.827
19247SOL     OW58084   7.830   6.286   0.480
19247SOL    HW158085   7.875   6.196   0.477
19247SOL    HW258086   7.736   6.275   0.513
19248SOL     OW58087   8.995   5.808   1.729
19248SOL    HW158088   8.990   5.845   1.821
19248SOL    HW258089   8.923   5.739   1.717
19249SOL     OW58090   8.062   5.708   0.117
19249SOL    HW158091   8.160   5.686   0.124
19249SOL    HW258092   8.031   5.691   0.024
19250SOL     OW58093   8.229   5.850   1.749
19250SOL    HW158094   8.296   5.789   1.792
19250SOL    HW258095   8.156   5.869   1.814
19251SOL     OW58096   8.336   7.100   1.195
19251SOL    HW158097   8.313   7.075   1.101
19251SOL    HW258098   8.397   7.031   1.234
19252SOL     OW58099   8.799   6.176   1.433
19252SOL    HW158100   8.827   6.133   1.518
19252SOL    HW258101   8.824   6.272   1.434
19253SOL     OW58102   8.251   6.988   0.924
19253SOL    HW158103   8.341   7.002   0.882
19253SOL    HW258104   8.180   6.990   0.853
19254SOL     OW58105   8.370   6.089   0.899
19254SOL    HW158106   8.345   6.080   0.803
19254SOL    HW258107   8.418   6.007   0.930
19255SOL     OW58108   7.987   5.650   0.512
19255SOL    HW158109   7.906   5.651   0.570
19255SOL    HW258110   7.990   5.733   0.457
19256SOL     OW58111   8.383   5.822   0.480
19256SOL    HW158112   8.335   5.863   0.402
19256SOL    HW258113   8.482   5.820   0.461
19257SOL     OW58114   8.524   6.269   1.464
19257SOL    HW158115   8.444   6.208   1.467
19257SOL    HW258116   8.605   6.216   1.440
19258SOL     OW58117   8.675   7.156   0.793
19258SOL    HW158118   8.696   7.230   0.728
19258SOL    HW258119   8.743   7.156   0.866
19259SOL     OW58120   7.907   6.738   0.741
19259SOL    HW158121   7.836   6.711   0.806
19259SOL    HW258122   7.881   6.710   0.648
19260SOL     OW58123   8.719   7.383   0.591
19260SOL    HW158124   8.763   7.447   0.527
19260SOL    HW258125   8.669   7.435   0.661
19261SOL     OW58126   7.526   6.142   1.386
19261SOL    HW158127   7.618   6.141   1.345
19261SOL    HW258128   7.520   6.216   1.453
19262SOL     OW58129   8.009   5.808   1.147
19262SOL    HW158130   8.047   5.724   1.184
19262SOL    HW258131   7.921   5.827   1.191
19263SOL     OW58132   8.314   6.040   0.642
19263SOL    HW158133   8.282   6.112   0.580
19263SOL    HW258134   8.338   5.959   0.589
19264SOL     OW58135   8.465   5.625   0.753
19264SOL    HW158136   8.393   5.630   0.684
19264SOL    HW258137   8.441   5.556   0.822
19265SOL     OW58138   8.877   6.759   0.867
19265SOL    HW158139   8.822   6.675   0.860
19265SOL    HW258140   8.903   6.788   0.775
19266SOL     OW58141   8.914   6.176   0.992
19266SOL    HW158142   8.884   6.081   0.999
19266SOL    HW258143   8.987   6.192   1.058
19267SOL     OW58144   9.305   6.419   0.377
19267SOL    HW158145   9.347   6.355   0.441
19267SOL    HW258146   9.267   6.368   0.299
19268SOL     OW58147   9.112   6.866   0.657
19268SOL    HW158148   9.211   6.874   0.671
19268SOL    HW258149   9.067   6.950   0.688
19269SOL     OW58150   7.975   5.842   0.328
19269SOL    HW158151   8.002   5.783   0.253
19269SOL    HW258152   7.975   5.937   0.297
19270SOL     OW58153   9.202   6.809   1.588
19270SOL    HW158154   9.293   6.770   1.575
19270SOL    HW258155   9.210   6.905   1.612
19271SOL     OW58156   8.512   6.933   1.340
19271SOL    HW158157   8.432   6.910   1.395
19271SOL    HW258158   8.595   6.907   1.389
19272SOL     OW58159   9.040   7.215   1.625
19272SOL    HW158160   9.067   7.249   1.535
19272SOL    HW258161   9.119   7.177   1.671
19273SOL     OW58162   8.559   6.781   1.100
19273SOL    HW158163   8.519   6.825   1.181
19273SOL    HW258164   8.518   6.818   1.017
19274SOL     OW58165   9.086   6.685   1.079
19274SOL    HW158166   9.091   6.766   1.138
19274SOL    HW258167   9.000   6.687   1.028
19275SOL     OW58168   8.363   5.675   1.402
19275SOL    HW158169   8.388   5.655   1.307
19275SOL    HW258170   8.435   5.731   1.444
19276SOL     OW58171   8.428   6.702   1.719
19276SOL    HW158172   8.329   6.708   1.729
19276SOL    HW258173   8.451   6.622   1.663
19277SOL     OW58174   8.153   6.636   0.368
19277SOL    HW158175   8.139   6.643   0.467
19277SOL    HW258176   8.237   6.585   0.350
19278SOL     OW58177   7.858   6.399   1.251
19278SOL    HW158178   7.944   6.411   1.301
19278SOL    HW258179   7.816   6.312   1.278
19279SOL     OW58180   8.722   5.972   1.262
19279SOL    HW158181   8.743   6.046   1.326
19279SOL    HW258182   8.633   5.989   1.219
19280SOL     OW58183   7.512   7.150   1.331
19280SOL    HW158184   7.466   7.232   1.297
19280SOL    HW258185   7.610   7.169   1.340
19281SOL     OW58186   7.815   6.686   0.501
19281SOL    HW158187   7.808   6.769   0.445
19281SOL    HW258188   7.819   6.606   0.441
19282SOL     OW58189   8.014   6.123   0.865
19282SOL    HW158190   8.026   6.189   0.791
19282SOL    HW258191   8.060   6.157   0.948
19283SOL     OW58192   8.700   6.934   0.388
19283SOL    HW158193   8.750   7.011   0.428
19283SOL    HW258194   8.605   6.936   0.420
19284SOL     OW58195   8.720   7.031   1.142
19284SOL    HW158196   8.767   7.044   1.229
19284SOL    HW258197   8.654   6.957   1.151
19285SOL     OW58198   9.030   6.225   0.472
19285SOL    HW158199   8.999   6.286   0.545
19285SOL    HW258200   9.080   6.277   0.403
19286SOL     OW58201   7.802   7.096   1.329
19286SOL    HW158202   7.781   7.052   1.242
19286SOL    HW258203   7.899   7.122   1.332
19287SOL     OW58204   7.850   6.337   1.598
19287SOL    HW158205   7.918   6.392   1.551
19287SOL    HW258206   7.890   6.249   1.625
19288SOL     OW58207   9.035   6.365   1.670
19288SOL    HW158208   8.943   6.403   1.665
19288SOL    HW258209   9.095   6.412   1.605
19289SOL     OW58210   8.461   5.691   1.770
19289SOL    HW158211   8.467   5.776   1.718
19289SOL    HW258212   8.493   5.615   1.713
19290SOL     OW58213   7.952   5.636   1.740
19290SOL    HW158214   7.910   5.579   1.670
19290SOL    HW258215   7.886   5.705   1.772
19291SOL     OW58216   8.021   6.456   1.029
19291SOL    HW158217   8.065   6.545   1.020
19291SOL    HW258218   7.958   6.456   1.106
19292SOL     OW58219   8.808   6.448   1.045
19292SOL    HW158220   8.733   6.448   0.979
19292SOL    HW258221   8.845   6.356   1.054
19293SOL     OW58222   7.755   5.799   1.231
19293SOL    HW158223   7.732   5.836   1.321
19293SOL    HW258224   7.725   5.704   1.225
19294SOL     OW58225   7.485   6.896   1.282
19294SOL    HW158226   7.538   6.847   1.350
19294SOL    HW258227   7.507   6.994   1.287
19295SOL     OW58228   8.180   6.220   1.064
19295SOL    HW158229   8.239   6.194   0.988
19295SOL    HW258230   8.152   6.316   1.053
19296SOL     OW58231   9.176   6.521   1.854
19296SOL    HW158232   9.130   6.514   1.765
19296SOL    HW258233   9.114   6.565   1.920
19297SOL     OW58234   7.755   5.649   0.618
19297SOL    HW158235   7.744   5.743   0.651
19297SOL    HW258236   7.750   5.586   0.695
19298SOL     OW58237   8.471   6.352   0.966
19298SOL    HW158238   8.486   6.373   1.062
19298SOL    HW258239   8.441   6.257   0.957
19299SOL     OW58240   8.428   7.159   1.700
19299SOL    HW158241   8.408   7.203   1.612
19299SOL    HW258242   8.467   7.068   1.684
19300SOL     OW58243   9.307   7.104   1.605
19300SOL    HW158244   9.321   7.131   1.510
19300SOL    HW258245   9.390   7.126   1.658
19301SOL     OW58246   7.798   6.484   1.804
19301SOL    HW158247   7.874   6.528   1.852
19301SOL    HW258248   7.833   6.437   1.722
19302SOL     OW58249   8.516   6.919   0.849
19302SOL    HW158250   8.523   6.835   0.794
19302SOL    HW258251   8.578   6.988   0.813
19303SOL     OW58252   7.767   6.396   0.949
19303SOL    HW158253   7.860   6.432   0.954
19303SOL    HW258254   7.761   6.311   1.001
19304SOL     OW58255   7.787   6.095   1.006
19304SOL    HW158256   7.735   6.012   0.989
19304SOL    HW258257   7.864   6.100   0.942
19305SOL     OW58258   8.586   5.966   1.678
19305SOL    HW158259   8.541   6.029   1.742
19305SOL    HW258260   8.679   5.997   1.661
19306SOL     OW58261   8.608   5.793   1.477
19306SOL    HW158262   8.608   5.857   1.554
19306SOL    HW258263   8.636   5.841   1.394
19307SOL     OW58264   7.536   7.387   0.927
19307SOL    HW158265   7.494   7.301   0.900
19307SOL    HW258266   7.630   7.390   0.893
19308SOL     OW58267   7.952   7.154   0.910
19308SOL    HW158268   8.018   7.228   0.919
19308SOL    HW258269   7.996   7.075   0.868
19309SOL     OW58270   8.450   6.382   1.238
19309SOL    HW158271   8.491   6.350   1.324
19309SOL    HW258272   8.354   6.355   1.235
19310SOL     OW58273   7.488   6.130   1.114
19310SOL    HW158274   7.573   6.097   1.073
19310SOL    HW258275   7.501   6.145   1.212
19311SOL     OW58276   7.637   6.106   1.722
19311SOL    HW158277   7.696   6.066   1.652
19311SOL    HW258278   7.579   6.177   1.681
19312SOL     OW58279   8.817   6.536   1.660
19312SOL    HW158280   8.856   6.625   1.680
19312SOL    HW258281   8.827   6.516   1.563
19313SOL     OW58282   9.105   6.190   1.206
19313SOL    HW158283   9.067   6.121   1.268
19313SOL    HW258284   9.187   6.154   1.162
19314SOL     OW58285   7.700   7.150   1.744
19314SOL    HW158286   7.670   7.207   1.820
19314SOL    HW258287   7.693   7.053   1.770
19315SOL     OW58288   8.119   6.050   1.269
19315SOL    HW158289   8.085   5.961   1.239
19315SOL    HW258290   8.145   6.104   1.189
19316SOL     OW58291   8.378   7.264   1.465
19316SOL    HW158292   8.354   7.246   1.370
19316SOL    HW258293   8.408   7.358   1.475
19317SOL     OW58294   7.607   6.723   1.466
19317SOL    HW158295   7.629   6.662   1.542
19317SOL    HW258296   7.617   6.674   1.380
19318SOL     OW58297   8.795   6.645   1.234
19318SOL    HW158298   8.819   6.582   1.160
19318SOL    HW258299   8.705   6.685   1.216
19319SOL     OW58300   9.207   7.333   1.154
19319SOL    HW158301   9.268   7.363   1.081
19319SOL    HW258302   9.169   7.244   1.132
19320SOL     OW58303   8.700   7.317   1.128
19320SOL    HW158304   8.784   7.322   1.074
19320SOL    HW258305   8.677   7.221   1.146
19321SOL     OW58306   7.531   6.844   1.022
19321SOL    HW158307   7.526   6.843   1.122
19321SOL    HW258308   7.448   6.803   0.984
19322SOL     OW58309   8.136   7.248   1.716
19322SOL    HW158310   8.080   7.329   1.725
19322SOL    HW258311   8.188   7.252   1.630
19323SOL     OW58312   9.174   5.721   0.523
19323SOL    HW158313   9.247   5.704   0.456
19323SOL    HW258314   9.143   5.634   0.561
19324SOL     OW58315   8.836   7.159   0.477
19324SOL    HW158316   8.903   7.171   0.403
19324SOL    HW258317   8.796   7.248   0.500
19325SOL     OW58318   7.578   7.380   1.851
19325SOL    HW158319   7.537   7.306   1.904
19325SOL    HW258320   7.642   7.431   1.909
19326SOL     OW58321   8.728   6.513   0.672
19326SOL    HW158322   8.788   6.432   0.674
19326SOL    HW258323   8.768   6.582   0.612
19327SOL     OW58324   8.278   6.859   1.422
19327SOL    HW158325   8.273   6.892   1.517
19327SOL    HW258326   8.192   6.878   1.376
19328SOL     OW58327   9.098   7.306   1.394
19328SOL    HW158328   9.151   7.316   1.310
19328SOL    HW258329   9.071   7.396   1.428
19329SOL     OW58330   9.289   5.761   0.963
19329SOL    HW158331   9.328   5.676   0.927
19329SOL    HW258332   9.191   5.763   0.944
19330SOL     OW58333   7.711   5.912   0.720
19330SOL    HW158334   7.632   5.963   0.686
19330SOL    HW258335   7.702   5.897   0.818
19331SOL     OW58336   8.270   6.588   1.372
19331SOL    HW158337   8.310   6.587   1.280
19331SOL    HW258338   8.280   6.680   1.412
19332SOL     OW58339   8.364   6.496   0.291
19332SOL    HW158340   8.427   6.534   0.223
19332SOL    HW258341   8.404   6.413   0.330
19333SOL     OW58342   7.820   6.874   1.490
19333SOL    HW158343   7.807   6.967   1.456
19333SOL    HW258344   7.736   6.822   1.477
19334SOL     OW58345   9.062   6.878   1.289
19334SOL    HW158346   9.122   6.881   1.369
19334SOL    HW258347   8.987   6.942   1.302
19335SOL     OW58348   8.487   6.684   0.696
19335SOL    HW158349   8.417   6.637   0.750
19335SOL    HW258350   8.546   6.616   0.653
19336SOL     OW58351   8.462   5.822   0.971
19336SOL    HW158352   8.454   5.786   0.878
19336SOL    HW258353   8.460   5.746   1.036
19337SOL     OW58354   8.038   7.073   0.491
19337SOL    HW158355   8.080   7.015   0.421
19337SOL    HW258356   7.994   7.152   0.447
19338SOL     OW58357   9.157   5.971   1.381
19338SOL    HW158358   9.230   6.040   1.385
19338SOL    HW258359   9.185   5.896   1.322
19339SOL     OW58360   7.703   6.934   0.290
19339SOL    HW158361   7.607   6.935   0.263
19339SOL    HW258362   7.715   6.987   0.374
19340SOL     OW58363   7.553   6.599   1.726
19340SOL    HW158364   7.476   6.566   1.780
19340SOL    HW258365   7.638   6.569   1.768
19341SOL     OW58366   8.120   5.789   1.489
19341SOL    HW158367   8.210   5.773   1.449
19341SOL    HW258368   8.128   5.794   1.588
19342SOL     OW58369   8.888   6.442   1.398
19342SOL    HW158370   8.831   6.494   1.335
19342SOL    HW258371   8.984   6.454   1.374
19343SOL     OW58372   8.061   6.428   1.431
19343SOL    HW158373   8.117   6.509   1.414
19343SOL    HW258374   8.120   6.348   1.434
19344SOL     OW58375   8.941   7.353   0.959
19344SOL    HW158376   8.974   7.417   0.890
19344SOL    HW258377   9.007   7.347   1.034
19345SOL     OW58378   8.164   6.151   1.708
19345SOL    HW158379   8.183   6.216   1.782
19345SOL    HW258380   8.224   6.071   1.717
19346SOL     OW58381   8.898   6.806   1.633
19346SOL    HW158382   8.889   6.796   1.732
19346SOL    HW258383   8.994   6.799   1.607
19347SOL     OW58384   7.838   7.327   1.560
19347SOL    HW158385   7.747   7.368   1.558
19347SOL    HW258386   7.831   7.233   1.592
19348SOL     OW58387   9.122   6.469   1.254
19348SOL    HW158388   9.095   6.380   1.217
19348SOL    HW258389   9.123   6.537   1.181
19349SOL     OW58390   8.673   5.911   0.449
19349SOL    HW158391   8.738   5.837   0.438
19349SOL    HW258392   8.693   5.961   0.533
19350SOL     OW58393   8.042   6.331   0.652
19350SOL    HW158394   8.092   6.416   0.633
19350SOL    HW258395   7.954   6.333   0.604
19351SOL     OW58396   9.225   5.928   1.642
19351SOL    HW158397   9.208   5.959   1.548
19351SOL    HW258398   9.141   5.891   1.680
19352SOL     OW58399   9.178   6.520   1.517
19352SOL    HW158400   9.216   6.611   1.532
19352SOL    HW258401   9.170   6.503   1.418
19353SOL     OW58402   8.109   7.376   0.953
19353SOL    HW158403   8.063   7.464   0.940
19353SOL    HW258404   8.208   7.388   0.946
19354SOL     OW58405   8.307   6.542   0.861
19354SOL    HW158406   8.361   6.473   0.909
19354SOL    HW258407   8.275   6.611   0.927
19355SOL     OW58408   9.309   7.155   0.851
19355SOL    HW158409   9.238   7.143   0.781
19355SOL    HW258410   9.310   7.076   0.911
19356SOL     OW58411   7.669   6.900   1.844
19356SOL    HW158412   7.604   6.827   1.823
19356SOL    HW258413   7.673   6.914   1.942
19357SOL     OW58414   7.527   6.826   0.653
19357SOL    HW158415   7.526   6.779   0.741
19357SOL    HW258416   7.609   6.798   0.602
19358SOL     OW58417   8.120   6.977   1.624
19358SOL    HW158418   8.042   6.927   1.662
19358SOL    HW258419   8.117   7.072   1.655
19359SOL     OW58420   9.272   5.778   1.227
19359SOL    HW158421   9.268   5.688   1.271
19359SOL    HW258422   9.275   5.767   1.128
19360SOL     OW58423   7.876   6.010   0.520
19360SOL    HW158424   7.906   5.938   0.458
19360SOL    HW258425   7.837   5.970   0.603
19361SOL     OW58426   9.153   7.073   1.104
19361SOL    HW158427   9.060   7.048   1.077
19361SOL    HW258428   9.179   7.023   1.186
19362SOL     OW58429   7.765   6.133   1.280
19362SOL    HW158430   7.803   6.074   1.352
19362SOL    HW258431   7.805   6.107   1.192
19363SOL     OW58432   8.260   7.172   0.687
19363SOL    HW158433   8.292   7.182   0.593
19363SOL    HW258434   8.181   7.110   0.689
19364SOL     OW58435   8.872   5.800   1.112
19364SOL    HW158436   8.924   5.735   1.167
19364SOL    HW258437   8.823   5.863   1.173
19365SOL     OW58438   8.449   5.620   1.154
19365SOL    HW158439   8.386   5.548   1.123
19365SOL    HW258440   8.542   5.584   1.154
19366SOL     OW58441   8.218   6.916   0.301
19366SOL    HW158442   8.172   6.829   0.318
19366SOL    HW258443   8.309   6.913   0.342
19367SOL     OW58444   8.066   7.153   1.284
19367SOL    HW158445   8.061   7.235   1.341
19367SOL    HW258446   8.155   7.150   1.239
19368SOL     OW58447   8.748   6.039   0.691
19368SOL    HW158448   8.689   6.119   0.695
19368SOL    HW258449   8.763   6.004   0.784
19369SOL     OW58450   9.041   5.807   0.882
19369SOL    HW158451   8.957   5.806   0.936
19369SOL    HW258452   9.043   5.890   0.826
19370SOL     OW58453   8.323   7.232   0.337
19370SOL    HW158454   8.246   7.197   0.283
19370SOL    HW258455   8.291   7.303   0.399
19371SOL     OW58456   7.678   6.214   1.975
19371SOL    HW158457   7.585   6.212   2.012
19371SOL    HW258458   7.679   6.175   1.883
19372SOL     OW58459   7.673   5.861   2.858
19372SOL    HW158460   7.708   5.844   2.950
19372SOL    HW258461   7.585   5.816   2.846
19373SOL     OW58462   7.467   5.954   2.509
19373SOL    HW158463   7.385   5.997   2.548
19373SOL    HW258464   7.439   5.881   2.446
19374SOL     OW58465   8.017   6.861   3.027
19374SOL    HW158466   7.924   6.854   2.990
19374SOL    HW258467   8.028   6.950   3.071
19375SOL     OW58468   9.003   7.097   2.565
19375SOL    HW158469   8.946   7.081   2.646
19375SOL    HW258470   8.944   7.107   2.485
19376SOL     OW58471   8.583   6.289   2.579
19376SOL    HW158472   8.640   6.367   2.554
19376SOL    HW258473   8.523   6.315   2.655
19377SOL     OW58474   9.203   6.193   2.093
19377SOL    HW158475   9.191   6.180   1.994
19377SOL    HW258476   9.173   6.112   2.142
19378SOL     OW58477   8.216   6.730   2.885
19378SOL    HW158478   8.138   6.747   2.945
19378SOL    HW258479   8.250   6.817   2.849
19379SOL     OW58480   8.298   6.384   3.685
19379SOL    HW158481   8.294   6.460   3.750
19379SOL    HW258482   8.320   6.420   3.594
19380SOL     OW58483   8.133   6.598   2.527
19380SOL    HW158484   8.202   6.582   2.597
19380SOL    HW258485   8.060   6.655   2.565
19381SOL     OW58486   8.134   6.747   3.665
19381SOL    HW158487   8.194   6.826   3.679
19381SOL    HW258488   8.048   6.778   3.624
19382SOL     OW58489   7.783   7.021   2.923
19382SOL    HW158490   7.705   6.990   2.870
19382SOL    HW258491   7.841   7.079   2.866
19383SOL     OW58492   8.908   7.091   3.201
19383SOL    HW158493   8.932   7.185   3.227
19383SOL    HW258494   8.892   7.037   3.283
19384SOL     OW58495   7.886   5.978   3.361
19384SOL    HW158496   7.968   5.922   3.370
19384SOL    HW258497   7.805   5.920   3.365
19385SOL     OW58498   9.051   6.033   2.599
19385SOL    HW158499   8.977   6.079   2.549
19385SOL    HW258500   9.102   6.101   2.652
19386SOL     OW58501   7.679   7.299   2.345
19386SOL    HW158502   7.713   7.376   2.399
19386SOL    HW258503   7.723   7.299   2.255
19387SOL     OW58504   8.575   6.927   3.552
19387SOL    HW158505   8.622   6.927   3.640
19387SOL    HW258506   8.527   6.840   3.541
19388SOL     OW58507   7.678   7.020   2.400
19388SOL    HW158508   7.652   7.116   2.400
19388SOL    HW258509   7.607   6.966   2.445
19389SOL     OW58510   7.688   6.677   2.748
19389SOL    HW158511   7.702   6.593   2.800
19389SOL    HW258512   7.633   6.741   2.803
19390SOL     OW58513   8.068   7.372   3.301
19390SOL    HW158514   7.976   7.355   3.336
19390SOL    HW258515   8.096   7.464   3.327
19391SOL     OW58516   8.054   6.550   1.985
19391SOL    HW158517   8.061   6.634   1.931
19391SOL    HW258518   8.100   6.563   2.073
19392SOL     OW58519   9.042   5.700   3.342
19392SOL    HW158520   9.024   5.767   3.270
19392SOL    HW258521   9.039   5.746   3.431
19393SOL     OW58522   7.570   6.229   2.425
19393SOL    HW158523   7.525   6.141   2.442
19393SOL    HW258524   7.569   6.283   2.509
19394SOL     OW58525   9.290   7.353   2.221
19394SOL    HW158526   9.344   7.324   2.301
19394SOL    HW258527   9.320   7.443   2.192
19395SOL     OW58528   7.475   7.182   1.979
19395SOL    HW158529   7.456   7.086   2.000
19395SOL    HW258530   7.442   7.240   2.054
19396SOL     OW58531   9.137   6.508   2.474
19396SOL    HW158532   9.232   6.479   2.482
19396SOL    HW258533   9.129   6.573   2.399
19397SOL     OW58534   9.089   6.694   2.294
19397SOL    HW158535   9.175   6.696   2.242
19397SOL    HW258536   9.103   6.741   2.382
19398SOL     OW58537   7.561   6.323   3.459
19398SOL    HW158538   7.649   6.310   3.504
19398SOL    HW258539   7.548   6.420   3.437
19399SOL     OW58540   8.061   6.951   2.588
19399SOL    HW158541   8.012   6.864   2.597
19399SOL    HW258542   8.038   6.994   2.501
19400SOL     OW58543   8.741   6.814   3.285
19400SOL    HW158544   8.778   6.741   3.227
19400SOL    HW258545   8.793   6.819   3.370
19401SOL     OW58546   8.257   5.590   2.364
19401SOL    HW158547   8.297   5.681   2.355
19401SOL    HW258548   8.157   5.598   2.370
19402SOL     OW58549   7.645   6.562   3.126
19402SOL    HW158550   7.734   6.517   3.112
19402SOL    HW258551   7.572   6.497   3.107
19403SOL     OW58552   8.973   6.585   2.052
19403SOL    HW158553   8.910   6.509   2.065
19403SOL    HW258554   9.021   6.603   2.138
19404SOL     OW58555   8.635   7.378   3.478
19404SOL    HW158556   8.659   7.438   3.402
19404SOL    HW258557   8.642   7.283   3.448
19405SOL     OW58558   7.765   5.837   3.663
19405SOL    HW158559   7.836   5.908   3.669
19405SOL    HW258560   7.677   5.876   3.691
19406SOL     OW58561   8.914   7.003   2.815
19406SOL    HW158562   8.855   7.009   2.895
19406SOL    HW258563   8.899   6.915   2.769
19407SOL     OW58564   9.115   7.300   2.434
19407SOL    HW158565   9.074   7.277   2.346
19407SOL    HW258566   9.097   7.226   2.499
19408SOL     OW58567   8.046   6.315   2.132
19408SOL    HW158568   8.070   6.384   2.064
19408SOL    HW258569   7.968   6.348   2.186
19409SOL     OW58570   8.729   5.931   2.806
19409SOL    HW158571   8.643   5.881   2.793
19409SOL    HW258572   8.791   5.877   2.862
19410SOL     OW58573   9.024   7.248   2.169
19410SOL    HW158574   9.113   7.294   2.172
19410SOL    HW258575   9.003   7.224   2.074
19411SOL     OW58576   8.255   6.191   3.327
19411SOL    HW158577   8.208   6.188   3.416
19411SOL    HW258578   8.204   6.136   3.261
19412SOL     OW58579   8.842   6.055   3.536
19412SOL    HW158580   8.822   6.098   3.624
19412SOL    HW258581   8.920   5.993   3.545
19413SOL     OW58582   8.421   6.476   3.434
19413SOL    HW158583   8.467   6.392   3.405
19413SOL    HW258584   8.365   6.510   3.359
19414SOL     OW58585   8.439   5.996   3.104
19414SOL    HW158586   8.362   6.030   3.158
19414SOL    HW258587   8.405   5.945   3.025
19415SOL     OW58588   8.489   6.287   2.291
19415SOL    HW158589   8.515   6.283   2.387
19415SOL    HW258590   8.404   6.236   2.277
19416SOL     OW58591   7.524   6.397   2.651
19416SOL    HW158592   7.623   6.385   2.660
19416SOL    HW258593   7.500   6.492   2.672
19417SOL     OW58594   7.578   7.407   3.433
19417SOL    HW158595   7.568   7.392   3.532
19417SOL    HW258596   7.492   7.443   3.397
19418SOL     OW58597   8.313   5.934   2.057
19418SOL    HW158598   8.372   5.997   2.008
19418SOL    HW258599   8.332   5.840   2.028
19419SOL     OW58600   9.167   6.171   3.693
19419SOL    HW158601   9.141   6.260   3.657
19419SOL    HW258602   9.165   6.103   3.620
19420SOL     OW58603   8.810   6.730   2.407
19420SOL    HW158604   8.893   6.701   2.359
19420SOL    HW258605   8.761   6.797   2.351
19421SOL     OW58606   7.998   5.782   2.747
19421SOL    HW158607   7.993   5.777   2.847
19421SOL    HW258608   8.000   5.878   2.718
19422SOL     OW58609   8.456   7.042   2.339
19422SOL    HW158610   8.410   7.114   2.287
19422SOL    HW258611   8.452   7.062   2.437
19423SOL     OW58612   7.799   7.387   2.715
19423SOL    HW158613   7.849   7.301   2.721
19423SOL    HW258614   7.864   7.464   2.712
19424SOL     OW58615   9.243   6.652   2.735
19424SOL    HW158616   9.181   6.637   2.659
19424SOL    HW258617   9.191   6.663   2.820
19425SOL     OW58618   8.675   7.136   3.368
19425SOL    HW158619   8.681   7.059   3.432
19425SOL    HW258620   8.623   7.110   3.288
19426SOL     OW58621   7.769   6.529   2.104
19426SOL    HW158622   7.851   6.568   2.062
19426SOL    HW258623   7.742   6.447   2.055
19427SOL     OW58624   8.906   6.321   2.590
19427SOL    HW158625   8.901   6.256   2.665
19427SOL    HW258626   8.986   6.380   2.603
19428SOL     OW58627   7.909   6.852   3.589
19428SOL    HW158628   7.859   6.853   3.503
19428SOL    HW258629   7.846   6.834   3.665
19429SOL     OW58630   8.559   7.362   2.099
19429SOL    HW158631   8.499   7.300   2.149
19429SOL    HW258632   8.590   7.318   2.014
19430SOL     OW58633   7.650   5.871   3.360
19430SOL    HW158634   7.570   5.931   3.347
19430SOL    HW258635   7.640   5.822   3.446
19431SOL     OW58636   9.080   6.963   1.943
19431SOL    HW158637   9.048   7.057   1.933
19431SOL    HW258638   9.004   6.900   1.931
19432SOL     OW58639   7.912   7.329   2.185
19432SOL    HW158640   7.945   7.368   2.271
19432SOL    HW258641   7.988   7.322   2.120
19433SOL     OW58642   8.848   5.693   2.288
19433SOL    HW158643   8.824   5.656   2.198
19433SOL    HW258644   8.947   5.709   2.292
19434SOL     OW58645   7.697   7.371   3.103
19434SOL    HW158646   7.754   7.306   3.153
19434SOL    HW258647   7.681   7.338   3.010
19435SOL     OW58648   8.388   7.284   2.766
19435SOL    HW158649   8.468   7.227   2.787
19435SOL    HW258650   8.339   7.244   2.689
19436SOL     OW58651   7.830   6.286   2.342
19436SOL    HW158652   7.875   6.196   2.339
19436SOL    HW258653   7.736   6.275   2.375
19437SOL     OW58654   8.995   5.808   3.591
19437SOL    HW158655   8.990   5.845   3.683
19437SOL    HW258656   8.923   5.739   3.579
19438SOL     OW58657   8.062   5.708   1.979
19438SOL    HW158658   8.160   5.686   1.986
19438SOL    HW258659   8.031   5.691   1.886
19439SOL     OW58660   8.229   5.850   3.611
19439SOL    HW158661   8.296   5.789   3.654
19439SOL    HW258662   8.156   5.869   3.676
19440SOL     OW58663   8.336   7.100   3.057
19440SOL    HW158664   8.313   7.075   2.963
19440SOL    HW258665   8.397   7.031   3.096
19441SOL     OW58666   8.799   6.176   3.295
19441SOL    HW158667   8.827   6.133   3.380
19441SOL    HW258668   8.824   6.272   3.296
19442SOL     OW58669   8.251   6.988   2.786
19442SOL    HW158670   8.341   7.002   2.744
19442SOL    HW258671   8.180   6.990   2.715
19443SOL     OW58672   8.370   6.089   2.761
19443SOL    HW158673   8.345   6.080   2.665
19443SOL    HW258674   8.418   6.007   2.792
19444SOL     OW58675   7.987   5.650   2.374
19444SOL    HW158676   7.906   5.651   2.432
19444SOL    HW258677   7.990   5.733   2.319
19445SOL     OW58678   8.882   6.774   1.903
19445SOL    HW158679   8.914   6.698   1.960
19445SOL    HW258680   8.790   6.801   1.933
19446SOL     OW58681   7.745   5.621   2.033
19446SOL    HW158682   7.794   5.705   2.012
19446SOL    HW258683   7.807   5.556   2.078
19447SOL     OW58684   8.383   5.822   2.342
19447SOL    HW158685   8.335   5.863   2.264
19447SOL    HW258686   8.482   5.820   2.323
19448SOL     OW58687   8.524   6.269   3.326
19448SOL    HW158688   8.444   6.208   3.329
19448SOL    HW258689   8.605   6.216   3.302
19449SOL     OW58690   8.675   7.156   2.655
19449SOL    HW158691   8.696   7.230   2.590
19449SOL    HW258692   8.743   7.156   2.728
19450SOL     OW58693   7.907   6.738   2.603
19450SOL    HW158694   7.836   6.711   2.668
19450SOL    HW258695   7.881   6.710   2.510
19451SOL     OW58696   8.719   7.383   2.453
19451SOL    HW158697   8.763   7.447   2.389
19451SOL    HW258698   8.669   7.435   2.523
19452SOL     OW58699   8.480   6.135   1.878
19452SOL    HW158700   8.439   6.217   1.839
19452SOL    HW258701   8.544   6.161   1.951
19453SOL     OW58702   7.526   6.142   3.248
19453SOL    HW158703   7.618   6.141   3.207
19453SOL    HW258704   7.520   6.216   3.315
19454SOL     OW58705   8.009   5.808   3.009
19454SOL    HW158706   8.047   5.724   3.046
19454SOL    HW258707   7.921   5.827   3.053
19455SOL     OW58708   8.314   6.040   2.504
19455SOL    HW158709   8.282   6.112   2.442
19455SOL    HW258710   8.338   5.959   2.451
19456SOL     OW58711   8.465   5.625   2.615
19456SOL    HW158712   8.393   5.630   2.546
19456SOL    HW258713   8.441   5.556   2.684
19457SOL     OW58714   8.877   6.759   2.729
19457SOL    HW158715   8.822   6.675   2.722
19457SOL    HW258716   8.903   6.788   2.637
19458SOL     OW58717   8.914   6.176   2.854
19458SOL    HW158718   8.884   6.081   2.861
19458SOL    HW258719   8.987   6.192   2.920
19459SOL     OW58720   9.305   6.419   2.239
19459SOL    HW158721   9.347   6.355   2.303
19459SOL    HW258722   9.267   6.368   2.161
19460SOL     OW58723   7.936   6.971   2.036
19460SOL    HW158724   7.849   6.956   2.083
19460SOL    HW258725   7.919   6.997   1.941
19461SOL     OW58726   9.112   6.866   2.519
19461SOL    HW158727   9.211   6.874   2.533
19461SOL    HW258728   9.067   6.950   2.550
19462SOL     OW58729   8.838   6.161   1.940
19462SOL    HW158730   8.784   6.140   2.021
19462SOL    HW258731   8.929   6.120   1.949
19463SOL     OW58732   7.975   5.842   2.190
19463SOL    HW158733   8.002   5.783   2.115
19463SOL    HW258734   7.975   5.937   2.159
19464SOL     OW58735   9.202   6.809   3.450
19464SOL    HW158736   9.293   6.770   3.437
19464SOL    HW258737   9.210   6.905   3.474
19465SOL     OW58738   8.512   6.933   3.202
19465SOL    HW158739   8.432   6.910   3.257
19465SOL    HW258740   8.595   6.907   3.251
19466SOL     OW58741   9.040   7.215   3.487
19466SOL    HW158742   9.067   7.249   3.397
19466SOL    HW258743   9.119   7.177   3.533
19467SOL     OW58744   8.559   6.781   2.962
19467SOL    HW158745   8.519   6.825   3.043
19467SOL    HW258746   8.518   6.818   2.879
19468SOL     OW58747   9.086   6.685   2.941
19468SOL    HW158748   9.091   6.766   3.000
19468SOL    HW258749   9.000   6.687   2.890
19469SOL     OW58750   8.363   5.675   3.264
19469SOL    HW158751   8.388   5.655   3.169
19469SOL    HW258752   8.435   5.731   3.306
19470SOL     OW58753   8.428   6.702   3.581
19470SOL    HW158754   8.329   6.708   3.591
19470SOL    HW258755   8.451   6.622   3.525
19471SOL     OW58756   8.153   6.636   2.230
19471SOL    HW158757   8.139   6.643   2.329
19471SOL    HW258758   8.237   6.585   2.212
19472SOL     OW58759   7.858   6.399   3.113
19472SOL    HW158760   7.944   6.411   3.163
19472SOL    HW258761   7.816   6.312   3.140
19473SOL     OW58762   8.722   5.972   3.124
19473SOL    HW158763   8.743   6.046   3.188
19473SOL    HW258764   8.633   5.989   3.081
19474SOL     OW58765   7.512   7.150   3.193
19474SOL    HW158766   7.466   7.232   3.159
19474SOL    HW258767   7.610   7.169   3.202
19475SOL     OW58768   7.815   6.686   2.363
19475SOL    HW158769   7.808   6.769   2.307
19475SOL    HW258770   7.819   6.606   2.303
19476SOL     OW58771   8.014   6.123   2.727
19476SOL    HW158772   8.026   6.189   2.653
19476SOL    HW258773   8.060   6.157   2.810
19477SOL     OW58774   8.700   6.934   2.250
19477SOL    HW158775   8.750   7.011   2.290
19477SOL    HW258776   8.605   6.936   2.282
19478SOL     OW58777   8.720   7.031   3.004
19478SOL    HW158778   8.767   7.044   3.091
19478SOL    HW258779   8.654   6.957   3.013
19479SOL     OW58780   9.030   6.225   2.334
19479SOL    HW158781   8.999   6.286   2.407
19479SOL    HW258782   9.080   6.277   2.265
19480SOL     OW58783   7.802   7.096   3.191
19480SOL    HW158784   7.781   7.052   3.104
19480SOL    HW258785   7.899   7.122   3.194
19481SOL     OW58786   7.850   6.337   3.460
19481SOL    HW158787   7.918   6.392   3.413
19481SOL    HW258788   7.890   6.249   3.487
19482SOL     OW58789   9.035   6.365   3.532
19482SOL    HW158790   8.943   6.403   3.527
19482SOL    HW258791   9.095   6.412   3.467
19483SOL     OW58792   8.461   5.691   3.632
19483SOL    HW158793   8.467   5.776   3.580
19483SOL    HW258794   8.493   5.615   3.575
19484SOL     OW58795   7.952   5.636   3.602
19484SOL    HW158796   7.910   5.579   3.532
19484SOL    HW258797   7.886   5.705   3.634
19485SOL     OW58798   8.021   6.456   2.891
19485SOL    HW158799   8.065   6.545   2.882
19485SOL    HW258800   7.958   6.456   2.968
19486SOL     OW58801   8.808   6.448   2.907
19486SOL    HW158802   8.733   6.448   2.841
19486SOL    HW258803   8.845   6.356   2.916
19487SOL     OW58804   8.657   6.111   2.137
19487SOL    HW158805   8.670   6.027   2.191
19487SOL    HW258806   8.628   6.185   2.197
19488SOL     OW58807   7.755   5.799   3.093
19488SOL    HW158808   7.732   5.836   3.183
19488SOL    HW258809   7.725   5.704   3.087
19489SOL     OW58810   7.485   6.896   3.144
19489SOL    HW158811   7.538   6.847   3.212
19489SOL    HW258812   7.507   6.994   3.149
19490SOL     OW58813   8.180   6.220   2.926
19490SOL    HW158814   8.239   6.194   2.850
19490SOL    HW258815   8.152   6.316   2.915
19491SOL     OW58816   9.176   6.521   3.716
19491SOL    HW158817   9.130   6.514   3.627
19491SOL    HW258818   9.114   6.565   3.782
19492SOL     OW58819   7.755   5.649   2.480
19492SOL    HW158820   7.744   5.743   2.513
19492SOL    HW258821   7.750   5.586   2.557
19493SOL     OW58822   9.070   5.953   2.236
19493SOL    HW158823   9.072   5.877   2.300
19493SOL    HW258824   9.022   6.030   2.276
19494SOL     OW58825   8.471   6.352   2.828
19494SOL    HW158826   8.486   6.373   2.924
19494SOL    HW258827   8.441   6.257   2.819
19495SOL     OW58828   8.428   7.159   3.562
19495SOL    HW158829   8.408   7.203   3.474
19495SOL    HW258830   8.467   7.068   3.546
19496SOL     OW58831   9.307   7.104   3.467
19496SOL    HW158832   9.321   7.131   3.372
19496SOL    HW258833   9.390   7.126   3.520
19497SOL     OW58834   7.798   6.484   3.666
19497SOL    HW158835   7.874   6.528   3.714
19497SOL    HW258836   7.833   6.437   3.584
19498SOL     OW58837   8.988   5.860   1.987
19498SOL    HW158838   8.927   5.785   2.010
19498SOL    HW258839   9.010   5.912   2.070
19499SOL     OW58840   8.751   6.424   1.904
19499SOL    HW158841   8.785   6.331   1.919
19499SOL    HW258842   8.769   6.451   1.809
19500SOL     OW58843   8.516   6.919   2.711
19500SOL    HW158844   8.523   6.835   2.656
19500SOL    HW258845   8.578   6.988   2.675
19501SOL     OW58846   7.767   6.396   2.811
19501SOL    HW158847   7.860   6.432   2.816
19501SOL    HW258848   7.761   6.311   2.863
19502SOL     OW58849   7.787   6.095   2.868
19502SOL    HW158850   7.735   6.012   2.851
19502SOL    HW258851   7.864   6.100   2.804
19503SOL     OW58852   8.586   5.966   3.540
19503SOL    HW158853   8.541   6.029   3.604
19503SOL    HW258854   8.679   5.997   3.523
19504SOL     OW58855   8.608   5.793   3.339
19504SOL    HW158856   8.608   5.857   3.416
19504SOL    HW258857   8.636   5.841   3.256
19505SOL     OW58858   7.456   6.912   2.062
19505SOL    HW158859   7.363   6.933   2.031
19505SOL    HW258860   7.466   6.813   2.075
19506SOL     OW58861   7.536   7.387   2.789
19506SOL    HW158862   7.494   7.301   2.762
19506SOL    HW258863   7.630   7.390   2.755
19507SOL     OW58864   7.952   7.154   2.772
19507SOL    HW158865   8.018   7.228   2.781
19507SOL    HW258866   7.996   7.075   2.730
19508SOL     OW58867   8.450   6.382   3.100
19508SOL    HW158868   8.491   6.350   3.186
19508SOL    HW258869   8.354   6.355   3.097
19509SOL     OW58870   7.488   6.130   2.976
19509SOL    HW158871   7.573   6.097   2.935
19509SOL    HW258872   7.501   6.145   3.074
19510SOL     OW58873   7.637   6.106   3.584
19510SOL    HW158874   7.696   6.066   3.514
19510SOL    HW258875   7.579   6.177   3.543
19511SOL     OW58876   8.817   6.536   3.522
19511SOL    HW158877   8.856   6.625   3.542
19511SOL    HW258878   8.827   6.516   3.425
19512SOL     OW58879   8.263   6.158   2.187
19512SOL    HW158880   8.270   6.069   2.141
19512SOL    HW258881   8.169   6.192   2.179
19513SOL     OW58882   9.105   6.190   3.068
19513SOL    HW158883   9.067   6.121   3.130
19513SOL    HW258884   9.187   6.154   3.024
19514SOL     OW58885   7.700   7.150   3.606
19514SOL    HW158886   7.670   7.207   3.682
19514SOL    HW258887   7.693   7.053   3.632
19515SOL     OW58888   8.119   6.050   3.131
19515SOL    HW158889   8.085   5.961   3.101
19515SOL    HW258890   8.145   6.104   3.051
19516SOL     OW58891   8.378   7.264   3.327
19516SOL    HW158892   8.354   7.246   3.232
19516SOL    HW258893   8.408   7.358   3.337
19517SOL     OW58894   7.921   6.086   2.053
19517SOL    HW158895   7.982   6.166   2.057
19517SOL    HW258896   7.826   6.117   2.060
19518SOL     OW58897   7.607   6.723   3.328
19518SOL    HW158898   7.629   6.662   3.404
19518SOL    HW258899   7.617   6.674   3.242
19519SOL     OW58900   8.795   6.645   3.096
19519SOL    HW158901   8.819   6.582   3.022
19519SOL    HW258902   8.705   6.685   3.078
19520SOL     OW58903   8.750   6.441   2.171
19520SOL    HW158904   8.664   6.410   2.213
19520SOL    HW258905   8.746   6.427   2.072
19521SOL     OW58906   9.207   7.333   3.016
19521SOL    HW158907   9.268   7.363   2.943
19521SOL    HW258908   9.169   7.244   2.994
19522SOL     OW58909   8.700   7.317   2.990
19522SOL    HW158910   8.784   7.322   2.936
19522SOL    HW258911   8.677   7.221   3.008
19523SOL     OW58912   7.531   6.844   2.884
19523SOL    HW158913   7.526   6.843   2.984
19523SOL    HW258914   7.448   6.803   2.846
19524SOL     OW58915   8.136   7.248   3.578
19524SOL    HW158916   8.080   7.329   3.587
19524SOL    HW258917   8.188   7.252   3.492
19525SOL     OW58918   9.174   5.721   2.385
19525SOL    HW158919   9.247   5.704   2.318
19525SOL    HW258920   9.143   5.634   2.423
19526SOL     OW58921   8.836   7.159   2.339
19526SOL    HW158922   8.903   7.171   2.265
19526SOL    HW258923   8.796   7.248   2.362
19527SOL     OW58924   7.578   7.380   3.713
19527SOL    HW158925   7.537   7.306   3.766
19527SOL    HW258926   7.642   7.431   3.771
19528SOL     OW58927   8.728   6.513   2.534
19528SOL    HW158928   8.788   6.432   2.536
19528SOL    HW258929   8.768   6.582   2.474
19529SOL     OW58930   8.278   6.859   3.284
19529SOL    HW158931   8.273   6.892   3.379
19529SOL    HW258932   8.192   6.878   3.238
19530SOL     OW58933   8.120   7.202   2.016
19530SOL    HW158934   8.129   7.212   1.917
19530SOL    HW258935   8.080   7.113   2.037
19531SOL     OW58936   9.098   7.306   3.256
19531SOL    HW158937   9.151   7.316   3.172
19531SOL    HW258938   9.071   7.396   3.290
19532SOL     OW58939   9.289   5.761   2.825
19532SOL    HW158940   9.328   5.676   2.789
19532SOL    HW258941   9.191   5.763   2.806
19533SOL     OW58942   7.711   5.912   2.582
19533SOL    HW158943   7.632   5.963   2.548
19533SOL    HW258944   7.702   5.897   2.680
19534SOL     OW58945   8.642   7.198   1.893
19534SOL    HW158946   8.648   7.105   1.930
19534SOL    HW258947   8.583   7.198   1.813
19535SOL     OW58948   8.270   6.588   3.234
19535SOL    HW158949   8.310   6.587   3.142
19535SOL    HW258950   8.280   6.680   3.274
19536SOL     OW58951   8.364   6.496   2.153
19536SOL    HW158952   8.427   6.534   2.085
19536SOL    HW258953   8.404   6.413   2.192
19537SOL     OW58954   8.952   7.193   1.906
19537SOL    HW158955   8.860   7.230   1.913
19537SOL    HW258956   8.990   7.213   1.816
19538SOL     OW58957   7.820   6.874   3.352
19538SOL    HW158958   7.807   6.967   3.318
19538SOL    HW258959   7.736   6.822   3.339
19539SOL     OW58960   9.062   6.878   3.151
19539SOL    HW158961   9.122   6.881   3.231
19539SOL    HW258962   8.987   6.942   3.164
19540SOL     OW58963   8.487   6.684   2.558
19540SOL    HW158964   8.417   6.637   2.612
19540SOL    HW258965   8.546   6.616   2.515
19541SOL     OW58966   8.462   5.822   2.833
19541SOL    HW158967   8.454   5.786   2.740
19541SOL    HW258968   8.460   5.746   2.898
19542SOL     OW58969   8.038   7.073   2.353
19542SOL    HW158970   8.080   7.015   2.283
19542SOL    HW258971   7.994   7.152   2.309
19543SOL     OW58972   9.157   5.971   3.243
19543SOL    HW158973   9.230   6.040   3.247
19543SOL    HW258974   9.185   5.896   3.184
19544SOL     OW58975   7.703   6.934   2.152
19544SOL    HW158976   7.607   6.935   2.125
19544SOL    HW258977   7.715   6.987   2.236
19545SOL     OW58978   7.553   6.599   3.588
19545SOL    HW158979   7.476   6.566   3.642
19545SOL    HW258980   7.638   6.569   3.630
19546SOL     OW58981   8.120   5.789   3.351
19546SOL    HW158982   8.210   5.773   3.311
19546SOL    HW258983   8.128   5.794   3.450
19547SOL     OW58984   7.523   5.931   1.895
19547SOL    HW158985   7.431   5.903   1.866
19547SOL    HW258986   7.554   6.008   1.839
19548SOL     OW58987   8.888   6.442   3.260
19548SOL    HW158988   8.831   6.494   3.197
19548SOL    HW258989   8.984   6.454   3.236
19549SOL     OW58990   7.520   5.752   2.180
19549SOL    HW158991   7.503   5.835   2.126
19549SOL    HW258992   7.610   5.715   2.158
19550SOL     OW58993   8.631   6.921   1.981
19550SOL    HW158994   8.532   6.910   1.983
19550SOL    HW258995   8.665   6.936   2.074
19551SOL     OW58996   8.061   6.428   3.293
19551SOL    HW158997   8.117   6.509   3.276
19551SOL    HW258998   8.120   6.348   3.296
19552SOL     OW58999   8.941   7.353   2.821
19552SOL    HW159000   8.974   7.417   2.752
19552SOL    HW259001   9.007   7.347   2.896
19553SOL     OW59002   8.164   6.151   3.570
19553SOL    HW159003   8.183   6.216   3.644
19553SOL    HW259004   8.224   6.071   3.579
19554SOL     OW59005   8.898   6.806   3.495
19554SOL    HW159006   8.889   6.796   3.594
19554SOL    HW259007   8.994   6.799   3.469
19555SOL     OW59008   7.838   7.327   3.422
19555SOL    HW159009   7.747   7.368   3.420
19555SOL    HW259010   7.831   7.233   3.454
19556SOL     OW59011   9.122   6.469   3.116
19556SOL    HW159012   9.095   6.380   3.079
19556SOL    HW259013   9.123   6.537   3.043
19557SOL     OW59014   8.673   5.911   2.311
19557SOL    HW159015   8.738   5.837   2.300
19557SOL    HW259016   8.693   5.961   2.395
19558SOL     OW59017   8.042   6.331   2.514
19558SOL    HW159018   8.092   6.416   2.495
19558SOL    HW259019   7.954   6.333   2.466
19559SOL     OW59020   9.225   5.928   3.504
19559SOL    HW159021   9.208   5.959   3.410
19559SOL    HW259022   9.141   5.891   3.542
19560SOL     OW59023   9.178   6.520   3.379
19560SOL    HW159024   9.216   6.611   3.394
19560SOL    HW259025   9.170   6.503   3.280
19561SOL     OW59026   8.307   6.960   1.878
19561SOL    HW159027   8.261   6.975   1.966
19561SOL    HW259028   8.351   7.045   1.848
19562SOL     OW59029   8.109   7.376   2.815
19562SOL    HW159030   8.063   7.464   2.802
19562SOL    HW259031   8.208   7.388   2.808
19563SOL     OW59032   8.307   6.542   2.723
19563SOL    HW159033   8.361   6.473   2.771
19563SOL    HW259034   8.275   6.611   2.789
19564SOL     OW59035   8.531   6.570   1.949
19564SOL    HW159036   8.508   6.623   1.867
19564SOL    HW259037   8.612   6.514   1.930
19565SOL     OW59038   9.309   7.155   2.713
19565SOL    HW159039   9.238   7.143   2.643
19565SOL    HW259040   9.310   7.076   2.773
19566SOL     OW59041   7.669   6.900   3.706
19566SOL    HW159042   7.604   6.827   3.685
19566SOL    HW259043   7.673   6.914   3.804
19567SOL     OW59044   7.527   6.826   2.515
19567SOL    HW159045   7.526   6.779   2.603
19567SOL    HW259046   7.609   6.798   2.464
19568SOL     OW59047   8.120   6.977   3.486
19568SOL    HW159048   8.042   6.927   3.524
19568SOL    HW259049   8.117   7.072   3.517
19569SOL     OW59050   9.272   5.778   3.089
19569SOL    HW159051   9.268   5.688   3.133
19569SOL    HW259052   9.275   5.767   2.990
19570SOL     OW59053   7.876   6.010   2.382
19570SOL    HW159054   7.906   5.938   2.320
19570SOL    HW259055   7.837   5.970   2.465
19571SOL     OW59056   9.153   7.073   2.966
19571SOL    HW159057   9.060   7.048   2.939
19571SOL    HW259058   9.179   7.023   3.048
19572SOL     OW59059   7.765   6.133   3.142
19572SOL    HW159060   7.803   6.074   3.214
19572SOL    HW259061   7.805   6.107   3.054
19573SOL     OW59062   8.260   7.172   2.549
19573SOL    HW159063   8.292   7.182   2.455
19573SOL    HW259064   8.181   7.110   2.551
19574SOL     OW59065   8.872   5.800   2.974
19574SOL    HW159066   8.924   5.735   3.029
19574SOL    HW259067   8.823   5.863   3.035
19575SOL     OW59068   8.449   5.620   3.016
19575SOL    HW159069   8.386   5.548   2.985
19575SOL    HW259070   8.542   5.584   3.016
19576SOL     OW59071   8.218   6.916   2.163
19576SOL    HW159072   8.172   6.829   2.180
19576SOL    HW259073   8.309   6.913   2.204
19577SOL     OW59074   8.066   7.153   3.146
19577SOL    HW159075   8.061   7.235   3.203
19577SOL    HW259076   8.155   7.150   3.101
19578SOL     OW59077   8.800   5.638   2.030
19578SOL    HW159078   8.835   5.597   1.946
19578SOL    HW259079   8.710   5.600   2.050
19579SOL     OW59080   8.748   6.039   2.553
19579SOL    HW159081   8.689   6.119   2.557
19579SOL    HW259082   8.763   6.004   2.646
19580SOL     OW59083   9.041   5.807   2.744
19580SOL    HW159084   8.957   5.806   2.798
19580SOL    HW259085   9.043   5.890   2.688
19581SOL     OW59086   7.487   6.663   2.162
19581SOL    HW159087   7.586   6.652   2.153
19581SOL    HW259088   7.447   6.577   2.194
19582SOL     OW59089   8.323   7.232   2.199
19582SOL    HW159090   8.246   7.197   2.145
19582SOL    HW259091   8.291   7.303   2.261
19583SOL     OW59092   7.678   6.214   3.837
19583SOL    HW159093   7.585   6.212   3.874
19583SOL    HW259094   7.679   6.175   3.745
19584SOL     OW59095   7.673   5.861   4.720
19584SOL    HW159096   7.708   5.844   4.812
19584SOL    HW259097   7.585   5.816   4.708
19585SOL     OW59098   7.467   5.954   4.371
19585SOL    HW159099   7.385   5.997   4.410
19585SOL    HW259100   7.439   5.881   4.308
19586SOL     OW59101   8.017   6.861   4.889
19586SOL    HW159102   7.924   6.854   4.852
19586SOL    HW259103   8.028   6.950   4.933
19587SOL     OW59104   9.003   7.097   4.427
19587SOL    HW159105   8.946   7.081   4.508
19587SOL    HW259106   8.944   7.107   4.347
19588SOL     OW59107   8.583   6.289   4.441
19588SOL    HW159108   8.640   6.367   4.416
19588SOL    HW259109   8.523   6.315   4.517
19589SOL     OW59110   9.203   6.193   3.955
19589SOL    HW159111   9.191   6.180   3.856
19589SOL    HW259112   9.173   6.112   4.004
19590SOL     OW59113   8.216   6.730   4.747
19590SOL    HW159114   8.138   6.747   4.807
19590SOL    HW259115   8.250   6.817   4.711
19591SOL     OW59116   8.298   6.384   5.547
19591SOL    HW159117   8.294   6.460   5.612
19591SOL    HW259118   8.320   6.420   5.456
19592SOL     OW59119   8.133   6.598   4.389
19592SOL    HW159120   8.202   6.582   4.459
19592SOL    HW259121   8.060   6.655   4.427
19593SOL     OW59122   8.134   6.747   5.527
19593SOL    HW159123   8.194   6.826   5.541
19593SOL    HW259124   8.048   6.778   5.486
19594SOL     OW59125   7.783   7.021   4.785
19594SOL    HW159126   7.705   6.990   4.732
19594SOL    HW259127   7.841   7.079   4.728
19595SOL     OW59128   8.908   7.091   5.063
19595SOL    HW159129   8.932   7.185   5.089
19595SOL    HW259130   8.892   7.037   5.145
19596SOL     OW59131   7.886   5.978   5.223
19596SOL    HW159132   7.968   5.922   5.232
19596SOL    HW259133   7.805   5.920   5.227
19597SOL     OW59134   9.051   6.033   4.461
19597SOL    HW159135   8.977   6.079   4.411
19597SOL    HW259136   9.102   6.101   4.514
19598SOL     OW59137   7.679   7.299   4.207
19598SOL    HW159138   7.713   7.376   4.261
19598SOL    HW259139   7.723   7.299   4.117
19599SOL     OW59140   8.575   6.927   5.414
19599SOL    HW159141   8.622   6.927   5.502
19599SOL    HW259142   8.527   6.840   5.403
19600SOL     OW59143   7.678   7.020   4.262
19600SOL    HW159144   7.652   7.116   4.262
19600SOL    HW259145   7.607   6.966   4.307
19601SOL     OW59146   7.688   6.677   4.610
19601SOL    HW159147   7.702   6.593   4.662
19601SOL    HW259148   7.633   6.741   4.665
19602SOL     OW59149   8.068   7.372   5.163
19602SOL    HW159150   7.976   7.355   5.198
19602SOL    HW259151   8.096   7.464   5.189
19603SOL     OW59152   8.054   6.550   3.847
19603SOL    HW159153   8.061   6.634   3.793
19603SOL    HW259154   8.100   6.563   3.935
19604SOL     OW59155   9.042   5.700   5.204
19604SOL    HW159156   9.024   5.767   5.132
19604SOL    HW259157   9.039   5.746   5.293
19605SOL     OW59158   7.570   6.229   4.287
19605SOL    HW159159   7.525   6.141   4.304
19605SOL    HW259160   7.569   6.283   4.371
19606SOL     OW59161   9.290   7.353   4.083
19606SOL    HW159162   9.344   7.324   4.163
19606SOL    HW259163   9.320   7.443   4.054
19607SOL     OW59164   7.475   7.182   3.841
19607SOL    HW159165   7.456   7.086   3.862
19607SOL    HW259166   7.442   7.240   3.916
19608SOL     OW59167   9.137   6.508   4.336
19608SOL    HW159168   9.232   6.479   4.344
19608SOL    HW259169   9.129   6.573   4.261
19609SOL     OW59170   9.089   6.694   4.156
19609SOL    HW159171   9.175   6.696   4.104
19609SOL    HW259172   9.103   6.741   4.244
19610SOL     OW59173   7.561   6.323   5.321
19610SOL    HW159174   7.649   6.310   5.366
19610SOL    HW259175   7.548   6.420   5.299
19611SOL     OW59176   8.061   6.951   4.450
19611SOL    HW159177   8.012   6.864   4.459
19611SOL    HW259178   8.038   6.994   4.363
19612SOL     OW59179   8.741   6.814   5.147
19612SOL    HW159180   8.778   6.741   5.089
19612SOL    HW259181   8.793   6.819   5.232
19613SOL     OW59182   8.257   5.590   4.226
19613SOL    HW159183   8.297   5.681   4.217
19613SOL    HW259184   8.157   5.598   4.232
19614SOL     OW59185   7.645   6.562   4.988
19614SOL    HW159186   7.734   6.517   4.974
19614SOL    HW259187   7.572   6.497   4.969
19615SOL     OW59188   8.973   6.585   3.914
19615SOL    HW159189   8.910   6.509   3.927
19615SOL    HW259190   9.021   6.603   4.000
19616SOL     OW59191   8.635   7.378   5.340
19616SOL    HW159192   8.659   7.438   5.264
19616SOL    HW259193   8.642   7.283   5.310
19617SOL     OW59194   7.765   5.837   5.525
19617SOL    HW159195   7.836   5.908   5.531
19617SOL    HW259196   7.677   5.876   5.553
19618SOL     OW59197   8.914   7.003   4.677
19618SOL    HW159198   8.855   7.009   4.757
19618SOL    HW259199   8.899   6.915   4.631
19619SOL     OW59200   9.115   7.300   4.296
19619SOL    HW159201   9.074   7.277   4.208
19619SOL    HW259202   9.097   7.226   4.361
19620SOL     OW59203   8.046   6.315   3.994
19620SOL    HW159204   8.070   6.384   3.926
19620SOL    HW259205   7.968   6.348   4.048
19621SOL     OW59206   8.729   5.931   4.668
19621SOL    HW159207   8.643   5.881   4.655
19621SOL    HW259208   8.791   5.877   4.724
19622SOL     OW59209   9.024   7.248   4.031
19622SOL    HW159210   9.113   7.294   4.034
19622SOL    HW259211   9.003   7.224   3.936
19623SOL     OW59212   8.255   6.191   5.189
19623SOL    HW159213   8.208   6.188   5.278
19623SOL    HW259214   8.204   6.136   5.123
19624SOL     OW59215   8.842   6.055   5.398
19624SOL    HW159216   8.822   6.098   5.486
19624SOL    HW259217   8.920   5.993   5.407
19625SOL     OW59218   8.421   6.476   5.296
19625SOL    HW159219   8.467   6.392   5.267
19625SOL    HW259220   8.365   6.510   5.221
19626SOL     OW59221   8.439   5.996   4.966
19626SOL    HW159222   8.362   6.030   5.020
19626SOL    HW259223   8.405   5.945   4.887
19627SOL     OW59224   8.489   6.287   4.153
19627SOL    HW159225   8.515   6.283   4.249
19627SOL    HW259226   8.404   6.236   4.139
19628SOL     OW59227   7.524   6.397   4.513
19628SOL    HW159228   7.623   6.385   4.522
19628SOL    HW259229   7.500   6.492   4.534
19629SOL     OW59230   7.578   7.407   5.295
19629SOL    HW159231   7.568   7.392   5.394
19629SOL    HW259232   7.492   7.443   5.259
19630SOL     OW59233   8.313   5.934   3.919
19630SOL    HW159234   8.372   5.997   3.870
19630SOL    HW259235   8.332   5.840   3.890
19631SOL     OW59236   9.167   6.171   5.555
19631SOL    HW159237   9.141   6.260   5.519
19631SOL    HW259238   9.165   6.103   5.482
19632SOL     OW59239   8.810   6.730   4.269
19632SOL    HW159240   8.893   6.701   4.221
19632SOL    HW259241   8.761   6.797   4.213
19633SOL     OW59242   7.998   5.782   4.609
19633SOL    HW159243   7.993   5.777   4.709
19633SOL    HW259244   8.000   5.878   4.580
19634SOL     OW59245   8.456   7.042   4.201
19634SOL    HW159246   8.410   7.114   4.149
19634SOL    HW259247   8.452   7.062   4.299
19635SOL     OW59248   7.799   7.387   4.577
19635SOL    HW159249   7.849   7.301   4.583
19635SOL    HW259250   7.864   7.464   4.574
19636SOL     OW59251   9.243   6.652   4.597
19636SOL    HW159252   9.181   6.637   4.521
19636SOL    HW259253   9.191   6.663   4.682
19637SOL     OW59254   8.675   7.136   5.230
19637SOL    HW159255   8.681   7.059   5.294
19637SOL    HW259256   8.623   7.110   5.150
19638SOL     OW59257   7.769   6.529   3.966
19638SOL    HW159258   7.851   6.568   3.924
19638SOL    HW259259   7.742   6.447   3.917
19639SOL     OW59260   8.906   6.321   4.452
19639SOL    HW159261   8.901   6.256   4.527
19639SOL    HW259262   8.986   6.380   4.465
19640SOL     OW59263   7.909   6.852   5.451
19640SOL    HW159264   7.859   6.853   5.365
19640SOL    HW259265   7.846   6.834   5.527
19641SOL     OW59266   8.559   7.362   3.961
19641SOL    HW159267   8.499   7.300   4.011
19641SOL    HW259268   8.590   7.318   3.876
19642SOL     OW59269   7.650   5.871   5.222
19642SOL    HW159270   7.570   5.931   5.209
19642SOL    HW259271   7.640   5.822   5.308
19643SOL     OW59272   9.080   6.963   3.805
19643SOL    HW159273   9.048   7.057   3.795
19643SOL    HW259274   9.004   6.900   3.793
19644SOL     OW59275   7.912   7.329   4.047
19644SOL    HW159276   7.945   7.368   4.133
19644SOL    HW259277   7.988   7.322   3.982
19645SOL     OW59278   8.848   5.693   4.150
19645SOL    HW159279   8.824   5.656   4.060
19645SOL    HW259280   8.947   5.709   4.154
19646SOL     OW59281   7.697   7.371   4.965
19646SOL    HW159282   7.754   7.306   5.015
19646SOL    HW259283   7.681   7.338   4.872
19647SOL     OW59284   8.388   7.284   4.628
19647SOL    HW159285   8.468   7.227   4.649
19647SOL    HW259286   8.339   7.244   4.551
19648SOL     OW59287   7.830   6.286   4.204
19648SOL    HW159288   7.875   6.196   4.201
19648SOL    HW259289   7.736   6.275   4.237
19649SOL     OW59290   8.995   5.808   5.453
19649SOL    HW159291   8.990   5.845   5.545
19649SOL    HW259292   8.923   5.739   5.441
19650SOL     OW59293   8.062   5.708   3.841
19650SOL    HW159294   8.160   5.686   3.848
19650SOL    HW259295   8.031   5.691   3.748
19651SOL     OW59296   8.229   5.850   5.473
19651SOL    HW159297   8.296   5.789   5.516
19651SOL    HW259298   8.156   5.869   5.538
19652SOL     OW59299   8.336   7.100   4.919
19652SOL    HW159300   8.313   7.075   4.825
19652SOL    HW259301   8.397   7.031   4.958
19653SOL     OW59302   8.799   6.176   5.157
19653SOL    HW159303   8.827   6.133   5.242
19653SOL    HW259304   8.824   6.272   5.158
19654SOL     OW59305   8.251   6.988   4.648
19654SOL    HW159306   8.341   7.002   4.606
19654SOL    HW259307   8.180   6.990   4.577
19655SOL     OW59308   8.370   6.089   4.623
19655SOL    HW159309   8.345   6.080   4.527
19655SOL    HW259310   8.418   6.007   4.654
19656SOL     OW59311   7.987   5.650   4.236
19656SOL    HW159312   7.906   5.651   4.294
19656SOL    HW259313   7.990   5.733   4.181
19657SOL     OW59314   8.882   6.774   3.765
19657SOL    HW159315   8.914   6.698   3.822
19657SOL    HW259316   8.790   6.801   3.795
19658SOL     OW59317   7.745   5.621   3.895
19658SOL    HW159318   7.794   5.705   3.874
19658SOL    HW259319   7.807   5.556   3.940
19659SOL     OW59320   8.383   5.822   4.204
19659SOL    HW159321   8.335   5.863   4.126
19659SOL    HW259322   8.482   5.820   4.185
19660SOL     OW59323   8.524   6.269   5.188
19660SOL    HW159324   8.444   6.208   5.191
19660SOL    HW259325   8.605   6.216   5.164
19661SOL     OW59326   8.675   7.156   4.517
19661SOL    HW159327   8.696   7.230   4.452
19661SOL    HW259328   8.743   7.156   4.590
19662SOL     OW59329   7.907   6.738   4.465
19662SOL    HW159330   7.836   6.711   4.530
19662SOL    HW259331   7.881   6.710   4.372
19663SOL     OW59332   8.719   7.383   4.315
19663SOL    HW159333   8.763   7.447   4.251
19663SOL    HW259334   8.669   7.435   4.385
19664SOL     OW59335   8.480   6.135   3.740
19664SOL    HW159336   8.439   6.217   3.701
19664SOL    HW259337   8.544   6.161   3.813
19665SOL     OW59338   7.526   6.142   5.110
19665SOL    HW159339   7.618   6.141   5.069
19665SOL    HW259340   7.520   6.216   5.177
19666SOL     OW59341   8.009   5.808   4.871
19666SOL    HW159342   8.047   5.724   4.908
19666SOL    HW259343   7.921   5.827   4.915
19667SOL     OW59344   8.314   6.040   4.366
19667SOL    HW159345   8.282   6.112   4.304
19667SOL    HW259346   8.338   5.959   4.313
19668SOL     OW59347   8.465   5.625   4.477
19668SOL    HW159348   8.393   5.630   4.408
19668SOL    HW259349   8.441   5.556   4.546
19669SOL     OW59350   8.877   6.759   4.591
19669SOL    HW159351   8.822   6.675   4.584
19669SOL    HW259352   8.903   6.788   4.499
19670SOL     OW59353   8.914   6.176   4.716
19670SOL    HW159354   8.884   6.081   4.723
19670SOL    HW259355   8.987   6.192   4.782
19671SOL     OW59356   9.305   6.419   4.101
19671SOL    HW159357   9.347   6.355   4.165
19671SOL    HW259358   9.267   6.368   4.023
19672SOL     OW59359   7.936   6.971   3.898
19672SOL    HW159360   7.849   6.956   3.945
19672SOL    HW259361   7.919   6.997   3.803
19673SOL     OW59362   9.112   6.866   4.381
19673SOL    HW159363   9.211   6.874   4.395
19673SOL    HW259364   9.067   6.950   4.412
19674SOL     OW59365   8.838   6.161   3.802
19674SOL    HW159366   8.784   6.140   3.883
19674SOL    HW259367   8.929   6.120   3.811
19675SOL     OW59368   7.975   5.842   4.052
19675SOL    HW159369   8.002   5.783   3.977
19675SOL    HW259370   7.975   5.937   4.021
19676SOL     OW59371   9.202   6.809   5.312
19676SOL    HW159372   9.293   6.770   5.299
19676SOL    HW259373   9.210   6.905   5.336
19677SOL     OW59374   8.512   6.933   5.064
19677SOL    HW159375   8.432   6.910   5.119
19677SOL    HW259376   8.595   6.907   5.113
19678SOL     OW59377   9.040   7.215   5.349
19678SOL    HW159378   9.067   7.249   5.259
19678SOL    HW259379   9.119   7.177   5.395
19679SOL     OW59380   8.559   6.781   4.824
19679SOL    HW159381   8.519   6.825   4.905
19679SOL    HW259382   8.518   6.818   4.741
19680SOL     OW59383   9.086   6.685   4.803
19680SOL    HW159384   9.091   6.766   4.862
19680SOL    HW259385   9.000   6.687   4.752
19681SOL     OW59386   8.363   5.675   5.126
19681SOL    HW159387   8.388   5.655   5.031
19681SOL    HW259388   8.435   5.731   5.168
19682SOL     OW59389   8.428   6.702   5.443
19682SOL    HW159390   8.329   6.708   5.453
19682SOL    HW259391   8.451   6.622   5.387
19683SOL     OW59392   8.153   6.636   4.092
19683SOL    HW159393   8.139   6.643   4.191
19683SOL    HW259394   8.237   6.585   4.074
19684SOL     OW59395   7.858   6.399   4.975
19684SOL    HW159396   7.944   6.411   5.025
19684SOL    HW259397   7.816   6.312   5.002
19685SOL     OW59398   8.722   5.972   4.986
19685SOL    HW159399   8.743   6.046   5.050
19685SOL    HW259400   8.633   5.989   4.943
19686SOL     OW59401   7.512   7.150   5.055
19686SOL    HW159402   7.466   7.232   5.021
19686SOL    HW259403   7.610   7.169   5.064
19687SOL     OW59404   7.815   6.686   4.225
19687SOL    HW159405   7.808   6.769   4.169
19687SOL    HW259406   7.819   6.606   4.165
19688SOL     OW59407   8.014   6.123   4.589
19688SOL    HW159408   8.026   6.189   4.515
19688SOL    HW259409   8.060   6.157   4.672
19689SOL     OW59410   8.700   6.934   4.112
19689SOL    HW159411   8.750   7.011   4.152
19689SOL    HW259412   8.605   6.936   4.144
19690SOL     OW59413   8.720   7.031   4.866
19690SOL    HW159414   8.767   7.044   4.953
19690SOL    HW259415   8.654   6.957   4.875
19691SOL     OW59416   9.030   6.225   4.196
19691SOL    HW159417   8.999   6.286   4.269
19691SOL    HW259418   9.080   6.277   4.127
19692SOL     OW59419   7.802   7.096   5.053
19692SOL    HW159420   7.781   7.052   4.966
19692SOL    HW259421   7.899   7.122   5.056
19693SOL     OW59422   7.850   6.337   5.322
19693SOL    HW159423   7.918   6.392   5.275
19693SOL    HW259424   7.890   6.249   5.349
19694SOL     OW59425   9.035   6.365   5.394
19694SOL    HW159426   8.943   6.403   5.389
19694SOL    HW259427   9.095   6.412   5.329
19695SOL     OW59428   8.461   5.691   5.494
19695SOL    HW159429   8.467   5.776   5.442
19695SOL    HW259430   8.493   5.615   5.437
19696SOL     OW59431   7.952   5.636   5.464
19696SOL    HW159432   7.910   5.579   5.394
19696SOL    HW259433   7.886   5.705   5.496
19697SOL     OW59434   8.021   6.456   4.753
19697SOL    HW159435   8.065   6.545   4.744
19697SOL    HW259436   7.958   6.456   4.830
19698SOL     OW59437   8.808   6.448   4.769
19698SOL    HW159438   8.733   6.448   4.703
19698SOL    HW259439   8.845   6.356   4.778
19699SOL     OW59440   8.657   6.111   3.999
19699SOL    HW159441   8.670   6.027   4.053
19699SOL    HW259442   8.628   6.185   4.059
19700SOL     OW59443   7.755   5.799   4.955
19700SOL    HW159444   7.732   5.836   5.045
19700SOL    HW259445   7.725   5.704   4.949
19701SOL     OW59446   7.485   6.896   5.006
19701SOL    HW159447   7.538   6.847   5.074
19701SOL    HW259448   7.507   6.994   5.011
19702SOL     OW59449   8.180   6.220   4.788
19702SOL    HW159450   8.239   6.194   4.712
19702SOL    HW259451   8.152   6.316   4.777
19703SOL     OW59452   9.176   6.521   5.578
19703SOL    HW159453   9.130   6.514   5.489
19703SOL    HW259454   9.114   6.565   5.644
19704SOL     OW59455   7.755   5.649   4.342
19704SOL    HW159456   7.744   5.743   4.375
19704SOL    HW259457   7.750   5.586   4.419
19705SOL     OW59458   9.070   5.953   4.098
19705SOL    HW159459   9.072   5.877   4.162
19705SOL    HW259460   9.022   6.030   4.138
19706SOL     OW59461   8.471   6.352   4.690
19706SOL    HW159462   8.486   6.373   4.786
19706SOL    HW259463   8.441   6.257   4.681
19707SOL     OW59464   8.428   7.159   5.424
19707SOL    HW159465   8.408   7.203   5.336
19707SOL    HW259466   8.467   7.068   5.408
19708SOL     OW59467   9.307   7.104   5.329
19708SOL    HW159468   9.321   7.131   5.234
19708SOL    HW259469   9.390   7.126   5.382
19709SOL     OW59470   7.798   6.484   5.528
19709SOL    HW159471   7.874   6.528   5.576
19709SOL    HW259472   7.833   6.437   5.446
19710SOL     OW59473   8.988   5.860   3.849
19710SOL    HW159474   8.927   5.785   3.872
19710SOL    HW259475   9.010   5.912   3.932
19711SOL     OW59476   8.751   6.424   3.766
19711SOL    HW159477   8.785   6.331   3.781
19711SOL    HW259478   8.769   6.451   3.671
19712SOL     OW59479   8.516   6.919   4.573
19712SOL    HW159480   8.523   6.835   4.518
19712SOL    HW259481   8.578   6.988   4.537
19713SOL     OW59482   7.767   6.396   4.673
19713SOL    HW159483   7.860   6.432   4.678
19713SOL    HW259484   7.761   6.311   4.725
19714SOL     OW59485   7.787   6.095   4.730
19714SOL    HW159486   7.735   6.012   4.713
19714SOL    HW259487   7.864   6.100   4.666
19715SOL     OW59488   8.586   5.966   5.402
19715SOL    HW159489   8.541   6.029   5.466
19715SOL    HW259490   8.679   5.997   5.385
19716SOL     OW59491   8.608   5.793   5.201
19716SOL    HW159492   8.608   5.857   5.278
19716SOL    HW259493   8.636   5.841   5.118
19717SOL     OW59494   7.456   6.912   3.924
19717SOL    HW159495   7.363   6.933   3.893
19717SOL    HW259496   7.466   6.813   3.937
19718SOL     OW59497   7.536   7.387   4.651
19718SOL    HW159498   7.494   7.301   4.624
19718SOL    HW259499   7.630   7.390   4.617
19719SOL     OW59500   7.952   7.154   4.634
19719SOL    HW159501   8.018   7.228   4.643
19719SOL    HW259502   7.996   7.075   4.592
19720SOL     OW59503   8.450   6.382   4.962
19720SOL    HW159504   8.491   6.350   5.048
19720SOL    HW259505   8.354   6.355   4.959
19721SOL     OW59506   7.488   6.130   4.838
19721SOL    HW159507   7.573   6.097   4.797
19721SOL    HW259508   7.501   6.145   4.936
19722SOL     OW59509   7.637   6.106   5.446
19722SOL    HW159510   7.696   6.066   5.376
19722SOL    HW259511   7.579   6.177   5.405
19723SOL     OW59512   8.817   6.536   5.384
19723SOL    HW159513   8.856   6.625   5.404
19723SOL    HW259514   8.827   6.516   5.287
19724SOL     OW59515   8.263   6.158   4.049
19724SOL    HW159516   8.270   6.069   4.003
19724SOL    HW259517   8.169   6.192   4.041
19725SOL     OW59518   9.105   6.190   4.930
19725SOL    HW159519   9.067   6.121   4.992
19725SOL    HW259520   9.187   6.154   4.886
19726SOL     OW59521   7.700   7.150   5.468
19726SOL    HW159522   7.670   7.207   5.544
19726SOL    HW259523   7.693   7.053   5.494
19727SOL     OW59524   8.119   6.050   4.993
19727SOL    HW159525   8.085   5.961   4.963
19727SOL    HW259526   8.145   6.104   4.913
19728SOL     OW59527   8.378   7.264   5.189
19728SOL    HW159528   8.354   7.246   5.094
19728SOL    HW259529   8.408   7.358   5.199
19729SOL     OW59530   7.921   6.086   3.915
19729SOL    HW159531   7.982   6.166   3.919
19729SOL    HW259532   7.826   6.117   3.922
19730SOL     OW59533   7.607   6.723   5.190
19730SOL    HW159534   7.629   6.662   5.266
19730SOL    HW259535   7.617   6.674   5.104
19731SOL     OW59536   8.795   6.645   4.958
19731SOL    HW159537   8.819   6.582   4.884
19731SOL    HW259538   8.705   6.685   4.940
19732SOL     OW59539   8.750   6.441   4.033
19732SOL    HW159540   8.664   6.410   4.075
19732SOL    HW259541   8.746   6.427   3.934
19733SOL     OW59542   9.207   7.333   4.878
19733SOL    HW159543   9.268   7.363   4.805
19733SOL    HW259544   9.169   7.244   4.856
19734SOL     OW59545   8.700   7.317   4.852
19734SOL    HW159546   8.784   7.322   4.798
19734SOL    HW259547   8.677   7.221   4.870
19735SOL     OW59548   7.531   6.844   4.746
19735SOL    HW159549   7.526   6.843   4.846
19735SOL    HW259550   7.448   6.803   4.708
19736SOL     OW59551   8.136   7.248   5.440
19736SOL    HW159552   8.080   7.329   5.449
19736SOL    HW259553   8.188   7.252   5.354
19737SOL     OW59554   9.174   5.721   4.247
19737SOL    HW159555   9.247   5.704   4.180
19737SOL    HW259556   9.143   5.634   4.285
19738SOL     OW59557   8.836   7.159   4.201
19738SOL    HW159558   8.903   7.171   4.127
19738SOL    HW259559   8.796   7.248   4.224
19739SOL     OW59560   7.578   7.380   5.575
19739SOL    HW159561   7.537   7.306   5.628
19739SOL    HW259562   7.642   7.431   5.633
19740SOL     OW59563   8.728   6.513   4.396
19740SOL    HW159564   8.788   6.432   4.398
19740SOL    HW259565   8.768   6.582   4.336
19741SOL     OW59566   8.278   6.859   5.146
19741SOL    HW159567   8.273   6.892   5.241
19741SOL    HW259568   8.192   6.878   5.100
19742SOL     OW59569   8.120   7.202   3.878
19742SOL    HW159570   8.129   7.212   3.779
19742SOL    HW259571   8.080   7.113   3.899
19743SOL     OW59572   9.098   7.306   5.118
19743SOL    HW159573   9.151   7.316   5.034
19743SOL    HW259574   9.071   7.396   5.152
19744SOL     OW59575   9.289   5.761   4.687
19744SOL    HW159576   9.328   5.676   4.651
19744SOL    HW259577   9.191   5.763   4.668
19745SOL     OW59578   7.711   5.912   4.444
19745SOL    HW159579   7.632   5.963   4.410
19745SOL    HW259580   7.702   5.897   4.542
19746SOL     OW59581   8.642   7.198   3.755
19746SOL    HW159582   8.648   7.105   3.792
19746SOL    HW259583   8.583   7.198   3.675
19747SOL     OW59584   8.270   6.588   5.096
19747SOL    HW159585   8.310   6.587   5.004
19747SOL    HW259586   8.280   6.680   5.136
19748SOL     OW59587   8.364   6.496   4.015
19748SOL    HW159588   8.427   6.534   3.947
19748SOL    HW259589   8.404   6.413   4.054
19749SOL     OW59590   8.952   7.193   3.768
19749SOL    HW159591   8.860   7.230   3.775
19749SOL    HW259592   8.990   7.213   3.678
19750SOL     OW59593   7.820   6.874   5.214
19750SOL    HW159594   7.807   6.967   5.180
19750SOL    HW259595   7.736   6.822   5.201
19751SOL     OW59596   9.062   6.878   5.013
19751SOL    HW159597   9.122   6.881   5.093
19751SOL    HW259598   8.987   6.942   5.026
19752SOL     OW59599   8.487   6.684   4.420
19752SOL    HW159600   8.417   6.637   4.474
19752SOL    HW259601   8.546   6.616   4.377
19753SOL     OW59602   8.462   5.822   4.695
19753SOL    HW159603   8.454   5.786   4.602
19753SOL    HW259604   8.460   5.746   4.760
19754SOL     OW59605   8.038   7.073   4.215
19754SOL    HW159606   8.080   7.015   4.145
19754SOL    HW259607   7.994   7.152   4.171
19755SOL     OW59608   9.157   5.971   5.105
19755SOL    HW159609   9.230   6.040   5.109
19755SOL    HW259610   9.185   5.896   5.046
19756SOL     OW59611   7.703   6.934   4.014
19756SOL    HW159612   7.607   6.935   3.987
19756SOL    HW259613   7.715   6.987   4.098
19757SOL     OW59614   7.553   6.599   5.450
19757SOL    HW159615   7.476   6.566   5.504
19757SOL    HW259616   7.638   6.569   5.492
19758SOL     OW59617   8.120   5.789   5.213
19758SOL    HW159618   8.210   5.773   5.173
19758SOL    HW259619   8.128   5.794   5.312
19759SOL     OW59620   7.523   5.931   3.757
19759SOL    HW159621   7.431   5.903   3.728
19759SOL    HW259622   7.554   6.008   3.701
19760SOL     OW59623   8.888   6.442   5.122
19760SOL    HW159624   8.831   6.494   5.059
19760SOL    HW259625   8.984   6.454   5.098
19761SOL     OW59626   7.520   5.752   4.042
19761SOL    HW159627   7.503   5.835   3.988
19761SOL    HW259628   7.610   5.715   4.020
19762SOL     OW59629   8.631   6.921   3.843
19762SOL    HW159630   8.532   6.910   3.845
19762SOL    HW259631   8.665   6.936   3.936
19763SOL     OW59632   8.061   6.428   5.155
19763SOL    HW159633   8.117   6.509   5.138
19763SOL    HW259634   8.120   6.348   5.158
19764SOL     OW59635   8.941   7.353   4.683
19764SOL    HW159636   8.974   7.417   4.614
19764SOL    HW259637   9.007   7.347   4.758
19765SOL     OW59638   8.164   6.151   5.432
19765SOL    HW159639   8.183   6.216   5.506
19765SOL    HW259640   8.224   6.071   5.441
19766SOL     OW59641   8.898   6.806   5.357
19766SOL    HW159642   8.889   6.796   5.456
19766SOL    HW259643   8.994   6.799   5.331
19767SOL     OW59644   7.838   7.327   5.284
19767SOL    HW159645   7.747   7.368   5.282
19767SOL    HW259646   7.831   7.233   5.316
19768SOL     OW59647   9.122   6.469   4.978
19768SOL    HW159648   9.095   6.380   4.941
19768SOL    HW259649   9.123   6.537   4.905
19769SOL     OW59650   8.673   5.911   4.173
19769SOL    HW159651   8.738   5.837   4.162
19769SOL    HW259652   8.693   5.961   4.257
19770SOL     OW59653   8.042   6.331   4.376
19770SOL    HW159654   8.092   6.416   4.357
19770SOL    HW259655   7.954   6.333   4.328
19771SOL     OW59656   9.225   5.928   5.366
19771SOL    HW159657   9.208   5.959   5.272
19771SOL    HW259658   9.141   5.891   5.404
19772SOL     OW59659   9.178   6.520   5.241
19772SOL    HW159660   9.216   6.611   5.256
19772SOL    HW259661   9.170   6.503   5.142
19773SOL     OW59662   8.307   6.960   3.740
19773SOL    HW159663   8.261   6.975   3.828
19773SOL    HW259664   8.351   7.045   3.710
19774SOL     OW59665   8.109   7.376   4.677
19774SOL    HW159666   8.063   7.464   4.664
19774SOL    HW259667   8.208   7.388   4.670
19775SOL     OW59668   8.307   6.542   4.585
19775SOL    HW159669   8.361   6.473   4.633
19775SOL    HW259670   8.275   6.611   4.651
19776SOL     OW59671   8.531   6.570   3.811
19776SOL    HW159672   8.508   6.623   3.729
19776SOL    HW259673   8.612   6.514   3.792
19777SOL     OW59674   9.309   7.155   4.575
19777SOL    HW159675   9.238   7.143   4.505
19777SOL    HW259676   9.310   7.076   4.635
19778SOL     OW59677   7.669   6.900   5.568
19778SOL    HW159678   7.604   6.827   5.547
19778SOL    HW259679   7.673   6.914   5.666
19779SOL     OW59680   7.527   6.826   4.377
19779SOL    HW159681   7.526   6.779   4.465
19779SOL    HW259682   7.609   6.798   4.326
19780SOL     OW59683   8.120   6.977   5.348
19780SOL    HW159684   8.042   6.927   5.386
19780SOL    HW259685   8.117   7.072   5.379
19781SOL     OW59686   9.272   5.778   4.951
19781SOL    HW159687   9.268   5.688   4.995
19781SOL    HW259688   9.275   5.767   4.852
19782SOL     OW59689   7.876   6.010   4.244
19782SOL    HW159690   7.906   5.938   4.182
19782SOL    HW259691   7.837   5.970   4.327
19783SOL     OW59692   9.153   7.073   4.828
19783SOL    HW159693   9.060   7.048   4.801
19783SOL    HW259694   9.179   7.023   4.910
19784SOL     OW59695   7.765   6.133   5.004
19784SOL    HW159696   7.803   6.074   5.076
19784SOL    HW259697   7.805   6.107   4.916
19785SOL     OW59698   8.260   7.172   4.411
19785SOL    HW159699   8.292   7.182   4.317
19785SOL    HW259700   8.181   7.110   4.413
19786SOL     OW59701   8.872   5.800   4.836
19786SOL    HW159702   8.924   5.735   4.891
19786SOL    HW259703   8.823   5.863   4.897
19787SOL     OW59704   8.449   5.620   4.878
19787SOL    HW159705   8.386   5.548   4.847
19787SOL    HW259706   8.542   5.584   4.878
19788SOL     OW59707   8.218   6.916   4.025
19788SOL    HW159708   8.172   6.829   4.042
19788SOL    HW259709   8.309   6.913   4.066
19789SOL     OW59710   8.066   7.153   5.008
19789SOL    HW159711   8.061   7.235   5.065
19789SOL    HW259712   8.155   7.150   4.963
19790SOL     OW59713   8.800   5.638   3.892
19790SOL    HW159714   8.835   5.597   3.808
19790SOL    HW259715   8.710   5.600   3.912
19791SOL     OW59716   8.748   6.039   4.415
19791SOL    HW159717   8.689   6.119   4.419
19791SOL    HW259718   8.763   6.004   4.508
19792SOL     OW59719   9.041   5.807   4.606
19792SOL    HW159720   8.957   5.806   4.660
19792SOL    HW259721   9.043   5.890   4.550
19793SOL     OW59722   7.487   6.663   4.024
19793SOL    HW159723   7.586   6.652   4.015
19793SOL    HW259724   7.447   6.577   4.056
19794SOL     OW59725   8.323   7.232   4.061
19794SOL    HW159726   8.246   7.197   4.007
19794SOL    HW259727   8.291   7.303   4.123
19795SOL     OW59728   7.678   6.214   5.699
19795SOL    HW159729   7.585   6.212   5.736
19795SOL    HW259730   7.679   6.175   5.607
19796SOL     OW59731   7.673   5.861   6.582
19796SOL    HW159732   7.708   5.844   6.674
19796SOL    HW259733   7.585   5.816   6.570
19797SOL     OW59734   7.467   5.954   6.233
19797SOL    HW159735   7.385   5.997   6.272
19797SOL    HW259736   7.439   5.881   6.170
19798SOL     OW59737   8.017   6.861   6.751
19798SOL    HW159738   7.924   6.854   6.714
19798SOL    HW259739   8.028   6.950   6.795
19799SOL     OW59740   9.003   7.097   6.289
19799SOL    HW159741   8.946   7.081   6.370
19799SOL    HW259742   8.944   7.107   6.209
19800SOL     OW59743   8.583   6.289   6.303
19800SOL    HW159744   8.640   6.367   6.278
19800SOL    HW259745   8.523   6.315   6.379
19801SOL     OW59746   9.203   6.193   5.817
19801SOL    HW159747   9.191   6.180   5.718
19801SOL    HW259748   9.173   6.112   5.866
19802SOL     OW59749   8.216   6.730   6.609
19802SOL    HW159750   8.138   6.747   6.669
19802SOL    HW259751   8.250   6.817   6.573
19803SOL     OW59752   8.298   6.384   7.409
19803SOL    HW159753   8.294   6.460   7.474
19803SOL    HW259754   8.320   6.420   7.318
19804SOL     OW59755   8.133   6.598   6.251
19804SOL    HW159756   8.202   6.582   6.321
19804SOL    HW259757   8.060   6.655   6.289
19805SOL     OW59758   8.134   6.747   7.389
19805SOL    HW159759   8.194   6.826   7.403
19805SOL    HW259760   8.048   6.778   7.348
19806SOL     OW59761   7.783   7.021   6.647
19806SOL    HW159762   7.705   6.990   6.594
19806SOL    HW259763   7.841   7.079   6.590
19807SOL     OW59764   8.908   7.091   6.925
19807SOL    HW159765   8.932   7.185   6.951
19807SOL    HW259766   8.892   7.037   7.007
19808SOL     OW59767   7.886   5.978   7.085
19808SOL    HW159768   7.968   5.922   7.094
19808SOL    HW259769   7.805   5.920   7.089
19809SOL     OW59770   9.051   6.033   6.323
19809SOL    HW159771   8.977   6.079   6.273
19809SOL    HW259772   9.102   6.101   6.376
19810SOL     OW59773   7.679   7.299   6.069
19810SOL    HW159774   7.713   7.376   6.123
19810SOL    HW259775   7.723   7.299   5.979
19811SOL     OW59776   8.575   6.927   7.276
19811SOL    HW159777   8.622   6.927   7.364
19811SOL    HW259778   8.527   6.840   7.265
19812SOL     OW59779   7.678   7.020   6.124
19812SOL    HW159780   7.652   7.116   6.124
19812SOL    HW259781   7.607   6.966   6.169
19813SOL     OW59782   7.688   6.677   6.472
19813SOL    HW159783   7.702   6.593   6.524
19813SOL    HW259784   7.633   6.741   6.527
19814SOL     OW59785   8.068   7.372   7.025
19814SOL    HW159786   7.976   7.355   7.060
19814SOL    HW259787   8.096   7.464   7.051
19815SOL     OW59788   8.054   6.550   5.709
19815SOL    HW159789   8.061   6.634   5.655
19815SOL    HW259790   8.100   6.563   5.797
19816SOL     OW59791   9.042   5.700   7.066
19816SOL    HW159792   9.024   5.767   6.994
19816SOL    HW259793   9.039   5.746   7.155
19817SOL     OW59794   7.570   6.229   6.149
19817SOL    HW159795   7.525   6.141   6.166
19817SOL    HW259796   7.569   6.283   6.233
19818SOL     OW59797   9.290   7.353   5.945
19818SOL    HW159798   9.344   7.324   6.025
19818SOL    HW259799   9.320   7.443   5.916
19819SOL     OW59800   7.475   7.182   5.703
19819SOL    HW159801   7.456   7.086   5.724
19819SOL    HW259802   7.442   7.240   5.778
19820SOL     OW59803   9.137   6.508   6.198
19820SOL    HW159804   9.232   6.479   6.206
19820SOL    HW259805   9.129   6.573   6.123
19821SOL     OW59806   9.089   6.694   6.018
19821SOL    HW159807   9.175   6.696   5.966
19821SOL    HW259808   9.103   6.741   6.106
19822SOL     OW59809   7.561   6.323   7.183
19822SOL    HW159810   7.649   6.310   7.228
19822SOL    HW259811   7.548   6.420   7.161
19823SOL     OW59812   8.061   6.951   6.312
19823SOL    HW159813   8.012   6.864   6.321
19823SOL    HW259814   8.038   6.994   6.225
19824SOL     OW59815   8.741   6.814   7.009
19824SOL    HW159816   8.778   6.741   6.951
19824SOL    HW259817   8.793   6.819   7.094
19825SOL     OW59818   8.257   5.590   6.088
19825SOL    HW159819   8.297   5.681   6.079
19825SOL    HW259820   8.157   5.598   6.094
19826SOL     OW59821   7.645   6.562   6.850
19826SOL    HW159822   7.734   6.517   6.836
19826SOL    HW259823   7.572   6.497   6.831
19827SOL     OW59824   8.973   6.585   5.776
19827SOL    HW159825   8.910   6.509   5.789
19827SOL    HW259826   9.021   6.603   5.862
19828SOL     OW59827   8.635   7.378   7.202
19828SOL    HW159828   8.659   7.438   7.126
19828SOL    HW259829   8.642   7.283   7.172
19829SOL     OW59830   7.765   5.837   7.387
19829SOL    HW159831   7.836   5.908   7.393
19829SOL    HW259832   7.677   5.876   7.415
19830SOL     OW59833   8.914   7.003   6.539
19830SOL    HW159834   8.855   7.009   6.619
19830SOL    HW259835   8.899   6.915   6.493
19831SOL     OW59836   9.115   7.300   6.158
19831SOL    HW159837   9.074   7.277   6.070
19831SOL    HW259838   9.097   7.226   6.223
19832SOL     OW59839   8.046   6.315   5.856
19832SOL    HW159840   8.070   6.384   5.788
19832SOL    HW259841   7.968   6.348   5.910
19833SOL     OW59842   8.729   5.931   6.530
19833SOL    HW159843   8.643   5.881   6.517
19833SOL    HW259844   8.791   5.877   6.586
19834SOL     OW59845   9.024   7.248   5.893
19834SOL    HW159846   9.113   7.294   5.896
19834SOL    HW259847   9.003   7.224   5.798
19835SOL     OW59848   8.255   6.191   7.051
19835SOL    HW159849   8.208   6.188   7.140
19835SOL    HW259850   8.204   6.136   6.985
19836SOL     OW59851   8.842   6.055   7.260
19836SOL    HW159852   8.822   6.098   7.348
19836SOL    HW259853   8.920   5.993   7.269
19837SOL     OW59854   8.421   6.476   7.158
19837SOL    HW159855   8.467   6.392   7.129
19837SOL    HW259856   8.365   6.510   7.083
19838SOL     OW59857   8.439   5.996   6.828
19838SOL    HW159858   8.362   6.030   6.882
19838SOL    HW259859   8.405   5.945   6.749
19839SOL     OW59860   8.489   6.287   6.015
19839SOL    HW159861   8.515   6.283   6.111
19839SOL    HW259862   8.404   6.236   6.001
19840SOL     OW59863   7.524   6.397   6.375
19840SOL    HW159864   7.623   6.385   6.384
19840SOL    HW259865   7.500   6.492   6.396
19841SOL     OW59866   7.578   7.407   7.157
19841SOL    HW159867   7.568   7.392   7.256
19841SOL    HW259868   7.492   7.443   7.121
19842SOL     OW59869   8.313   5.934   5.781
19842SOL    HW159870   8.372   5.997   5.732
19842SOL    HW259871   8.332   5.840   5.752
19843SOL     OW59872   9.167   6.171   7.417
19843SOL    HW159873   9.141   6.260   7.381
19843SOL    HW259874   9.165   6.103   7.344
19844SOL     OW59875   8.810   6.730   6.131
19844SOL    HW159876   8.893   6.701   6.083
19844SOL    HW259877   8.761   6.797   6.075
19845SOL     OW59878   7.998   5.782   6.471
19845SOL    HW159879   7.993   5.777   6.571
19845SOL    HW259880   8.000   5.878   6.442
19846SOL     OW59881   8.456   7.042   6.063
19846SOL    HW159882   8.410   7.114   6.011
19846SOL    HW259883   8.452   7.062   6.161
19847SOL     OW59884   7.799   7.387   6.439
19847SOL    HW159885   7.849   7.301   6.445
19847SOL    HW259886   7.864   7.464   6.436
19848SOL     OW59887   9.243   6.652   6.459
19848SOL    HW159888   9.181   6.637   6.383
19848SOL    HW259889   9.191   6.663   6.544
19849SOL     OW59890   8.675   7.136   7.092
19849SOL    HW159891   8.681   7.059   7.156
19849SOL    HW259892   8.623   7.110   7.012
19850SOL     OW59893   7.769   6.529   5.828
19850SOL    HW159894   7.851   6.568   5.786
19850SOL    HW259895   7.742   6.447   5.779
19851SOL     OW59896   8.906   6.321   6.314
19851SOL    HW159897   8.901   6.256   6.389
19851SOL    HW259898   8.986   6.380   6.327
19852SOL     OW59899   7.909   6.852   7.313
19852SOL    HW159900   7.859   6.853   7.227
19852SOL    HW259901   7.846   6.834   7.389
19853SOL     OW59902   8.559   7.362   5.823
19853SOL    HW159903   8.499   7.300   5.873
19853SOL    HW259904   8.590   7.318   5.738
19854SOL     OW59905   7.650   5.871   7.084
19854SOL    HW159906   7.570   5.931   7.071
19854SOL    HW259907   7.640   5.822   7.170
19855SOL     OW59908   9.080   6.963   5.667
19855SOL    HW159909   9.048   7.057   5.657
19855SOL    HW259910   9.004   6.900   5.655
19856SOL     OW59911   7.912   7.329   5.909
19856SOL    HW159912   7.945   7.368   5.995
19856SOL    HW259913   7.988   7.322   5.844
19857SOL     OW59914   8.848   5.693   6.012
19857SOL    HW159915   8.824   5.656   5.922
19857SOL    HW259916   8.947   5.709   6.016
19858SOL     OW59917   7.697   7.371   6.827
19858SOL    HW159918   7.754   7.306   6.877
19858SOL    HW259919   7.681   7.338   6.734
19859SOL     OW59920   8.388   7.284   6.490
19859SOL    HW159921   8.468   7.227   6.511
19859SOL    HW259922   8.339   7.244   6.413
19860SOL     OW59923   7.830   6.286   6.066
19860SOL    HW159924   7.875   6.196   6.063
19860SOL    HW259925   7.736   6.275   6.099
19861SOL     OW59926   8.995   5.808   7.315
19861SOL    HW159927   8.990   5.845   7.407
19861SOL    HW259928   8.923   5.739   7.303
19862SOL     OW59929   8.062   5.708   5.703
19862SOL    HW159930   8.160   5.686   5.710
19862SOL    HW259931   8.031   5.691   5.610
19863SOL     OW59932   8.229   5.850   7.335
19863SOL    HW159933   8.296   5.789   7.378
19863SOL    HW259934   8.156   5.869   7.400
19864SOL     OW59935   8.336   7.100   6.781
19864SOL    HW159936   8.313   7.075   6.687
19864SOL    HW259937   8.397   7.031   6.820
19865SOL     OW59938   8.799   6.176   7.019
19865SOL    HW159939   8.827   6.133   7.104
19865SOL    HW259940   8.824   6.272   7.020
19866SOL     OW59941   8.251   6.988   6.510
19866SOL    HW159942   8.341   7.002   6.468
19866SOL    HW259943   8.180   6.990   6.439
19867SOL     OW59944   8.370   6.089   6.485
19867SOL    HW159945   8.345   6.080   6.389
19867SOL    HW259946   8.418   6.007   6.516
19868SOL     OW59947   7.987   5.650   6.098
19868SOL    HW159948   7.906   5.651   6.156
19868SOL    HW259949   7.990   5.733   6.043
19869SOL     OW59950   8.882   6.774   5.627
19869SOL    HW159951   8.914   6.698   5.684
19869SOL    HW259952   8.790   6.801   5.657
19870SOL     OW59953   7.745   5.621   5.757
19870SOL    HW159954   7.794   5.705   5.736
19870SOL    HW259955   7.807   5.556   5.802
19871SOL     OW59956   8.383   5.822   6.066
19871SOL    HW159957   8.335   5.863   5.988
19871SOL    HW259958   8.482   5.820   6.047
19872SOL     OW59959   8.524   6.269   7.050
19872SOL    HW159960   8.444   6.208   7.053
19872SOL    HW259961   8.605   6.216   7.026
19873SOL     OW59962   8.675   7.156   6.379
19873SOL    HW159963   8.696   7.230   6.314
19873SOL    HW259964   8.743   7.156   6.452
19874SOL     OW59965   7.907   6.738   6.327
19874SOL    HW159966   7.836   6.711   6.392
19874SOL    HW259967   7.881   6.710   6.234
19875SOL     OW59968   8.719   7.383   6.177
19875SOL    HW159969   8.763   7.447   6.113
19875SOL    HW259970   8.669   7.435   6.247
19876SOL     OW59971   8.480   6.135   5.602
19876SOL    HW159972   8.439   6.217   5.563
19876SOL    HW259973   8.544   6.161   5.675
19877SOL     OW59974   7.526   6.142   6.972
19877SOL    HW159975   7.618   6.141   6.931
19877SOL    HW259976   7.520   6.216   7.039
19878SOL     OW59977   8.009   5.808   6.733
19878SOL    HW159978   8.047   5.724   6.770
19878SOL    HW259979   7.921   5.827   6.777
19879SOL     OW59980   8.314   6.040   6.228
19879SOL    HW159981   8.282   6.112   6.166
19879SOL    HW259982   8.338   5.959   6.175
19880SOL     OW59983   8.465   5.625   6.339
19880SOL    HW159984   8.393   5.630   6.270
19880SOL    HW259985   8.441   5.556   6.408
19881SOL     OW59986   8.877   6.759   6.453
19881SOL    HW159987   8.822   6.675   6.446
19881SOL    HW259988   8.903   6.788   6.361
19882SOL     OW59989   8.914   6.176   6.578
19882SOL    HW159990   8.884   6.081   6.585
19882SOL    HW259991   8.987   6.192   6.644
19883SOL     OW59992   9.305   6.419   5.963
19883SOL    HW159993   9.347   6.355   6.027
19883SOL    HW259994   9.267   6.368   5.885
19884SOL     OW59995   7.936   6.971   5.760
19884SOL    HW159996   7.849   6.956   5.807
19884SOL    HW259997   7.919   6.997   5.665
19885SOL     OW59998   9.112   6.866   6.243
19885SOL    HW159999   9.211   6.874   6.257
19885SOL    HW260000   9.067   6.950   6.274
19886SOL     OW60001   8.838   6.161   5.664
19886SOL    HW160002   8.784   6.140   5.745
19886SOL    HW260003   8.929   6.120   5.673
19887SOL     OW60004   7.975   5.842   5.914
19887SOL    HW160005   8.002   5.783   5.839
19887SOL    HW260006   7.975   5.937   5.883
19888SOL     OW60007   9.202   6.809   7.174
19888SOL    HW160008   9.293   6.770   7.161
19888SOL    HW260009   9.210   6.905   7.198
19889SOL     OW60010   8.512   6.933   6.926
19889SOL    HW160011   8.432   6.910   6.981
19889SOL    HW260012   8.595   6.907   6.975
19890SOL     OW60013   9.040   7.215   7.211
19890SOL    HW160014   9.067   7.249   7.121
19890SOL    HW260015   9.119   7.177   7.257
19891SOL     OW60016   8.559   6.781   6.686
19891SOL    HW160017   8.519   6.825   6.767
19891SOL    HW260018   8.518   6.818   6.603
19892SOL     OW60019   9.086   6.685   6.665
19892SOL    HW160020   9.091   6.766   6.724
19892SOL    HW260021   9.000   6.687   6.614
19893SOL     OW60022   8.363   5.675   6.988
19893SOL    HW160023   8.388   5.655   6.893
19893SOL    HW260024   8.435   5.731   7.030
19894SOL     OW60025   8.428   6.702   7.305
19894SOL    HW160026   8.329   6.708   7.315
19894SOL    HW260027   8.451   6.622   7.249
19895SOL     OW60028   8.153   6.636   5.954
19895SOL    HW160029   8.139   6.643   6.053
19895SOL    HW260030   8.237   6.585   5.936
19896SOL     OW60031   7.858   6.399   6.837
19896SOL    HW160032   7.944   6.411   6.887
19896SOL    HW260033   7.816   6.312   6.864
19897SOL     OW60034   8.722   5.972   6.848
19897SOL    HW160035   8.743   6.046   6.912
19897SOL    HW260036   8.633   5.989   6.805
19898SOL     OW60037   7.512   7.150   6.917
19898SOL    HW160038   7.466   7.232   6.883
19898SOL    HW260039   7.610   7.169   6.926
19899SOL     OW60040   7.815   6.686   6.087
19899SOL    HW160041   7.808   6.769   6.031
19899SOL    HW260042   7.819   6.606   6.027
19900SOL     OW60043   8.014   6.123   6.451
19900SOL    HW160044   8.026   6.189   6.377
19900SOL    HW260045   8.060   6.157   6.534
19901SOL     OW60046   8.700   6.934   5.974
19901SOL    HW160047   8.750   7.011   6.014
19901SOL    HW260048   8.605   6.936   6.006
19902SOL     OW60049   8.720   7.031   6.728
19902SOL    HW160050   8.767   7.044   6.815
19902SOL    HW260051   8.654   6.957   6.737
19903SOL     OW60052   9.030   6.225   6.058
19903SOL    HW160053   8.999   6.286   6.131
19903SOL    HW260054   9.080   6.277   5.989
19904SOL     OW60055   7.802   7.096   6.915
19904SOL    HW160056   7.781   7.052   6.828
19904SOL    HW260057   7.899   7.122   6.918
19905SOL     OW60058   7.850   6.337   7.184
19905SOL    HW160059   7.918   6.392   7.137
19905SOL    HW260060   7.890   6.249   7.211
19906SOL     OW60061   9.035   6.365   7.256
19906SOL    HW160062   8.943   6.403   7.251
19906SOL    HW260063   9.095   6.412   7.191
19907SOL     OW60064   8.461   5.691   7.356
19907SOL    HW160065   8.467   5.776   7.304
19907SOL    HW260066   8.493   5.615   7.299
19908SOL     OW60067   7.952   5.636   7.326
19908SOL    HW160068   7.910   5.579   7.256
19908SOL    HW260069   7.886   5.705   7.358
19909SOL     OW60070   8.021   6.456   6.615
19909SOL    HW160071   8.065   6.545   6.606
19909SOL    HW260072   7.958   6.456   6.692
19910SOL     OW60073   8.808   6.448   6.631
19910SOL    HW160074   8.733   6.448   6.565
19910SOL    HW260075   8.845   6.356   6.640
19911SOL     OW60076   8.657   6.111   5.861
19911SOL    HW160077   8.670   6.027   5.915
19911SOL    HW260078   8.628   6.185   5.921
19912SOL     OW60079   7.755   5.799   6.817
19912SOL    HW160080   7.732   5.836   6.907
19912SOL    HW260081   7.725   5.704   6.811
19913SOL     OW60082   7.485   6.896   6.868
19913SOL    HW160083   7.538   6.847   6.936
19913SOL    HW260084   7.507   6.994   6.873
19914SOL     OW60085   8.180   6.220   6.650
19914SOL    HW160086   8.239   6.194   6.574
19914SOL    HW260087   8.152   6.316   6.639
19915SOL     OW60088   9.176   6.521   7.440
19915SOL    HW160089   9.130   6.514   7.351
19915SOL    HW260090   9.114   6.565   7.506
19916SOL     OW60091   7.755   5.649   6.204
19916SOL    HW160092   7.744   5.743   6.237
19916SOL    HW260093   7.750   5.586   6.281
19917SOL     OW60094   9.070   5.953   5.960
19917SOL    HW160095   9.072   5.877   6.024
19917SOL    HW260096   9.022   6.030   6.000
19918SOL     OW60097   8.471   6.352   6.552
19918SOL    HW160098   8.486   6.373   6.648
19918SOL    HW260099   8.441   6.257   6.543
19919SOL     OW60100   8.428   7.159   7.286
19919SOL    HW160101   8.408   7.203   7.198
19919SOL    HW260102   8.467   7.068   7.270
19920SOL     OW60103   9.307   7.104   7.191
19920SOL    HW160104   9.321   7.131   7.096
19920SOL    HW260105   9.390   7.126   7.244
19921SOL     OW60106   7.798   6.484   7.390
19921SOL    HW160107   7.874   6.528   7.438
19921SOL    HW260108   7.833   6.437   7.308
19922SOL     OW60109   8.988   5.860   5.711
19922SOL    HW160110   8.927   5.785   5.734
19922SOL    HW260111   9.010   5.912   5.794
19923SOL     OW60112   8.751   6.424   5.628
19923SOL    HW160113   8.785   6.331   5.643
19923SOL    HW260114   8.769   6.451   5.533
19924SOL     OW60115   8.516   6.919   6.435
19924SOL    HW160116   8.523   6.835   6.380
19924SOL    HW260117   8.578   6.988   6.399
19925SOL     OW60118   7.767   6.396   6.535
19925SOL    HW160119   7.860   6.432   6.540
19925SOL    HW260120   7.761   6.311   6.587
19926SOL     OW60121   7.787   6.095   6.592
19926SOL    HW160122   7.735   6.012   6.575
19926SOL    HW260123   7.864   6.100   6.528
19927SOL     OW60124   8.586   5.966   7.264
19927SOL    HW160125   8.541   6.029   7.328
19927SOL    HW260126   8.679   5.997   7.247
19928SOL     OW60127   8.608   5.793   7.063
19928SOL    HW160128   8.608   5.857   7.140
19928SOL    HW260129   8.636   5.841   6.980
19929SOL     OW60130   7.456   6.912   5.786
19929SOL    HW160131   7.363   6.933   5.755
19929SOL    HW260132   7.466   6.813   5.799
19930SOL     OW60133   7.536   7.387   6.513
19930SOL    HW160134   7.494   7.301   6.486
19930SOL    HW260135   7.630   7.390   6.479
19931SOL     OW60136   7.952   7.154   6.496
19931SOL    HW160137   8.018   7.228   6.505
19931SOL    HW260138   7.996   7.075   6.454
19932SOL     OW60139   8.450   6.382   6.824
19932SOL    HW160140   8.491   6.350   6.910
19932SOL    HW260141   8.354   6.355   6.821
19933SOL     OW60142   7.488   6.130   6.700
19933SOL    HW160143   7.573   6.097   6.659
19933SOL    HW260144   7.501   6.145   6.798
19934SOL     OW60145   7.637   6.106   7.308
19934SOL    HW160146   7.696   6.066   7.238
19934SOL    HW260147   7.579   6.177   7.267
19935SOL     OW60148   8.817   6.536   7.246
19935SOL    HW160149   8.856   6.625   7.266
19935SOL    HW260150   8.827   6.516   7.149
19936SOL     OW60151   8.263   6.158   5.911
19936SOL    HW160152   8.270   6.069   5.865
19936SOL    HW260153   8.169   6.192   5.903
19937SOL     OW60154   9.105   6.190   6.792
19937SOL    HW160155   9.067   6.121   6.854
19937SOL    HW260156   9.187   6.154   6.748
19938SOL     OW60157   7.700   7.150   7.330
19938SOL    HW160158   7.670   7.207   7.406
19938SOL    HW260159   7.693   7.053   7.356
19939SOL     OW60160   8.119   6.050   6.855
19939SOL    HW160161   8.085   5.961   6.825
19939SOL    HW260162   8.145   6.104   6.775
19940SOL     OW60163   8.378   7.264   7.051
19940SOL    HW160164   8.354   7.246   6.956
19940SOL    HW260165   8.408   7.358   7.061
19941SOL     OW60166   7.921   6.086   5.777
19941SOL    HW160167   7.982   6.166   5.781
19941SOL    HW260168   7.826   6.117   5.784
19942SOL     OW60169   7.607   6.723   7.052
19942SOL    HW160170   7.629   6.662   7.128
19942SOL    HW260171   7.617   6.674   6.966
19943SOL     OW60172   8.795   6.645   6.820
19943SOL    HW160173   8.819   6.582   6.746
19943SOL    HW260174   8.705   6.685   6.802
19944SOL     OW60175   8.750   6.441   5.895
19944SOL    HW160176   8.664   6.410   5.937
19944SOL    HW260177   8.746   6.427   5.796
19945SOL     OW60178   9.207   7.333   6.740
19945SOL    HW160179   9.268   7.363   6.667
19945SOL    HW260180   9.169   7.244   6.718
19946SOL     OW60181   8.700   7.317   6.714
19946SOL    HW160182   8.784   7.322   6.660
19946SOL    HW260183   8.677   7.221   6.732
19947SOL     OW60184   7.531   6.844   6.608
19947SOL    HW160185   7.526   6.843   6.708
19947SOL    HW260186   7.448   6.803   6.570
19948SOL     OW60187   8.136   7.248   7.302
19948SOL    HW160188   8.080   7.329   7.311
19948SOL    HW260189   8.188   7.252   7.216
19949SOL     OW60190   9.174   5.721   6.109
19949SOL    HW160191   9.247   5.704   6.042
19949SOL    HW260192   9.143   5.634   6.147
19950SOL     OW60193   8.836   7.159   6.063
19950SOL    HW160194   8.903   7.171   5.989
19950SOL    HW260195   8.796   7.248   6.086
19951SOL     OW60196   7.578   7.380   7.437
19951SOL    HW160197   7.537   7.306   7.490
19951SOL    HW260198   7.642   7.431   7.495
19952SOL     OW60199   8.728   6.513   6.258
19952SOL    HW160200   8.788   6.432   6.260
19952SOL    HW260201   8.768   6.582   6.198
19953SOL     OW60202   8.278   6.859   7.008
19953SOL    HW160203   8.273   6.892   7.103
19953SOL    HW260204   8.192   6.878   6.962
19954SOL     OW60205   8.120   7.202   5.740
19954SOL    HW160206   8.129   7.212   5.641
19954SOL    HW260207   8.080   7.113   5.761
19955SOL     OW60208   9.098   7.306   6.980
19955SOL    HW160209   9.151   7.316   6.896
19955SOL    HW260210   9.071   7.396   7.014
19956SOL     OW60211   9.289   5.761   6.549
19956SOL    HW160212   9.328   5.676   6.513
19956SOL    HW260213   9.191   5.763   6.530
19957SOL     OW60214   7.711   5.912   6.306
19957SOL    HW160215   7.632   5.963   6.272
19957SOL    HW260216   7.702   5.897   6.404
19958SOL     OW60217   8.642   7.198   5.617
19958SOL    HW160218   8.648   7.105   5.654
19958SOL    HW260219   8.583   7.198   5.537
19959SOL     OW60220   8.270   6.588   6.958
19959SOL    HW160221   8.310   6.587   6.866
19959SOL    HW260222   8.280   6.680   6.998
19960SOL     OW60223   8.364   6.496   5.877
19960SOL    HW160224   8.427   6.534   5.809
19960SOL    HW260225   8.404   6.413   5.916
19961SOL     OW60226   8.952   7.193   5.630
19961SOL    HW160227   8.860   7.230   5.637
19961SOL    HW260228   8.990   7.213   5.540
19962SOL     OW60229   7.820   6.874   7.076
19962SOL    HW160230   7.807   6.967   7.042
19962SOL    HW260231   7.736   6.822   7.063
19963SOL     OW60232   9.062   6.878   6.875
19963SOL    HW160233   9.122   6.881   6.955
19963SOL    HW260234   8.987   6.942   6.888
19964SOL     OW60235   8.487   6.684   6.282
19964SOL    HW160236   8.417   6.637   6.336
19964SOL    HW260237   8.546   6.616   6.239
19965SOL     OW60238   8.462   5.822   6.557
19965SOL    HW160239   8.454   5.786   6.464
19965SOL    HW260240   8.460   5.746   6.622
19966SOL     OW60241   8.038   7.073   6.077
19966SOL    HW160242   8.080   7.015   6.007
19966SOL    HW260243   7.994   7.152   6.033
19967SOL     OW60244   9.157   5.971   6.967
19967SOL    HW160245   9.230   6.040   6.971
19967SOL    HW260246   9.185   5.896   6.908
19968SOL     OW60247   7.703   6.934   5.876
19968SOL    HW160248   7.607   6.935   5.849
19968SOL    HW260249   7.715   6.987   5.960
19969SOL     OW60250   7.553   6.599   7.312
19969SOL    HW160251   7.476   6.566   7.366
19969SOL    HW260252   7.638   6.569   7.354
19970SOL     OW60253   8.120   5.789   7.075
19970SOL    HW160254   8.210   5.773   7.035
19970SOL    HW260255   8.128   5.794   7.174
19971SOL     OW60256   7.523   5.931   5.619
19971SOL    HW160257   7.431   5.903   5.590
19971SOL    HW260258   7.554   6.008   5.563
19972SOL     OW60259   8.888   6.442   6.984
19972SOL    HW160260   8.831   6.494   6.921
19972SOL    HW260261   8.984   6.454   6.960
19973SOL     OW60262   7.520   5.752   5.904
19973SOL    HW160263   7.503   5.835   5.850
19973SOL    HW260264   7.610   5.715   5.882
19974SOL     OW60265   8.631   6.921   5.705
19974SOL    HW160266   8.532   6.910   5.707
19974SOL    HW260267   8.665   6.936   5.798
19975SOL     OW60268   8.061   6.428   7.017
19975SOL    HW160269   8.117   6.509   7.000
19975SOL    HW260270   8.120   6.348   7.020
19976SOL     OW60271   8.941   7.353   6.545
19976SOL    HW160272   8.974   7.417   6.476
19976SOL    HW260273   9.007   7.347   6.620
19977SOL     OW60274   8.164   6.151   7.294
19977SOL    HW160275   8.183   6.216   7.368
19977SOL    HW260276   8.224   6.071   7.303
19978SOL     OW60277   8.898   6.806   7.219
19978SOL    HW160278   8.889   6.796   7.318
19978SOL    HW260279   8.994   6.799   7.193
19979SOL     OW60280   7.838   7.327   7.146
19979SOL    HW160281   7.747   7.368   7.144
19979SOL    HW260282   7.831   7.233   7.178
19980SOL     OW60283   9.122   6.469   6.840
19980SOL    HW160284   9.095   6.380   6.803
19980SOL    HW260285   9.123   6.537   6.767
19981SOL     OW60286   8.673   5.911   6.035
19981SOL    HW160287   8.738   5.837   6.024
19981SOL    HW260288   8.693   5.961   6.119
19982SOL     OW60289   8.042   6.331   6.238
19982SOL    HW160290   8.092   6.416   6.219
19982SOL    HW260291   7.954   6.333   6.190
19983SOL     OW60292   9.225   5.928   7.228
19983SOL    HW160293   9.208   5.959   7.134
19983SOL    HW260294   9.141   5.891   7.266
19984SOL     OW60295   9.178   6.520   7.103
19984SOL    HW160296   9.216   6.611   7.118
19984SOL    HW260297   9.170   6.503   7.004
19985SOL     OW60298   8.307   6.960   5.602
19985SOL    HW160299   8.261   6.975   5.690
19985SOL    HW260300   8.351   7.045   5.572
19986SOL     OW60301   8.109   7.376   6.539
19986SOL    HW160302   8.063   7.464   6.526
19986SOL    HW260303   8.208   7.388   6.532
19987SOL     OW60304   8.307   6.542   6.447
19987SOL    HW160305   8.361   6.473   6.495
19987SOL    HW260306   8.275   6.611   6.513
19988SOL     OW60307   8.531   6.570   5.673
19988SOL    HW160308   8.508   6.623   5.591
19988SOL    HW260309   8.612   6.514   5.654
19989SOL     OW60310   9.309   7.155   6.437
19989SOL    HW160311   9.238   7.143   6.367
19989SOL    HW260312   9.310   7.076   6.497
19990SOL     OW60313   7.669   6.900   7.430
19990SOL    HW160314   7.604   6.827   7.409
19990SOL    HW260315   7.673   6.914   7.528
19991SOL     OW60316   7.527   6.826   6.239
19991SOL    HW160317   7.526   6.779   6.327
19991SOL    HW260318   7.609   6.798   6.188
19992SOL     OW60319   8.120   6.977   7.210
19992SOL    HW160320   8.042   6.927   7.248
19992SOL    HW260321   8.117   7.072   7.241
19993SOL     OW60322   9.272   5.778   6.813
19993SOL    HW160323   9.268   5.688   6.857
19993SOL    HW260324   9.275   5.767   6.714
19994SOL     OW60325   7.876   6.010   6.106
19994SOL    HW160326   7.906   5.938   6.044
19994SOL    HW260327   7.837   5.970   6.189
19995SOL     OW60328   9.153   7.073   6.690
19995SOL    HW160329   9.060   7.048   6.663
19995SOL    HW260330   9.179   7.023   6.772
19996SOL     OW60331   7.765   6.133   6.866
19996SOL    HW160332   7.803   6.074   6.938
19996SOL    HW260333   7.805   6.107   6.778
19997SOL     OW60334   8.260   7.172   6.273
19997SOL    HW160335   8.292   7.182   6.179
19997SOL    HW260336   8.181   7.110   6.275
19998SOL     OW60337   8.872   5.800   6.698
19998SOL    HW160338   8.924   5.735   6.753
19998SOL    HW260339   8.823   5.863   6.759
19999SOL     OW60340   8.449   5.620   6.740
19999SOL    HW160341   8.386   5.548   6.709
19999SOL    HW260342   8.542   5.584   6.740
20000SOL     OW60343   8.218   6.916   5.887
20000SOL    HW160344   8.172   6.829   5.904
20000SOL    HW260345   8.309   6.913   5.928
20001SOL     OW60346   8.066   7.153   6.870
20001SOL    HW160347   8.061   7.235   6.927
20001SOL    HW260348   8.155   7.150   6.825
20002SOL     OW60349   8.800   5.638   5.754
20002SOL    HW160350   8.835   5.597   5.670
20002SOL    HW260351   8.710   5.600   5.774
20003SOL     OW60352   8.748   6.039   6.277
20003SOL    HW160353   8.689   6.119   6.281
20003SOL    HW260354   8.763   6.004   6.370
20004SOL     OW60355   9.041   5.807   6.468
20004SOL    HW160356   8.957   5.806   6.522
20004SOL    HW260357   9.043   5.890   6.412
20005SOL     OW60358   7.487   6.663   5.886
20005SOL    HW160359   7.586   6.652   5.877
20005SOL    HW260360   7.447   6.577   5.918
20006SOL     OW60361   8.323   7.232   5.923
20006SOL    HW160362   8.246   7.197   5.869
20006SOL    HW260363   8.291   7.303   5.985
20007SOL     OW60364   7.678   6.214   7.561
20007SOL    HW160365   7.585   6.212   7.598
20007SOL    HW260366   7.679   6.175   7.469
20008SOL     OW60367   9.203   6.193   7.679
20008SOL    HW160368   9.191   6.180   7.580
20008SOL    HW260369   9.173   6.112   7.728
20009SOL     OW60370   8.973   6.585   7.638
20009SOL    HW160371   8.910   6.509   7.651
20009SOL    HW260372   9.021   6.603   7.724
20010SOL     OW60373   8.046   6.315   7.718
20010SOL    HW160374   8.070   6.384   7.650
20010SOL    HW260375   7.968   6.348   7.772
20011SOL     OW60376   8.313   5.934   7.643
20011SOL    HW160377   8.372   5.997   7.594
20011SOL    HW260378   8.332   5.840   7.614
20012SOL     OW60379   8.559   7.362   7.685
20012SOL    HW160380   8.499   7.300   7.735
20012SOL    HW260381   8.590   7.318   7.600
20013SOL     OW60382   9.080   6.963   7.529
20013SOL    HW160383   9.048   7.057   7.519
20013SOL    HW260384   9.004   6.900   7.517
20014SOL     OW60385   8.062   5.708   7.565
20014SOL    HW160386   8.160   5.686   7.572
20014SOL    HW260387   8.031   5.691   7.472
20015SOL     OW60388   8.882   6.774   7.489
20015SOL    HW160389   8.914   6.698   7.546
20015SOL    HW260390   8.790   6.801   7.519
20016SOL     OW60391   8.480   6.135   7.464
20016SOL    HW160392   8.439   6.217   7.425
20016SOL    HW260393   8.544   6.161   7.537
20017SOL     OW60394   7.936   6.971   7.622
20017SOL    HW160395   7.849   6.956   7.669
20017SOL    HW260396   7.919   6.997   7.527
20018SOL     OW60397   8.838   6.161   7.526
20018SOL    HW160398   8.784   6.140   7.607
20018SOL    HW260399   8.929   6.120   7.535
20019SOL     OW60400   8.657   6.111   7.723
20019SOL    HW160401   8.670   6.027   7.777
20019SOL    HW260402   8.628   6.185   7.783
20020SOL     OW60403   8.751   6.424   7.490
20020SOL    HW160404   8.785   6.331   7.505
20020SOL    HW260405   8.769   6.451   7.395
20021SOL     OW60406   8.120   7.202   7.602
20021SOL    HW160407   8.129   7.212   7.503
20021SOL    HW260408   8.080   7.113   7.623
20022SOL     OW60409   8.642   7.198   7.479
20022SOL    HW160410   8.648   7.105   7.516
20022SOL    HW260411   8.583   7.198   7.399
20023SOL     OW60412   8.952   7.193   7.492
20023SOL    HW160413   8.860   7.230   7.499
20023SOL    HW260414   8.990   7.213   7.402
20024SOL     OW60415   7.523   5.931   7.481
20024SOL    HW160416   7.431   5.903   7.452
20024SOL    HW260417   7.554   6.008   7.425
20025SOL     OW60418   8.631   6.921   7.567
20025SOL    HW160419   8.532   6.910   7.569
20025SOL    HW260420   8.665   6.936   7.660
20026SOL     OW60421   8.307   6.960   7.464
20026SOL    HW160422   8.261   6.975   7.552
20026SOL    HW260423   8.351   7.045   7.434
20027SOL     OW60424   8.531   6.570   7.535
20027SOL    HW160425   8.508   6.623   7.453
20027SOL    HW260426   8.612   6.514   7.516
20028SOL     OW60427   8.800   5.638   7.616
20028SOL    HW160428   8.835   5.597   7.532
20028SOL    HW260429   8.710   5.600   7.636
20029SOL     OW60430   7.487   6.663   7.748
20029SOL    HW160431   7.586   6.652   7.739
20029SOL    HW260432   7.447   6.577   7.780
20030SOL     OW60433   8.323   7.232   7.785
20030SOL    HW160434   8.246   7.197   7.731
20030SOL    HW260435   8.291   7.303   7.847
20031SOL     OW60436   7.678   8.076   0.113
20031SOL    HW160437   7.585   8.074   0.150
20031SOL    HW260438   7.679   8.037   0.021
20032SOL     OW60439   7.673   7.723   0.996
20032SOL    HW160440   7.708   7.706   1.088
20032SOL    HW260441   7.585   7.678   0.984
20033SOL     OW60442   7.467   7.816   0.647
20033SOL    HW160443   7.385   7.859   0.686
20033SOL    HW260444   7.439   7.743   0.584
20034SOL     OW60445   8.583   8.151   0.717
20034SOL    HW160446   8.640   8.229   0.692
20034SOL    HW260447   8.523   8.177   0.793
20035SOL     OW60448   8.216   8.592   1.023
20035SOL    HW160449   8.138   8.609   1.083
20035SOL    HW260450   8.250   8.679   0.987
20036SOL     OW60451   8.298   8.246   1.823
20036SOL    HW160452   8.294   8.322   1.888
20036SOL    HW260453   8.320   8.282   1.732
20037SOL     OW60454   8.133   8.460   0.665
20037SOL    HW160455   8.202   8.444   0.735
20037SOL    HW260456   8.060   8.517   0.703
20038SOL     OW60457   8.134   8.609   1.803
20038SOL    HW160458   8.194   8.688   1.817
20038SOL    HW260459   8.048   8.640   1.762
20039SOL     OW60460   7.886   7.840   1.499
20039SOL    HW160461   7.968   7.784   1.508
20039SOL    HW260462   7.805   7.782   1.503
20040SOL     OW60463   9.051   7.895   0.737
20040SOL    HW160464   8.977   7.941   0.687
20040SOL    HW260465   9.102   7.963   0.790
20041SOL     OW60466   8.575   8.789   1.690
20041SOL    HW160467   8.622   8.789   1.778
20041SOL    HW260468   8.527   8.702   1.679
20042SOL     OW60469   7.688   8.539   0.886
20042SOL    HW160470   7.702   8.455   0.938
20042SOL    HW260471   7.633   8.603   0.941
20043SOL     OW60472   9.042   7.562   1.480
20043SOL    HW160473   9.024   7.629   1.408
20043SOL    HW260474   9.039   7.608   1.569
20044SOL     OW60475   7.570   8.091   0.563
20044SOL    HW160476   7.525   8.003   0.580
20044SOL    HW260477   7.569   8.145   0.647
20045SOL     OW60478   9.137   8.370   0.612
20045SOL    HW160479   9.232   8.341   0.620
20045SOL    HW260480   9.129   8.435   0.537
20046SOL     OW60481   9.089   8.556   0.432
20046SOL    HW160482   9.175   8.558   0.380
20046SOL    HW260483   9.103   8.603   0.520
20047SOL     OW60484   7.561   8.185   1.597
20047SOL    HW160485   7.649   8.172   1.642
20047SOL    HW260486   7.548   8.282   1.575
20048SOL     OW60487   8.061   8.813   0.726
20048SOL    HW160488   8.012   8.726   0.735
20048SOL    HW260489   8.038   8.856   0.639
20049SOL     OW60490   8.741   8.676   1.423
20049SOL    HW160491   8.778   8.603   1.365
20049SOL    HW260492   8.793   8.681   1.508
20050SOL     OW60493   8.257   7.452   0.502
20050SOL    HW160494   8.297   7.543   0.493
20050SOL    HW260495   8.157   7.460   0.508
20051SOL     OW60496   7.645   8.424   1.264
20051SOL    HW160497   7.734   8.379   1.250
20051SOL    HW260498   7.572   8.359   1.245
20052SOL     OW60499   7.765   7.699   1.801
20052SOL    HW160500   7.836   7.770   1.807
20052SOL    HW260501   7.677   7.738   1.829
20053SOL     OW60502   8.914   8.865   0.953
20053SOL    HW160503   8.855   8.871   1.033
20053SOL    HW260504   8.899   8.777   0.907
20054SOL     OW60505   8.729   7.793   0.944
20054SOL    HW160506   8.643   7.743   0.931
20054SOL    HW260507   8.791   7.739   1.000
20055SOL     OW60508   8.255   8.053   1.465
20055SOL    HW160509   8.208   8.050   1.554
20055SOL    HW260510   8.204   7.998   1.399
20056SOL     OW60511   8.842   7.917   1.674
20056SOL    HW160512   8.822   7.960   1.762
20056SOL    HW260513   8.920   7.855   1.683
20057SOL     OW60514   8.421   8.338   1.572
20057SOL    HW160515   8.467   8.254   1.543
20057SOL    HW260516   8.365   8.372   1.497
20058SOL     OW60517   8.439   7.858   1.242
20058SOL    HW160518   8.362   7.892   1.296
20058SOL    HW260519   8.405   7.807   1.163
20059SOL     OW60520   7.524   8.259   0.789
20059SOL    HW160521   7.623   8.247   0.798
20059SOL    HW260522   7.500   8.354   0.810
20060SOL     OW60523   9.167   8.033   1.831
20060SOL    HW160524   9.141   8.122   1.795
20060SOL    HW260525   9.165   7.965   1.758
20061SOL     OW60526   8.810   8.592   0.545
20061SOL    HW160527   8.893   8.563   0.497
20061SOL    HW260528   8.761   8.659   0.489
20062SOL     OW60529   7.998   7.644   0.885
20062SOL    HW160530   7.993   7.639   0.985
20062SOL    HW260531   8.000   7.740   0.856
20063SOL     OW60532   9.243   8.514   0.873
20063SOL    HW160533   9.181   8.499   0.797
20063SOL    HW260534   9.191   8.525   0.958
20064SOL     OW60535   8.675   8.998   1.506
20064SOL    HW160536   8.681   8.921   1.570
20064SOL    HW260537   8.623   8.972   1.426
20065SOL     OW60538   8.906   8.183   0.728
20065SOL    HW160539   8.901   8.118   0.803
20065SOL    HW260540   8.986   8.242   0.741
20066SOL     OW60541   7.909   8.714   1.727
20066SOL    HW160542   7.859   8.715   1.641
20066SOL    HW260543   7.846   8.696   1.803
20067SOL     OW60544   7.650   7.733   1.498
20067SOL    HW160545   7.570   7.793   1.485
20067SOL    HW260546   7.640   7.684   1.584
20068SOL     OW60547   8.848   7.555   0.426
20068SOL    HW160548   8.824   7.518   0.336
20068SOL    HW260549   8.947   7.571   0.430
20069SOL     OW60550   7.830   8.148   0.480
20069SOL    HW160551   7.875   8.058   0.477
20069SOL    HW260552   7.736   8.137   0.513
20070SOL     OW60553   8.995   7.670   1.729
20070SOL    HW160554   8.990   7.707   1.821
20070SOL    HW260555   8.923   7.601   1.717
20071SOL     OW60556   8.062   7.570   0.117
20071SOL    HW160557   8.160   7.548   0.124
20071SOL    HW260558   8.031   7.553   0.024
20072SOL     OW60559   8.229   7.712   1.749
20072SOL    HW160560   8.296   7.651   1.792
20072SOL    HW260561   8.156   7.731   1.814
20073SOL     OW60562   8.799   8.038   1.433
20073SOL    HW160563   8.827   7.995   1.518
20073SOL    HW260564   8.824   8.134   1.434
20074SOL     OW60565   8.251   8.850   0.924
20074SOL    HW160566   8.341   8.864   0.882
20074SOL    HW260567   8.180   8.852   0.853
20075SOL     OW60568   8.370   7.951   0.899
20075SOL    HW160569   8.345   7.942   0.803
20075SOL    HW260570   8.418   7.869   0.930
20076SOL     OW60571   7.987   7.512   0.512
20076SOL    HW160572   7.906   7.513   0.570
20076SOL    HW260573   7.990   7.595   0.457
20077SOL     OW60574   8.383   7.684   0.480
20077SOL    HW160575   8.335   7.725   0.402
20077SOL    HW260576   8.482   7.682   0.461
20078SOL     OW60577   8.524   8.131   1.464
20078SOL    HW160578   8.444   8.070   1.467
20078SOL    HW260579   8.605   8.078   1.440
20079SOL     OW60580   7.907   8.600   0.741
20079SOL    HW160581   7.836   8.573   0.806
20079SOL    HW260582   7.881   8.572   0.648
20080SOL     OW60583   7.526   8.004   1.386
20080SOL    HW160584   7.618   8.003   1.345
20080SOL    HW260585   7.520   8.078   1.453
20081SOL     OW60586   8.009   7.670   1.147
20081SOL    HW160587   8.047   7.586   1.184
20081SOL    HW260588   7.921   7.689   1.191
20082SOL     OW60589   8.314   7.902   0.642
20082SOL    HW160590   8.282   7.974   0.580
20082SOL    HW260591   8.338   7.821   0.589
20083SOL     OW60592   8.465   7.487   0.753
20083SOL    HW160593   8.393   7.492   0.684
20083SOL    HW260594   8.441   7.418   0.822
20084SOL     OW60595   8.877   8.621   0.867
20084SOL    HW160596   8.822   8.537   0.860
20084SOL    HW260597   8.903   8.650   0.775
20085SOL     OW60598   8.914   8.038   0.992
20085SOL    HW160599   8.884   7.943   0.999
20085SOL    HW260600   8.987   8.054   1.058
20086SOL     OW60601   9.305   8.281   0.377
20086SOL    HW160602   9.347   8.217   0.441
20086SOL    HW260603   9.267   8.230   0.299
20087SOL     OW60604   7.975   7.704   0.328
20087SOL    HW160605   8.002   7.645   0.253
20087SOL    HW260606   7.975   7.799   0.297
20088SOL     OW60607   8.512   8.795   1.340
20088SOL    HW160608   8.432   8.772   1.395
20088SOL    HW260609   8.595   8.769   1.389
20089SOL     OW60610   8.559   8.643   1.100
20089SOL    HW160611   8.519   8.687   1.181
20089SOL    HW260612   8.518   8.680   1.017
20090SOL     OW60613   9.086   8.547   1.079
20090SOL    HW160614   9.091   8.628   1.138
20090SOL    HW260615   9.000   8.549   1.028
20091SOL     OW60616   8.363   7.537   1.402
20091SOL    HW160617   8.388   7.517   1.307
20091SOL    HW260618   8.435   7.593   1.444
20092SOL     OW60619   8.428   8.564   1.719
20092SOL    HW160620   8.329   8.570   1.729
20092SOL    HW260621   8.451   8.484   1.663
20093SOL     OW60622   8.153   8.498   0.368
20093SOL    HW160623   8.139   8.505   0.467
20093SOL    HW260624   8.237   8.447   0.350
20094SOL     OW60625   7.858   8.261   1.251
20094SOL    HW160626   7.944   8.273   1.301
20094SOL    HW260627   7.816   8.174   1.278
20095SOL     OW60628   8.722   7.834   1.262
20095SOL    HW160629   8.743   7.908   1.326
20095SOL    HW260630   8.633   7.851   1.219
20096SOL     OW60631   7.815   8.548   0.501
20096SOL    HW160632   7.808   8.631   0.445
20096SOL    HW260633   7.819   8.468   0.441
20097SOL     OW60634   8.014   7.985   0.865
20097SOL    HW160635   8.026   8.051   0.791
20097SOL    HW260636   8.060   8.019   0.948
20098SOL     OW60637   8.700   8.796   0.388
20098SOL    HW160638   8.750   8.873   0.428
20098SOL    HW260639   8.605   8.798   0.420
20099SOL     OW60640   9.030   8.087   0.472
20099SOL    HW160641   8.999   8.148   0.545
20099SOL    HW260642   9.080   8.139   0.403
20100SOL     OW60643   7.850   8.199   1.598
20100SOL    HW160644   7.918   8.254   1.551
20100SOL    HW260645   7.890   8.111   1.625
20101SOL     OW60646   9.035   8.227   1.670
20101SOL    HW160647   8.943   8.265   1.665
20101SOL    HW260648   9.095   8.274   1.605
20102SOL     OW60649   8.461   7.553   1.770
20102SOL    HW160650   8.467   7.638   1.718
20102SOL    HW260651   8.493   7.477   1.713
20103SOL     OW60652   7.952   7.498   1.740
20103SOL    HW160653   7.910   7.441   1.670
20103SOL    HW260654   7.886   7.567   1.772
20104SOL     OW60655   8.021   8.318   1.029
20104SOL    HW160656   8.065   8.407   1.020
20104SOL    HW260657   7.958   8.318   1.106
20105SOL     OW60658   8.808   8.310   1.045
20105SOL    HW160659   8.733   8.310   0.979
20105SOL    HW260660   8.845   8.218   1.054
20106SOL     OW60661   7.755   7.661   1.231
20106SOL    HW160662   7.732   7.698   1.321
20106SOL    HW260663   7.725   7.566   1.225
20107SOL     OW60664   7.485   8.758   1.282
20107SOL    HW160665   7.538   8.709   1.350
20107SOL    HW260666   7.507   8.856   1.287
20108SOL     OW60667   8.180   8.082   1.064
20108SOL    HW160668   8.239   8.056   0.988
20108SOL    HW260669   8.152   8.178   1.053
20109SOL     OW60670   9.176   8.383   1.854
20109SOL    HW160671   9.130   8.376   1.765
20109SOL    HW260672   9.114   8.427   1.920
20110SOL     OW60673   7.755   7.511   0.618
20110SOL    HW160674   7.744   7.605   0.651
20110SOL    HW260675   7.750   7.448   0.695
20111SOL     OW60676   8.471   8.214   0.966
20111SOL    HW160677   8.486   8.235   1.062
20111SOL    HW260678   8.441   8.119   0.957
20112SOL     OW60679   7.798   8.346   1.804
20112SOL    HW160680   7.874   8.390   1.852
20112SOL    HW260681   7.833   8.299   1.722
20113SOL     OW60682   8.516   8.781   0.849
20113SOL    HW160683   8.523   8.697   0.794
20113SOL    HW260684   8.578   8.850   0.813
20114SOL     OW60685   7.767   8.258   0.949
20114SOL    HW160686   7.860   8.294   0.954
20114SOL    HW260687   7.761   8.173   1.001
20115SOL     OW60688   7.787   7.957   1.006
20115SOL    HW160689   7.735   7.874   0.989
20115SOL    HW260690   7.864   7.962   0.942
20116SOL     OW60691   8.586   7.828   1.678
20116SOL    HW160692   8.541   7.891   1.742
20116SOL    HW260693   8.679   7.859   1.661
20117SOL     OW60694   8.608   7.655   1.477
20117SOL    HW160695   8.608   7.719   1.554
20117SOL    HW260696   8.636   7.703   1.394
20118SOL     OW60697   8.450   8.244   1.238
20118SOL    HW160698   8.491   8.212   1.324
20118SOL    HW260699   8.354   8.217   1.235
20119SOL     OW60700   7.488   7.992   1.114
20119SOL    HW160701   7.573   7.959   1.073
20119SOL    HW260702   7.501   8.007   1.212
20120SOL     OW60703   7.637   7.968   1.722
20120SOL    HW160704   7.696   7.928   1.652
20120SOL    HW260705   7.579   8.039   1.681
20121SOL     OW60706   8.817   8.398   1.660
20121SOL    HW160707   8.856   8.487   1.680
20121SOL    HW260708   8.827   8.378   1.563
20122SOL     OW60709   9.105   8.052   1.206
20122SOL    HW160710   9.067   7.983   1.268
20122SOL    HW260711   9.187   8.016   1.162
20123SOL     OW60712   8.119   7.912   1.269
20123SOL    HW160713   8.085   7.823   1.239
20123SOL    HW260714   8.145   7.966   1.189
20124SOL     OW60715   7.607   8.585   1.466
20124SOL    HW160716   7.629   8.524   1.542
20124SOL    HW260717   7.617   8.536   1.380
20125SOL     OW60718   8.795   8.507   1.234
20125SOL    HW160719   8.819   8.444   1.160
20125SOL    HW260720   8.705   8.547   1.216
20126SOL     OW60721   7.531   8.706   1.022
20126SOL    HW160722   7.526   8.705   1.122
20126SOL    HW260723   7.448   8.665   0.984
20127SOL     OW60724   9.174   7.583   0.523
20127SOL    HW160725   9.247   7.566   0.456
20127SOL    HW260726   9.143   7.496   0.561
20128SOL     OW60727   8.836   9.021   0.477
20128SOL    HW160728   8.903   9.033   0.403
20128SOL    HW260729   8.796   9.110   0.500
20129SOL     OW60730   8.728   8.375   0.672
20129SOL    HW160731   8.788   8.294   0.674
20129SOL    HW260732   8.768   8.444   0.612
20130SOL     OW60733   8.278   8.721   1.422
20130SOL    HW160734   8.273   8.754   1.517
20130SOL    HW260735   8.192   8.740   1.376
20131SOL     OW60736   9.289   7.623   0.963
20131SOL    HW160737   9.328   7.538   0.927
20131SOL    HW260738   9.191   7.625   0.944
20132SOL     OW60739   7.711   7.774   0.720
20132SOL    HW160740   7.632   7.825   0.686
20132SOL    HW260741   7.702   7.759   0.818
20133SOL     OW60742   8.270   8.450   1.372
20133SOL    HW160743   8.310   8.449   1.280
20133SOL    HW260744   8.280   8.542   1.412
20134SOL     OW60745   8.364   8.358   0.291
20134SOL    HW160746   8.427   8.396   0.223
20134SOL    HW260747   8.404   8.275   0.330
20135SOL     OW60748   7.820   8.736   1.490
20135SOL    HW160749   7.807   8.829   1.456
20135SOL    HW260750   7.736   8.684   1.477
20136SOL     OW60751   9.062   8.740   1.289
20136SOL    HW160752   9.122   8.743   1.369
20136SOL    HW260753   8.987   8.804   1.302
20137SOL     OW60754   8.487   8.546   0.696
20137SOL    HW160755   8.417   8.499   0.750
20137SOL    HW260756   8.546   8.478   0.653
20138SOL     OW60757   8.462   7.684   0.971
20138SOL    HW160758   8.454   7.648   0.878
20138SOL    HW260759   8.460   7.608   1.036
20139SOL     OW60760   8.038   8.935   0.491
20139SOL    HW160761   8.080   8.877   0.421
20139SOL    HW260762   7.994   9.014   0.447
20140SOL     OW60763   9.157   7.833   1.381
20140SOL    HW160764   9.230   7.902   1.385
20140SOL    HW260765   9.185   7.758   1.322
20141SOL     OW60766   7.553   8.461   1.726
20141SOL    HW160767   7.476   8.428   1.780
20141SOL    HW260768   7.638   8.431   1.768
20142SOL     OW60769   8.120   7.651   1.489
20142SOL    HW160770   8.210   7.635   1.449
20142SOL    HW260771   8.128   7.656   1.588
20143SOL     OW60772   8.888   8.304   1.398
20143SOL    HW160773   8.831   8.356   1.335
20143SOL    HW260774   8.984   8.316   1.374
20144SOL     OW60775   8.061   8.290   1.431
20144SOL    HW160776   8.117   8.371   1.414
20144SOL    HW260777   8.120   8.210   1.434
20145SOL     OW60778   8.164   8.013   1.708
20145SOL    HW160779   8.183   8.078   1.782
20145SOL    HW260780   8.224   7.933   1.717
20146SOL     OW60781   8.898   8.668   1.633
20146SOL    HW160782   8.889   8.658   1.732
20146SOL    HW260783   8.994   8.661   1.607
20147SOL     OW60784   7.838   9.189   1.560
20147SOL    HW160785   7.747   9.230   1.558
20147SOL    HW260786   7.831   9.095   1.592
20148SOL     OW60787   9.122   8.331   1.254
20148SOL    HW160788   9.095   8.242   1.217
20148SOL    HW260789   9.123   8.399   1.181
20149SOL     OW60790   8.673   7.773   0.449
20149SOL    HW160791   8.738   7.699   0.438
20149SOL    HW260792   8.693   7.823   0.533
20150SOL     OW60793   8.042   8.193   0.652
20150SOL    HW160794   8.092   8.278   0.633
20150SOL    HW260795   7.954   8.195   0.604
20151SOL     OW60796   9.225   7.790   1.642
20151SOL    HW160797   9.208   7.821   1.548
20151SOL    HW260798   9.141   7.753   1.680
20152SOL     OW60799   9.178   8.382   1.517
20152SOL    HW160800   9.216   8.473   1.532
20152SOL    HW260801   9.170   8.365   1.418
20153SOL     OW60802   8.307   8.404   0.861
20153SOL    HW160803   8.361   8.335   0.909
20153SOL    HW260804   8.275   8.473   0.927
20154SOL     OW60805   7.669   8.762   1.844
20154SOL    HW160806   7.604   8.689   1.823
20154SOL    HW260807   7.673   8.776   1.942
20155SOL     OW60808   7.527   8.688   0.653
20155SOL    HW160809   7.526   8.641   0.741
20155SOL    HW260810   7.609   8.660   0.602
20156SOL     OW60811   8.120   8.839   1.624
20156SOL    HW160812   8.042   8.789   1.662
20156SOL    HW260813   8.117   8.934   1.655
20157SOL     OW60814   9.272   7.640   1.227
20157SOL    HW160815   9.268   7.550   1.271
20157SOL    HW260816   9.275   7.629   1.128
20158SOL     OW60817   7.876   7.872   0.520
20158SOL    HW160818   7.906   7.800   0.458
20158SOL    HW260819   7.837   7.832   0.603
20159SOL     OW60820   9.153   8.935   1.104
20159SOL    HW160821   9.060   8.910   1.077
20159SOL    HW260822   9.179   8.885   1.186
20160SOL     OW60823   7.765   7.995   1.280
20160SOL    HW160824   7.803   7.936   1.352
20160SOL    HW260825   7.805   7.969   1.192
20161SOL     OW60826   8.260   9.034   0.687
20161SOL    HW160827   8.292   9.044   0.593
20161SOL    HW260828   8.181   8.972   0.689
20162SOL     OW60829   8.872   7.662   1.112
20162SOL    HW160830   8.924   7.597   1.167
20162SOL    HW260831   8.823   7.725   1.173
20163SOL     OW60832   8.449   7.482   1.154
20163SOL    HW160833   8.386   7.410   1.123
20163SOL    HW260834   8.542   7.446   1.154
20164SOL     OW60835   8.218   8.778   0.301
20164SOL    HW160836   8.172   8.691   0.318
20164SOL    HW260837   8.309   8.775   0.342
20165SOL     OW60838   8.748   7.901   0.691
20165SOL    HW160839   8.689   7.981   0.695
20165SOL    HW260840   8.763   7.866   0.784
20166SOL     OW60841   9.041   7.669   0.882
20166SOL    HW160842   8.957   7.668   0.936
20166SOL    HW260843   9.043   7.752   0.826
20167SOL     OW60844   7.678   8.076   1.975
20167SOL    HW160845   7.585   8.074   2.012
20167SOL    HW260846   7.679   8.037   1.883
20168SOL     OW60847   7.673   7.723   2.858
20168SOL    HW160848   7.708   7.706   2.950
20168SOL    HW260849   7.585   7.678   2.846
20169SOL     OW60850   7.467   7.816   2.509
20169SOL    HW160851   7.385   7.859   2.548
20169SOL    HW260852   7.439   7.743   2.446
20170SOL     OW60853   8.583   8.151   2.579
20170SOL    HW160854   8.640   8.229   2.554
20170SOL    HW260855   8.523   8.177   2.655
20171SOL     OW60856   9.203   8.055   2.093
20171SOL    HW160857   9.191   8.042   1.994
20171SOL    HW260858   9.173   7.974   2.142
20172SOL     OW60859   8.216   8.592   2.885
20172SOL    HW160860   8.138   8.609   2.945
20172SOL    HW260861   8.250   8.679   2.849
20173SOL     OW60862   8.298   8.246   3.685
20173SOL    HW160863   8.294   8.322   3.750
20173SOL    HW260864   8.320   8.282   3.594
20174SOL     OW60865   8.133   8.460   2.527
20174SOL    HW160866   8.202   8.444   2.597
20174SOL    HW260867   8.060   8.517   2.565
20175SOL     OW60868   8.134   8.609   3.665
20175SOL    HW160869   8.194   8.688   3.679
20175SOL    HW260870   8.048   8.640   3.624
20176SOL     OW60871   7.886   7.840   3.361
20176SOL    HW160872   7.968   7.784   3.370
20176SOL    HW260873   7.805   7.782   3.365
20177SOL     OW60874   9.051   7.895   2.599
20177SOL    HW160875   8.977   7.941   2.549
20177SOL    HW260876   9.102   7.963   2.652
20178SOL     OW60877   8.575   8.789   3.552
20178SOL    HW160878   8.622   8.789   3.640
20178SOL    HW260879   8.527   8.702   3.541
20179SOL     OW60880   7.688   8.539   2.748
20179SOL    HW160881   7.702   8.455   2.800
20179SOL    HW260882   7.633   8.603   2.803
20180SOL     OW60883   8.054   8.412   1.985
20180SOL    HW160884   8.061   8.496   1.931
20180SOL    HW260885   8.100   8.425   2.073
20181SOL     OW60886   9.042   7.562   3.342
20181SOL    HW160887   9.024   7.629   3.270
20181SOL    HW260888   9.039   7.608   3.431
20182SOL     OW60889   7.570   8.091   2.425
20182SOL    HW160890   7.525   8.003   2.442
20182SOL    HW260891   7.569   8.145   2.509
20183SOL     OW60892   9.137   8.370   2.474
20183SOL    HW160893   9.232   8.341   2.482
20183SOL    HW260894   9.129   8.435   2.399
20184SOL     OW60895   9.089   8.556   2.294
20184SOL    HW160896   9.175   8.558   2.242
20184SOL    HW260897   9.103   8.603   2.382
20185SOL     OW60898   7.561   8.185   3.459
20185SOL    HW160899   7.649   8.172   3.504
20185SOL    HW260900   7.548   8.282   3.437
20186SOL     OW60901   8.061   8.813   2.588
20186SOL    HW160902   8.012   8.726   2.597
20186SOL    HW260903   8.038   8.856   2.501
20187SOL     OW60904   8.741   8.676   3.285
20187SOL    HW160905   8.778   8.603   3.227
20187SOL    HW260906   8.793   8.681   3.370
20188SOL     OW60907   8.257   7.452   2.364
20188SOL    HW160908   8.297   7.543   2.355
20188SOL    HW260909   8.157   7.460   2.370
20189SOL     OW60910   7.645   8.424   3.126
20189SOL    HW160911   7.734   8.379   3.112
20189SOL    HW260912   7.572   8.359   3.107
20190SOL     OW60913   8.973   8.447   2.052
20190SOL    HW160914   8.910   8.371   2.065
20190SOL    HW260915   9.021   8.465   2.138
20191SOL     OW60916   7.765   7.699   3.663
20191SOL    HW160917   7.836   7.770   3.669
20191SOL    HW260918   7.677   7.738   3.691
20192SOL     OW60919   8.914   8.865   2.815
20192SOL    HW160920   8.855   8.871   2.895
20192SOL    HW260921   8.899   8.777   2.769
20193SOL     OW60922   8.046   8.177   2.132
20193SOL    HW160923   8.070   8.246   2.064
20193SOL    HW260924   7.968   8.210   2.186
20194SOL     OW60925   8.729   7.793   2.806
20194SOL    HW160926   8.643   7.743   2.793
20194SOL    HW260927   8.791   7.739   2.862
20195SOL     OW60928   8.255   8.053   3.327
20195SOL    HW160929   8.208   8.050   3.416
20195SOL    HW260930   8.204   7.998   3.261
20196SOL     OW60931   8.842   7.917   3.536
20196SOL    HW160932   8.822   7.960   3.624
20196SOL    HW260933   8.920   7.855   3.545
20197SOL     OW60934   8.421   8.338   3.434
20197SOL    HW160935   8.467   8.254   3.405
20197SOL    HW260936   8.365   8.372   3.359
20198SOL     OW60937   8.439   7.858   3.104
20198SOL    HW160938   8.362   7.892   3.158
20198SOL    HW260939   8.405   7.807   3.025
20199SOL     OW60940   8.489   8.149   2.291
20199SOL    HW160941   8.515   8.145   2.387
20199SOL    HW260942   8.404   8.098   2.277
20200SOL     OW60943   7.524   8.259   2.651
20200SOL    HW160944   7.623   8.247   2.660
20200SOL    HW260945   7.500   8.354   2.672
20201SOL     OW60946   8.313   7.796   2.057
20201SOL    HW160947   8.372   7.859   2.008
20201SOL    HW260948   8.332   7.702   2.028
20202SOL     OW60949   9.167   8.033   3.693
20202SOL    HW160950   9.141   8.122   3.657
20202SOL    HW260951   9.165   7.965   3.620
20203SOL     OW60952   8.810   8.592   2.407
20203SOL    HW160953   8.893   8.563   2.359
20203SOL    HW260954   8.761   8.659   2.351
20204SOL     OW60955   7.998   7.644   2.747
20204SOL    HW160956   7.993   7.639   2.847
20204SOL    HW260957   8.000   7.740   2.718
20205SOL     OW60958   9.243   8.514   2.735
20205SOL    HW160959   9.181   8.499   2.659
20205SOL    HW260960   9.191   8.525   2.820
20206SOL     OW60961   8.675   8.998   3.368
20206SOL    HW160962   8.681   8.921   3.432
20206SOL    HW260963   8.623   8.972   3.288
20207SOL     OW60964   7.769   8.391   2.104
20207SOL    HW160965   7.851   8.430   2.062
20207SOL    HW260966   7.742   8.309   2.055
20208SOL     OW60967   8.906   8.183   2.590
20208SOL    HW160968   8.901   8.118   2.665
20208SOL    HW260969   8.986   8.242   2.603
20209SOL     OW60970   7.909   8.714   3.589
20209SOL    HW160971   7.859   8.715   3.503
20209SOL    HW260972   7.846   8.696   3.665
20210SOL     OW60973   7.650   7.733   3.360
20210SOL    HW160974   7.570   7.793   3.347
20210SOL    HW260975   7.640   7.684   3.446
20211SOL     OW60976   8.848   7.555   2.288
20211SOL    HW160977   8.824   7.518   2.198
20211SOL    HW260978   8.947   7.571   2.292
20212SOL     OW60979   7.830   8.148   2.342
20212SOL    HW160980   7.875   8.058   2.339
20212SOL    HW260981   7.736   8.137   2.375
20213SOL     OW60982   8.995   7.670   3.591
20213SOL    HW160983   8.990   7.707   3.683
20213SOL    HW260984   8.923   7.601   3.579
20214SOL     OW60985   8.062   7.570   1.979
20214SOL    HW160986   8.160   7.548   1.986
20214SOL    HW260987   8.031   7.553   1.886
20215SOL     OW60988   8.229   7.712   3.611
20215SOL    HW160989   8.296   7.651   3.654
20215SOL    HW260990   8.156   7.731   3.676
20216SOL     OW60991   8.799   8.038   3.295
20216SOL    HW160992   8.827   7.995   3.380
20216SOL    HW260993   8.824   8.134   3.296
20217SOL     OW60994   8.251   8.850   2.786
20217SOL    HW160995   8.341   8.864   2.744
20217SOL    HW260996   8.180   8.852   2.715
20218SOL     OW60997   8.370   7.951   2.761
20218SOL    HW160998   8.345   7.942   2.665
20218SOL    HW260999   8.418   7.869   2.792
20219SOL     OW61000   7.987   7.512   2.374
20219SOL    HW161001   7.906   7.513   2.432
20219SOL    HW261002   7.990   7.595   2.319
20220SOL     OW61003   8.882   8.636   1.903
20220SOL    HW161004   8.914   8.560   1.960
20220SOL    HW261005   8.790   8.663   1.933
20221SOL     OW61006   7.745   7.483   2.033
20221SOL    HW161007   7.794   7.567   2.012
20221SOL    HW261008   7.807   7.418   2.078
20222SOL     OW61009   8.383   7.684   2.342
20222SOL    HW161010   8.335   7.725   2.264
20222SOL    HW261011   8.482   7.682   2.323
20223SOL     OW61012   8.524   8.131   3.326
20223SOL    HW161013   8.444   8.070   3.329
20223SOL    HW261014   8.605   8.078   3.302
20224SOL     OW61015   7.907   8.600   2.603
20224SOL    HW161016   7.836   8.573   2.668
20224SOL    HW261017   7.881   8.572   2.510
20225SOL     OW61018   8.480   7.997   1.878
20225SOL    HW161019   8.439   8.079   1.839
20225SOL    HW261020   8.544   8.023   1.951
20226SOL     OW61021   7.526   8.004   3.248
20226SOL    HW161022   7.618   8.003   3.207
20226SOL    HW261023   7.520   8.078   3.315
20227SOL     OW61024   8.009   7.670   3.009
20227SOL    HW161025   8.047   7.586   3.046
20227SOL    HW261026   7.921   7.689   3.053
20228SOL     OW61027   8.314   7.902   2.504
20228SOL    HW161028   8.282   7.974   2.442
20228SOL    HW261029   8.338   7.821   2.451
20229SOL     OW61030   8.465   7.487   2.615
20229SOL    HW161031   8.393   7.492   2.546
20229SOL    HW261032   8.441   7.418   2.684
20230SOL     OW61033   8.877   8.621   2.729
20230SOL    HW161034   8.822   8.537   2.722
20230SOL    HW261035   8.903   8.650   2.637
20231SOL     OW61036   8.914   8.038   2.854
20231SOL    HW161037   8.884   7.943   2.861
20231SOL    HW261038   8.987   8.054   2.920
20232SOL     OW61039   9.305   8.281   2.239
20232SOL    HW161040   9.347   8.217   2.303
20232SOL    HW261041   9.267   8.230   2.161
20233SOL     OW61042   7.936   8.833   2.036
20233SOL    HW161043   7.849   8.818   2.083
20233SOL    HW261044   7.919   8.859   1.941
20234SOL     OW61045   8.838   8.023   1.940
20234SOL    HW161046   8.784   8.002   2.021
20234SOL    HW261047   8.929   7.982   1.949
20235SOL     OW61048   7.975   7.704   2.190
20235SOL    HW161049   8.002   7.645   2.115
20235SOL    HW261050   7.975   7.799   2.159
20236SOL     OW61051   8.512   8.795   3.202
20236SOL    HW161052   8.432   8.772   3.257
20236SOL    HW261053   8.595   8.769   3.251
20237SOL     OW61054   8.559   8.643   2.962
20237SOL    HW161055   8.519   8.687   3.043
20237SOL    HW261056   8.518   8.680   2.879
20238SOL     OW61057   9.086   8.547   2.941
20238SOL    HW161058   9.091   8.628   3.000
20238SOL    HW261059   9.000   8.549   2.890
20239SOL     OW61060   8.363   7.537   3.264
20239SOL    HW161061   8.388   7.517   3.169
20239SOL    HW261062   8.435   7.593   3.306
20240SOL     OW61063   8.428   8.564   3.581
20240SOL    HW161064   8.329   8.570   3.591
20240SOL    HW261065   8.451   8.484   3.525
20241SOL     OW61066   8.153   8.498   2.230
20241SOL    HW161067   8.139   8.505   2.329
20241SOL    HW261068   8.237   8.447   2.212
20242SOL     OW61069   7.858   8.261   3.113
20242SOL    HW161070   7.944   8.273   3.163
20242SOL    HW261071   7.816   8.174   3.140
20243SOL     OW61072   8.722   7.834   3.124
20243SOL    HW161073   8.743   7.908   3.188
20243SOL    HW261074   8.633   7.851   3.081
20244SOL     OW61075   7.815   8.548   2.363
20244SOL    HW161076   7.808   8.631   2.307
20244SOL    HW261077   7.819   8.468   2.303
20245SOL     OW61078   8.014   7.985   2.727
20245SOL    HW161079   8.026   8.051   2.653
20245SOL    HW261080   8.060   8.019   2.810
20246SOL     OW61081   8.700   8.796   2.250
20246SOL    HW161082   8.750   8.873   2.290
20246SOL    HW261083   8.605   8.798   2.282
20247SOL     OW61084   9.030   8.087   2.334
20247SOL    HW161085   8.999   8.148   2.407
20247SOL    HW261086   9.080   8.139   2.265
20248SOL     OW61087   7.850   8.199   3.460
20248SOL    HW161088   7.918   8.254   3.413
20248SOL    HW261089   7.890   8.111   3.487
20249SOL     OW61090   9.035   8.227   3.532
20249SOL    HW161091   8.943   8.265   3.527
20249SOL    HW261092   9.095   8.274   3.467
20250SOL     OW61093   8.461   7.553   3.632
20250SOL    HW161094   8.467   7.638   3.580
20250SOL    HW261095   8.493   7.477   3.575
20251SOL     OW61096   7.952   7.498   3.602
20251SOL    HW161097   7.910   7.441   3.532
20251SOL    HW261098   7.886   7.567   3.634
20252SOL     OW61099   8.021   8.318   2.891
20252SOL    HW161100   8.065   8.407   2.882
20252SOL    HW261101   7.958   8.318   2.968
20253SOL     OW61102   8.808   8.310   2.907
20253SOL    HW161103   8.733   8.310   2.841
20253SOL    HW261104   8.845   8.218   2.916
20254SOL     OW61105   8.657   7.973   2.137
20254SOL    HW161106   8.670   7.889   2.191
20254SOL    HW261107   8.628   8.047   2.197
20255SOL     OW61108   7.755   7.661   3.093
20255SOL    HW161109   7.732   7.698   3.183
20255SOL    HW261110   7.725   7.566   3.087
20256SOL     OW61111   7.485   8.758   3.144
20256SOL    HW161112   7.538   8.709   3.212
20256SOL    HW261113   7.507   8.856   3.149
20257SOL     OW61114   8.180   8.082   2.926
20257SOL    HW161115   8.239   8.056   2.850
20257SOL    HW261116   8.152   8.178   2.915
20258SOL     OW61117   9.176   8.383   3.716
20258SOL    HW161118   9.130   8.376   3.627
20258SOL    HW261119   9.114   8.427   3.782
20259SOL     OW61120   7.755   7.511   2.480
20259SOL    HW161121   7.744   7.605   2.513
20259SOL    HW261122   7.750   7.448   2.557
20260SOL     OW61123   9.070   7.815   2.236
20260SOL    HW161124   9.072   7.739   2.300
20260SOL    HW261125   9.022   7.892   2.276
20261SOL     OW61126   8.471   8.214   2.828
20261SOL    HW161127   8.486   8.235   2.924
20261SOL    HW261128   8.441   8.119   2.819
20262SOL     OW61129   7.798   8.346   3.666
20262SOL    HW161130   7.874   8.390   3.714
20262SOL    HW261131   7.833   8.299   3.584
20263SOL     OW61132   8.988   7.722   1.987
20263SOL    HW161133   8.927   7.647   2.010
20263SOL    HW261134   9.010   7.774   2.070
20264SOL     OW61135   8.751   8.286   1.904
20264SOL    HW161136   8.785   8.193   1.919
20264SOL    HW261137   8.769   8.313   1.809
20265SOL     OW61138   8.516   8.781   2.711
20265SOL    HW161139   8.523   8.697   2.656
20265SOL    HW261140   8.578   8.850   2.675
20266SOL     OW61141   7.767   8.258   2.811
20266SOL    HW161142   7.860   8.294   2.816
20266SOL    HW261143   7.761   8.173   2.863
20267SOL     OW61144   7.787   7.957   2.868
20267SOL    HW161145   7.735   7.874   2.851
20267SOL    HW261146   7.864   7.962   2.804
20268SOL     OW61147   8.586   7.828   3.540
20268SOL    HW161148   8.541   7.891   3.604
20268SOL    HW261149   8.679   7.859   3.523
20269SOL     OW61150   8.608   7.655   3.339
20269SOL    HW161151   8.608   7.719   3.416
20269SOL    HW261152   8.636   7.703   3.256
20270SOL     OW61153   7.456   8.774   2.062
20270SOL    HW161154   7.363   8.795   2.031
20270SOL    HW261155   7.466   8.675   2.075
20271SOL     OW61156   8.450   8.244   3.100
20271SOL    HW161157   8.491   8.212   3.186
20271SOL    HW261158   8.354   8.217   3.097
20272SOL     OW61159   7.488   7.992   2.976
20272SOL    HW161160   7.573   7.959   2.935
20272SOL    HW261161   7.501   8.007   3.074
20273SOL     OW61162   7.637   7.968   3.584
20273SOL    HW161163   7.696   7.928   3.514
20273SOL    HW261164   7.579   8.039   3.543
20274SOL     OW61165   8.817   8.398   3.522
20274SOL    HW161166   8.856   8.487   3.542
20274SOL    HW261167   8.827   8.378   3.425
20275SOL     OW61168   8.263   8.020   2.187
20275SOL    HW161169   8.270   7.931   2.141
20275SOL    HW261170   8.169   8.054   2.179
20276SOL     OW61171   9.105   8.052   3.068
20276SOL    HW161172   9.067   7.983   3.130
20276SOL    HW261173   9.187   8.016   3.024
20277SOL     OW61174   8.119   7.912   3.131
20277SOL    HW161175   8.085   7.823   3.101
20277SOL    HW261176   8.145   7.966   3.051
20278SOL     OW61177   7.921   7.948   2.053
20278SOL    HW161178   7.982   8.028   2.057
20278SOL    HW261179   7.826   7.979   2.060
20279SOL     OW61180   7.607   8.585   3.328
20279SOL    HW161181   7.629   8.524   3.404
20279SOL    HW261182   7.617   8.536   3.242
20280SOL     OW61183   8.795   8.507   3.096
20280SOL    HW161184   8.819   8.444   3.022
20280SOL    HW261185   8.705   8.547   3.078
20281SOL     OW61186   8.750   8.303   2.171
20281SOL    HW161187   8.664   8.272   2.213
20281SOL    HW261188   8.746   8.289   2.072
20282SOL     OW61189   7.531   8.706   2.884
20282SOL    HW161190   7.526   8.705   2.984
20282SOL    HW261191   7.448   8.665   2.846
20283SOL     OW61192   9.174   7.583   2.385
20283SOL    HW161193   9.247   7.566   2.318
20283SOL    HW261194   9.143   7.496   2.423
20284SOL     OW61195   8.728   8.375   2.534
20284SOL    HW161196   8.788   8.294   2.536
20284SOL    HW261197   8.768   8.444   2.474
20285SOL     OW61198   8.278   8.721   3.284
20285SOL    HW161199   8.273   8.754   3.379
20285SOL    HW261200   8.192   8.740   3.238
20286SOL     OW61201   9.289   7.623   2.825
20286SOL    HW161202   9.328   7.538   2.789
20286SOL    HW261203   9.191   7.625   2.806
20287SOL     OW61204   7.711   7.774   2.582
20287SOL    HW161205   7.632   7.825   2.548
20287SOL    HW261206   7.702   7.759   2.680
20288SOL     OW61207   8.642   9.060   1.893
20288SOL    HW161208   8.648   8.967   1.930
20288SOL    HW261209   8.583   9.060   1.813
20289SOL     OW61210   8.270   8.450   3.234
20289SOL    HW161211   8.310   8.449   3.142
20289SOL    HW261212   8.280   8.542   3.274
20290SOL     OW61213   8.364   8.358   2.153
20290SOL    HW161214   8.427   8.396   2.085
20290SOL    HW261215   8.404   8.275   2.192
20291SOL     OW61216   7.820   8.736   3.352
20291SOL    HW161217   7.807   8.829   3.318
20291SOL    HW261218   7.736   8.684   3.339
20292SOL     OW61219   9.062   8.740   3.151
20292SOL    HW161220   9.122   8.743   3.231
20292SOL    HW261221   8.987   8.804   3.164
20293SOL     OW61222   8.487   8.546   2.558
20293SOL    HW161223   8.417   8.499   2.612
20293SOL    HW261224   8.546   8.478   2.515
20294SOL     OW61225   8.462   7.684   2.833
20294SOL    HW161226   8.454   7.648   2.740
20294SOL    HW261227   8.460   7.608   2.898
20295SOL     OW61228   8.038   8.935   2.353
20295SOL    HW161229   8.080   8.877   2.283
20295SOL    HW261230   7.994   9.014   2.309
20296SOL     OW61231   9.157   7.833   3.243
20296SOL    HW161232   9.230   7.902   3.247
20296SOL    HW261233   9.185   7.758   3.184
20297SOL     OW61234   7.553   8.461   3.588
20297SOL    HW161235   7.476   8.428   3.642
20297SOL    HW261236   7.638   8.431   3.630
20298SOL     OW61237   8.120   7.651   3.351
20298SOL    HW161238   8.210   7.635   3.311
20298SOL    HW261239   8.128   7.656   3.450
20299SOL     OW61240   7.523   7.793   1.895
20299SOL    HW161241   7.431   7.765   1.866
20299SOL    HW261242   7.554   7.870   1.839
20300SOL     OW61243   8.888   8.304   3.260
20300SOL    HW161244   8.831   8.356   3.197
20300SOL    HW261245   8.984   8.316   3.236
20301SOL     OW61246   7.520   7.614   2.180
20301SOL    HW161247   7.503   7.697   2.126
20301SOL    HW261248   7.610   7.577   2.158
20302SOL     OW61249   8.631   8.783   1.981
20302SOL    HW161250   8.532   8.772   1.983
20302SOL    HW261251   8.665   8.798   2.074
20303SOL     OW61252   8.061   8.290   3.293
20303SOL    HW161253   8.117   8.371   3.276
20303SOL    HW261254   8.120   8.210   3.296
20304SOL     OW61255   8.164   8.013   3.570
20304SOL    HW161256   8.183   8.078   3.644
20304SOL    HW261257   8.224   7.933   3.579
20305SOL     OW61258   8.898   8.668   3.495
20305SOL    HW161259   8.889   8.658   3.594
20305SOL    HW261260   8.994   8.661   3.469
20306SOL     OW61261   7.838   9.189   3.422
20306SOL    HW161262   7.747   9.230   3.420
20306SOL    HW261263   7.831   9.095   3.454
20307SOL     OW61264   9.122   8.331   3.116
20307SOL    HW161265   9.095   8.242   3.079
20307SOL    HW261266   9.123   8.399   3.043
20308SOL     OW61267   8.673   7.773   2.311
20308SOL    HW161268   8.738   7.699   2.300
20308SOL    HW261269   8.693   7.823   2.395
20309SOL     OW61270   8.042   8.193   2.514
20309SOL    HW161271   8.092   8.278   2.495
20309SOL    HW261272   7.954   8.195   2.466
20310SOL     OW61273   9.225   7.790   3.504
20310SOL    HW161274   9.208   7.821   3.410
20310SOL    HW261275   9.141   7.753   3.542
20311SOL     OW61276   9.178   8.382   3.379
20311SOL    HW161277   9.216   8.473   3.394
20311SOL    HW261278   9.170   8.365   3.280
20312SOL     OW61279   8.307   8.404   2.723
20312SOL    HW161280   8.361   8.335   2.771
20312SOL    HW261281   8.275   8.473   2.789
20313SOL     OW61282   8.531   8.432   1.949
20313SOL    HW161283   8.508   8.485   1.867
20313SOL    HW261284   8.612   8.376   1.930
20314SOL     OW61285   7.669   8.762   3.706
20314SOL    HW161286   7.604   8.689   3.685
20314SOL    HW261287   7.673   8.776   3.804
20315SOL     OW61288   7.527   8.688   2.515
20315SOL    HW161289   7.526   8.641   2.603
20315SOL    HW261290   7.609   8.660   2.464
20316SOL     OW61291   8.120   8.839   3.486
20316SOL    HW161292   8.042   8.789   3.524
20316SOL    HW261293   8.117   8.934   3.517
20317SOL     OW61294   9.272   7.640   3.089
20317SOL    HW161295   9.268   7.550   3.133
20317SOL    HW261296   9.275   7.629   2.990
20318SOL     OW61297   7.876   7.872   2.382
20318SOL    HW161298   7.906   7.800   2.320
20318SOL    HW261299   7.837   7.832   2.465
20319SOL     OW61300   9.153   8.935   2.966
20319SOL    HW161301   9.060   8.910   2.939
20319SOL    HW261302   9.179   8.885   3.048
20320SOL     OW61303   7.765   7.995   3.142
20320SOL    HW161304   7.803   7.936   3.214
20320SOL    HW261305   7.805   7.969   3.054
20321SOL     OW61306   8.260   9.034   2.549
20321SOL    HW161307   8.292   9.044   2.455
20321SOL    HW261308   8.181   8.972   2.551
20322SOL     OW61309   8.872   7.662   2.974
20322SOL    HW161310   8.924   7.597   3.029
20322SOL    HW261311   8.823   7.725   3.035
20323SOL     OW61312   8.449   7.482   3.016
20323SOL    HW161313   8.386   7.410   2.985
20323SOL    HW261314   8.542   7.446   3.016
20324SOL     OW61315   8.218   8.778   2.163
20324SOL    HW161316   8.172   8.691   2.180
20324SOL    HW261317   8.309   8.775   2.204
20325SOL     OW61318   8.800   7.500   2.030
20325SOL    HW161319   8.835   7.459   1.946
20325SOL    HW261320   8.710   7.462   2.050
20326SOL     OW61321   8.748   7.901   2.553
20326SOL    HW161322   8.689   7.981   2.557
20326SOL    HW261323   8.763   7.866   2.646
20327SOL     OW61324   9.041   7.669   2.744
20327SOL    HW161325   8.957   7.668   2.798
20327SOL    HW261326   9.043   7.752   2.688
20328SOL     OW61327   7.487   8.525   2.162
20328SOL    HW161328   7.586   8.514   2.153
20328SOL    HW261329   7.447   8.439   2.194
20329SOL     OW61330   7.678   8.076   3.837
20329SOL    HW161331   7.585   8.074   3.874
20329SOL    HW261332   7.679   8.037   3.745
20330SOL     OW61333   7.673   7.723   4.720
20330SOL    HW161334   7.708   7.706   4.812
20330SOL    HW261335   7.585   7.678   4.708
20331SOL     OW61336   7.467   7.816   4.371
20331SOL    HW161337   7.385   7.859   4.410
20331SOL    HW261338   7.439   7.743   4.308
20332SOL     OW61339   8.583   8.151   4.441
20332SOL    HW161340   8.640   8.229   4.416
20332SOL    HW261341   8.523   8.177   4.517
20333SOL     OW61342   9.203   8.055   3.955
20333SOL    HW161343   9.191   8.042   3.856
20333SOL    HW261344   9.173   7.974   4.004
20334SOL     OW61345   8.216   8.592   4.747
20334SOL    HW161346   8.138   8.609   4.807
20334SOL    HW261347   8.250   8.679   4.711
20335SOL     OW61348   8.298   8.246   5.547
20335SOL    HW161349   8.294   8.322   5.612
20335SOL    HW261350   8.320   8.282   5.456
20336SOL     OW61351   8.133   8.460   4.389
20336SOL    HW161352   8.202   8.444   4.459
20336SOL    HW261353   8.060   8.517   4.427
20337SOL     OW61354   8.134   8.609   5.527
20337SOL    HW161355   8.194   8.688   5.541
20337SOL    HW261356   8.048   8.640   5.486
20338SOL     OW61357   7.886   7.840   5.223
20338SOL    HW161358   7.968   7.784   5.232
20338SOL    HW261359   7.805   7.782   5.227
20339SOL     OW61360   9.051   7.895   4.461
20339SOL    HW161361   8.977   7.941   4.411
20339SOL    HW261362   9.102   7.963   4.514
20340SOL     OW61363   8.575   8.789   5.414
20340SOL    HW161364   8.622   8.789   5.502
20340SOL    HW261365   8.527   8.702   5.403
20341SOL     OW61366   7.688   8.539   4.610
20341SOL    HW161367   7.702   8.455   4.662
20341SOL    HW261368   7.633   8.603   4.665
20342SOL     OW61369   8.054   8.412   3.847
20342SOL    HW161370   8.061   8.496   3.793
20342SOL    HW261371   8.100   8.425   3.935
20343SOL     OW61372   9.042   7.562   5.204
20343SOL    HW161373   9.024   7.629   5.132
20343SOL    HW261374   9.039   7.608   5.293
20344SOL     OW61375   7.570   8.091   4.287
20344SOL    HW161376   7.525   8.003   4.304
20344SOL    HW261377   7.569   8.145   4.371
20345SOL     OW61378   9.137   8.370   4.336
20345SOL    HW161379   9.232   8.341   4.344
20345SOL    HW261380   9.129   8.435   4.261
20346SOL     OW61381   9.089   8.556   4.156
20346SOL    HW161382   9.175   8.558   4.104
20346SOL    HW261383   9.103   8.603   4.244
20347SOL     OW61384   7.561   8.185   5.321
20347SOL    HW161385   7.649   8.172   5.366
20347SOL    HW261386   7.548   8.282   5.299
20348SOL     OW61387   8.061   8.813   4.450
20348SOL    HW161388   8.012   8.726   4.459
20348SOL    HW261389   8.038   8.856   4.363
20349SOL     OW61390   8.741   8.676   5.147
20349SOL    HW161391   8.778   8.603   5.089
20349SOL    HW261392   8.793   8.681   5.232
20350SOL     OW61393   8.257   7.452   4.226
20350SOL    HW161394   8.297   7.543   4.217
20350SOL    HW261395   8.157   7.460   4.232
20351SOL     OW61396   7.645   8.424   4.988
20351SOL    HW161397   7.734   8.379   4.974
20351SOL    HW261398   7.572   8.359   4.969
20352SOL     OW61399   8.973   8.447   3.914
20352SOL    HW161400   8.910   8.371   3.927
20352SOL    HW261401   9.021   8.465   4.000
20353SOL     OW61402   7.765   7.699   5.525
20353SOL    HW161403   7.836   7.770   5.531
20353SOL    HW261404   7.677   7.738   5.553
20354SOL     OW61405   8.914   8.865   4.677
20354SOL    HW161406   8.855   8.871   4.757
20354SOL    HW261407   8.899   8.777   4.631
20355SOL     OW61408   8.046   8.177   3.994
20355SOL    HW161409   8.070   8.246   3.926
20355SOL    HW261410   7.968   8.210   4.048
20356SOL     OW61411   8.729   7.793   4.668
20356SOL    HW161412   8.643   7.743   4.655
20356SOL    HW261413   8.791   7.739   4.724
20357SOL     OW61414   8.255   8.053   5.189
20357SOL    HW161415   8.208   8.050   5.278
20357SOL    HW261416   8.204   7.998   5.123
20358SOL     OW61417   8.842   7.917   5.398
20358SOL    HW161418   8.822   7.960   5.486
20358SOL    HW261419   8.920   7.855   5.407
20359SOL     OW61420   8.421   8.338   5.296
20359SOL    HW161421   8.467   8.254   5.267
20359SOL    HW261422   8.365   8.372   5.221
20360SOL     OW61423   8.439   7.858   4.966
20360SOL    HW161424   8.362   7.892   5.020
20360SOL    HW261425   8.405   7.807   4.887
20361SOL     OW61426   8.489   8.149   4.153
20361SOL    HW161427   8.515   8.145   4.249
20361SOL    HW261428   8.404   8.098   4.139
20362SOL     OW61429   7.524   8.259   4.513
20362SOL    HW161430   7.623   8.247   4.522
20362SOL    HW261431   7.500   8.354   4.534
20363SOL     OW61432   8.313   7.796   3.919
20363SOL    HW161433   8.372   7.859   3.870
20363SOL    HW261434   8.332   7.702   3.890
20364SOL     OW61435   9.167   8.033   5.555
20364SOL    HW161436   9.141   8.122   5.519
20364SOL    HW261437   9.165   7.965   5.482
20365SOL     OW61438   8.810   8.592   4.269
20365SOL    HW161439   8.893   8.563   4.221
20365SOL    HW261440   8.761   8.659   4.213
20366SOL     OW61441   7.998   7.644   4.609
20366SOL    HW161442   7.993   7.639   4.709
20366SOL    HW261443   8.000   7.740   4.580
20367SOL     OW61444   9.243   8.514   4.597
20367SOL    HW161445   9.181   8.499   4.521
20367SOL    HW261446   9.191   8.525   4.682
20368SOL     OW61447   8.675   8.998   5.230
20368SOL    HW161448   8.681   8.921   5.294
20368SOL    HW261449   8.623   8.972   5.150
20369SOL     OW61450   7.769   8.391   3.966
20369SOL    HW161451   7.851   8.430   3.924
20369SOL    HW261452   7.742   8.309   3.917
20370SOL     OW61453   8.906   8.183   4.452
20370SOL    HW161454   8.901   8.118   4.527
20370SOL    HW261455   8.986   8.242   4.465
20371SOL     OW61456   7.909   8.714   5.451
20371SOL    HW161457   7.859   8.715   5.365
20371SOL    HW261458   7.846   8.696   5.527
20372SOL     OW61459   7.650   7.733   5.222
20372SOL    HW161460   7.570   7.793   5.209
20372SOL    HW261461   7.640   7.684   5.308
20373SOL     OW61462   8.848   7.555   4.150
20373SOL    HW161463   8.824   7.518   4.060
20373SOL    HW261464   8.947   7.571   4.154
20374SOL     OW61465   7.830   8.148   4.204
20374SOL    HW161466   7.875   8.058   4.201
20374SOL    HW261467   7.736   8.137   4.237
20375SOL     OW61468   8.995   7.670   5.453
20375SOL    HW161469   8.990   7.707   5.545
20375SOL    HW261470   8.923   7.601   5.441
20376SOL     OW61471   8.062   7.570   3.841
20376SOL    HW161472   8.160   7.548   3.848
20376SOL    HW261473   8.031   7.553   3.748
20377SOL     OW61474   8.229   7.712   5.473
20377SOL    HW161475   8.296   7.651   5.516
20377SOL    HW261476   8.156   7.731   5.538
20378SOL     OW61477   8.799   8.038   5.157
20378SOL    HW161478   8.827   7.995   5.242
20378SOL    HW261479   8.824   8.134   5.158
20379SOL     OW61480   8.251   8.850   4.648
20379SOL    HW161481   8.341   8.864   4.606
20379SOL    HW261482   8.180   8.852   4.577
20380SOL     OW61483   8.370   7.951   4.623
20380SOL    HW161484   8.345   7.942   4.527
20380SOL    HW261485   8.418   7.869   4.654
20381SOL     OW61486   7.987   7.512   4.236
20381SOL    HW161487   7.906   7.513   4.294
20381SOL    HW261488   7.990   7.595   4.181
20382SOL     OW61489   8.882   8.636   3.765
20382SOL    HW161490   8.914   8.560   3.822
20382SOL    HW261491   8.790   8.663   3.795
20383SOL     OW61492   7.745   7.483   3.895
20383SOL    HW161493   7.794   7.567   3.874
20383SOL    HW261494   7.807   7.418   3.940
20384SOL     OW61495   8.383   7.684   4.204
20384SOL    HW161496   8.335   7.725   4.126
20384SOL    HW261497   8.482   7.682   4.185
20385SOL     OW61498   8.524   8.131   5.188
20385SOL    HW161499   8.444   8.070   5.191
20385SOL    HW261500   8.605   8.078   5.164
20386SOL     OW61501   7.907   8.600   4.465
20386SOL    HW161502   7.836   8.573   4.530
20386SOL    HW261503   7.881   8.572   4.372
20387SOL     OW61504   8.480   7.997   3.740
20387SOL    HW161505   8.439   8.079   3.701
20387SOL    HW261506   8.544   8.023   3.813
20388SOL     OW61507   7.526   8.004   5.110
20388SOL    HW161508   7.618   8.003   5.069
20388SOL    HW261509   7.520   8.078   5.177
20389SOL     OW61510   8.009   7.670   4.871
20389SOL    HW161511   8.047   7.586   4.908
20389SOL    HW261512   7.921   7.689   4.915
20390SOL     OW61513   8.314   7.902   4.366
20390SOL    HW161514   8.282   7.974   4.304
20390SOL    HW261515   8.338   7.821   4.313
20391SOL     OW61516   8.465   7.487   4.477
20391SOL    HW161517   8.393   7.492   4.408
20391SOL    HW261518   8.441   7.418   4.546
20392SOL     OW61519   8.877   8.621   4.591
20392SOL    HW161520   8.822   8.537   4.584
20392SOL    HW261521   8.903   8.650   4.499
20393SOL     OW61522   8.914   8.038   4.716
20393SOL    HW161523   8.884   7.943   4.723
20393SOL    HW261524   8.987   8.054   4.782
20394SOL     OW61525   9.305   8.281   4.101
20394SOL    HW161526   9.347   8.217   4.165
20394SOL    HW261527   9.267   8.230   4.023
20395SOL     OW61528   7.936   8.833   3.898
20395SOL    HW161529   7.849   8.818   3.945
20395SOL    HW261530   7.919   8.859   3.803
20396SOL     OW61531   8.838   8.023   3.802
20396SOL    HW161532   8.784   8.002   3.883
20396SOL    HW261533   8.929   7.982   3.811
20397SOL     OW61534   7.975   7.704   4.052
20397SOL    HW161535   8.002   7.645   3.977
20397SOL    HW261536   7.975   7.799   4.021
20398SOL     OW61537   8.512   8.795   5.064
20398SOL    HW161538   8.432   8.772   5.119
20398SOL    HW261539   8.595   8.769   5.113
20399SOL     OW61540   8.559   8.643   4.824
20399SOL    HW161541   8.519   8.687   4.905
20399SOL    HW261542   8.518   8.680   4.741
20400SOL     OW61543   9.086   8.547   4.803
20400SOL    HW161544   9.091   8.628   4.862
20400SOL    HW261545   9.000   8.549   4.752
20401SOL     OW61546   8.363   7.537   5.126
20401SOL    HW161547   8.388   7.517   5.031
20401SOL    HW261548   8.435   7.593   5.168
20402SOL     OW61549   8.428   8.564   5.443
20402SOL    HW161550   8.329   8.570   5.453
20402SOL    HW261551   8.451   8.484   5.387
20403SOL     OW61552   8.153   8.498   4.092
20403SOL    HW161553   8.139   8.505   4.191
20403SOL    HW261554   8.237   8.447   4.074
20404SOL     OW61555   7.858   8.261   4.975
20404SOL    HW161556   7.944   8.273   5.025
20404SOL    HW261557   7.816   8.174   5.002
20405SOL     OW61558   8.722   7.834   4.986
20405SOL    HW161559   8.743   7.908   5.050
20405SOL    HW261560   8.633   7.851   4.943
20406SOL     OW61561   7.815   8.548   4.225
20406SOL    HW161562   7.808   8.631   4.169
20406SOL    HW261563   7.819   8.468   4.165
20407SOL     OW61564   8.014   7.985   4.589
20407SOL    HW161565   8.026   8.051   4.515
20407SOL    HW261566   8.060   8.019   4.672
20408SOL     OW61567   8.700   8.796   4.112
20408SOL    HW161568   8.750   8.873   4.152
20408SOL    HW261569   8.605   8.798   4.144
20409SOL     OW61570   9.030   8.087   4.196
20409SOL    HW161571   8.999   8.148   4.269
20409SOL    HW261572   9.080   8.139   4.127
20410SOL     OW61573   7.850   8.199   5.322
20410SOL    HW161574   7.918   8.254   5.275
20410SOL    HW261575   7.890   8.111   5.349
20411SOL     OW61576   9.035   8.227   5.394
20411SOL    HW161577   8.943   8.265   5.389
20411SOL    HW261578   9.095   8.274   5.329
20412SOL     OW61579   8.461   7.553   5.494
20412SOL    HW161580   8.467   7.638   5.442
20412SOL    HW261581   8.493   7.477   5.437
20413SOL     OW61582   7.952   7.498   5.464
20413SOL    HW161583   7.910   7.441   5.394
20413SOL    HW261584   7.886   7.567   5.496
20414SOL     OW61585   8.021   8.318   4.753
20414SOL    HW161586   8.065   8.407   4.744
20414SOL    HW261587   7.958   8.318   4.830
20415SOL     OW61588   8.808   8.310   4.769
20415SOL    HW161589   8.733   8.310   4.703
20415SOL    HW261590   8.845   8.218   4.778
20416SOL     OW61591   8.657   7.973   3.999
20416SOL    HW161592   8.670   7.889   4.053
20416SOL    HW261593   8.628   8.047   4.059
20417SOL     OW61594   7.755   7.661   4.955
20417SOL    HW161595   7.732   7.698   5.045
20417SOL    HW261596   7.725   7.566   4.949
20418SOL     OW61597   7.485   8.758   5.006
20418SOL    HW161598   7.538   8.709   5.074
20418SOL    HW261599   7.507   8.856   5.011
20419SOL     OW61600   8.180   8.082   4.788
20419SOL    HW161601   8.239   8.056   4.712
20419SOL    HW261602   8.152   8.178   4.777
20420SOL     OW61603   9.176   8.383   5.578
20420SOL    HW161604   9.130   8.376   5.489
20420SOL    HW261605   9.114   8.427   5.644
20421SOL     OW61606   7.755   7.511   4.342
20421SOL    HW161607   7.744   7.605   4.375
20421SOL    HW261608   7.750   7.448   4.419
20422SOL     OW61609   9.070   7.815   4.098
20422SOL    HW161610   9.072   7.739   4.162
20422SOL    HW261611   9.022   7.892   4.138
20423SOL     OW61612   8.471   8.214   4.690
20423SOL    HW161613   8.486   8.235   4.786
20423SOL    HW261614   8.441   8.119   4.681
20424SOL     OW61615   7.798   8.346   5.528
20424SOL    HW161616   7.874   8.390   5.576
20424SOL    HW261617   7.833   8.299   5.446
20425SOL     OW61618   8.988   7.722   3.849
20425SOL    HW161619   8.927   7.647   3.872
20425SOL    HW261620   9.010   7.774   3.932
20426SOL     OW61621   8.751   8.286   3.766
20426SOL    HW161622   8.785   8.193   3.781
20426SOL    HW261623   8.769   8.313   3.671
20427SOL     OW61624   8.516   8.781   4.573
20427SOL    HW161625   8.523   8.697   4.518
20427SOL    HW261626   8.578   8.850   4.537
20428SOL     OW61627   7.767   8.258   4.673
20428SOL    HW161628   7.860   8.294   4.678
20428SOL    HW261629   7.761   8.173   4.725
20429SOL     OW61630   7.787   7.957   4.730
20429SOL    HW161631   7.735   7.874   4.713
20429SOL    HW261632   7.864   7.962   4.666
20430SOL     OW61633   8.586   7.828   5.402
20430SOL    HW161634   8.541   7.891   5.466
20430SOL    HW261635   8.679   7.859   5.385
20431SOL     OW61636   8.608   7.655   5.201
20431SOL    HW161637   8.608   7.719   5.278
20431SOL    HW261638   8.636   7.703   5.118
20432SOL     OW61639   7.456   8.774   3.924
20432SOL    HW161640   7.363   8.795   3.893
20432SOL    HW261641   7.466   8.675   3.937
20433SOL     OW61642   8.450   8.244   4.962
20433SOL    HW161643   8.491   8.212   5.048
20433SOL    HW261644   8.354   8.217   4.959
20434SOL     OW61645   7.488   7.992   4.838
20434SOL    HW161646   7.573   7.959   4.797
20434SOL    HW261647   7.501   8.007   4.936
20435SOL     OW61648   7.637   7.968   5.446
20435SOL    HW161649   7.696   7.928   5.376
20435SOL    HW261650   7.579   8.039   5.405
20436SOL     OW61651   8.817   8.398   5.384
20436SOL    HW161652   8.856   8.487   5.404
20436SOL    HW261653   8.827   8.378   5.287
20437SOL     OW61654   8.263   8.020   4.049
20437SOL    HW161655   8.270   7.931   4.003
20437SOL    HW261656   8.169   8.054   4.041
20438SOL     OW61657   9.105   8.052   4.930
20438SOL    HW161658   9.067   7.983   4.992
20438SOL    HW261659   9.187   8.016   4.886
20439SOL     OW61660   8.119   7.912   4.993
20439SOL    HW161661   8.085   7.823   4.963
20439SOL    HW261662   8.145   7.966   4.913
20440SOL     OW61663   7.921   7.948   3.915
20440SOL    HW161664   7.982   8.028   3.919
20440SOL    HW261665   7.826   7.979   3.922
20441SOL     OW61666   7.607   8.585   5.190
20441SOL    HW161667   7.629   8.524   5.266
20441SOL    HW261668   7.617   8.536   5.104
20442SOL     OW61669   8.795   8.507   4.958
20442SOL    HW161670   8.819   8.444   4.884
20442SOL    HW261671   8.705   8.547   4.940
20443SOL     OW61672   8.750   8.303   4.033
20443SOL    HW161673   8.664   8.272   4.075
20443SOL    HW261674   8.746   8.289   3.934
20444SOL     OW61675   7.531   8.706   4.746
20444SOL    HW161676   7.526   8.705   4.846
20444SOL    HW261677   7.448   8.665   4.708
20445SOL     OW61678   9.174   7.583   4.247
20445SOL    HW161679   9.247   7.566   4.180
20445SOL    HW261680   9.143   7.496   4.285
20446SOL     OW61681   8.728   8.375   4.396
20446SOL    HW161682   8.788   8.294   4.398
20446SOL    HW261683   8.768   8.444   4.336
20447SOL     OW61684   8.278   8.721   5.146
20447SOL    HW161685   8.273   8.754   5.241
20447SOL    HW261686   8.192   8.740   5.100
20448SOL     OW61687   9.289   7.623   4.687
20448SOL    HW161688   9.328   7.538   4.651
20448SOL    HW261689   9.191   7.625   4.668
20449SOL     OW61690   7.711   7.774   4.444
20449SOL    HW161691   7.632   7.825   4.410
20449SOL    HW261692   7.702   7.759   4.542
20450SOL     OW61693   8.642   9.060   3.755
20450SOL    HW161694   8.648   8.967   3.792
20450SOL    HW261695   8.583   9.060   3.675
20451SOL     OW61696   8.270   8.450   5.096
20451SOL    HW161697   8.310   8.449   5.004
20451SOL    HW261698   8.280   8.542   5.136
20452SOL     OW61699   8.364   8.358   4.015
20452SOL    HW161700   8.427   8.396   3.947
20452SOL    HW261701   8.404   8.275   4.054
20453SOL     OW61702   7.820   8.736   5.214
20453SOL    HW161703   7.807   8.829   5.180
20453SOL    HW261704   7.736   8.684   5.201
20454SOL     OW61705   9.062   8.740   5.013
20454SOL    HW161706   9.122   8.743   5.093
20454SOL    HW261707   8.987   8.804   5.026
20455SOL     OW61708   8.487   8.546   4.420
20455SOL    HW161709   8.417   8.499   4.474
20455SOL    HW261710   8.546   8.478   4.377
20456SOL     OW61711   8.462   7.684   4.695
20456SOL    HW161712   8.454   7.648   4.602
20456SOL    HW261713   8.460   7.608   4.760
20457SOL     OW61714   8.038   8.935   4.215
20457SOL    HW161715   8.080   8.877   4.145
20457SOL    HW261716   7.994   9.014   4.171
20458SOL     OW61717   9.157   7.833   5.105
20458SOL    HW161718   9.230   7.902   5.109
20458SOL    HW261719   9.185   7.758   5.046
20459SOL     OW61720   7.553   8.461   5.450
20459SOL    HW161721   7.476   8.428   5.504
20459SOL    HW261722   7.638   8.431   5.492
20460SOL     OW61723   8.120   7.651   5.213
20460SOL    HW161724   8.210   7.635   5.173
20460SOL    HW261725   8.128   7.656   5.312
20461SOL     OW61726   7.523   7.793   3.757
20461SOL    HW161727   7.431   7.765   3.728
20461SOL    HW261728   7.554   7.870   3.701
20462SOL     OW61729   8.888   8.304   5.122
20462SOL    HW161730   8.831   8.356   5.059
20462SOL    HW261731   8.984   8.316   5.098
20463SOL     OW61732   7.520   7.614   4.042
20463SOL    HW161733   7.503   7.697   3.988
20463SOL    HW261734   7.610   7.577   4.020
20464SOL     OW61735   8.631   8.783   3.843
20464SOL    HW161736   8.532   8.772   3.845
20464SOL    HW261737   8.665   8.798   3.936
20465SOL     OW61738   8.061   8.290   5.155
20465SOL    HW161739   8.117   8.371   5.138
20465SOL    HW261740   8.120   8.210   5.158
20466SOL     OW61741   8.164   8.013   5.432
20466SOL    HW161742   8.183   8.078   5.506
20466SOL    HW261743   8.224   7.933   5.441
20467SOL     OW61744   8.898   8.668   5.357
20467SOL    HW161745   8.889   8.658   5.456
20467SOL    HW261746   8.994   8.661   5.331
20468SOL     OW61747   7.838   9.189   5.284
20468SOL    HW161748   7.747   9.230   5.282
20468SOL    HW261749   7.831   9.095   5.316
20469SOL     OW61750   9.122   8.331   4.978
20469SOL    HW161751   9.095   8.242   4.941
20469SOL    HW261752   9.123   8.399   4.905
20470SOL     OW61753   8.673   7.773   4.173
20470SOL    HW161754   8.738   7.699   4.162
20470SOL    HW261755   8.693   7.823   4.257
20471SOL     OW61756   8.042   8.193   4.376
20471SOL    HW161757   8.092   8.278   4.357
20471SOL    HW261758   7.954   8.195   4.328
20472SOL     OW61759   9.225   7.790   5.366
20472SOL    HW161760   9.208   7.821   5.272
20472SOL    HW261761   9.141   7.753   5.404
20473SOL     OW61762   9.178   8.382   5.241
20473SOL    HW161763   9.216   8.473   5.256
20473SOL    HW261764   9.170   8.365   5.142
20474SOL     OW61765   8.307   8.404   4.585
20474SOL    HW161766   8.361   8.335   4.633
20474SOL    HW261767   8.275   8.473   4.651
20475SOL     OW61768   8.531   8.432   3.811
20475SOL    HW161769   8.508   8.485   3.729
20475SOL    HW261770   8.612   8.376   3.792
20476SOL     OW61771   7.669   8.762   5.568
20476SOL    HW161772   7.604   8.689   5.547
20476SOL    HW261773   7.673   8.776   5.666
20477SOL     OW61774   7.527   8.688   4.377
20477SOL    HW161775   7.526   8.641   4.465
20477SOL    HW261776   7.609   8.660   4.326
20478SOL     OW61777   8.120   8.839   5.348
20478SOL    HW161778   8.042   8.789   5.386
20478SOL    HW261779   8.117   8.934   5.379
20479SOL     OW61780   9.272   7.640   4.951
20479SOL    HW161781   9.268   7.550   4.995
20479SOL    HW261782   9.275   7.629   4.852
20480SOL     OW61783   7.876   7.872   4.244
20480SOL    HW161784   7.906   7.800   4.182
20480SOL    HW261785   7.837   7.832   4.327
20481SOL     OW61786   9.153   8.935   4.828
20481SOL    HW161787   9.060   8.910   4.801
20481SOL    HW261788   9.179   8.885   4.910
20482SOL     OW61789   7.765   7.995   5.004
20482SOL    HW161790   7.803   7.936   5.076
20482SOL    HW261791   7.805   7.969   4.916
20483SOL     OW61792   8.260   9.034   4.411
20483SOL    HW161793   8.292   9.044   4.317
20483SOL    HW261794   8.181   8.972   4.413
20484SOL     OW61795   8.872   7.662   4.836
20484SOL    HW161796   8.924   7.597   4.891
20484SOL    HW261797   8.823   7.725   4.897
20485SOL     OW61798   8.449   7.482   4.878
20485SOL    HW161799   8.386   7.410   4.847
20485SOL    HW261800   8.542   7.446   4.878
20486SOL     OW61801   8.218   8.778   4.025
20486SOL    HW161802   8.172   8.691   4.042
20486SOL    HW261803   8.309   8.775   4.066
20487SOL     OW61804   8.800   7.500   3.892
20487SOL    HW161805   8.835   7.459   3.808
20487SOL    HW261806   8.710   7.462   3.912
20488SOL     OW61807   8.748   7.901   4.415
20488SOL    HW161808   8.689   7.981   4.419
20488SOL    HW261809   8.763   7.866   4.508
20489SOL     OW61810   9.041   7.669   4.606
20489SOL    HW161811   8.957   7.668   4.660
20489SOL    HW261812   9.043   7.752   4.550
20490SOL     OW61813   7.487   8.525   4.024
20490SOL    HW161814   7.586   8.514   4.015
20490SOL    HW261815   7.447   8.439   4.056
20491SOL     OW61816   7.678   8.076   5.699
20491SOL    HW161817   7.585   8.074   5.736
20491SOL    HW261818   7.679   8.037   5.607
20492SOL     OW61819   7.673   7.723   6.582
20492SOL    HW161820   7.708   7.706   6.674
20492SOL    HW261821   7.585   7.678   6.570
20493SOL     OW61822   7.467   7.816   6.233
20493SOL    HW161823   7.385   7.859   6.272
20493SOL    HW261824   7.439   7.743   6.170
20494SOL     OW61825   8.583   8.151   6.303
20494SOL    HW161826   8.640   8.229   6.278
20494SOL    HW261827   8.523   8.177   6.379
20495SOL     OW61828   9.203   8.055   5.817
20495SOL    HW161829   9.191   8.042   5.718
20495SOL    HW261830   9.173   7.974   5.866
20496SOL     OW61831   8.216   8.592   6.609
20496SOL    HW161832   8.138   8.609   6.669
20496SOL    HW261833   8.250   8.679   6.573
20497SOL     OW61834   8.298   8.246   7.409
20497SOL    HW161835   8.294   8.322   7.474
20497SOL    HW261836   8.320   8.282   7.318
20498SOL     OW61837   8.133   8.460   6.251
20498SOL    HW161838   8.202   8.444   6.321
20498SOL    HW261839   8.060   8.517   6.289
20499SOL     OW61840   8.134   8.609   7.389
20499SOL    HW161841   8.194   8.688   7.403
20499SOL    HW261842   8.048   8.640   7.348
20500SOL     OW61843   7.886   7.840   7.085
20500SOL    HW161844   7.968   7.784   7.094
20500SOL    HW261845   7.805   7.782   7.089
20501SOL     OW61846   9.051   7.895   6.323
20501SOL    HW161847   8.977   7.941   6.273
20501SOL    HW261848   9.102   7.963   6.376
20502SOL     OW61849   8.575   8.789   7.276
20502SOL    HW161850   8.622   8.789   7.364
20502SOL    HW261851   8.527   8.702   7.265
20503SOL     OW61852   7.688   8.539   6.472
20503SOL    HW161853   7.702   8.455   6.524
20503SOL    HW261854   7.633   8.603   6.527
20504SOL     OW61855   8.054   8.412   5.709
20504SOL    HW161856   8.061   8.496   5.655
20504SOL    HW261857   8.100   8.425   5.797
20505SOL     OW61858   9.042   7.562   7.066
20505SOL    HW161859   9.024   7.629   6.994
20505SOL    HW261860   9.039   7.608   7.155
20506SOL     OW61861   7.570   8.091   6.149
20506SOL    HW161862   7.525   8.003   6.166
20506SOL    HW261863   7.569   8.145   6.233
20507SOL     OW61864   9.137   8.370   6.198
20507SOL    HW161865   9.232   8.341   6.206
20507SOL    HW261866   9.129   8.435   6.123
20508SOL     OW61867   9.089   8.556   6.018
20508SOL    HW161868   9.175   8.558   5.966
20508SOL    HW261869   9.103   8.603   6.106
20509SOL     OW61870   7.561   8.185   7.183
20509SOL    HW161871   7.649   8.172   7.228
20509SOL    HW261872   7.548   8.282   7.161
20510SOL     OW61873   8.061   8.813   6.312
20510SOL    HW161874   8.012   8.726   6.321
20510SOL    HW261875   8.038   8.856   6.225
20511SOL     OW61876   8.741   8.676   7.009
20511SOL    HW161877   8.778   8.603   6.951
20511SOL    HW261878   8.793   8.681   7.094
20512SOL     OW61879   8.257   7.452   6.088
20512SOL    HW161880   8.297   7.543   6.079
20512SOL    HW261881   8.157   7.460   6.094
20513SOL     OW61882   7.645   8.424   6.850
20513SOL    HW161883   7.734   8.379   6.836
20513SOL    HW261884   7.572   8.359   6.831
20514SOL     OW61885   8.973   8.447   5.776
20514SOL    HW161886   8.910   8.371   5.789
20514SOL    HW261887   9.021   8.465   5.862
20515SOL     OW61888   7.765   7.699   7.387
20515SOL    HW161889   7.836   7.770   7.393
20515SOL    HW261890   7.677   7.738   7.415
20516SOL     OW61891   8.914   8.865   6.539
20516SOL    HW161892   8.855   8.871   6.619
20516SOL    HW261893   8.899   8.777   6.493
20517SOL     OW61894   8.046   8.177   5.856
20517SOL    HW161895   8.070   8.246   5.788
20517SOL    HW261896   7.968   8.210   5.910
20518SOL     OW61897   8.729   7.793   6.530
20518SOL    HW161898   8.643   7.743   6.517
20518SOL    HW261899   8.791   7.739   6.586
20519SOL     OW61900   8.255   8.053   7.051
20519SOL    HW161901   8.208   8.050   7.140
20519SOL    HW261902   8.204   7.998   6.985
20520SOL     OW61903   8.842   7.917   7.260
20520SOL    HW161904   8.822   7.960   7.348
20520SOL    HW261905   8.920   7.855   7.269
20521SOL     OW61906   8.421   8.338   7.158
20521SOL    HW161907   8.467   8.254   7.129
20521SOL    HW261908   8.365   8.372   7.083
20522SOL     OW61909   8.439   7.858   6.828
20522SOL    HW161910   8.362   7.892   6.882
20522SOL    HW261911   8.405   7.807   6.749
20523SOL     OW61912   8.489   8.149   6.015
20523SOL    HW161913   8.515   8.145   6.111
20523SOL    HW261914   8.404   8.098   6.001
20524SOL     OW61915   7.524   8.259   6.375
20524SOL    HW161916   7.623   8.247   6.384
20524SOL    HW261917   7.500   8.354   6.396
20525SOL     OW61918   8.313   7.796   5.781
20525SOL    HW161919   8.372   7.859   5.732
20525SOL    HW261920   8.332   7.702   5.752
20526SOL     OW61921   9.167   8.033   7.417
20526SOL    HW161922   9.141   8.122   7.381
20526SOL    HW261923   9.165   7.965   7.344
20527SOL     OW61924   8.810   8.592   6.131
20527SOL    HW161925   8.893   8.563   6.083
20527SOL    HW261926   8.761   8.659   6.075
20528SOL     OW61927   7.998   7.644   6.471
20528SOL    HW161928   7.993   7.639   6.571
20528SOL    HW261929   8.000   7.740   6.442
20529SOL     OW61930   9.243   8.514   6.459
20529SOL    HW161931   9.181   8.499   6.383
20529SOL    HW261932   9.191   8.525   6.544
20530SOL     OW61933   8.675   8.998   7.092
20530SOL    HW161934   8.681   8.921   7.156
20530SOL    HW261935   8.623   8.972   7.012
20531SOL     OW61936   7.769   8.391   5.828
20531SOL    HW161937   7.851   8.430   5.786
20531SOL    HW261938   7.742   8.309   5.779
20532SOL     OW61939   8.906   8.183   6.314
20532SOL    HW161940   8.901   8.118   6.389
20532SOL    HW261941   8.986   8.242   6.327
20533SOL     OW61942   7.909   8.714   7.313
20533SOL    HW161943   7.859   8.715   7.227
20533SOL    HW261944   7.846   8.696   7.389
20534SOL     OW61945   7.650   7.733   7.084
20534SOL    HW161946   7.570   7.793   7.071
20534SOL    HW261947   7.640   7.684   7.170
20535SOL     OW61948   8.848   7.555   6.012
20535SOL    HW161949   8.824   7.518   5.922
20535SOL    HW261950   8.947   7.571   6.016
20536SOL     OW61951   7.830   8.148   6.066
20536SOL    HW161952   7.875   8.058   6.063
20536SOL    HW261953   7.736   8.137   6.099
20537SOL     OW61954   8.995   7.670   7.315
20537SOL    HW161955   8.990   7.707   7.407
20537SOL    HW261956   8.923   7.601   7.303
20538SOL     OW61957   8.062   7.570   5.703
20538SOL    HW161958   8.160   7.548   5.710
20538SOL    HW261959   8.031   7.553   5.610
20539SOL     OW61960   8.229   7.712   7.335
20539SOL    HW161961   8.296   7.651   7.378
20539SOL    HW261962   8.156   7.731   7.400
20540SOL     OW61963   8.799   8.038   7.019
20540SOL    HW161964   8.827   7.995   7.104
20540SOL    HW261965   8.824   8.134   7.020
20541SOL     OW61966   8.251   8.850   6.510
20541SOL    HW161967   8.341   8.864   6.468
20541SOL    HW261968   8.180   8.852   6.439
20542SOL     OW61969   8.370   7.951   6.485
20542SOL    HW161970   8.345   7.942   6.389
20542SOL    HW261971   8.418   7.869   6.516
20543SOL     OW61972   7.987   7.512   6.098
20543SOL    HW161973   7.906   7.513   6.156
20543SOL    HW261974   7.990   7.595   6.043
20544SOL     OW61975   8.882   8.636   5.627
20544SOL    HW161976   8.914   8.560   5.684
20544SOL    HW261977   8.790   8.663   5.657
20545SOL     OW61978   7.745   7.483   5.757
20545SOL    HW161979   7.794   7.567   5.736
20545SOL    HW261980   7.807   7.418   5.802
20546SOL     OW61981   8.383   7.684   6.066
20546SOL    HW161982   8.335   7.725   5.988
20546SOL    HW261983   8.482   7.682   6.047
20547SOL     OW61984   8.524   8.131   7.050
20547SOL    HW161985   8.444   8.070   7.053
20547SOL    HW261986   8.605   8.078   7.026
20548SOL     OW61987   7.907   8.600   6.327
20548SOL    HW161988   7.836   8.573   6.392
20548SOL    HW261989   7.881   8.572   6.234
20549SOL     OW61990   8.480   7.997   5.602
20549SOL    HW161991   8.439   8.079   5.563
20549SOL    HW261992   8.544   8.023   5.675
20550SOL     OW61993   7.526   8.004   6.972
20550SOL    HW161994   7.618   8.003   6.931
20550SOL    HW261995   7.520   8.078   7.039
20551SOL     OW61996   8.009   7.670   6.733
20551SOL    HW161997   8.047   7.586   6.770
20551SOL    HW261998   7.921   7.689   6.777
20552SOL     OW61999   8.314   7.902   6.228
20552SOL    HW162000   8.282   7.974   6.166
20552SOL    HW262001   8.338   7.821   6.175
20553SOL     OW62002   8.465   7.487   6.339
20553SOL    HW162003   8.393   7.492   6.270
20553SOL    HW262004   8.441   7.418   6.408
20554SOL     OW62005   8.877   8.621   6.453
20554SOL    HW162006   8.822   8.537   6.446
20554SOL    HW262007   8.903   8.650   6.361
20555SOL     OW62008   8.914   8.038   6.578
20555SOL    HW162009   8.884   7.943   6.585
20555SOL    HW262010   8.987   8.054   6.644
20556SOL     OW62011   9.305   8.281   5.963
20556SOL    HW162012   9.347   8.217   6.027
20556SOL    HW262013   9.267   8.230   5.885
20557SOL     OW62014   7.936   8.833   5.760
20557SOL    HW162015   7.849   8.818   5.807
20557SOL    HW262016   7.919   8.859   5.665
20558SOL     OW62017   8.838   8.023   5.664
20558SOL    HW162018   8.784   8.002   5.745
20558SOL    HW262019   8.929   7.982   5.673
20559SOL     OW62020   7.975   7.704   5.914
20559SOL    HW162021   8.002   7.645   5.839
20559SOL    HW262022   7.975   7.799   5.883
20560SOL     OW62023   8.512   8.795   6.926
20560SOL    HW162024   8.432   8.772   6.981
20560SOL    HW262025   8.595   8.769   6.975
20561SOL     OW62026   8.559   8.643   6.686
20561SOL    HW162027   8.519   8.687   6.767
20561SOL    HW262028   8.518   8.680   6.603
20562SOL     OW62029   9.086   8.547   6.665
20562SOL    HW162030   9.091   8.628   6.724
20562SOL    HW262031   9.000   8.549   6.614
20563SOL     OW62032   8.363   7.537   6.988
20563SOL    HW162033   8.388   7.517   6.893
20563SOL    HW262034   8.435   7.593   7.030
20564SOL     OW62035   8.428   8.564   7.305
20564SOL    HW162036   8.329   8.570   7.315
20564SOL    HW262037   8.451   8.484   7.249
20565SOL     OW62038   8.153   8.498   5.954
20565SOL    HW162039   8.139   8.505   6.053
20565SOL    HW262040   8.237   8.447   5.936
20566SOL     OW62041   7.858   8.261   6.837
20566SOL    HW162042   7.944   8.273   6.887
20566SOL    HW262043   7.816   8.174   6.864
20567SOL     OW62044   8.722   7.834   6.848
20567SOL    HW162045   8.743   7.908   6.912
20567SOL    HW262046   8.633   7.851   6.805
20568SOL     OW62047   7.815   8.548   6.087
20568SOL    HW162048   7.808   8.631   6.031
20568SOL    HW262049   7.819   8.468   6.027
20569SOL     OW62050   8.014   7.985   6.451
20569SOL    HW162051   8.026   8.051   6.377
20569SOL    HW262052   8.060   8.019   6.534
20570SOL     OW62053   8.700   8.796   5.974
20570SOL    HW162054   8.750   8.873   6.014
20570SOL    HW262055   8.605   8.798   6.006
20571SOL     OW62056   9.030   8.087   6.058
20571SOL    HW162057   8.999   8.148   6.131
20571SOL    HW262058   9.080   8.139   5.989
20572SOL     OW62059   7.850   8.199   7.184
20572SOL    HW162060   7.918   8.254   7.137
20572SOL    HW262061   7.890   8.111   7.211
20573SOL     OW62062   9.035   8.227   7.256
20573SOL    HW162063   8.943   8.265   7.251
20573SOL    HW262064   9.095   8.274   7.191
20574SOL     OW62065   8.461   7.553   7.356
20574SOL    HW162066   8.467   7.638   7.304
20574SOL    HW262067   8.493   7.477   7.299
20575SOL     OW62068   7.952   7.498   7.326
20575SOL    HW162069   7.910   7.441   7.256
20575SOL    HW262070   7.886   7.567   7.358
20576SOL     OW62071   8.021   8.318   6.615
20576SOL    HW162072   8.065   8.407   6.606
20576SOL    HW262073   7.958   8.318   6.692
20577SOL     OW62074   8.808   8.310   6.631
20577SOL    HW162075   8.733   8.310   6.565
20577SOL    HW262076   8.845   8.218   6.640
20578SOL     OW62077   8.657   7.973   5.861
20578SOL    HW162078   8.670   7.889   5.915
20578SOL    HW262079   8.628   8.047   5.921
20579SOL     OW62080   7.755   7.661   6.817
20579SOL    HW162081   7.732   7.698   6.907
20579SOL    HW262082   7.725   7.566   6.811
20580SOL     OW62083   7.485   8.758   6.868
20580SOL    HW162084   7.538   8.709   6.936
20580SOL    HW262085   7.507   8.856   6.873
20581SOL     OW62086   8.180   8.082   6.650
20581SOL    HW162087   8.239   8.056   6.574
20581SOL    HW262088   8.152   8.178   6.639
20582SOL     OW62089   9.176   8.383   7.440
20582SOL    HW162090   9.130   8.376   7.351
20582SOL    HW262091   9.114   8.427   7.506
20583SOL     OW62092   7.755   7.511   6.204
20583SOL    HW162093   7.744   7.605   6.237
20583SOL    HW262094   7.750   7.448   6.281
20584SOL     OW62095   9.070   7.815   5.960
20584SOL    HW162096   9.072   7.739   6.024
20584SOL    HW262097   9.022   7.892   6.000
20585SOL     OW62098   8.471   8.214   6.552
20585SOL    HW162099   8.486   8.235   6.648
20585SOL    HW262100   8.441   8.119   6.543
20586SOL     OW62101   7.798   8.346   7.390
20586SOL    HW162102   7.874   8.390   7.438
20586SOL    HW262103   7.833   8.299   7.308
20587SOL     OW62104   8.988   7.722   5.711
20587SOL    HW162105   8.927   7.647   5.734
20587SOL    HW262106   9.010   7.774   5.794
20588SOL     OW62107   8.751   8.286   5.628
20588SOL    HW162108   8.785   8.193   5.643
20588SOL    HW262109   8.769   8.313   5.533
20589SOL     OW62110   8.516   8.781   6.435
20589SOL    HW162111   8.523   8.697   6.380
20589SOL    HW262112   8.578   8.850   6.399
20590SOL     OW62113   7.767   8.258   6.535
20590SOL    HW162114   7.860   8.294   6.540
20590SOL    HW262115   7.761   8.173   6.587
20591SOL     OW62116   7.787   7.957   6.592
20591SOL    HW162117   7.735   7.874   6.575
20591SOL    HW262118   7.864   7.962   6.528
20592SOL     OW62119   8.586   7.828   7.264
20592SOL    HW162120   8.541   7.891   7.328
20592SOL    HW262121   8.679   7.859   7.247
20593SOL     OW62122   8.608   7.655   7.063
20593SOL    HW162123   8.608   7.719   7.140
20593SOL    HW262124   8.636   7.703   6.980
20594SOL     OW62125   7.456   8.774   5.786
20594SOL    HW162126   7.363   8.795   5.755
20594SOL    HW262127   7.466   8.675   5.799
20595SOL     OW62128   8.450   8.244   6.824
20595SOL    HW162129   8.491   8.212   6.910
20595SOL    HW262130   8.354   8.217   6.821
20596SOL     OW62131   7.488   7.992   6.700
20596SOL    HW162132   7.573   7.959   6.659
20596SOL    HW262133   7.501   8.007   6.798
20597SOL     OW62134   7.637   7.968   7.308
20597SOL    HW162135   7.696   7.928   7.238
20597SOL    HW262136   7.579   8.039   7.267
20598SOL     OW62137   8.817   8.398   7.246
20598SOL    HW162138   8.856   8.487   7.266
20598SOL    HW262139   8.827   8.378   7.149
20599SOL     OW62140   8.263   8.020   5.911
20599SOL    HW162141   8.270   7.931   5.865
20599SOL    HW262142   8.169   8.054   5.903
20600SOL     OW62143   9.105   8.052   6.792
20600SOL    HW162144   9.067   7.983   6.854
20600SOL    HW262145   9.187   8.016   6.748
20601SOL     OW62146   8.119   7.912   6.855
20601SOL    HW162147   8.085   7.823   6.825
20601SOL    HW262148   8.145   7.966   6.775
20602SOL     OW62149   7.921   7.948   5.777
20602SOL    HW162150   7.982   8.028   5.781
20602SOL    HW262151   7.826   7.979   5.784
20603SOL     OW62152   7.607   8.585   7.052
20603SOL    HW162153   7.629   8.524   7.128
20603SOL    HW262154   7.617   8.536   6.966
20604SOL     OW62155   8.795   8.507   6.820
20604SOL    HW162156   8.819   8.444   6.746
20604SOL    HW262157   8.705   8.547   6.802
20605SOL     OW62158   8.750   8.303   5.895
20605SOL    HW162159   8.664   8.272   5.937
20605SOL    HW262160   8.746   8.289   5.796
20606SOL     OW62161   7.531   8.706   6.608
20606SOL    HW162162   7.526   8.705   6.708
20606SOL    HW262163   7.448   8.665   6.570
20607SOL     OW62164   9.174   7.583   6.109
20607SOL    HW162165   9.247   7.566   6.042
20607SOL    HW262166   9.143   7.496   6.147
20608SOL     OW62167   8.728   8.375   6.258
20608SOL    HW162168   8.788   8.294   6.260
20608SOL    HW262169   8.768   8.444   6.198
20609SOL     OW62170   8.278   8.721   7.008
20609SOL    HW162171   8.273   8.754   7.103
20609SOL    HW262172   8.192   8.740   6.962
20610SOL     OW62173   9.289   7.623   6.549
20610SOL    HW162174   9.328   7.538   6.513
20610SOL    HW262175   9.191   7.625   6.530
20611SOL     OW62176   7.711   7.774   6.306
20611SOL    HW162177   7.632   7.825   6.272
20611SOL    HW262178   7.702   7.759   6.404
20612SOL     OW62179   8.642   9.060   5.617
20612SOL    HW162180   8.648   8.967   5.654
20612SOL    HW262181   8.583   9.060   5.537
20613SOL     OW62182   8.270   8.450   6.958
20613SOL    HW162183   8.310   8.449   6.866
20613SOL    HW262184   8.280   8.542   6.998
20614SOL     OW62185   8.364   8.358   5.877
20614SOL    HW162186   8.427   8.396   5.809
20614SOL    HW262187   8.404   8.275   5.916
20615SOL     OW62188   7.820   8.736   7.076
20615SOL    HW162189   7.807   8.829   7.042
20615SOL    HW262190   7.736   8.684   7.063
20616SOL     OW62191   9.062   8.740   6.875
20616SOL    HW162192   9.122   8.743   6.955
20616SOL    HW262193   8.987   8.804   6.888
20617SOL     OW62194   8.487   8.546   6.282
20617SOL    HW162195   8.417   8.499   6.336
20617SOL    HW262196   8.546   8.478   6.239
20618SOL     OW62197   8.462   7.684   6.557
20618SOL    HW162198   8.454   7.648   6.464
20618SOL    HW262199   8.460   7.608   6.622
20619SOL     OW62200   8.038   8.935   6.077
20619SOL    HW162201   8.080   8.877   6.007
20619SOL    HW262202   7.994   9.014   6.033
20620SOL     OW62203   9.157   7.833   6.967
20620SOL    HW162204   9.230   7.902   6.971
20620SOL    HW262205   9.185   7.758   6.908
20621SOL     OW62206   7.553   8.461   7.312
20621SOL    HW162207   7.476   8.428   7.366
20621SOL    HW262208   7.638   8.431   7.354
20622SOL     OW62209   8.120   7.651   7.075
20622SOL    HW162210   8.210   7.635   7.035
20622SOL    HW262211   8.128   7.656   7.174
20623SOL     OW62212   7.523   7.793   5.619
20623SOL    HW162213   7.431   7.765   5.590
20623SOL    HW262214   7.554   7.870   5.563
20624SOL     OW62215   8.888   8.304   6.984
20624SOL    HW162216   8.831   8.356   6.921
20624SOL    HW262217   8.984   8.316   6.960
20625SOL     OW62218   7.520   7.614   5.904
20625SOL    HW162219   7.503   7.697   5.850
20625SOL    HW262220   7.610   7.577   5.882
20626SOL     OW62221   8.631   8.783   5.705
20626SOL    HW162222   8.532   8.772   5.707
20626SOL    HW262223   8.665   8.798   5.798
20627SOL     OW62224   8.061   8.290   7.017
20627SOL    HW162225   8.117   8.371   7.000
20627SOL    HW262226   8.120   8.210   7.020
20628SOL     OW62227   8.164   8.013   7.294
20628SOL    HW162228   8.183   8.078   7.368
20628SOL    HW262229   8.224   7.933   7.303
20629SOL     OW62230   8.898   8.668   7.219
20629SOL    HW162231   8.889   8.658   7.318
20629SOL    HW262232   8.994   8.661   7.193
20630SOL     OW62233   7.838   9.189   7.146
20630SOL    HW162234   7.747   9.230   7.144
20630SOL    HW262235   7.831   9.095   7.178
20631SOL     OW62236   9.122   8.331   6.840
20631SOL    HW162237   9.095   8.242   6.803
20631SOL    HW262238   9.123   8.399   6.767
20632SOL     OW62239   8.673   7.773   6.035
20632SOL    HW162240   8.738   7.699   6.024
20632SOL    HW262241   8.693   7.823   6.119
20633SOL     OW62242   8.042   8.193   6.238
20633SOL    HW162243   8.092   8.278   6.219
20633SOL    HW262244   7.954   8.195   6.190
20634SOL     OW62245   9.225   7.790   7.228
20634SOL    HW162246   9.208   7.821   7.134
20634SOL    HW262247   9.141   7.753   7.266
20635SOL     OW62248   9.178   8.382   7.103
20635SOL    HW162249   9.216   8.473   7.118
20635SOL    HW262250   9.170   8.365   7.004
20636SOL     OW62251   8.307   8.404   6.447
20636SOL    HW162252   8.361   8.335   6.495
20636SOL    HW262253   8.275   8.473   6.513
20637SOL     OW62254   8.531   8.432   5.673
20637SOL    HW162255   8.508   8.485   5.591
20637SOL    HW262256   8.612   8.376   5.654
20638SOL     OW62257   7.669   8.762   7.430
20638SOL    HW162258   7.604   8.689   7.409
20638SOL    HW262259   7.673   8.776   7.528
20639SOL     OW62260   7.527   8.688   6.239
20639SOL    HW162261   7.526   8.641   6.327
20639SOL    HW262262   7.609   8.660   6.188
20640SOL     OW62263   8.120   8.839   7.210
20640SOL    HW162264   8.042   8.789   7.248
20640SOL    HW262265   8.117   8.934   7.241
20641SOL     OW62266   9.272   7.640   6.813
20641SOL    HW162267   9.268   7.550   6.857
20641SOL    HW262268   9.275   7.629   6.714
20642SOL     OW62269   7.876   7.872   6.106
20642SOL    HW162270   7.906   7.800   6.044
20642SOL    HW262271   7.837   7.832   6.189
20643SOL     OW62272   9.153   8.935   6.690
20643SOL    HW162273   9.060   8.910   6.663
20643SOL    HW262274   9.179   8.885   6.772
20644SOL     OW62275   7.765   7.995   6.866
20644SOL    HW162276   7.803   7.936   6.938
20644SOL    HW262277   7.805   7.969   6.778
20645SOL     OW62278   8.260   9.034   6.273
20645SOL    HW162279   8.292   9.044   6.179
20645SOL    HW262280   8.181   8.972   6.275
20646SOL     OW62281   8.872   7.662   6.698
20646SOL    HW162282   8.924   7.597   6.753
20646SOL    HW262283   8.823   7.725   6.759
20647SOL     OW62284   8.449   7.482   6.740
20647SOL    HW162285   8.386   7.410   6.709
20647SOL    HW262286   8.542   7.446   6.740
20648SOL     OW62287   8.218   8.778   5.887
20648SOL    HW162288   8.172   8.691   5.904
20648SOL    HW262289   8.309   8.775   5.928
20649SOL     OW62290   8.800   7.500   5.754
20649SOL    HW162291   8.835   7.459   5.670
20649SOL    HW262292   8.710   7.462   5.774
20650SOL     OW62293   8.748   7.901   6.277
20650SOL    HW162294   8.689   7.981   6.281
20650SOL    HW262295   8.763   7.866   6.370
20651SOL     OW62296   9.041   7.669   6.468
20651SOL    HW162297   8.957   7.668   6.522
20651SOL    HW262298   9.043   7.752   6.412
20652SOL     OW62299   7.487   8.525   5.886
20652SOL    HW162300   7.586   8.514   5.877
20652SOL    HW262301   7.447   8.439   5.918
20653SOL     OW62302   7.678   8.076   7.561
20653SOL    HW162303   7.585   8.074   7.598
20653SOL    HW262304   7.679   8.037   7.469
20654SOL     OW62305   9.203   8.055   7.679
20654SOL    HW162306   9.191   8.042   7.580
20654SOL    HW262307   9.173   7.974   7.728
20655SOL     OW62308   8.973   8.447   7.638
20655SOL    HW162309   8.910   8.371   7.651
20655SOL    HW262310   9.021   8.465   7.724
20656SOL     OW62311   8.046   8.177   7.718
20656SOL    HW162312   8.070   8.246   7.650
20656SOL    HW262313   7.968   8.210   7.772
20657SOL     OW62314   8.313   7.796   7.643
20657SOL    HW162315   8.372   7.859   7.594
20657SOL    HW262316   8.332   7.702   7.614
20658SOL     OW62317   9.080   8.825   7.529
20658SOL    HW162318   9.048   8.919   7.519
20658SOL    HW262319   9.004   8.762   7.517
20659SOL     OW62320   8.062   7.570   7.565
20659SOL    HW162321   8.160   7.548   7.572
20659SOL    HW262322   8.031   7.553   7.472
20660SOL     OW62323   8.882   8.636   7.489
20660SOL    HW162324   8.914   8.560   7.546
20660SOL    HW262325   8.790   8.663   7.519
20661SOL     OW62326   8.480   7.997   7.464
20661SOL    HW162327   8.439   8.079   7.425
20661SOL    HW262328   8.544   8.023   7.537
20662SOL     OW62329   7.936   8.833   7.622
20662SOL    HW162330   7.849   8.818   7.669
20662SOL    HW262331   7.919   8.859   7.527
20663SOL     OW62332   8.838   8.023   7.526
20663SOL    HW162333   8.784   8.002   7.607
20663SOL    HW262334   8.929   7.982   7.535
20664SOL     OW62335   8.657   7.973   7.723
20664SOL    HW162336   8.670   7.889   7.777
20664SOL    HW262337   8.628   8.047   7.783
20665SOL     OW62338   8.751   8.286   7.490
20665SOL    HW162339   8.785   8.193   7.505
20665SOL    HW262340   8.769   8.313   7.395
20666SOL     OW62341   8.642   9.060   7.479
20666SOL    HW162342   8.648   8.967   7.516
20666SOL    HW262343   8.583   9.060   7.399
20667SOL     OW62344   7.523   7.793   7.481
20667SOL    HW162345   7.431   7.765   7.452
20667SOL    HW262346   7.554   7.870   7.425
20668SOL     OW62347   8.631   8.783   7.567
20668SOL    HW162348   8.532   8.772   7.569
20668SOL    HW262349   8.665   8.798   7.660
20669SOL     OW62350   8.531   8.432   7.535
20669SOL    HW162351   8.508   8.485   7.453
20669SOL    HW262352   8.612   8.376   7.516
20670SOL     OW62353   8.800   7.500   7.616
20670SOL    HW162354   8.835   7.459   7.532
20670SOL    HW262355   8.710   7.462   7.636
20671SOL     OW62356   7.487   8.525   7.748
20671SOL    HW162357   7.586   8.514   7.739
20671SOL    HW262358   7.447   8.439   7.780
20672SOL     OW62359   8.323   9.094   7.785
20672SOL    HW162360   8.246   9.059   7.731
20672SOL    HW262361   8.291   9.165   7.847
   9.43508   8.89547   7.70371   0.00000   0.00000   3.14503   0.00000  -3.14503   4.44774
