Great Red Oystrich Makes All Chemists Sane
  417
    1ASP      N    1   6.802   6.968   1.651
    1ASP     H1    2   6.896   6.951   1.623
    1ASP     H2    3   6.742   6.961   1.571
    1ASP     H3    4   6.795   7.060   1.689
    1ASP     CA    5   6.761   6.869   1.751
    1ASP     HA    6   6.765   6.778   1.711
    1ASP     CB    7   6.859   6.872   1.869
    1ASP    HB1    8   6.840   6.952   1.926
    1ASP    HB2    9   6.953   6.877   1.834
    1ASP     CG   10   6.842   6.746   1.952
    1ASP    OD1   11   6.807   6.644   1.888
    1ASP    OD2   12   6.859   6.756   2.075
    1ASP      C   13   6.618   6.899   1.791
    1ASP      O   14   6.586   7.012   1.826
    2SER      N   15   6.528   6.806   1.760
    2SER     HN   16   6.561   6.712   1.746
    2SER     CA   17   6.385   6.832   1.747
    2SER     HA   18   6.377   6.911   1.687
    2SER     CB   19   6.317   6.711   1.684
    2SER    HB1   20   6.217   6.721   1.685
    2SER    HB2   21   6.341   6.626   1.732
    2SER     OG   22   6.359   6.700   1.550
    2SER    HG1   23   6.315   6.621   1.507
    2SER      C   24   6.323   6.868   1.882
    2SER      O   25   6.295   6.782   1.964
    3HIS      N   26   6.290   6.997   1.896
    3HIS     HN   27   6.332   7.059   1.829
    3HIS     CA   28   6.203   7.060   1.995
    3HIS     HA   29   6.240   7.035   2.085
    3HIS     CB   30   6.210   7.213   1.971
    3HIS    HB1   31   6.119   7.247   1.951
    3HIS    HB2   32   6.270   7.231   1.893
    3HIS    ND1   33   6.246   7.267   2.221
    3HIS     CG   34   6.264   7.293   2.087
    3HIS    CE1   35   6.311   7.362   2.290
    3HIS    HE1   36   6.315   7.367   2.390
    3HIS    NE2   37   6.367   7.450   2.206
    3HIS    HE2   38   6.420   7.531   2.232
    3HIS    CD2   39   6.338   7.407   2.077
    3HIS    HD2   40   6.367   7.452   1.992
    3HIS      C   41   6.058   7.008   1.993
    3HIS      O   42   5.961   7.081   2.014
    4ALA      N   43   6.039   6.880   1.963
    4ALA     HN   44   6.119   6.820   1.959
    4ALA     CA   45   5.910   6.822   1.937
    4ALA     HA   46   5.842   6.868   1.995
    4ALA     CB   47   5.876   6.845   1.789
    4ALA    HB1   48   5.875   6.943   1.770
    4ALA    HB2   49   5.944   6.800   1.732
    4ALA    HB3   50   5.785   6.807   1.769
    4ALA      C   51   5.912   6.675   1.976
    4ALA      O   52   5.960   6.591   1.899
    5LYS      N   53   5.847   6.647   2.088
    5LYS     HN   54   5.865   6.706   2.167
    5LYS     CA   55   5.750   6.538   2.109
    5LYS     HA   56   5.665   6.589   2.124
    5LYS     CB   57   5.729   6.447   1.985
    5LYS    HB1   58   5.674   6.368   2.012
    5LYS    HB2   59   5.818   6.416   1.953
    5LYS     CG   60   5.657   6.521   1.870
    5LYS    HG1   61   5.694   6.613   1.863
    5LYS    HG2   62   5.559   6.525   1.891
    5LYS     CD   63   5.673   6.452   1.734
    5LYS    HD1   64   5.770   6.436   1.716
    5LYS    HD2   65   5.625   6.364   1.735
    5LYS     CE   66   5.615   6.541   1.622
    5LYS    HE1   67   5.667   6.626   1.618
    5LYS    HE2   68   5.519   6.561   1.642
    5LYS     NZ   69   5.621   6.476   1.489
    5LYS    HZ1   70   5.583   6.537   1.420
    5LYS    HZ2   71   5.717   6.456   1.466
    5LYS    HZ3   72   5.569   6.390   1.491
    5LYS      C   73   5.779   6.457   2.236
    5LYS      O   74   5.860   6.366   2.238
    6ARG      N   75   5.692   6.481   2.334
    6ARG     HN   76   5.666   6.577   2.351
    6ARG     CA   77   5.631   6.378   2.419
    6ARG     HA   78   5.563   6.431   2.469
    6ARG     CB   79   5.574   6.265   2.329
    6ARG    HB1   80   5.534   6.196   2.389
    6ARG    HB2   81   5.650   6.225   2.278
    6ARG     CG   82   5.467   6.302   2.227
    6ARG    HG1   83   5.496   6.382   2.174
    6ARG    HG2   84   5.381   6.322   2.274
    6ARG     CD   85   5.450   6.180   2.135
    6ARG    HD1   86   5.447   6.097   2.190
    6ARG    HD2   87   5.526   6.176   2.071
    6ARG     NE   88   5.325   6.189   2.058
    6ARG     HE   89   5.257   6.255   2.090
    6ARG     CZ   90   5.295   6.118   1.950
    6ARG    NH1   91   5.381   6.039   1.892
    6ARG   HH11   92   5.473   6.030   1.929
    6ARG   HH12   93   5.354   5.987   1.811
    6ARG    NH2   94   5.175   6.126   1.899
    6ARG   HH21   95   5.107   6.186   1.941
    6ARG   HH22   96   5.152   6.073   1.818
    6ARG      C   97   5.721   6.314   2.524
    6ARG      O   98   5.743   6.195   2.515
    7HIS      N   99   5.760   6.383   2.631
    7HIS     HN  100   5.762   6.483   2.628
    7HIS     CA  101   5.800   6.314   2.754
    7HIS     HA  102   5.757   6.224   2.750
    7HIS     CB  103   5.953   6.288   2.757
    7HIS    HB1  104   5.985   6.299   2.851
    7HIS    HB2  105   5.997   6.355   2.698
    7HIS    ND1  106   5.968   6.090   2.588
    7HIS     CG  107   5.994   6.149   2.710
    7HIS    CE1  108   6.012   5.964   2.588
    7HIS    HE1  109   6.002   5.899   2.512
    7HIS    NE2  110   6.071   5.938   2.705
    7HIS    HE2  111   6.114   5.851   2.732
    7HIS    CD2  112   6.062   6.054   2.782
    7HIS    HD2  113   6.100   6.066   2.874
    7HIS      C  114   5.743   6.384   2.879
    7HIS      O  115   5.797   6.480   2.931
    8HIS      N  116   5.628   6.334   2.926
    8HIS     HN  117   5.558   6.307   2.859
    8HIS     CA  118   5.598   6.318   3.069
    8HIS     HA  119   5.499   6.302   3.063
    8HIS     CB  120   5.680   6.198   3.120
    8HIS    HB1  121   5.675   6.195   3.220
    8HIS    HB2  122   5.776   6.209   3.092
    8HIS    ND1  123   5.502   6.019   3.084
    8HIS     CG  124   5.629   6.068   3.065
    8HIS    CE1  125   5.494   5.900   3.023
    8HIS    HE1  126   5.413   5.841   3.021
    8HIS    NE2  127   5.611   5.871   2.965
    8HIS    HE2  128   5.631   5.788   2.911
    8HIS    CD2  129   5.699   5.976   2.991
    8HIS    HD2  130   5.794   5.983   2.962
    8HIS      C  131   5.595   6.437   3.167
    8HIS      O  132   5.620   6.418   3.285
    9GLY      N  133   5.550   6.556   3.126
    9GLY     HN  134   5.535   6.572   3.028
    9GLY     CA  135   5.523   6.665   3.222
    9GLY    HA1  136   5.586   6.653   3.298
    9GLY    HA2  137   5.544   6.751   3.175
    9GLY      C  138   5.380   6.673   3.277
    9GLY      O  139   5.357   6.735   3.381
   10TYR      N  140   5.281   6.612   3.212
   10TYR     HN  141   5.305   6.547   3.139
   10TYR     CA  142   5.139   6.635   3.241
   10TYR     HA  143   5.136   6.732   3.264
   10TYR     CB  144   5.053   6.607   3.117
   10TYR    HB1  145   5.089   6.661   3.041
   10TYR    HB2  146   4.959   6.636   3.136
   10TYR     CG  147   5.050   6.462   3.075
   10TYR    CD1  148   5.139   6.415   2.976
   10TYR    HD1  149   5.203   6.479   2.933
   10TYR    CE1  150   5.137   6.280   2.937
   10TYR    HE1  151   5.200   6.247   2.866
   10TYR     CZ  152   5.046   6.191   2.998
   10TYR     OH  153   5.045   6.060   2.963
   10TYR     HH  154   4.975   6.012   3.016
   10TYR    CD2  155   4.958   6.373   3.134
   10TYR    HD2  156   4.894   6.406   3.204
   10TYR    CE2  157   4.957   6.237   3.097
   10TYR    HE2  158   4.893   6.174   3.140
   10TYR      C  159   5.085   6.563   3.367
   10TYR      O  160   4.966   6.571   3.396
   11LYS      N  161   5.171   6.497   3.446
   11LYS     HN  162   5.265   6.484   3.415
   11LYS     CA  163   5.132   6.443   3.578
   11LYS     HA  164   5.037   6.413   3.567
   11LYS     CB  165   5.215   6.319   3.616
   11LYS    HB1  166   5.200   6.300   3.713
   11LYS    HB2  167   5.312   6.340   3.601
   11LYS     CG  168   5.178   6.194   3.535
   11LYS    HG1  169   5.212   6.204   3.441
   11LYS    HG2  170   5.079   6.184   3.534
   11LYS     CD  171   5.242   6.070   3.599
   11LYS    HD1  172   5.341   6.080   3.598
   11LYS    HD2  173   5.210   6.062   3.694
   11LYS     CE  174   5.203   5.943   3.523
   11LYS    HE1  175   5.234   5.950   3.428
   11LYS    HE2  176   5.104   5.932   3.525
   11LYS     NZ  177   5.265   5.821   3.583
   11LYS    HZ1  178   5.237   5.741   3.531
   11LYS    HZ2  179   5.364   5.830   3.581
   11LYS    HZ3  180   5.234   5.812   3.678
   11LYS      C  181   5.135   6.552   3.685
   11LYS      O  182   5.194   6.533   3.792
   12ARG      N  183   5.068   6.665   3.661
   12ARG     HN  184   5.036   6.683   3.568
   12ARG     CA  185   5.039   6.762   3.767
   12ARG     HA  186   5.120   6.776   3.824
   12ARG     CB  187   5.009   6.900   3.705
   12ARG    HB1  188   4.910   6.913   3.699
   12ARG    HB2  189   5.048   6.904   3.613
   12ARG     CG  190   5.069   7.013   3.789
   12ARG    HG1  191   5.169   7.009   3.782
   12ARG    HG2  192   5.042   6.999   3.885
   12ARG     CD  193   5.023   7.153   3.746
   12ARG    HD1  194   5.047   7.168   3.650
   12ARG    HD2  195   5.067   7.222   3.803
   12ARG     NE  196   4.877   7.169   3.759
   12ARG     HE  197   4.823   7.086   3.772
   12ARG     CZ  198   4.809   7.282   3.755
   12ARG    NH1  199   4.868   7.398   3.742
   12ARG   HH11  200   4.967   7.403   3.735
   12ARG   HH12  201   4.813   7.482   3.740
   12ARG    NH2  202   4.679   7.281   3.765
   12ARG   HH21  203   4.630   7.195   3.775
   12ARG   HH22  204   4.628   7.367   3.762
   12ARG      C  205   4.928   6.703   3.855
   12ARG      O  206   4.811   6.736   3.840
   13LYS      N  207   4.964   6.605   3.939
   13LYS     HN  208   5.061   6.583   3.944
   13LYS     CA  209   4.873   6.529   4.026
   13LYS     HA  210   4.791   6.507   3.973
   13LYS     CB  211   4.940   6.395   4.065
   13LYS    HB1  212   4.999   6.411   4.144
   13LYS    HB2  213   4.995   6.363   3.988
   13LYS     CG  214   4.840   6.283   4.103
   13LYS    HG1  215   4.787   6.259   4.021
   13LYS    HG2  216   4.778   6.318   4.173
   13LYS     CD  217   4.910   6.157   4.155
   13LYS    HD1  218   4.983   6.131   4.092
   13LYS    HD2  219   4.950   6.177   4.245
   13LYS     CE  220   4.812   6.040   4.169
   13LYS    HE1  221   4.788   6.005   4.078
   13LYS    HE2  222   4.729   6.071   4.216
   13LYS     NZ  223   4.869   5.927   4.247
   13LYS    HZ1  224   4.802   5.853   4.253
   13LYS    HZ2  225   4.952   5.893   4.201
   13LYS    HZ3  226   4.893   5.958   4.339
   13LYS      C  227   4.827   6.615   4.145
   13LYS      O  228   4.848   6.578   4.259
   14PHE      N  229   4.767   6.730   4.117
   14PHE     HN  230   4.770   6.764   4.023
   14PHE     CA  231   4.695   6.811   4.216
   14PHE     HA  232   4.748   6.810   4.301
   14PHE     CB  233   4.685   6.958   4.169
   14PHE    HB1  234   4.597   6.995   4.199
   14PHE    HB2  235   4.690   6.960   4.069
   14PHE     CG  236   4.793   7.049   4.222
   14PHE    CD1  237   4.771   7.126   4.338
   14PHE    HD1  238   4.683   7.120   4.386
   14PHE    CE1  239   4.871   7.212   4.387
   14PHE    HE1  240   4.855   7.266   4.469
   14PHE     CZ  241   4.994   7.222   4.320
   14PHE     HZ  242   5.065   7.284   4.354
   14PHE    CD2  243   4.917   7.058   4.157
   14PHE    HD2  244   4.935   7.002   4.076
   14PHE    CE2  245   5.018   7.145   4.204
   14PHE    HE2  246   5.105   7.151   4.156
   14PHE      C  247   4.558   6.747   4.240
   14PHE      O  248   4.459   6.789   4.181
   15HIS      N  249   4.553   6.644   4.323
   15HIS     HN  250   4.637   6.594   4.343
   15HIS     CA  251   4.428   6.600   4.388
   15HIS     HA  252   4.353   6.642   4.338
   15HIS     CB  253   4.406   6.448   4.376
   15HIS    HB1  254   4.323   6.424   4.426
   15HIS    HB2  255   4.485   6.401   4.416
   15HIS    ND1  256   4.494   6.358   4.153
   15HIS     CG  257   4.392   6.401   4.234
   15HIS    CE1  258   4.441   6.323   4.034
   15HIS    HE1  259   4.494   6.288   3.957
   15HIS    NE2  260   4.309   6.340   4.035
   15HIS    HE2  261   4.246   6.321   3.960
   15HIS    CD2  262   4.276   6.391   4.161
   15HIS    HD2  263   4.184   6.415   4.193
   15HIS      C  264   4.427   6.651   4.533
   15HIS      O  265   4.398   6.577   4.627
   16GLU      N  266   4.464   6.777   4.551
   16GLU     HN  267   4.504   6.826   4.474
   16GLU     CA  268   4.448   6.848   4.677
   16GLU     HA  269   4.441   6.783   4.752
   16GLU     CB  270   4.573   6.934   4.703
   16GLU    HB1  271   4.576   7.009   4.636
   16GLU    HB2  272   4.655   6.877   4.693
   16GLU     CG  273   4.572   6.995   4.844
   16GLU    HG1  274   4.562   6.921   4.911
   16GLU    HG2  275   4.495   7.058   4.852
   16GLU     CD  276   4.702   7.071   4.870
   16GLU    OE1  277   4.695   7.195   4.880
   16GLU    OE2  278   4.807   7.003   4.876
   16GLU      C  279   4.319   6.929   4.666
   16GLU      O  280   4.318   7.031   4.597
   17LYS      N  281   4.211   6.875   4.723
   17LYS     HN  282   4.206   6.775   4.724
   17LYS     CA  283   4.096   6.946   4.785
   17LYS     HA  284   4.126   6.964   4.879
   17LYS     CB  285   4.066   7.082   4.719
   17LYS    HB1  286   4.030   7.065   4.627
   17LYS    HB2  287   4.151   7.134   4.712
   17LYS     CG  288   3.965   7.169   4.794
   17LYS    HG1  289   3.992   7.177   4.890
   17LYS    HG2  290   3.874   7.127   4.789
   17LYS     CD  291   3.961   7.308   4.729
   17LYS    HD1  292   4.054   7.341   4.716
   17LYS    HD2  293   3.915   7.302   4.640
   17LYS     CE  294   3.884   7.408   4.817
   17LYS    HE1  295   3.927   7.413   4.907
   17LYS    HE2  296   3.789   7.378   4.826
   17LYS     NZ  297   3.885   7.544   4.757
   17LYS    HZ1  298   3.835   7.606   4.816
   17LYS    HZ2  299   3.980   7.576   4.748
   17LYS    HZ3  300   3.842   7.541   4.667
   17LYS      C  301   3.971   6.857   4.788
   17LYS      O  302   3.884   6.867   4.702
   18HIS      N  303   3.958   6.777   4.893
   18HIS     HN  304   4.039   6.751   4.945
   18HIS     CA  305   3.828   6.725   4.937
   18HIS     HA  306   3.759   6.759   4.872
   18HIS     CB  307   3.821   6.572   4.927
   18HIS    HB1  308   3.738   6.540   4.973
   18HIS    HB2  309   3.902   6.533   4.973
   18HIS    ND1  310   3.709   6.511   4.703
   18HIS     CG  311   3.820   6.522   4.784
   18HIS    CE1  312   3.749   6.463   4.584
   18HIS    HE1  313   3.688   6.446   4.506
   18HIS    NE2  314   3.881   6.443   4.584
   18HIS    HE2  315   3.936   6.408   4.508
   18HIS    CD2  316   3.927   6.480   4.711
   18HIS    HD2  317   4.022   6.475   4.743
   18HIS      C  318   3.794   6.784   5.075
   18HIS      O  319   3.787   6.714   5.175
   19HIS      N  320   3.773   6.916   5.080
   19HIS     HN  321   3.802   6.971   5.002
   19HIS     CA  322   3.710   6.985   5.193
   19HIS     HA  323   3.732   6.930   5.274
   19HIS     CB  324   3.767   7.126   5.212
   19HIS    HB1  325   3.703   7.180   5.266
   19HIS    HB2  326   3.778   7.168   5.122
   19HIS    ND1  327   3.923   7.100   5.413
   19HIS     CG  328   3.900   7.129   5.281
   19HIS    CE1  329   4.053   7.122   5.438
   19HIS    HE1  330   4.097   7.109   5.527
   19HIS    NE2  331   4.115   7.165   5.327
   19HIS    HE2  332   4.212   7.188   5.318
   19HIS    CD2  333   4.018   7.170   5.227
   19HIS    HD2  334   4.033   7.199   5.132
   19HIS      C  335   3.557   6.988   5.177
   19HIS      O  336   3.496   7.094   5.170
   20SER      N  337   3.494   6.872   5.165
   20SER     HN  338   3.547   6.788   5.154
   20SER     CA  339   3.348   6.865   5.167
   20SER     HA  340   3.317   6.941   5.223
   20SER     CB  341   3.286   6.883   5.027
   20SER    HB1  342   3.289   6.979   5.000
   20SER    HB2  343   3.192   6.850   5.026
   20SER     OG  344   3.355   6.811   4.927
   20SER    HG1  345   3.311   6.826   4.838
   20SER      C  346   3.305   6.734   5.232
   20SER      O  347   3.306   6.630   5.168
   21HIS      N  348   3.279   6.740   5.363
   21HIS     HN  349   3.345   6.787   5.422
   21HIS     CA  350   3.159   6.684   5.429
   21HIS     HA  351   3.091   6.756   5.416
   21HIS     CB  352   3.103   6.557   5.360
   21HIS    HB1  353   3.157   6.478   5.388
   21HIS    HB2  354   3.110   6.569   5.261
   21HIS    ND1  355   2.863   6.615   5.437
   21HIS     CG  356   2.959   6.527   5.392
   21HIS    CE1  357   2.744   6.554   5.433
   21HIS    HE1  358   2.658   6.594   5.462
   21HIS    NE2  359   2.758   6.430   5.384
   21HIS    HE2  360   2.685   6.363   5.369
   21HIS    CD2  361   2.894   6.412   5.357
   21HIS    HD2  362   2.936   6.330   5.319
   21HIS      C  363   3.184   6.661   5.579
   21HIS      O  364   3.197   6.549   5.627
   22ARG      N  365   3.190   6.769   5.657
   22ARG     HN  366   3.223   6.855   5.619
   22ARG     CA  367   3.150   6.764   5.799
   22ARG     HA  368   3.094   6.683   5.814
   22ARG     CB  369   3.270   6.744   5.893
   22ARG    HB1  370   3.321   6.829   5.902
   22ARG    HB2  371   3.330   6.673   5.855
   22ARG     CG  372   3.221   6.699   6.032
   22ARG    HG1  373   3.161   6.620   6.021
   22ARG    HG2  374   3.172   6.774   6.075
   22ARG     CD  375   3.339   6.659   6.121
   22ARG    HD1  376   3.408   6.731   6.120
   22ARG    HD2  377   3.379   6.574   6.089
   22ARG     NE  378   3.295   6.639   6.260
   22ARG     HE  379   3.198   6.654   6.279
   22ARG     CZ  380   3.370   6.604   6.363
   22ARG    NH1  381   3.496   6.574   6.350
   22ARG   HH11  382   3.539   6.578   6.260
   22ARG   HH12  383   3.550   6.548   6.430
   22ARG    NH2  384   3.318   6.598   6.483
   22ARG   HH21  385   3.222   6.621   6.497
   22ARG   HH22  386   3.375   6.571   6.560
   22ARG      C  387   3.064   6.887   5.827
   22ARG      O  388   3.106   6.982   5.891
   23GLY      N  389   2.949   6.888   5.759
   23GLY     HN  390   2.941   6.827   5.680
   23GLY     CA  391   2.836   6.971   5.795
   23GLY    HA1  392   2.870   7.056   5.837
   23GLY    HA2  393   2.785   6.994   5.712
   23GLY      C  394   2.750   6.892   5.892
   23GLY      O  395   2.725   6.775   5.865
   24TYR      N  396   2.709   6.960   5.999
   24TYR     HN  397   2.730   7.058   5.999
   24TYR     CA  398   2.637   6.912   6.119
   24TYR     HA  399   2.610   6.998   6.162
   24TYR     CB  400   2.509   6.836   6.082
   24TYR    HB1  401   2.460   6.813   6.166
   24TYR    HB2  402   2.534   6.752   6.033
   24TYR     CG  403   2.417   6.918   5.993
   24TYR    CD1  404   2.335   7.016   6.051
   24TYR    HD1  405   2.335   7.030   6.150
   24TYR    CE1  406   2.252   7.096   5.969
   24TYR    HE1  407   2.193   7.166   6.010
   24TYR     CZ  408   2.253   7.077   5.829
   24TYR     OH  409   2.174   7.154   5.749
   24TYR     HH  410   2.187   7.127   5.654
   24TYR    CD2  411   2.417   6.899   5.853
   24TYR    HD2  412   2.474   6.828   5.813
   24TYR    CE2  413   2.335   6.979   5.771
   24TYR    HE2  414   2.336   6.966   5.672
   24TYR      C  415   2.724   6.847   6.227
   24TYR    OT1  416   2.858   6.840   6.203
   24TYR    OT2  417   2.661   6.802   6.338
   9.43508   8.89547   7.70371   0.00000   0.00000   3.14503   0.00000  -3.14503   4.44774
