Protein in water
62119
    1ASP      N    1   6.802   6.968   1.651
    1ASP     H1    2   6.896   6.951   1.623
    1ASP     H2    3   6.742   6.961   1.571
    1ASP     H3    4   6.795   7.060   1.689
    1ASP     CA    5   6.761   6.869   1.751
    1ASP     HA    6   6.765   6.778   1.711
    1ASP     CB    7   6.859   6.872   1.869
    1ASP    HB1    8   6.840   6.952   1.926
    1ASP    HB2    9   6.953   6.877   1.834
    1ASP     CG   10   6.842   6.746   1.952
    1ASP    OD1   11   6.807   6.644   1.888
    1ASP    OD2   12   6.859   6.756   2.075
    1ASP      C   13   6.618   6.899   1.791
    1ASP      O   14   6.586   7.012   1.826
    2SER      N   15   6.528   6.806   1.760
    2SER     HN   16   6.561   6.712   1.746
    2SER     CA   17   6.385   6.832   1.747
    2SER     HA   18   6.377   6.911   1.687
    2SER     CB   19   6.317   6.711   1.684
    2SER    HB1   20   6.217   6.721   1.685
    2SER    HB2   21   6.341   6.626   1.732
    2SER     OG   22   6.359   6.700   1.550
    2SER    HG1   23   6.315   6.621   1.507
    2SER      C   24   6.323   6.868   1.882
    2SER      O   25   6.295   6.782   1.964
    3HIS      N   26   6.290   6.997   1.896
    3HIS     HN   27   6.332   7.059   1.829
    3HIS     CA   28   6.203   7.060   1.995
    3HIS     HA   29   6.240   7.035   2.085
    3HIS     CB   30   6.210   7.213   1.971
    3HIS    HB1   31   6.119   7.247   1.951
    3HIS    HB2   32   6.270   7.231   1.893
    3HIS    ND1   33   6.246   7.267   2.221
    3HIS     CG   34   6.264   7.293   2.087
    3HIS    CE1   35   6.311   7.362   2.290
    3HIS    HE1   36   6.315   7.367   2.390
    3HIS    NE2   37   6.367   7.450   2.206
    3HIS    HE2   38   6.420   7.531   2.232
    3HIS    CD2   39   6.338   7.407   2.077
    3HIS    HD2   40   6.367   7.452   1.992
    3HIS      C   41   6.058   7.008   1.993
    3HIS      O   42   5.961   7.081   2.014
    4ALA      N   43   6.039   6.880   1.963
    4ALA     HN   44   6.119   6.820   1.959
    4ALA     CA   45   5.910   6.822   1.937
    4ALA     HA   46   5.842   6.868   1.995
    4ALA     CB   47   5.876   6.845   1.789
    4ALA    HB1   48   5.875   6.943   1.770
    4ALA    HB2   49   5.944   6.800   1.732
    4ALA    HB3   50   5.785   6.807   1.769
    4ALA      C   51   5.912   6.675   1.976
    4ALA      O   52   5.960   6.591   1.899
    5LYS      N   53   5.847   6.647   2.088
    5LYS     HN   54   5.865   6.706   2.167
    5LYS     CA   55   5.750   6.538   2.109
    5LYS     HA   56   5.665   6.589   2.124
    5LYS     CB   57   5.729   6.447   1.985
    5LYS    HB1   58   5.674   6.368   2.012
    5LYS    HB2   59   5.818   6.416   1.953
    5LYS     CG   60   5.657   6.521   1.870
    5LYS    HG1   61   5.694   6.613   1.863
    5LYS    HG2   62   5.559   6.525   1.891
    5LYS     CD   63   5.673   6.452   1.734
    5LYS    HD1   64   5.770   6.436   1.716
    5LYS    HD2   65   5.625   6.364   1.735
    5LYS     CE   66   5.615   6.541   1.622
    5LYS    HE1   67   5.667   6.626   1.618
    5LYS    HE2   68   5.519   6.561   1.642
    5LYS     NZ   69   5.621   6.476   1.489
    5LYS    HZ1   70   5.583   6.537   1.420
    5LYS    HZ2   71   5.717   6.456   1.466
    5LYS    HZ3   72   5.569   6.390   1.491
    5LYS      C   73   5.779   6.457   2.236
    5LYS      O   74   5.860   6.366   2.238
    6ARG      N   75   5.692   6.481   2.334
    6ARG     HN   76   5.666   6.577   2.351
    6ARG     CA   77   5.631   6.378   2.419
    6ARG     HA   78   5.563   6.431   2.469
    6ARG     CB   79   5.574   6.265   2.329
    6ARG    HB1   80   5.534   6.196   2.389
    6ARG    HB2   81   5.650   6.225   2.278
    6ARG     CG   82   5.467   6.302   2.227
    6ARG    HG1   83   5.496   6.382   2.174
    6ARG    HG2   84   5.381   6.322   2.274
    6ARG     CD   85   5.450   6.180   2.135
    6ARG    HD1   86   5.447   6.097   2.190
    6ARG    HD2   87   5.526   6.176   2.071
    6ARG     NE   88   5.325   6.189   2.058
    6ARG     HE   89   5.257   6.255   2.090
    6ARG     CZ   90   5.295   6.118   1.950
    6ARG    NH1   91   5.381   6.039   1.892
    6ARG   HH11   92   5.473   6.030   1.929
    6ARG   HH12   93   5.354   5.987   1.811
    6ARG    NH2   94   5.175   6.126   1.899
    6ARG   HH21   95   5.107   6.186   1.941
    6ARG   HH22   96   5.152   6.073   1.818
    6ARG      C   97   5.721   6.314   2.524
    6ARG      O   98   5.743   6.195   2.515
    7HIS      N   99   5.760   6.383   2.631
    7HIS     HN  100   5.762   6.483   2.628
    7HIS     CA  101   5.800   6.314   2.754
    7HIS     HA  102   5.757   6.224   2.750
    7HIS     CB  103   5.953   6.288   2.757
    7HIS    HB1  104   5.985   6.299   2.851
    7HIS    HB2  105   5.997   6.355   2.698
    7HIS    ND1  106   5.968   6.090   2.588
    7HIS     CG  107   5.994   6.149   2.710
    7HIS    CE1  108   6.012   5.964   2.588
    7HIS    HE1  109   6.002   5.899   2.512
    7HIS    NE2  110   6.071   5.938   2.705
    7HIS    HE2  111   6.114   5.851   2.732
    7HIS    CD2  112   6.062   6.054   2.782
    7HIS    HD2  113   6.100   6.066   2.874
    7HIS      C  114   5.743   6.384   2.879
    7HIS      O  115   5.797   6.480   2.931
    8HIS      N  116   5.628   6.334   2.926
    8HIS     HN  117   5.558   6.307   2.859
    8HIS     CA  118   5.598   6.318   3.069
    8HIS     HA  119   5.499   6.302   3.063
    8HIS     CB  120   5.680   6.198   3.120
    8HIS    HB1  121   5.675   6.195   3.220
    8HIS    HB2  122   5.776   6.209   3.092
    8HIS    ND1  123   5.502   6.019   3.084
    8HIS     CG  124   5.629   6.068   3.065
    8HIS    CE1  125   5.494   5.900   3.023
    8HIS    HE1  126   5.413   5.841   3.021
    8HIS    NE2  127   5.611   5.871   2.965
    8HIS    HE2  128   5.631   5.788   2.911
    8HIS    CD2  129   5.699   5.976   2.991
    8HIS    HD2  130   5.794   5.983   2.962
    8HIS      C  131   5.595   6.437   3.167
    8HIS      O  132   5.620   6.418   3.285
    9GLY      N  133   5.550   6.556   3.126
    9GLY     HN  134   5.535   6.572   3.028
    9GLY     CA  135   5.523   6.665   3.222
    9GLY    HA1  136   5.586   6.653   3.298
    9GLY    HA2  137   5.544   6.751   3.175
    9GLY      C  138   5.380   6.673   3.277
    9GLY      O  139   5.357   6.735   3.381
   10TYR      N  140   5.281   6.612   3.212
   10TYR     HN  141   5.305   6.547   3.139
   10TYR     CA  142   5.139   6.635   3.241
   10TYR     HA  143   5.136   6.732   3.264
   10TYR     CB  144   5.053   6.607   3.117
   10TYR    HB1  145   5.089   6.661   3.041
   10TYR    HB2  146   4.959   6.636   3.136
   10TYR     CG  147   5.050   6.462   3.075
   10TYR    CD1  148   5.139   6.415   2.976
   10TYR    HD1  149   5.203   6.479   2.933
   10TYR    CE1  150   5.137   6.280   2.937
   10TYR    HE1  151   5.200   6.247   2.866
   10TYR     CZ  152   5.046   6.191   2.998
   10TYR     OH  153   5.045   6.060   2.963
   10TYR     HH  154   4.975   6.012   3.016
   10TYR    CD2  155   4.958   6.373   3.134
   10TYR    HD2  156   4.894   6.406   3.204
   10TYR    CE2  157   4.957   6.237   3.097
   10TYR    HE2  158   4.893   6.174   3.140
   10TYR      C  159   5.085   6.563   3.367
   10TYR      O  160   4.966   6.571   3.396
   11LYS      N  161   5.171   6.497   3.446
   11LYS     HN  162   5.265   6.484   3.415
   11LYS     CA  163   5.132   6.443   3.578
   11LYS     HA  164   5.037   6.413   3.567
   11LYS     CB  165   5.215   6.319   3.616
   11LYS    HB1  166   5.200   6.300   3.713
   11LYS    HB2  167   5.312   6.340   3.601
   11LYS     CG  168   5.178   6.194   3.535
   11LYS    HG1  169   5.212   6.204   3.441
   11LYS    HG2  170   5.079   6.184   3.534
   11LYS     CD  171   5.242   6.070   3.599
   11LYS    HD1  172   5.341   6.080   3.598
   11LYS    HD2  173   5.210   6.062   3.694
   11LYS     CE  174   5.203   5.943   3.523
   11LYS    HE1  175   5.234   5.950   3.428
   11LYS    HE2  176   5.104   5.932   3.525
   11LYS     NZ  177   5.265   5.821   3.583
   11LYS    HZ1  178   5.237   5.741   3.531
   11LYS    HZ2  179   5.364   5.830   3.581
   11LYS    HZ3  180   5.234   5.812   3.678
   11LYS      C  181   5.135   6.552   3.685
   11LYS      O  182   5.194   6.533   3.792
   12ARG      N  183   5.068   6.665   3.661
   12ARG     HN  184   5.036   6.683   3.568
   12ARG     CA  185   5.039   6.762   3.767
   12ARG     HA  186   5.120   6.776   3.824
   12ARG     CB  187   5.009   6.900   3.705
   12ARG    HB1  188   4.910   6.913   3.699
   12ARG    HB2  189   5.048   6.904   3.613
   12ARG     CG  190   5.069   7.013   3.789
   12ARG    HG1  191   5.169   7.009   3.782
   12ARG    HG2  192   5.042   6.999   3.885
   12ARG     CD  193   5.023   7.153   3.746
   12ARG    HD1  194   5.047   7.168   3.650
   12ARG    HD2  195   5.067   7.222   3.803
   12ARG     NE  196   4.877   7.169   3.759
   12ARG     HE  197   4.823   7.086   3.772
   12ARG     CZ  198   4.809   7.282   3.755
   12ARG    NH1  199   4.868   7.398   3.742
   12ARG   HH11  200   4.967   7.403   3.735
   12ARG   HH12  201   4.813   7.482   3.740
   12ARG    NH2  202   4.679   7.281   3.765
   12ARG   HH21  203   4.630   7.195   3.775
   12ARG   HH22  204   4.628   7.367   3.762
   12ARG      C  205   4.928   6.703   3.855
   12ARG      O  206   4.811   6.736   3.840
   13LYS      N  207   4.964   6.605   3.939
   13LYS     HN  208   5.061   6.583   3.944
   13LYS     CA  209   4.873   6.529   4.026
   13LYS     HA  210   4.791   6.507   3.973
   13LYS     CB  211   4.940   6.395   4.065
   13LYS    HB1  212   4.999   6.411   4.144
   13LYS    HB2  213   4.995   6.363   3.988
   13LYS     CG  214   4.840   6.283   4.103
   13LYS    HG1  215   4.787   6.259   4.021
   13LYS    HG2  216   4.778   6.318   4.173
   13LYS     CD  217   4.910   6.157   4.155
   13LYS    HD1  218   4.983   6.131   4.092
   13LYS    HD2  219   4.950   6.177   4.245
   13LYS     CE  220   4.812   6.040   4.169
   13LYS    HE1  221   4.788   6.005   4.078
   13LYS    HE2  222   4.729   6.071   4.216
   13LYS     NZ  223   4.869   5.927   4.247
   13LYS    HZ1  224   4.802   5.853   4.253
   13LYS    HZ2  225   4.952   5.893   4.201
   13LYS    HZ3  226   4.893   5.958   4.339
   13LYS      C  227   4.827   6.615   4.145
   13LYS      O  228   4.848   6.578   4.259
   14PHE      N  229   4.767   6.730   4.117
   14PHE     HN  230   4.770   6.764   4.023
   14PHE     CA  231   4.695   6.811   4.216
   14PHE     HA  232   4.748   6.810   4.301
   14PHE     CB  233   4.685   6.958   4.169
   14PHE    HB1  234   4.597   6.995   4.199
   14PHE    HB2  235   4.690   6.960   4.069
   14PHE     CG  236   4.793   7.049   4.222
   14PHE    CD1  237   4.771   7.126   4.338
   14PHE    HD1  238   4.683   7.120   4.386
   14PHE    CE1  239   4.871   7.212   4.387
   14PHE    HE1  240   4.855   7.266   4.469
   14PHE     CZ  241   4.994   7.222   4.320
   14PHE     HZ  242   5.065   7.284   4.354
   14PHE    CD2  243   4.917   7.058   4.157
   14PHE    HD2  244   4.935   7.002   4.076
   14PHE    CE2  245   5.018   7.145   4.204
   14PHE    HE2  246   5.105   7.151   4.156
   14PHE      C  247   4.558   6.747   4.240
   14PHE      O  248   4.459   6.789   4.181
   15HIS      N  249   4.553   6.644   4.323
   15HIS     HN  250   4.637   6.594   4.343
   15HIS     CA  251   4.428   6.600   4.388
   15HIS     HA  252   4.353   6.642   4.338
   15HIS     CB  253   4.406   6.448   4.376
   15HIS    HB1  254   4.323   6.424   4.426
   15HIS    HB2  255   4.485   6.401   4.416
   15HIS    ND1  256   4.494   6.358   4.153
   15HIS     CG  257   4.392   6.401   4.234
   15HIS    CE1  258   4.441   6.323   4.034
   15HIS    HE1  259   4.494   6.288   3.957
   15HIS    NE2  260   4.309   6.340   4.035
   15HIS    HE2  261   4.246   6.321   3.960
   15HIS    CD2  262   4.276   6.391   4.161
   15HIS    HD2  263   4.184   6.415   4.193
   15HIS      C  264   4.427   6.651   4.533
   15HIS      O  265   4.398   6.577   4.627
   16GLU      N  266   4.464   6.777   4.551
   16GLU     HN  267   4.504   6.826   4.474
   16GLU     CA  268   4.448   6.848   4.677
   16GLU     HA  269   4.441   6.783   4.752
   16GLU     CB  270   4.573   6.934   4.703
   16GLU    HB1  271   4.576   7.009   4.636
   16GLU    HB2  272   4.655   6.877   4.693
   16GLU     CG  273   4.572   6.995   4.844
   16GLU    HG1  274   4.562   6.921   4.911
   16GLU    HG2  275   4.495   7.058   4.852
   16GLU     CD  276   4.702   7.071   4.870
   16GLU    OE1  277   4.695   7.195   4.880
   16GLU    OE2  278   4.807   7.003   4.876
   16GLU      C  279   4.319   6.929   4.666
   16GLU      O  280   4.318   7.031   4.597
   17LYS      N  281   4.211   6.875   4.723
   17LYS     HN  282   4.206   6.775   4.724
   17LYS     CA  283   4.096   6.946   4.785
   17LYS     HA  284   4.126   6.964   4.879
   17LYS     CB  285   4.066   7.082   4.719
   17LYS    HB1  286   4.030   7.065   4.627
   17LYS    HB2  287   4.151   7.134   4.712
   17LYS     CG  288   3.965   7.169   4.794
   17LYS    HG1  289   3.992   7.177   4.890
   17LYS    HG2  290   3.874   7.127   4.789
   17LYS     CD  291   3.961   7.308   4.729
   17LYS    HD1  292   4.054   7.341   4.716
   17LYS    HD2  293   3.915   7.302   4.640
   17LYS     CE  294   3.884   7.408   4.817
   17LYS    HE1  295   3.927   7.413   4.907
   17LYS    HE2  296   3.789   7.378   4.826
   17LYS     NZ  297   3.885   7.544   4.757
   17LYS    HZ1  298   3.835   7.606   4.816
   17LYS    HZ2  299   3.980   7.576   4.748
   17LYS    HZ3  300   3.842   7.541   4.667
   17LYS      C  301   3.971   6.857   4.788
   17LYS      O  302   3.884   6.867   4.702
   18HIS      N  303   3.958   6.777   4.893
   18HIS     HN  304   4.039   6.751   4.945
   18HIS     CA  305   3.828   6.725   4.937
   18HIS     HA  306   3.759   6.759   4.872
   18HIS     CB  307   3.821   6.572   4.927
   18HIS    HB1  308   3.738   6.540   4.973
   18HIS    HB2  309   3.902   6.533   4.973
   18HIS    ND1  310   3.709   6.511   4.703
   18HIS     CG  311   3.820   6.522   4.784
   18HIS    CE1  312   3.749   6.463   4.584
   18HIS    HE1  313   3.688   6.446   4.506
   18HIS    NE2  314   3.881   6.443   4.584
   18HIS    HE2  315   3.936   6.408   4.508
   18HIS    CD2  316   3.927   6.480   4.711
   18HIS    HD2  317   4.022   6.475   4.743
   18HIS      C  318   3.794   6.784   5.075
   18HIS      O  319   3.787   6.714   5.175
   19HIS      N  320   3.773   6.916   5.080
   19HIS     HN  321   3.802   6.971   5.002
   19HIS     CA  322   3.710   6.985   5.193
   19HIS     HA  323   3.732   6.930   5.274
   19HIS     CB  324   3.767   7.126   5.212
   19HIS    HB1  325   3.703   7.180   5.266
   19HIS    HB2  326   3.778   7.168   5.122
   19HIS    ND1  327   3.923   7.100   5.413
   19HIS     CG  328   3.900   7.129   5.281
   19HIS    CE1  329   4.053   7.122   5.438
   19HIS    HE1  330   4.097   7.109   5.527
   19HIS    NE2  331   4.115   7.165   5.327
   19HIS    HE2  332   4.212   7.188   5.318
   19HIS    CD2  333   4.018   7.170   5.227
   19HIS    HD2  334   4.033   7.199   5.132
   19HIS      C  335   3.557   6.988   5.177
   19HIS      O  336   3.496   7.094   5.170
   20SER      N  337   3.494   6.872   5.165
   20SER     HN  338   3.547   6.788   5.154
   20SER     CA  339   3.348   6.865   5.167
   20SER     HA  340   3.317   6.941   5.223
   20SER     CB  341   3.286   6.883   5.027
   20SER    HB1  342   3.289   6.979   5.000
   20SER    HB2  343   3.192   6.850   5.026
   20SER     OG  344   3.355   6.811   4.927
   20SER    HG1  345   3.311   6.826   4.838
   20SER      C  346   3.305   6.734   5.232
   20SER      O  347   3.306   6.630   5.168
   21HIS      N  348   3.279   6.740   5.363
   21HIS     HN  349   3.345   6.787   5.422
   21HIS     CA  350   3.159   6.684   5.429
   21HIS     HA  351   3.091   6.756   5.416
   21HIS     CB  352   3.103   6.557   5.360
   21HIS    HB1  353   3.157   6.478   5.388
   21HIS    HB2  354   3.110   6.569   5.261
   21HIS    ND1  355   2.863   6.615   5.437
   21HIS     CG  356   2.959   6.527   5.392
   21HIS    CE1  357   2.744   6.554   5.433
   21HIS    HE1  358   2.658   6.594   5.462
   21HIS    NE2  359   2.758   6.430   5.384
   21HIS    HE2  360   2.685   6.363   5.369
   21HIS    CD2  361   2.894   6.412   5.357
   21HIS    HD2  362   2.936   6.330   5.319
   21HIS      C  363   3.184   6.661   5.579
   21HIS      O  364   3.197   6.549   5.627
   22ARG      N  365   3.190   6.769   5.657
   22ARG     HN  366   3.223   6.855   5.619
   22ARG     CA  367   3.150   6.764   5.799
   22ARG     HA  368   3.094   6.683   5.814
   22ARG     CB  369   3.270   6.744   5.893
   22ARG    HB1  370   3.321   6.829   5.902
   22ARG    HB2  371   3.330   6.673   5.855
   22ARG     CG  372   3.221   6.699   6.032
   22ARG    HG1  373   3.161   6.620   6.021
   22ARG    HG2  374   3.172   6.774   6.075
   22ARG     CD  375   3.339   6.659   6.121
   22ARG    HD1  376   3.408   6.731   6.120
   22ARG    HD2  377   3.379   6.574   6.089
   22ARG     NE  378   3.295   6.639   6.260
   22ARG     HE  379   3.198   6.654   6.279
   22ARG     CZ  380   3.370   6.604   6.363
   22ARG    NH1  381   3.496   6.574   6.350
   22ARG   HH11  382   3.539   6.578   6.260
   22ARG   HH12  383   3.550   6.548   6.430
   22ARG    NH2  384   3.318   6.598   6.483
   22ARG   HH21  385   3.222   6.621   6.497
   22ARG   HH22  386   3.375   6.571   6.560
   22ARG      C  387   3.064   6.887   5.827
   22ARG      O  388   3.106   6.982   5.891
   23GLY      N  389   2.949   6.888   5.759
   23GLY     HN  390   2.941   6.827   5.680
   23GLY     CA  391   2.836   6.971   5.795
   23GLY    HA1  392   2.870   7.056   5.837
   23GLY    HA2  393   2.785   6.994   5.712
   23GLY      C  394   2.750   6.892   5.892
   23GLY      O  395   2.725   6.775   5.865
   24TYR      N  396   2.709   6.960   5.999
   24TYR     HN  397   2.730   7.058   5.999
   24TYR     CA  398   2.637   6.912   6.119
   24TYR     HA  399   2.610   6.998   6.162
   24TYR     CB  400   2.509   6.836   6.082
   24TYR    HB1  401   2.460   6.813   6.166
   24TYR    HB2  402   2.534   6.752   6.033
   24TYR     CG  403   2.417   6.918   5.993
   24TYR    CD1  404   2.335   7.016   6.051
   24TYR    HD1  405   2.335   7.030   6.150
   24TYR    CE1  406   2.252   7.096   5.969
   24TYR    HE1  407   2.193   7.166   6.010
   24TYR     CZ  408   2.253   7.077   5.829
   24TYR     OH  409   2.174   7.154   5.749
   24TYR     HH  410   2.187   7.127   5.654
   24TYR    CD2  411   2.417   6.899   5.853
   24TYR    HD2  412   2.474   6.828   5.813
   24TYR    CE2  413   2.335   6.979   5.771
   24TYR    HE2  414   2.336   6.966   5.672
   24TYR      C  415   2.724   6.847   6.227
   24TYR    OT1  416   2.858   6.840   6.203
   24TYR    OT2  417   2.661   6.802   6.338
   25SOL     OW  418   0.230   0.628   0.113
   25SOL    HW1  419   0.137   0.626   0.150
   25SOL    HW2  420   0.231   0.589   0.021
   26SOL     OW  421   0.225   0.275   0.996
   26SOL    HW1  422   0.260   0.258   1.088
   26SOL    HW2  423   0.137   0.230   0.984
   27SOL     OW  424   0.019   0.368   0.647
   27SOL    HW1  425  -0.063   0.411   0.686
   27SOL    HW2  426  -0.009   0.295   0.584
   28SOL     OW  427   0.569   1.275   1.165
   28SOL    HW1  428   0.476   1.268   1.128
   28SOL    HW2  429   0.580   1.364   1.209
   29SOL     OW  430   1.555   1.511   0.703
   29SOL    HW1  431   1.498   1.495   0.784
   29SOL    HW2  432   1.496   1.521   0.623
   30SOL     OW  433   1.135   0.703   0.717
   30SOL    HW1  434   1.192   0.781   0.692
   30SOL    HW2  435   1.075   0.729   0.793
   31SOL     OW  436   1.755   0.607   0.231
   31SOL    HW1  437   1.743   0.594   0.132
   31SOL    HW2  438   1.725   0.526   0.280
   32SOL     OW  439   0.768   1.144   1.023
   32SOL    HW1  440   0.690   1.161   1.083
   32SOL    HW2  441   0.802   1.231   0.987
   33SOL     OW  442   0.850   0.798   1.823
   33SOL    HW1  443   0.846   0.874   1.888
   33SOL    HW2  444   0.872   0.834   1.732
   34SOL     OW  445   0.685   1.012   0.665
   34SOL    HW1  446   0.754   0.996   0.735
   34SOL    HW2  447   0.612   1.069   0.703
   35SOL     OW  448   0.686   1.161   1.803
   35SOL    HW1  449   0.746   1.240   1.817
   35SOL    HW2  450   0.600   1.192   1.762
   36SOL     OW  451   0.335   1.435   1.061
   36SOL    HW1  452   0.257   1.404   1.008
   36SOL    HW2  453   0.393   1.493   1.004
   37SOL     OW  454   1.460   1.505   1.339
   37SOL    HW1  455   1.484   1.599   1.365
   37SOL    HW2  456   1.444   1.451   1.421
   38SOL     OW  457   0.438   0.392   1.499
   38SOL    HW1  458   0.520   0.336   1.508
   38SOL    HW2  459   0.357   0.334   1.503
   39SOL     OW  460   1.603   0.447   0.737
   39SOL    HW1  461   1.529   0.493   0.687
   39SOL    HW2  462   1.654   0.515   0.790
   40SOL     OW  463   0.231   1.713   0.483
   40SOL    HW1  464   0.265   1.790   0.537
   40SOL    HW2  465   0.275   1.713   0.393
   41SOL     OW  466   1.127   1.341   1.690
   41SOL    HW1  467   1.174   1.341   1.778
   41SOL    HW2  468   1.079   1.254   1.679
   42SOL     OW  469   0.230   1.434   0.538
   42SOL    HW1  470   0.204   1.530   0.538
   42SOL    HW2  471   0.159   1.380   0.583
   43SOL     OW  472   0.240   1.091   0.886
   43SOL    HW1  473   0.254   1.007   0.938
   43SOL    HW2  474   0.185   1.155   0.941
   44SOL     OW  475   0.620   1.786   1.439
   44SOL    HW1  476   0.528   1.769   1.474
   44SOL    HW2  477   0.648   1.878   1.465
   45SOL     OW  478   0.606   0.964   0.123
   45SOL    HW1  479   0.613   1.048   0.069
   45SOL    HW2  480   0.652   0.977   0.211
   46SOL     OW  481   1.594   0.114   1.480
   46SOL    HW1  482   1.576   0.181   1.408
   46SOL    HW2  483   1.591   0.160   1.569
   47SOL     OW  484   0.122   0.643   0.563
   47SOL    HW1  485   0.077   0.555   0.580
   47SOL    HW2  486   0.121   0.697   0.647
   48SOL     OW  487   1.842   1.767   0.359
   48SOL    HW1  488   1.896   1.738   0.439
   48SOL    HW2  489   1.872   1.857   0.330
   49SOL     OW  490   0.027   1.596   0.117
   49SOL    HW1  491   0.008   1.500   0.138
   49SOL    HW2  492  -0.006   1.654   0.192
   50SOL     OW  493   1.689   0.922   0.612
   50SOL    HW1  494   1.784   0.893   0.620
   50SOL    HW2  495   1.681   0.987   0.537
   51SOL     OW  496   1.641   1.108   0.432
   51SOL    HW1  497   1.727   1.110   0.380
   51SOL    HW2  498   1.655   1.155   0.520
   52SOL     OW  499   0.113   0.737   1.597
   52SOL    HW1  500   0.201   0.724   1.642
   52SOL    HW2  501   0.100   0.834   1.575
   53SOL     OW  502   0.613   1.365   0.726
   53SOL    HW1  503   0.564   1.278   0.735
   53SOL    HW2  504   0.590   1.408   0.639
   54SOL     OW  505   1.293   1.228   1.423
   54SOL    HW1  506   1.330   1.155   1.365
   54SOL    HW2  507   1.345   1.233   1.508
   55SOL     OW  508   0.809   0.004   0.502
   55SOL    HW1  509   0.849   0.095   0.493
   55SOL    HW2  510   0.709   0.012   0.508
   56SOL     OW  511   0.197   0.976   1.264
   56SOL    HW1  512   0.286   0.931   1.250
   56SOL    HW2  513   0.124   0.911   1.245
   57SOL     OW  514   1.525   0.999   0.190
   57SOL    HW1  515   1.462   0.923   0.203
   57SOL    HW2  516   1.573   1.017   0.276
   58SOL     OW  517   1.187   1.792   1.616
   58SOL    HW1  518   1.211   1.852   1.540
   58SOL    HW2  519   1.194   1.697   1.586
   59SOL     OW  520   0.317   0.251   1.801
   59SOL    HW1  521   0.388   0.322   1.807
   59SOL    HW2  522   0.229   0.290   1.829
   60SOL     OW  523   1.466   1.417   0.953
   60SOL    HW1  524   1.407   1.423   1.033
   60SOL    HW2  525   1.451   1.329   0.907
   61SOL     OW  526   1.667   1.714   0.572
   61SOL    HW1  527   1.626   1.691   0.484
   61SOL    HW2  528   1.649   1.640   0.637
   62SOL     OW  529   0.598   0.729   0.270
   62SOL    HW1  530   0.622   0.798   0.202
   62SOL    HW2  531   0.520   0.762   0.324
   63SOL     OW  532   1.281   0.345   0.944
   63SOL    HW1  533   1.195   0.295   0.931
   63SOL    HW2  534   1.343   0.291   1.000
   64SOL     OW  535   1.576   1.662   0.307
   64SOL    HW1  536   1.665   1.708   0.310
   64SOL    HW2  537   1.555   1.638   0.212
   65SOL     OW  538   0.807   0.605   1.465
   65SOL    HW1  539   0.760   0.602   1.554
   65SOL    HW2  540   0.756   0.550   1.399
   66SOL     OW  541   1.394   0.469   1.674
   66SOL    HW1  542   1.374   0.512   1.762
   66SOL    HW2  543   1.472   0.407   1.683
   67SOL     OW  544   0.973   0.890   1.572
   67SOL    HW1  545   1.019   0.806   1.543
   67SOL    HW2  546   0.917   0.924   1.497
   68SOL     OW  547   0.991   0.410   1.242
   68SOL    HW1  548   0.914   0.444   1.296
   68SOL    HW2  549   0.957   0.359   1.163
   69SOL     OW  550   1.041   0.701   0.429
   69SOL    HW1  551   1.067   0.697   0.525
   69SOL    HW2  552   0.956   0.650   0.415
   70SOL     OW  553   0.076   0.811   0.789
   70SOL    HW1  554   0.175   0.799   0.798
   70SOL    HW2  555   0.052   0.906   0.810
   71SOL     OW  556   0.130   1.821   1.571
   71SOL    HW1  557   0.120   1.806   1.670
   71SOL    HW2  558   0.044   1.857   1.535
   72SOL     OW  559   1.719   0.585   1.831
   72SOL    HW1  560   1.693   0.674   1.795
   72SOL    HW2  561   1.717   0.517   1.758
   73SOL     OW  562   1.362   1.144   0.545
   73SOL    HW1  563   1.445   1.115   0.497
   73SOL    HW2  564   1.313   1.211   0.489
   74SOL     OW  565   0.550   0.196   0.885
   74SOL    HW1  566   0.545   0.191   0.985
   74SOL    HW2  567   0.552   0.292   0.856
   75SOL     OW  568   1.008   1.456   0.477
   75SOL    HW1  569   0.962   1.528   0.425
   75SOL    HW2  570   1.004   1.476   0.575
   76SOL     OW  571   0.351   1.801   0.853
   76SOL    HW1  572   0.401   1.715   0.859
   76SOL    HW2  573   0.416   1.878   0.850
   77SOL     OW  574   1.795   1.066   0.873
   77SOL    HW1  575   1.733   1.051   0.797
   77SOL    HW2  576   1.743   1.077   0.958
   78SOL     OW  577   1.227   1.550   1.506
   78SOL    HW1  578   1.233   1.473   1.570
   78SOL    HW2  579   1.175   1.524   1.426
   79SOL     OW  580   0.321   0.943   0.242
   79SOL    HW1  581   0.403   0.982   0.200
   79SOL    HW2  582   0.294   0.861   0.193
   80SOL     OW  583   1.458   0.735   0.728
   80SOL    HW1  584   1.453   0.670   0.803
   80SOL    HW2  585   1.538   0.794   0.741
   81SOL     OW  586   0.461   1.266   1.727
   81SOL    HW1  587   0.411   1.267   1.641
   81SOL    HW2  588   0.398   1.248   1.803
   82SOL     OW  589   1.111   1.776   0.237
   82SOL    HW1  590   1.051   1.714   0.287
   82SOL    HW2  591   1.142   1.732   0.152
   83SOL     OW  592   0.202   0.285   1.498
   83SOL    HW1  593   0.122   0.345   1.485
   83SOL    HW2  594   0.192   0.236   1.584
   84SOL     OW  595   1.632   1.377   0.081
   84SOL    HW1  596   1.600   1.471   0.071
   84SOL    HW2  597   1.556   1.314   0.069
   85SOL     OW  598   0.464   1.743   0.323
   85SOL    HW1  599   0.497   1.782   0.409
   85SOL    HW2  600   0.540   1.736   0.258
   86SOL     OW  601   1.400   0.107   0.426
   86SOL    HW1  602   1.376   0.070   0.336
   86SOL    HW2  603   1.499   0.123   0.430
   87SOL     OW  604   0.249   1.785   1.241
   87SOL    HW1  605   0.306   1.720   1.291
   87SOL    HW2  606   0.233   1.752   1.148
   88SOL     OW  607   0.940   1.698   0.904
   88SOL    HW1  608   1.020   1.641   0.925
   88SOL    HW2  609   0.891   1.658   0.827
   89SOL     OW  610   0.382   0.700   0.480
   89SOL    HW1  611   0.427   0.610   0.477
   89SOL    HW2  612   0.288   0.689   0.513
   90SOL     OW  613   1.547   0.222   1.729
   90SOL    HW1  614   1.542   0.259   1.821
   90SOL    HW2  615   1.475   0.153   1.717
   91SOL     OW  616   0.614   0.122   0.117
   91SOL    HW1  617   0.712   0.100   0.124
   91SOL    HW2  618   0.583   0.105   0.024
   92SOL     OW  619   0.781   0.264   1.749
   92SOL    HW1  620   0.848   0.203   1.792
   92SOL    HW2  621   0.708   0.283   1.814
   93SOL     OW  622   0.888   1.514   1.195
   93SOL    HW1  623   0.865   1.489   1.101
   93SOL    HW2  624   0.949   1.445   1.234
   94SOL     OW  625   1.351   0.590   1.433
   94SOL    HW1  626   1.379   0.547   1.518
   94SOL    HW2  627   1.376   0.686   1.434
   95SOL     OW  628   0.803   1.402   0.924
   95SOL    HW1  629   0.893   1.416   0.882
   95SOL    HW2  630   0.732   1.404   0.853
   96SOL     OW  631   0.922   0.503   0.899
   96SOL    HW1  632   0.897   0.494   0.803
   96SOL    HW2  633   0.970   0.421   0.930
   97SOL     OW  634   0.539   0.064   0.512
   97SOL    HW1  635   0.458   0.065   0.570
   97SOL    HW2  636   0.542   0.147   0.457
   98SOL     OW  637   1.434   1.188   0.041
   98SOL    HW1  638   1.466   1.112   0.098
   98SOL    HW2  639   1.342   1.215   0.071
   99SOL     OW  640   0.297   0.035   0.171
   99SOL    HW1  641   0.346   0.119   0.150
   99SOL    HW2  642   0.359  -0.030   0.216
  100SOL     OW  643   0.935   0.236   0.480
  100SOL    HW1  644   0.887   0.277   0.402
  100SOL    HW2  645   1.034   0.234   0.461
  101SOL     OW  646   1.076   0.683   1.464
  101SOL    HW1  647   0.996   0.622   1.467
  101SOL    HW2  648   1.157   0.630   1.440
  102SOL     OW  649   1.227   1.570   0.793
  102SOL    HW1  650   1.248   1.644   0.728
  102SOL    HW2  651   1.295   1.570   0.866
  103SOL     OW  652   0.459   1.152   0.741
  103SOL    HW1  653   0.388   1.125   0.806
  103SOL    HW2  654   0.433   1.124   0.648
  104SOL     OW  655   1.271   1.797   0.591
  104SOL    HW1  656   1.315   1.861   0.527
  104SOL    HW2  657   1.221   1.849   0.661
  105SOL     OW  658   1.032   0.549   0.016
  105SOL    HW1  659   0.991   0.631  -0.023
  105SOL    HW2  660   1.096   0.575   0.089
  106SOL     OW  661   0.078   0.556   1.386
  106SOL    HW1  662   0.170   0.555   1.345
  106SOL    HW2  663   0.072   0.630   1.453
  107SOL     OW  664   0.561   0.222   1.147
  107SOL    HW1  665   0.599   0.138   1.184
  107SOL    HW2  666   0.473   0.241   1.191
  108SOL     OW  667   0.866   0.454   0.642
  108SOL    HW1  668   0.834   0.526   0.580
  108SOL    HW2  669   0.890   0.373   0.589
  109SOL     OW  670   1.017   0.039   0.753
  109SOL    HW1  671   0.945   0.044   0.684
  109SOL    HW2  672   0.993  -0.030   0.822
  110SOL     OW  673   1.429   1.173   0.867
  110SOL    HW1  674   1.374   1.089   0.860
  110SOL    HW2  675   1.455   1.202   0.775
  111SOL     OW  676   1.466   0.590   0.992
  111SOL    HW1  677   1.436   0.495   0.999
  111SOL    HW2  678   1.539   0.606   1.058
  112SOL     OW  679   1.857   0.833   0.377
  112SOL    HW1  680   1.899   0.769   0.441
  112SOL    HW2  681   1.819   0.782   0.299
  113SOL     OW  682   0.488   1.385   0.174
  113SOL    HW1  683   0.401   1.370   0.221
  113SOL    HW2  684   0.471   1.411   0.079
  114SOL     OW  685   1.664   1.280   0.657
  114SOL    HW1  686   1.763   1.288   0.671
  114SOL    HW2  687   1.619   1.364   0.688
  115SOL     OW  688   1.390   0.575   0.078
  115SOL    HW1  689   1.336   0.554   0.159
  115SOL    HW2  690   1.481   0.534   0.087
  116SOL     OW  691   0.527   0.256   0.328
  116SOL    HW1  692   0.554   0.197   0.253
  116SOL    HW2  693   0.527   0.351   0.297
  117SOL     OW  694   1.754   1.223   1.588
  117SOL    HW1  695   1.845   1.184   1.575
  117SOL    HW2  696   1.762   1.319   1.612
  118SOL     OW  697   1.064   1.347   1.340
  118SOL    HW1  698   0.984   1.324   1.395
  118SOL    HW2  699   1.147   1.321   1.389
  119SOL     OW  700   1.592   1.629   1.625
  119SOL    HW1  701   1.619   1.663   1.535
  119SOL    HW2  702   1.671   1.591   1.671
  120SOL     OW  703   1.111   1.195   1.100
  120SOL    HW1  704   1.071   1.239   1.181
  120SOL    HW2  705   1.070   1.232   1.017
  121SOL     OW  706   1.638   1.099   1.079
  121SOL    HW1  707   1.643   1.180   1.138
  121SOL    HW2  708   1.552   1.101   1.028
  122SOL     OW  709   0.915   0.089   1.402
  122SOL    HW1  710   0.940   0.069   1.307
  122SOL    HW2  711   0.987   0.145   1.444
  123SOL     OW  712   0.980   1.116   1.719
  123SOL    HW1  713   0.881   1.122   1.729
  123SOL    HW2  714   1.003   1.036   1.663
  124SOL     OW  715   0.705   1.050   0.368
  124SOL    HW1  716   0.691   1.057   0.467
  124SOL    HW2  717   0.789   0.999   0.350
  125SOL     OW  718   0.410   0.813   1.251
  125SOL    HW1  719   0.496   0.825   1.301
  125SOL    HW2  720   0.368   0.726   1.278
  126SOL     OW  721   1.274   0.386   1.262
  126SOL    HW1  722   1.295   0.460   1.326
  126SOL    HW2  723   1.185   0.403   1.219
  127SOL     OW  724   0.064   1.564   1.331
  127SOL    HW1  725   0.018   1.646   1.297
  127SOL    HW2  726   0.162   1.583   1.340
  128SOL     OW  727   0.367   1.100   0.501
  128SOL    HW1  728   0.360   1.183   0.445
  128SOL    HW2  729   0.371   1.020   0.441
  129SOL     OW  730   0.566   0.537   0.865
  129SOL    HW1  731   0.578   0.603   0.791
  129SOL    HW2  732   0.612   0.571   0.948
  130SOL     OW  733   1.252   1.348   0.388
  130SOL    HW1  734   1.302   1.425   0.428
  130SOL    HW2  735   1.157   1.350   0.420
  131SOL     OW  736   1.272   1.445   1.142
  131SOL    HW1  737   1.319   1.458   1.229
  131SOL    HW2  738   1.206   1.371   1.151
  132SOL     OW  739   1.582   0.639   0.472
  132SOL    HW1  740   1.551   0.700   0.545
  132SOL    HW2  741   1.632   0.691   0.403
  133SOL     OW  742   0.354   1.510   1.329
  133SOL    HW1  743   0.333   1.466   1.242
  133SOL    HW2  744   0.451   1.536   1.332
  134SOL     OW  745   0.402   0.751   1.598
  134SOL    HW1  746   0.470   0.806   1.551
  134SOL    HW2  747   0.442   0.663   1.625
  135SOL     OW  748   1.587   0.779   1.670
  135SOL    HW1  749   1.495   0.817   1.665
  135SOL    HW2  750   1.647   0.826   1.605
  136SOL     OW  751   1.013   0.105   1.770
  136SOL    HW1  752   1.019   0.190   1.718
  136SOL    HW2  753   1.045   0.029   1.713
  137SOL     OW  754   0.504   0.050   1.740
  137SOL    HW1  755   0.462  -0.007   1.670
  137SOL    HW2  756   0.438   0.119   1.772
  138SOL     OW  757   0.573   0.870   1.029
  138SOL    HW1  758   0.617   0.959   1.020
  138SOL    HW2  759   0.510   0.870   1.106
  139SOL     OW  760   1.360   0.862   1.045
  139SOL    HW1  761   1.285   0.862   0.979
  139SOL    HW2  762   1.397   0.770   1.054
  140SOL     OW  763   1.209   0.525   0.275
  140SOL    HW1  764   1.222   0.441   0.329
  140SOL    HW2  765   1.180   0.599   0.335
  141SOL     OW  766   0.307   0.213   1.231
  141SOL    HW1  767   0.284   0.250   1.321
  141SOL    HW2  768   0.277   0.118   1.225
  142SOL     OW  769   0.037   1.310   1.282
  142SOL    HW1  770   0.090   1.261   1.350
  142SOL    HW2  771   0.059   1.408   1.287
  143SOL     OW  772   0.732   0.634   1.064
  143SOL    HW1  773   0.791   0.608   0.988
  143SOL    HW2  774   0.704   0.730   1.053
  144SOL     OW  775   1.728   0.935   1.854
  144SOL    HW1  776   1.682   0.928   1.765
  144SOL    HW2  777   1.666   0.979   1.920
  145SOL     OW  778   0.307   0.063   0.618
  145SOL    HW1  779   0.296   0.157   0.651
  145SOL    HW2  780   0.302   0.000   0.695
  146SOL     OW  781   1.622   0.367   0.374
  146SOL    HW1  782   1.624   0.291   0.438
  146SOL    HW2  783   1.574   0.444   0.414
  147SOL     OW  784   1.023   0.766   0.966
  147SOL    HW1  785   1.038   0.787   1.062
  147SOL    HW2  786   0.993   0.671   0.957
  148SOL     OW  787   0.980   1.573   1.700
  148SOL    HW1  788   0.960   1.617   1.612
  148SOL    HW2  789   1.019   1.482   1.684
  149SOL     OW  790   1.859   1.518   1.605
  149SOL    HW1  791   1.873   1.545   1.510
  149SOL    HW2  792   1.942   1.540   1.658
  150SOL     OW  793   0.350   0.898   1.804
  150SOL    HW1  794   0.426   0.942   1.852
  150SOL    HW2  795   0.385   0.851   1.722
  151SOL     OW  796   1.540   0.274   0.125
  151SOL    HW1  797   1.479   0.199   0.148
  151SOL    HW2  798   1.562   0.326   0.208
  152SOL     OW  799   1.303   0.838   0.042
  152SOL    HW1  800   1.337   0.745   0.057
  152SOL    HW2  801   1.321   0.865  -0.053
  153SOL     OW  802   1.068   1.333   0.849
  153SOL    HW1  803   1.075   1.249   0.794
  153SOL    HW2  804   1.130   1.402   0.813
  154SOL     OW  805   0.319   0.810   0.949
  154SOL    HW1  806   0.412   0.846   0.954
  154SOL    HW2  807   0.313   0.725   1.001
  155SOL     OW  808   0.339   0.509   1.006
  155SOL    HW1  809   0.287   0.426   0.989
  155SOL    HW2  810   0.416   0.514   0.942
  156SOL     OW  811   1.138   0.380   1.678
  156SOL    HW1  812   1.093   0.443   1.742
  156SOL    HW2  813   1.231   0.411   1.661
  157SOL     OW  814   1.160   0.207   1.477
  157SOL    HW1  815   1.160   0.271   1.554
  157SOL    HW2  816   1.188   0.255   1.394
  158SOL     OW  817   0.008   1.326   0.200
  158SOL    HW1  818  -0.085   1.347   0.169
  158SOL    HW2  819   0.018   1.227   0.213
  159SOL     OW  820   0.088   1.801   0.927
  159SOL    HW1  821   0.046   1.715   0.900
  159SOL    HW2  822   0.182   1.804   0.893
  160SOL     OW  823   0.504   1.568   0.910
  160SOL    HW1  824   0.570   1.642   0.919
  160SOL    HW2  825   0.548   1.489   0.868
  161SOL     OW  826   1.002   0.796   1.238
  161SOL    HW1  827   1.043   0.764   1.324
  161SOL    HW2  828   0.906   0.769   1.235
  162SOL     OW  829   0.040   0.544   1.114
  162SOL    HW1  830   0.125   0.511   1.073
  162SOL    HW2  831   0.053   0.559   1.212
  163SOL     OW  832   0.189   0.520   1.722
  163SOL    HW1  833   0.248   0.480   1.652
  163SOL    HW2  834   0.131   0.591   1.681
  164SOL     OW  835   1.369   0.950   1.660
  164SOL    HW1  836   1.408   1.039   1.680
  164SOL    HW2  837   1.379   0.930   1.563
  165SOL     OW  838   0.815   0.572   0.325
  165SOL    HW1  839   0.822   0.483   0.279
  165SOL    HW2  840   0.721   0.606   0.317
  166SOL     OW  841   1.657   0.604   1.206
  166SOL    HW1  842   1.619   0.535   1.268
  166SOL    HW2  843   1.739   0.568   1.162
  167SOL     OW  844   0.252   1.564   1.744
  167SOL    HW1  845   0.222   1.621   1.820
  167SOL    HW2  846   0.245   1.467   1.770
  168SOL     OW  847   0.671   0.464   1.269
  168SOL    HW1  848   0.637   0.375   1.239
  168SOL    HW2  849   0.697   0.518   1.189
  169SOL     OW  850   0.930   1.678   1.465
  169SOL    HW1  851   0.906   1.660   1.370
  169SOL    HW2  852   0.960   1.772   1.475
  170SOL     OW  853   0.473   0.500   0.191
  170SOL    HW1  854   0.534   0.580   0.195
  170SOL    HW2  855   0.378   0.531   0.198
  171SOL     OW  856   0.159   1.137   1.466
  171SOL    HW1  857   0.181   1.076   1.542
  171SOL    HW2  858   0.169   1.088   1.380
  172SOL     OW  859   1.347   1.059   1.234
  172SOL    HW1  860   1.371   0.996   1.160
  172SOL    HW2  861   1.257   1.099   1.216
  173SOL     OW  862   1.302   0.855   0.309
  173SOL    HW1  863   1.216   0.824   0.351
  173SOL    HW2  864   1.298   0.841   0.210
  174SOL     OW  865   1.759   1.747   1.154
  174SOL    HW1  866   1.820   1.777   1.081
  174SOL    HW2  867   1.721   1.658   1.132
  175SOL     OW  868   1.252   1.731   1.128
  175SOL    HW1  869   1.336   1.736   1.074
  175SOL    HW2  870   1.229   1.635   1.146
  176SOL     OW  871   0.083   1.258   1.022
  176SOL    HW1  872   0.078   1.257   1.122
  176SOL    HW2  873   0.000   1.217   0.984
  177SOL     OW  874   0.688   1.662   1.716
  177SOL    HW1  875   0.632   1.743   1.725
  177SOL    HW2  876   0.740   1.666   1.630
  178SOL     OW  877   0.903   0.086   0.133
  178SOL    HW1  878   0.954   0.087   0.047
  178SOL    HW2  879   0.959   0.044   0.204
  179SOL     OW  880   1.726   0.135   0.523
  179SOL    HW1  881   1.799   0.118   0.456
  179SOL    HW2  882   1.695   0.048   0.561
  180SOL     OW  883   1.388   1.573   0.477
  180SOL    HW1  884   1.455   1.585   0.403
  180SOL    HW2  885   1.348   1.662   0.500
  181SOL     OW  886   0.130   1.794   1.851
  181SOL    HW1  887   0.089   1.720   1.904
  181SOL    HW2  888   0.194   1.845   1.909
  182SOL     OW  889   1.280   0.927   0.672
  182SOL    HW1  890   1.340   0.846   0.674
  182SOL    HW2  891   1.320   0.996   0.612
  183SOL     OW  892   0.830   1.273   1.422
  183SOL    HW1  893   0.825   1.306   1.517
  183SOL    HW2  894   0.744   1.292   1.376
  184SOL     OW  895   0.672   1.616   0.154
  184SOL    HW1  896   0.681   1.626   0.055
  184SOL    HW2  897   0.632   1.527   0.175
  185SOL     OW  898   1.650   1.720   1.394
  185SOL    HW1  899   1.703   1.730   1.310
  185SOL    HW2  900   1.623   1.810   1.428
  186SOL     OW  901   1.841   0.175   0.963
  186SOL    HW1  902   1.880   0.090   0.927
  186SOL    HW2  903   1.743   0.177   0.944
  187SOL     OW  904   0.263   0.326   0.720
  187SOL    HW1  905   0.184   0.377   0.686
  187SOL    HW2  906   0.254   0.311   0.818
  188SOL     OW  907   1.194   1.612   0.031
  188SOL    HW1  908   1.200   1.519   0.068
  188SOL    HW2  909   1.135   1.612  -0.049
  189SOL     OW  910   0.822   1.002   1.372
  189SOL    HW1  911   0.862   1.001   1.280
  189SOL    HW2  912   0.832   1.094   1.412
  190SOL     OW  913   0.916   0.910   0.291
  190SOL    HW1  914   0.979   0.948   0.223
  190SOL    HW2  915   0.956   0.827   0.330
  191SOL     OW  916   1.504   1.607   0.044
  191SOL    HW1  917   1.412   1.644   0.051
  191SOL    HW2  918   1.542   1.627  -0.046
  192SOL     OW  919   0.372   1.288   1.490
  192SOL    HW1  920   0.359   1.381   1.456
  192SOL    HW2  921   0.288   1.236   1.477
  193SOL     OW  922   1.614   1.292   1.289
  193SOL    HW1  923   1.674   1.295   1.369
  193SOL    HW2  924   1.539   1.356   1.302
  194SOL     OW  925   1.039   1.098   0.696
  194SOL    HW1  926   0.969   1.051   0.750
  194SOL    HW2  927   1.098   1.030   0.653
  195SOL     OW  928   1.014   0.236   0.971
  195SOL    HW1  929   1.006   0.200   0.878
  195SOL    HW2  930   1.012   0.160   1.036
  196SOL     OW  931   0.590   1.487   0.491
  196SOL    HW1  932   0.632   1.429   0.421
  196SOL    HW2  933   0.546   1.566   0.447
  197SOL     OW  934   1.709   0.385   1.381
  197SOL    HW1  935   1.782   0.454   1.385
  197SOL    HW2  936   1.737   0.310   1.322
  198SOL     OW  937   0.255   1.348   0.290
  198SOL    HW1  938   0.159   1.349   0.263
  198SOL    HW2  939   0.267   1.401   0.374
  199SOL     OW  940   0.105   1.013   1.726
  199SOL    HW1  941   0.028   0.980   1.780
  199SOL    HW2  942   0.190   0.983   1.768
  200SOL     OW  943   0.672   0.203   1.489
  200SOL    HW1  944   0.762   0.187   1.449
  200SOL    HW2  945   0.680   0.208   1.588
  201SOL     OW  946   0.075   0.345   0.033
  201SOL    HW1  947  -0.017   0.317   0.004
  201SOL    HW2  948   0.106   0.422  -0.023
  202SOL     OW  949   1.440   0.856   1.398
  202SOL    HW1  950   1.383   0.908   1.335
  202SOL    HW2  951   1.536   0.868   1.374
  203SOL     OW  952   1.183   1.335   0.119
  203SOL    HW1  953   1.084   1.324   0.121
  203SOL    HW2  954   1.217   1.350   0.212
  204SOL     OW  955   0.613   0.842   1.431
  204SOL    HW1  956   0.669   0.923   1.414
  204SOL    HW2  957   0.672   0.762   1.434
  205SOL     OW  958   1.493   1.767   0.959
  205SOL    HW1  959   1.526   1.831   0.890
  205SOL    HW2  960   1.559   1.761   1.034
  206SOL     OW  961   0.716   0.565   1.708
  206SOL    HW1  962   0.735   0.630   1.782
  206SOL    HW2  963   0.776   0.485   1.717
  207SOL     OW  964   1.450   1.220   1.633
  207SOL    HW1  965   1.441   1.210   1.732
  207SOL    HW2  966   1.546   1.213   1.607
  208SOL     OW  967   0.390   1.741   1.560
  208SOL    HW1  968   0.299   1.782   1.558
  208SOL    HW2  969   0.383   1.647   1.592
  209SOL     OW  970   1.674   0.883   1.254
  209SOL    HW1  971   1.647   0.794   1.217
  209SOL    HW2  972   1.675   0.951   1.181
  210SOL     OW  973   1.225   0.325   0.449
  210SOL    HW1  974   1.290   0.251   0.438
  210SOL    HW2  975   1.245   0.375   0.533
  211SOL     OW  976   0.594   0.745   0.652
  211SOL    HW1  977   0.644   0.830   0.633
  211SOL    HW2  978   0.506   0.747   0.604
  212SOL     OW  979   1.777   0.342   1.642
  212SOL    HW1  980   1.760   0.373   1.548
  212SOL    HW2  981   1.693   0.305   1.680
  213SOL     OW  982   1.730   0.934   1.517
  213SOL    HW1  983   1.768   1.025   1.532
  213SOL    HW2  984   1.722   0.917   1.418
  214SOL     OW  985   0.859   1.374   0.016
  214SOL    HW1  986   0.813   1.389   0.104
  214SOL    HW2  987   0.903   1.459  -0.014
  215SOL     OW  988   0.661   1.790   0.953
  215SOL    HW1  989   0.615   1.878   0.940
  215SOL    HW2  990   0.760   1.802   0.946
  216SOL     OW  991   0.859   0.956   0.861
  216SOL    HW1  992   0.913   0.887   0.909
  216SOL    HW2  993   0.827   1.025   0.927
  217SOL     OW  994   1.083   0.984   0.087
  217SOL    HW1  995   1.060   1.037   0.005
  217SOL    HW2  996   1.164   0.928   0.068
  218SOL     OW  997   1.861   1.569   0.851
  218SOL    HW1  998   1.790   1.557   0.781
  218SOL    HW2  999   1.862   1.490   0.911
  219SOL     OW 1000   0.221   1.314   1.844
  219SOL    HW1 1001   0.156   1.241   1.823
  219SOL    HW2 1002   0.225   1.328   1.942
  220SOL     OW 1003   0.079   1.240   0.653
  220SOL    HW1 1004   0.078   1.193   0.741
  220SOL    HW2 1005   0.161   1.212   0.602
  221SOL     OW 1006   0.672   1.391   1.624
  221SOL    HW1 1007   0.594   1.341   1.662
  221SOL    HW2 1008   0.669   1.486   1.655
  222SOL     OW 1009   1.824   0.192   1.227
  222SOL    HW1 1010   1.820   0.102   1.271
  222SOL    HW2 1011   1.827   0.181   1.128
  223SOL     OW 1012   0.428   0.424   0.520
  223SOL    HW1 1013   0.458   0.352   0.458
  223SOL    HW2 1014   0.389   0.384   0.603
  224SOL     OW 1015   1.705   1.487   1.104
  224SOL    HW1 1016   1.612   1.462   1.077
  224SOL    HW2 1017   1.731   1.437   1.186
  225SOL     OW 1018   0.317   0.547   1.280
  225SOL    HW1 1019   0.355   0.488   1.352
  225SOL    HW2 1020   0.357   0.521   1.192
  226SOL     OW 1021   0.812   1.586   0.687
  226SOL    HW1 1022   0.844   1.596   0.593
  226SOL    HW2 1023   0.733   1.524   0.689
  227SOL     OW 1024   1.424   0.214   1.112
  227SOL    HW1 1025   1.476   0.149   1.167
  227SOL    HW2 1026   1.375   0.277   1.173
  228SOL     OW 1027   1.001   0.034   1.154
  228SOL    HW1 1028   0.938  -0.038   1.123
  228SOL    HW2 1029   1.094  -0.002   1.154
  229SOL     OW 1030   0.770   1.330   0.301
  229SOL    HW1 1031   0.724   1.243   0.318
  229SOL    HW2 1032   0.861   1.327   0.342
  230SOL     OW 1033   0.618   1.567   1.284
  230SOL    HW1 1034   0.613   1.649   1.341
  230SOL    HW2 1035   0.707   1.564   1.239
  231SOL     OW 1036   1.352   0.052   0.168
  231SOL    HW1 1037   1.387   0.011   0.084
  231SOL    HW2 1038   1.262   0.014   0.188
  232SOL     OW 1039   1.300   0.453   0.691
  232SOL    HW1 1040   1.241   0.533   0.695
  232SOL    HW2 1041   1.315   0.418   0.784
  233SOL     OW 1042   1.593   0.221   0.882
  233SOL    HW1 1043   1.509   0.220   0.936
  233SOL    HW2 1044   1.595   0.304   0.826
  234SOL     OW 1045   0.039   1.077   0.300
  234SOL    HW1 1046   0.138   1.066   0.291
  234SOL    HW2 1047  -0.001   0.991   0.332
  235SOL     OW 1048   0.875   1.646   0.337
  235SOL    HW1 1049   0.798   1.611   0.283
  235SOL    HW2 1050   0.843   1.717   0.399
  236SOL     OW 1051   0.230   0.628   1.975
  236SOL    HW1 1052   0.137   0.626   2.012
  236SOL    HW2 1053   0.231   0.589   1.883
  237SOL     OW 1054   0.225   0.275   2.858
  237SOL    HW1 1055   0.260   0.258   2.950
  237SOL    HW2 1056   0.137   0.230   2.846
  238SOL     OW 1057   0.019   0.368   2.509
  238SOL    HW1 1058  -0.063   0.411   2.548
  238SOL    HW2 1059  -0.009   0.295   2.446
  239SOL     OW 1060   0.569   1.275   3.027
  239SOL    HW1 1061   0.476   1.268   2.990
  239SOL    HW2 1062   0.580   1.364   3.071
  240SOL     OW 1063   1.555   1.511   2.565
  240SOL    HW1 1064   1.498   1.495   2.646
  240SOL    HW2 1065   1.496   1.521   2.485
  241SOL     OW 1066   1.135   0.703   2.579
  241SOL    HW1 1067   1.192   0.781   2.554
  241SOL    HW2 1068   1.075   0.729   2.655
  242SOL     OW 1069   1.755   0.607   2.093
  242SOL    HW1 1070   1.743   0.594   1.994
  242SOL    HW2 1071   1.725   0.526   2.142
  243SOL     OW 1072   0.768   1.144   2.885
  243SOL    HW1 1073   0.690   1.161   2.945
  243SOL    HW2 1074   0.802   1.231   2.849
  244SOL     OW 1075   0.850   0.798   3.685
  244SOL    HW1 1076   0.846   0.874   3.750
  244SOL    HW2 1077   0.872   0.834   3.594
  245SOL     OW 1078   0.685   1.012   2.527
  245SOL    HW1 1079   0.754   0.996   2.597
  245SOL    HW2 1080   0.612   1.069   2.565
  246SOL     OW 1081   0.686   1.161   3.665
  246SOL    HW1 1082   0.746   1.240   3.679
  246SOL    HW2 1083   0.600   1.192   3.624
  247SOL     OW 1084   0.335   1.435   2.923
  247SOL    HW1 1085   0.257   1.404   2.870
  247SOL    HW2 1086   0.393   1.493   2.866
  248SOL     OW 1087   1.460   1.505   3.201
  248SOL    HW1 1088   1.484   1.599   3.227
  248SOL    HW2 1089   1.444   1.451   3.283
  249SOL     OW 1090   0.438   0.392   3.361
  249SOL    HW1 1091   0.520   0.336   3.370
  249SOL    HW2 1092   0.357   0.334   3.365
  250SOL     OW 1093   1.603   0.447   2.599
  250SOL    HW1 1094   1.529   0.493   2.549
  250SOL    HW2 1095   1.654   0.515   2.652
  251SOL     OW 1096   0.231   1.713   2.345
  251SOL    HW1 1097   0.265   1.790   2.399
  251SOL    HW2 1098   0.275   1.713   2.255
  252SOL     OW 1099   1.127   1.341   3.552
  252SOL    HW1 1100   1.174   1.341   3.640
  252SOL    HW2 1101   1.079   1.254   3.541
  253SOL     OW 1102   0.230   1.434   2.400
  253SOL    HW1 1103   0.204   1.530   2.400
  253SOL    HW2 1104   0.159   1.380   2.445
  254SOL     OW 1105   0.240   1.091   2.748
  254SOL    HW1 1106   0.254   1.007   2.800
  254SOL    HW2 1107   0.185   1.155   2.803
  255SOL     OW 1108   0.620   1.786   3.301
  255SOL    HW1 1109   0.528   1.769   3.336
  255SOL    HW2 1110   0.648   1.878   3.327
  256SOL     OW 1111   0.606   0.964   1.985
  256SOL    HW1 1112   0.613   1.048   1.931
  256SOL    HW2 1113   0.652   0.977   2.073
  257SOL     OW 1114   1.594   0.114   3.342
  257SOL    HW1 1115   1.576   0.181   3.270
  257SOL    HW2 1116   1.591   0.160   3.431
  258SOL     OW 1117   0.122   0.643   2.425
  258SOL    HW1 1118   0.077   0.555   2.442
  258SOL    HW2 1119   0.121   0.697   2.509
  259SOL     OW 1120   1.842   1.767   2.221
  259SOL    HW1 1121   1.896   1.738   2.301
  259SOL    HW2 1122   1.872   1.857   2.192
  260SOL     OW 1123   0.027   1.596   1.979
  260SOL    HW1 1124   0.008   1.500   2.000
  260SOL    HW2 1125  -0.006   1.654   2.054
  261SOL     OW 1126   1.689   0.922   2.474
  261SOL    HW1 1127   1.784   0.893   2.482
  261SOL    HW2 1128   1.681   0.987   2.399
  262SOL     OW 1129   1.641   1.108   2.294
  262SOL    HW1 1130   1.727   1.110   2.242
  262SOL    HW2 1131   1.655   1.155   2.382
  263SOL     OW 1132   0.113   0.737   3.459
  263SOL    HW1 1133   0.201   0.724   3.504
  263SOL    HW2 1134   0.100   0.834   3.437
  264SOL     OW 1135   0.613   1.365   2.588
  264SOL    HW1 1136   0.564   1.278   2.597
  264SOL    HW2 1137   0.590   1.408   2.501
  265SOL     OW 1138   1.293   1.228   3.285
  265SOL    HW1 1139   1.330   1.155   3.227
  265SOL    HW2 1140   1.345   1.233   3.370
  266SOL     OW 1141   0.809   0.004   2.364
  266SOL    HW1 1142   0.849   0.095   2.355
  266SOL    HW2 1143   0.709   0.012   2.370
  267SOL     OW 1144   0.197   0.976   3.126
  267SOL    HW1 1145   0.286   0.931   3.112
  267SOL    HW2 1146   0.124   0.911   3.107
  268SOL     OW 1147   1.525   0.999   2.052
  268SOL    HW1 1148   1.462   0.923   2.065
  268SOL    HW2 1149   1.573   1.017   2.138
  269SOL     OW 1150   1.187   1.792   3.478
  269SOL    HW1 1151   1.211   1.852   3.402
  269SOL    HW2 1152   1.194   1.697   3.448
  270SOL     OW 1153   0.317   0.251   3.663
  270SOL    HW1 1154   0.388   0.322   3.669
  270SOL    HW2 1155   0.229   0.290   3.691
  271SOL     OW 1156   1.466   1.417   2.815
  271SOL    HW1 1157   1.407   1.423   2.895
  271SOL    HW2 1158   1.451   1.329   2.769
  272SOL     OW 1159   1.667   1.714   2.434
  272SOL    HW1 1160   1.626   1.691   2.346
  272SOL    HW2 1161   1.649   1.640   2.499
  273SOL     OW 1162   0.598   0.729   2.132
  273SOL    HW1 1163   0.622   0.798   2.064
  273SOL    HW2 1164   0.520   0.762   2.186
  274SOL     OW 1165   1.281   0.345   2.806
  274SOL    HW1 1166   1.195   0.295   2.793
  274SOL    HW2 1167   1.343   0.291   2.862
  275SOL     OW 1168   1.576   1.662   2.169
  275SOL    HW1 1169   1.665   1.708   2.172
  275SOL    HW2 1170   1.555   1.638   2.074
  276SOL     OW 1171   0.807   0.605   3.327
  276SOL    HW1 1172   0.760   0.602   3.416
  276SOL    HW2 1173   0.756   0.550   3.261
  277SOL     OW 1174   1.394   0.469   3.536
  277SOL    HW1 1175   1.374   0.512   3.624
  277SOL    HW2 1176   1.472   0.407   3.545
  278SOL     OW 1177   0.973   0.890   3.434
  278SOL    HW1 1178   1.019   0.806   3.405
  278SOL    HW2 1179   0.917   0.924   3.359
  279SOL     OW 1180   0.991   0.410   3.104
  279SOL    HW1 1181   0.914   0.444   3.158
  279SOL    HW2 1182   0.957   0.359   3.025
  280SOL     OW 1183   1.041   0.701   2.291
  280SOL    HW1 1184   1.067   0.697   2.387
  280SOL    HW2 1185   0.956   0.650   2.277
  281SOL     OW 1186   0.076   0.811   2.651
  281SOL    HW1 1187   0.175   0.799   2.660
  281SOL    HW2 1188   0.052   0.906   2.672
  282SOL     OW 1189   0.130   1.821   3.433
  282SOL    HW1 1190   0.120   1.806   3.532
  282SOL    HW2 1191   0.044   1.857   3.397
  283SOL     OW 1192   0.865   0.348   2.057
  283SOL    HW1 1193   0.924   0.411   2.008
  283SOL    HW2 1194   0.884   0.254   2.028
  284SOL     OW 1195   1.719   0.585   3.693
  284SOL    HW1 1196   1.693   0.674   3.657
  284SOL    HW2 1197   1.717   0.517   3.620
  285SOL     OW 1198   1.362   1.144   2.407
  285SOL    HW1 1199   1.445   1.115   2.359
  285SOL    HW2 1200   1.313   1.211   2.351
  286SOL     OW 1201   0.550   0.196   2.747
  286SOL    HW1 1202   0.545   0.191   2.847
  286SOL    HW2 1203   0.552   0.292   2.718
  287SOL     OW 1204   1.008   1.456   2.339
  287SOL    HW1 1205   0.962   1.528   2.287
  287SOL    HW2 1206   1.004   1.476   2.437
  288SOL     OW 1207   1.795   1.066   2.735
  288SOL    HW1 1208   1.733   1.051   2.659
  288SOL    HW2 1209   1.743   1.077   2.820
  289SOL     OW 1210   1.227   1.550   3.368
  289SOL    HW1 1211   1.233   1.473   3.432
  289SOL    HW2 1212   1.175   1.524   3.288
  290SOL     OW 1213   0.321   0.943   2.104
  290SOL    HW1 1214   0.403   0.982   2.062
  290SOL    HW2 1215   0.294   0.861   2.055
  291SOL     OW 1216   1.458   0.735   2.590
  291SOL    HW1 1217   1.453   0.670   2.665
  291SOL    HW2 1218   1.538   0.794   2.603
  292SOL     OW 1219   0.461   1.266   3.589
  292SOL    HW1 1220   0.411   1.267   3.503
  292SOL    HW2 1221   0.398   1.248   3.665
  293SOL     OW 1222   1.111   1.776   2.099
  293SOL    HW1 1223   1.051   1.714   2.149
  293SOL    HW2 1224   1.142   1.732   2.014
  294SOL     OW 1225   0.202   0.285   3.360
  294SOL    HW1 1226   0.122   0.345   3.347
  294SOL    HW2 1227   0.192   0.236   3.446
  295SOL     OW 1228   1.632   1.377   1.943
  295SOL    HW1 1229   1.600   1.471   1.933
  295SOL    HW2 1230   1.556   1.314   1.931
  296SOL     OW 1231   0.464   1.743   2.185
  296SOL    HW1 1232   0.497   1.782   2.271
  296SOL    HW2 1233   0.540   1.736   2.120
  297SOL     OW 1234   1.400   0.107   2.288
  297SOL    HW1 1235   1.376   0.070   2.198
  297SOL    HW2 1236   1.499   0.123   2.292
  298SOL     OW 1237   0.249   1.785   3.103
  298SOL    HW1 1238   0.306   1.720   3.153
  298SOL    HW2 1239   0.233   1.752   3.010
  299SOL     OW 1240   0.940   1.698   2.766
  299SOL    HW1 1241   1.020   1.641   2.787
  299SOL    HW2 1242   0.891   1.658   2.689
  300SOL     OW 1243   0.382   0.700   2.342
  300SOL    HW1 1244   0.427   0.610   2.339
  300SOL    HW2 1245   0.288   0.689   2.375
  301SOL     OW 1246   1.547   0.222   3.591
  301SOL    HW1 1247   1.542   0.259   3.683
  301SOL    HW2 1248   1.475   0.153   3.579
  302SOL     OW 1249   0.614   0.122   1.979
  302SOL    HW1 1250   0.712   0.100   1.986
  302SOL    HW2 1251   0.583   0.105   1.886
  303SOL     OW 1252   0.781   0.264   3.611
  303SOL    HW1 1253   0.848   0.203   3.654
  303SOL    HW2 1254   0.708   0.283   3.676
  304SOL     OW 1255   0.888   1.514   3.057
  304SOL    HW1 1256   0.865   1.489   2.963
  304SOL    HW2 1257   0.949   1.445   3.096
  305SOL     OW 1258   1.351   0.590   3.295
  305SOL    HW1 1259   1.379   0.547   3.380
  305SOL    HW2 1260   1.376   0.686   3.296
  306SOL     OW 1261   0.803   1.402   2.786
  306SOL    HW1 1262   0.893   1.416   2.744
  306SOL    HW2 1263   0.732   1.404   2.715
  307SOL     OW 1264   0.922   0.503   2.761
  307SOL    HW1 1265   0.897   0.494   2.665
  307SOL    HW2 1266   0.970   0.421   2.792
  308SOL     OW 1267   0.539   0.064   2.374
  308SOL    HW1 1268   0.458   0.065   2.432
  308SOL    HW2 1269   0.542   0.147   2.319
  309SOL     OW 1270   1.434   1.188   1.903
  309SOL    HW1 1271   1.466   1.112   1.960
  309SOL    HW2 1272   1.342   1.215   1.933
  310SOL     OW 1273   0.297   0.035   2.033
  310SOL    HW1 1274   0.346   0.119   2.012
  310SOL    HW2 1275   0.359  -0.030   2.078
  311SOL     OW 1276   0.935   0.236   2.342
  311SOL    HW1 1277   0.887   0.277   2.264
  311SOL    HW2 1278   1.034   0.234   2.323
  312SOL     OW 1279   1.076   0.683   3.326
  312SOL    HW1 1280   0.996   0.622   3.329
  312SOL    HW2 1281   1.157   0.630   3.302
  313SOL     OW 1282   1.227   1.570   2.655
  313SOL    HW1 1283   1.248   1.644   2.590
  313SOL    HW2 1284   1.295   1.570   2.728
  314SOL     OW 1285   0.459   1.152   2.603
  314SOL    HW1 1286   0.388   1.125   2.668
  314SOL    HW2 1287   0.433   1.124   2.510
  315SOL     OW 1288   1.271   1.797   2.453
  315SOL    HW1 1289   1.315   1.861   2.389
  315SOL    HW2 1290   1.221   1.849   2.523
  316SOL     OW 1291   1.032   0.549   1.878
  316SOL    HW1 1292   0.991   0.631   1.839
  316SOL    HW2 1293   1.096   0.575   1.951
  317SOL     OW 1294   0.078   0.556   3.248
  317SOL    HW1 1295   0.170   0.555   3.207
  317SOL    HW2 1296   0.072   0.630   3.315
  318SOL     OW 1297   0.561   0.222   3.009
  318SOL    HW1 1298   0.599   0.138   3.046
  318SOL    HW2 1299   0.473   0.241   3.053
  319SOL     OW 1300   0.866   0.454   2.504
  319SOL    HW1 1301   0.834   0.526   2.442
  319SOL    HW2 1302   0.890   0.373   2.451
  320SOL     OW 1303   1.017   0.039   2.615
  320SOL    HW1 1304   0.945   0.044   2.546
  320SOL    HW2 1305   0.993  -0.030   2.684
  321SOL     OW 1306   1.429   1.173   2.729
  321SOL    HW1 1307   1.374   1.089   2.722
  321SOL    HW2 1308   1.455   1.202   2.637
  322SOL     OW 1309   1.466   0.590   2.854
  322SOL    HW1 1310   1.436   0.495   2.861
  322SOL    HW2 1311   1.539   0.606   2.920
  323SOL     OW 1312   1.857   0.833   2.239
  323SOL    HW1 1313   1.899   0.769   2.303
  323SOL    HW2 1314   1.819   0.782   2.161
  324SOL     OW 1315   0.488   1.385   2.036
  324SOL    HW1 1316   0.401   1.370   2.083
  324SOL    HW2 1317   0.471   1.411   1.941
  325SOL     OW 1318   1.664   1.280   2.519
  325SOL    HW1 1319   1.763   1.288   2.533
  325SOL    HW2 1320   1.619   1.364   2.550
  326SOL     OW 1321   1.390   0.575   1.940
  326SOL    HW1 1322   1.336   0.554   2.021
  326SOL    HW2 1323   1.481   0.534   1.949
  327SOL     OW 1324   0.527   0.256   2.190
  327SOL    HW1 1325   0.554   0.197   2.115
  327SOL    HW2 1326   0.527   0.351   2.159
  328SOL     OW 1327   1.754   1.223   3.450
  328SOL    HW1 1328   1.845   1.184   3.437
  328SOL    HW2 1329   1.762   1.319   3.474
  329SOL     OW 1330   1.064   1.347   3.202
  329SOL    HW1 1331   0.984   1.324   3.257
  329SOL    HW2 1332   1.147   1.321   3.251
  330SOL     OW 1333   1.592   1.629   3.487
  330SOL    HW1 1334   1.619   1.663   3.397
  330SOL    HW2 1335   1.671   1.591   3.533
  331SOL     OW 1336   1.111   1.195   2.962
  331SOL    HW1 1337   1.071   1.239   3.043
  331SOL    HW2 1338   1.070   1.232   2.879
  332SOL     OW 1339   1.638   1.099   2.941
  332SOL    HW1 1340   1.643   1.180   3.000
  332SOL    HW2 1341   1.552   1.101   2.890
  333SOL     OW 1342   0.915   0.089   3.264
  333SOL    HW1 1343   0.940   0.069   3.169
  333SOL    HW2 1344   0.987   0.145   3.306
  334SOL     OW 1345   0.980   1.116   3.581
  334SOL    HW1 1346   0.881   1.122   3.591
  334SOL    HW2 1347   1.003   1.036   3.525
  335SOL     OW 1348   0.705   1.050   2.230
  335SOL    HW1 1349   0.691   1.057   2.329
  335SOL    HW2 1350   0.789   0.999   2.212
  336SOL     OW 1351   0.410   0.813   3.113
  336SOL    HW1 1352   0.496   0.825   3.163
  336SOL    HW2 1353   0.368   0.726   3.140
  337SOL     OW 1354   1.274   0.386   3.124
  337SOL    HW1 1355   1.295   0.460   3.188
  337SOL    HW2 1356   1.185   0.403   3.081
  338SOL     OW 1357   0.064   1.564   3.193
  338SOL    HW1 1358   0.018   1.646   3.159
  338SOL    HW2 1359   0.162   1.583   3.202
  339SOL     OW 1360   0.367   1.100   2.363
  339SOL    HW1 1361   0.360   1.183   2.307
  339SOL    HW2 1362   0.371   1.020   2.303
  340SOL     OW 1363   0.566   0.537   2.727
  340SOL    HW1 1364   0.578   0.603   2.653
  340SOL    HW2 1365   0.612   0.571   2.810
  341SOL     OW 1366   1.252   1.348   2.250
  341SOL    HW1 1367   1.302   1.425   2.290
  341SOL    HW2 1368   1.157   1.350   2.282
  342SOL     OW 1369   1.272   1.445   3.004
  342SOL    HW1 1370   1.319   1.458   3.091
  342SOL    HW2 1371   1.206   1.371   3.013
  343SOL     OW 1372   1.582   0.639   2.334
  343SOL    HW1 1373   1.551   0.700   2.407
  343SOL    HW2 1374   1.632   0.691   2.265
  344SOL     OW 1375   0.354   1.510   3.191
  344SOL    HW1 1376   0.333   1.466   3.104
  344SOL    HW2 1377   0.451   1.536   3.194
  345SOL     OW 1378   0.402   0.751   3.460
  345SOL    HW1 1379   0.470   0.806   3.413
  345SOL    HW2 1380   0.442   0.663   3.487
  346SOL     OW 1381   1.587   0.779   3.532
  346SOL    HW1 1382   1.495   0.817   3.527
  346SOL    HW2 1383   1.647   0.826   3.467
  347SOL     OW 1384   1.013   0.105   3.632
  347SOL    HW1 1385   1.019   0.190   3.580
  347SOL    HW2 1386   1.045   0.029   3.575
  348SOL     OW 1387   0.504   0.050   3.602
  348SOL    HW1 1388   0.462  -0.007   3.532
  348SOL    HW2 1389   0.438   0.119   3.634
  349SOL     OW 1390   0.573   0.870   2.891
  349SOL    HW1 1391   0.617   0.959   2.882
  349SOL    HW2 1392   0.510   0.870   2.968
  350SOL     OW 1393   1.360   0.862   2.907
  350SOL    HW1 1394   1.285   0.862   2.841
  350SOL    HW2 1395   1.397   0.770   2.916
  351SOL     OW 1396   1.209   0.525   2.137
  351SOL    HW1 1397   1.222   0.441   2.191
  351SOL    HW2 1398   1.180   0.599   2.197
  352SOL     OW 1399   0.307   0.213   3.093
  352SOL    HW1 1400   0.284   0.250   3.183
  352SOL    HW2 1401   0.277   0.118   3.087
  353SOL     OW 1402   0.037   1.310   3.144
  353SOL    HW1 1403   0.090   1.261   3.212
  353SOL    HW2 1404   0.059   1.408   3.149
  354SOL     OW 1405   0.732   0.634   2.926
  354SOL    HW1 1406   0.791   0.608   2.850
  354SOL    HW2 1407   0.704   0.730   2.915
  355SOL     OW 1408   1.728   0.935   3.716
  355SOL    HW1 1409   1.682   0.928   3.627
  355SOL    HW2 1410   1.666   0.979   3.782
  356SOL     OW 1411   0.307   0.063   2.480
  356SOL    HW1 1412   0.296   0.157   2.513
  356SOL    HW2 1413   0.302   0.000   2.557
  357SOL     OW 1414   1.622   0.367   2.236
  357SOL    HW1 1415   1.624   0.291   2.300
  357SOL    HW2 1416   1.574   0.444   2.276
  358SOL     OW 1417   1.023   0.766   2.828
  358SOL    HW1 1418   1.038   0.787   2.924
  358SOL    HW2 1419   0.993   0.671   2.819
  359SOL     OW 1420   0.980   1.573   3.562
  359SOL    HW1 1421   0.960   1.617   3.474
  359SOL    HW2 1422   1.019   1.482   3.546
  360SOL     OW 1423   1.859   1.518   3.467
  360SOL    HW1 1424   1.873   1.545   3.372
  360SOL    HW2 1425   1.942   1.540   3.520
  361SOL     OW 1426   0.350   0.898   3.666
  361SOL    HW1 1427   0.426   0.942   3.714
  361SOL    HW2 1428   0.385   0.851   3.584
  362SOL     OW 1429   1.540   0.274   1.987
  362SOL    HW1 1430   1.479   0.199   2.010
  362SOL    HW2 1431   1.562   0.326   2.070
  363SOL     OW 1432   1.303   0.838   1.904
  363SOL    HW1 1433   1.337   0.745   1.919
  363SOL    HW2 1434   1.321   0.865   1.809
  364SOL     OW 1435   1.068   1.333   2.711
  364SOL    HW1 1436   1.075   1.249   2.656
  364SOL    HW2 1437   1.130   1.402   2.675
  365SOL     OW 1438   0.319   0.810   2.811
  365SOL    HW1 1439   0.412   0.846   2.816
  365SOL    HW2 1440   0.313   0.725   2.863
  366SOL     OW 1441   0.339   0.509   2.868
  366SOL    HW1 1442   0.287   0.426   2.851
  366SOL    HW2 1443   0.416   0.514   2.804
  367SOL     OW 1444   1.138   0.380   3.540
  367SOL    HW1 1445   1.093   0.443   3.604
  367SOL    HW2 1446   1.231   0.411   3.523
  368SOL     OW 1447   1.160   0.207   3.339
  368SOL    HW1 1448   1.160   0.271   3.416
  368SOL    HW2 1449   1.188   0.255   3.256
  369SOL     OW 1450   0.008   1.326   2.062
  369SOL    HW1 1451  -0.085   1.347   2.031
  369SOL    HW2 1452   0.018   1.227   2.075
  370SOL     OW 1453   0.088   1.801   2.789
  370SOL    HW1 1454   0.046   1.715   2.762
  370SOL    HW2 1455   0.182   1.804   2.755
  371SOL     OW 1456   0.504   1.568   2.772
  371SOL    HW1 1457   0.570   1.642   2.781
  371SOL    HW2 1458   0.548   1.489   2.730
  372SOL     OW 1459   1.002   0.796   3.100
  372SOL    HW1 1460   1.043   0.764   3.186
  372SOL    HW2 1461   0.906   0.769   3.097
  373SOL     OW 1462   0.040   0.544   2.976
  373SOL    HW1 1463   0.125   0.511   2.935
  373SOL    HW2 1464   0.053   0.559   3.074
  374SOL     OW 1465   0.189   0.520   3.584
  374SOL    HW1 1466   0.248   0.480   3.514
  374SOL    HW2 1467   0.131   0.591   3.543
  375SOL     OW 1468   1.369   0.950   3.522
  375SOL    HW1 1469   1.408   1.039   3.542
  375SOL    HW2 1470   1.379   0.930   3.425
  376SOL     OW 1471   0.815   0.572   2.187
  376SOL    HW1 1472   0.822   0.483   2.141
  376SOL    HW2 1473   0.721   0.606   2.179
  377SOL     OW 1474   1.657   0.604   3.068
  377SOL    HW1 1475   1.619   0.535   3.130
  377SOL    HW2 1476   1.739   0.568   3.024
  378SOL     OW 1477   0.252   1.564   3.606
  378SOL    HW1 1478   0.222   1.621   3.682
  378SOL    HW2 1479   0.245   1.467   3.632
  379SOL     OW 1480   0.671   0.464   3.131
  379SOL    HW1 1481   0.637   0.375   3.101
  379SOL    HW2 1482   0.697   0.518   3.051
  380SOL     OW 1483   0.930   1.678   3.327
  380SOL    HW1 1484   0.906   1.660   3.232
  380SOL    HW2 1485   0.960   1.772   3.337
  381SOL     OW 1486   0.473   0.500   2.053
  381SOL    HW1 1487   0.534   0.580   2.057
  381SOL    HW2 1488   0.378   0.531   2.060
  382SOL     OW 1489   0.159   1.137   3.328
  382SOL    HW1 1490   0.181   1.076   3.404
  382SOL    HW2 1491   0.169   1.088   3.242
  383SOL     OW 1492   1.347   1.059   3.096
  383SOL    HW1 1493   1.371   0.996   3.022
  383SOL    HW2 1494   1.257   1.099   3.078
  384SOL     OW 1495   1.302   0.855   2.171
  384SOL    HW1 1496   1.216   0.824   2.213
  384SOL    HW2 1497   1.298   0.841   2.072
  385SOL     OW 1498   1.759   1.747   3.016
  385SOL    HW1 1499   1.820   1.777   2.943
  385SOL    HW2 1500   1.721   1.658   2.994
  386SOL     OW 1501   1.252   1.731   2.990
  386SOL    HW1 1502   1.336   1.736   2.936
  386SOL    HW2 1503   1.229   1.635   3.008
  387SOL     OW 1504   0.083   1.258   2.884
  387SOL    HW1 1505   0.078   1.257   2.984
  387SOL    HW2 1506   0.000   1.217   2.846
  388SOL     OW 1507   0.688   1.662   3.578
  388SOL    HW1 1508   0.632   1.743   3.587
  388SOL    HW2 1509   0.740   1.666   3.492
  389SOL     OW 1510   1.726   0.135   2.385
  389SOL    HW1 1511   1.799   0.118   2.318
  389SOL    HW2 1512   1.695   0.048   2.423
  390SOL     OW 1513   1.388   1.573   2.339
  390SOL    HW1 1514   1.455   1.585   2.265
  390SOL    HW2 1515   1.348   1.662   2.362
  391SOL     OW 1516   0.130   1.794   3.713
  391SOL    HW1 1517   0.089   1.720   3.766
  391SOL    HW2 1518   0.194   1.845   3.771
  392SOL     OW 1519   1.280   0.927   2.534
  392SOL    HW1 1520   1.340   0.846   2.536
  392SOL    HW2 1521   1.320   0.996   2.474
  393SOL     OW 1522   0.830   1.273   3.284
  393SOL    HW1 1523   0.825   1.306   3.379
  393SOL    HW2 1524   0.744   1.292   3.238
  394SOL     OW 1525   0.672   1.616   2.016
  394SOL    HW1 1526   0.681   1.626   1.917
  394SOL    HW2 1527   0.632   1.527   2.037
  395SOL     OW 1528   1.650   1.720   3.256
  395SOL    HW1 1529   1.703   1.730   3.172
  395SOL    HW2 1530   1.623   1.810   3.290
  396SOL     OW 1531   1.841   0.175   2.825
  396SOL    HW1 1532   1.880   0.090   2.789
  396SOL    HW2 1533   1.743   0.177   2.806
  397SOL     OW 1534   0.263   0.326   2.582
  397SOL    HW1 1535   0.184   0.377   2.548
  397SOL    HW2 1536   0.254   0.311   2.680
  398SOL     OW 1537   1.194   1.612   1.893
  398SOL    HW1 1538   1.200   1.519   1.930
  398SOL    HW2 1539   1.135   1.612   1.813
  399SOL     OW 1540   0.822   1.002   3.234
  399SOL    HW1 1541   0.862   1.001   3.142
  399SOL    HW2 1542   0.832   1.094   3.274
  400SOL     OW 1543   0.916   0.910   2.153
  400SOL    HW1 1544   0.979   0.948   2.085
  400SOL    HW2 1545   0.956   0.827   2.192
  401SOL     OW 1546   1.504   1.607   1.906
  401SOL    HW1 1547   1.412   1.644   1.913
  401SOL    HW2 1548   1.542   1.627   1.816
  402SOL     OW 1549   0.372   1.288   3.352
  402SOL    HW1 1550   0.359   1.381   3.318
  402SOL    HW2 1551   0.288   1.236   3.339
  403SOL     OW 1552   1.614   1.292   3.151
  403SOL    HW1 1553   1.674   1.295   3.231
  403SOL    HW2 1554   1.539   1.356   3.164
  404SOL     OW 1555   1.039   1.098   2.558
  404SOL    HW1 1556   0.969   1.051   2.612
  404SOL    HW2 1557   1.098   1.030   2.515
  405SOL     OW 1558   1.014   0.236   2.833
  405SOL    HW1 1559   1.006   0.200   2.740
  405SOL    HW2 1560   1.012   0.160   2.898
  406SOL     OW 1561   0.590   1.487   2.353
  406SOL    HW1 1562   0.632   1.429   2.283
  406SOL    HW2 1563   0.546   1.566   2.309
  407SOL     OW 1564   1.709   0.385   3.243
  407SOL    HW1 1565   1.782   0.454   3.247
  407SOL    HW2 1566   1.737   0.310   3.184
  408SOL     OW 1567   0.255   1.348   2.152
  408SOL    HW1 1568   0.159   1.349   2.125
  408SOL    HW2 1569   0.267   1.401   2.236
  409SOL     OW 1570   0.105   1.013   3.588
  409SOL    HW1 1571   0.028   0.980   3.642
  409SOL    HW2 1572   0.190   0.983   3.630
  410SOL     OW 1573   0.672   0.203   3.351
  410SOL    HW1 1574   0.762   0.187   3.311
  410SOL    HW2 1575   0.680   0.208   3.450
  411SOL     OW 1576   0.075   0.345   1.895
  411SOL    HW1 1577  -0.017   0.317   1.866
  411SOL    HW2 1578   0.106   0.422   1.839
  412SOL     OW 1579   1.440   0.856   3.260
  412SOL    HW1 1580   1.383   0.908   3.197
  412SOL    HW2 1581   1.536   0.868   3.236
  413SOL     OW 1582   0.072   0.166   2.180
  413SOL    HW1 1583   0.055   0.249   2.126
  413SOL    HW2 1584   0.162   0.129   2.158
  414SOL     OW 1585   1.183   1.335   1.981
  414SOL    HW1 1586   1.084   1.324   1.983
  414SOL    HW2 1587   1.217   1.350   2.074
  415SOL     OW 1588   0.613   0.842   3.293
  415SOL    HW1 1589   0.669   0.923   3.276
  415SOL    HW2 1590   0.672   0.762   3.296
  416SOL     OW 1591   1.493   1.767   2.821
  416SOL    HW1 1592   1.526   1.831   2.752
  416SOL    HW2 1593   1.559   1.761   2.896
  417SOL     OW 1594   0.716   0.565   3.570
  417SOL    HW1 1595   0.735   0.630   3.644
  417SOL    HW2 1596   0.776   0.485   3.579
  418SOL     OW 1597   1.450   1.220   3.495
  418SOL    HW1 1598   1.441   1.210   3.594
  418SOL    HW2 1599   1.546   1.213   3.469
  419SOL     OW 1600   0.390   1.741   3.422
  419SOL    HW1 1601   0.299   1.782   3.420
  419SOL    HW2 1602   0.383   1.647   3.454
  420SOL     OW 1603   1.674   0.883   3.116
  420SOL    HW1 1604   1.647   0.794   3.079
  420SOL    HW2 1605   1.675   0.951   3.043
  421SOL     OW 1606   1.225   0.325   2.311
  421SOL    HW1 1607   1.290   0.251   2.300
  421SOL    HW2 1608   1.245   0.375   2.395
  422SOL     OW 1609   0.594   0.745   2.514
  422SOL    HW1 1610   0.644   0.830   2.495
  422SOL    HW2 1611   0.506   0.747   2.466
  423SOL     OW 1612   1.777   0.342   3.504
  423SOL    HW1 1613   1.760   0.373   3.410
  423SOL    HW2 1614   1.693   0.305   3.542
  424SOL     OW 1615   1.730   0.934   3.379
  424SOL    HW1 1616   1.768   1.025   3.394
  424SOL    HW2 1617   1.722   0.917   3.280
  425SOL     OW 1618   0.859   1.374   1.878
  425SOL    HW1 1619   0.813   1.389   1.966
  425SOL    HW2 1620   0.903   1.459   1.848
  426SOL     OW 1621   0.661   1.790   2.815
  426SOL    HW1 1622   0.615   1.878   2.802
  426SOL    HW2 1623   0.760   1.802   2.808
  427SOL     OW 1624   0.859   0.956   2.723
  427SOL    HW1 1625   0.913   0.887   2.771
  427SOL    HW2 1626   0.827   1.025   2.789
  428SOL     OW 1627   1.083   0.984   1.949
  428SOL    HW1 1628   1.060   1.037   1.867
  428SOL    HW2 1629   1.164   0.928   1.930
  429SOL     OW 1630   1.861   1.569   2.713
  429SOL    HW1 1631   1.790   1.557   2.643
  429SOL    HW2 1632   1.862   1.490   2.773
  430SOL     OW 1633   0.221   1.314   3.706
  430SOL    HW1 1634   0.156   1.241   3.685
  430SOL    HW2 1635   0.225   1.328   3.804
  431SOL     OW 1636   0.079   1.240   2.515
  431SOL    HW1 1637   0.078   1.193   2.603
  431SOL    HW2 1638   0.161   1.212   2.464
  432SOL     OW 1639   0.672   1.391   3.486
  432SOL    HW1 1640   0.594   1.341   3.524
  432SOL    HW2 1641   0.669   1.486   3.517
  433SOL     OW 1642   0.428   0.424   2.382
  433SOL    HW1 1643   0.458   0.352   2.320
  433SOL    HW2 1644   0.389   0.384   2.465
  434SOL     OW 1645   1.705   1.487   2.966
  434SOL    HW1 1646   1.612   1.462   2.939
  434SOL    HW2 1647   1.731   1.437   3.048
  435SOL     OW 1648   0.317   0.547   3.142
  435SOL    HW1 1649   0.355   0.488   3.214
  435SOL    HW2 1650   0.357   0.521   3.054
  436SOL     OW 1651   0.812   1.586   2.549
  436SOL    HW1 1652   0.844   1.596   2.455
  436SOL    HW2 1653   0.733   1.524   2.551
  437SOL     OW 1654   1.424   0.214   2.974
  437SOL    HW1 1655   1.476   0.149   3.029
  437SOL    HW2 1656   1.375   0.277   3.035
  438SOL     OW 1657   1.001   0.034   3.016
  438SOL    HW1 1658   0.938  -0.038   2.985
  438SOL    HW2 1659   1.094  -0.002   3.016
  439SOL     OW 1660   0.770   1.330   2.163
  439SOL    HW1 1661   0.724   1.243   2.180
  439SOL    HW2 1662   0.861   1.327   2.204
  440SOL     OW 1663   0.618   1.567   3.146
  440SOL    HW1 1664   0.613   1.649   3.203
  440SOL    HW2 1665   0.707   1.564   3.101
  441SOL     OW 1666   1.352   0.052   2.030
  441SOL    HW1 1667   1.387   0.011   1.946
  441SOL    HW2 1668   1.262   0.014   2.050
  442SOL     OW 1669   1.300   0.453   2.553
  442SOL    HW1 1670   1.241   0.533   2.557
  442SOL    HW2 1671   1.315   0.418   2.646
  443SOL     OW 1672   1.593   0.221   2.744
  443SOL    HW1 1673   1.509   0.220   2.798
  443SOL    HW2 1674   1.595   0.304   2.688
  444SOL     OW 1675   0.039   1.077   2.162
  444SOL    HW1 1676   0.138   1.066   2.153
  444SOL    HW2 1677  -0.001   0.991   2.194
  445SOL     OW 1678   0.875   1.646   2.199
  445SOL    HW1 1679   0.798   1.611   2.145
  445SOL    HW2 1680   0.843   1.717   2.261
  446SOL     OW 1681   0.230   0.628   3.837
  446SOL    HW1 1682   0.137   0.626   3.874
  446SOL    HW2 1683   0.231   0.589   3.745
  447SOL     OW 1684   0.225   0.275   4.720
  447SOL    HW1 1685   0.260   0.258   4.812
  447SOL    HW2 1686   0.137   0.230   4.708
  448SOL     OW 1687   0.019   0.368   4.371
  448SOL    HW1 1688  -0.063   0.411   4.410
  448SOL    HW2 1689  -0.009   0.295   4.308
  449SOL     OW 1690   0.569   1.275   4.889
  449SOL    HW1 1691   0.476   1.268   4.852
  449SOL    HW2 1692   0.580   1.364   4.933
  450SOL     OW 1693   1.555   1.511   4.427
  450SOL    HW1 1694   1.498   1.495   4.508
  450SOL    HW2 1695   1.496   1.521   4.347
  451SOL     OW 1696   1.135   0.703   4.441
  451SOL    HW1 1697   1.192   0.781   4.416
  451SOL    HW2 1698   1.075   0.729   4.517
  452SOL     OW 1699   1.755   0.607   3.955
  452SOL    HW1 1700   1.743   0.594   3.856
  452SOL    HW2 1701   1.725   0.526   4.004
  453SOL     OW 1702   0.768   1.144   4.747
  453SOL    HW1 1703   0.690   1.161   4.807
  453SOL    HW2 1704   0.802   1.231   4.711
  454SOL     OW 1705   0.850   0.798   5.547
  454SOL    HW1 1706   0.846   0.874   5.612
  454SOL    HW2 1707   0.872   0.834   5.456
  455SOL     OW 1708   0.685   1.012   4.389
  455SOL    HW1 1709   0.754   0.996   4.459
  455SOL    HW2 1710   0.612   1.069   4.427
  456SOL     OW 1711   0.686   1.161   5.527
  456SOL    HW1 1712   0.746   1.240   5.541
  456SOL    HW2 1713   0.600   1.192   5.486
  457SOL     OW 1714   0.335   1.435   4.785
  457SOL    HW1 1715   0.257   1.404   4.732
  457SOL    HW2 1716   0.393   1.493   4.728
  458SOL     OW 1717   1.460   1.505   5.063
  458SOL    HW1 1718   1.484   1.599   5.089
  458SOL    HW2 1719   1.444   1.451   5.145
  459SOL     OW 1720   0.438   0.392   5.223
  459SOL    HW1 1721   0.520   0.336   5.232
  459SOL    HW2 1722   0.357   0.334   5.227
  460SOL     OW 1723   1.603   0.447   4.461
  460SOL    HW1 1724   1.529   0.493   4.411
  460SOL    HW2 1725   1.654   0.515   4.514
  461SOL     OW 1726   0.231   1.713   4.207
  461SOL    HW1 1727   0.265   1.790   4.261
  461SOL    HW2 1728   0.275   1.713   4.117
  462SOL     OW 1729   1.127   1.341   5.414
  462SOL    HW1 1730   1.174   1.341   5.502
  462SOL    HW2 1731   1.079   1.254   5.403
  463SOL     OW 1732   0.230   1.434   4.262
  463SOL    HW1 1733   0.204   1.530   4.262
  463SOL    HW2 1734   0.159   1.380   4.307
  464SOL     OW 1735   0.240   1.091   4.610
  464SOL    HW1 1736   0.254   1.007   4.662
  464SOL    HW2 1737   0.185   1.155   4.665
  465SOL     OW 1738   0.620   1.786   5.163
  465SOL    HW1 1739   0.528   1.769   5.198
  465SOL    HW2 1740   0.648   1.878   5.189
  466SOL     OW 1741   0.606   0.964   3.847
  466SOL    HW1 1742   0.613   1.048   3.793
  466SOL    HW2 1743   0.652   0.977   3.935
  467SOL     OW 1744   1.594   0.114   5.204
  467SOL    HW1 1745   1.576   0.181   5.132
  467SOL    HW2 1746   1.591   0.160   5.293
  468SOL     OW 1747   0.122   0.643   4.287
  468SOL    HW1 1748   0.077   0.555   4.304
  468SOL    HW2 1749   0.121   0.697   4.371
  469SOL     OW 1750   1.842   1.767   4.083
  469SOL    HW1 1751   1.896   1.738   4.163
  469SOL    HW2 1752   1.872   1.857   4.054
  470SOL     OW 1753   0.027   1.596   3.841
  470SOL    HW1 1754   0.008   1.500   3.862
  470SOL    HW2 1755  -0.006   1.654   3.916
  471SOL     OW 1756   1.689   0.922   4.336
  471SOL    HW1 1757   1.784   0.893   4.344
  471SOL    HW2 1758   1.681   0.987   4.261
  472SOL     OW 1759   1.641   1.108   4.156
  472SOL    HW1 1760   1.727   1.110   4.104
  472SOL    HW2 1761   1.655   1.155   4.244
  473SOL     OW 1762   0.113   0.737   5.321
  473SOL    HW1 1763   0.201   0.724   5.366
  473SOL    HW2 1764   0.100   0.834   5.299
  474SOL     OW 1765   0.613   1.365   4.450
  474SOL    HW1 1766   0.564   1.278   4.459
  474SOL    HW2 1767   0.590   1.408   4.363
  475SOL     OW 1768   1.293   1.228   5.147
  475SOL    HW1 1769   1.330   1.155   5.089
  475SOL    HW2 1770   1.345   1.233   5.232
  476SOL     OW 1771   0.809   0.004   4.226
  476SOL    HW1 1772   0.849   0.095   4.217
  476SOL    HW2 1773   0.709   0.012   4.232
  477SOL     OW 1774   0.197   0.976   4.988
  477SOL    HW1 1775   0.286   0.931   4.974
  477SOL    HW2 1776   0.124   0.911   4.969
  478SOL     OW 1777   1.525   0.999   3.914
  478SOL    HW1 1778   1.462   0.923   3.927
  478SOL    HW2 1779   1.573   1.017   4.000
  479SOL     OW 1780   1.187   1.792   5.340
  479SOL    HW1 1781   1.211   1.852   5.264
  479SOL    HW2 1782   1.194   1.697   5.310
  480SOL     OW 1783   0.317   0.251   5.525
  480SOL    HW1 1784   0.388   0.322   5.531
  480SOL    HW2 1785   0.229   0.290   5.553
  481SOL     OW 1786   1.466   1.417   4.677
  481SOL    HW1 1787   1.407   1.423   4.757
  481SOL    HW2 1788   1.451   1.329   4.631
  482SOL     OW 1789   1.667   1.714   4.296
  482SOL    HW1 1790   1.626   1.691   4.208
  482SOL    HW2 1791   1.649   1.640   4.361
  483SOL     OW 1792   0.598   0.729   3.994
  483SOL    HW1 1793   0.622   0.798   3.926
  483SOL    HW2 1794   0.520   0.762   4.048
  484SOL     OW 1795   1.281   0.345   4.668
  484SOL    HW1 1796   1.195   0.295   4.655
  484SOL    HW2 1797   1.343   0.291   4.724
  485SOL     OW 1798   1.576   1.662   4.031
  485SOL    HW1 1799   1.665   1.708   4.034
  485SOL    HW2 1800   1.555   1.638   3.936
  486SOL     OW 1801   0.807   0.605   5.189
  486SOL    HW1 1802   0.760   0.602   5.278
  486SOL    HW2 1803   0.756   0.550   5.123
  487SOL     OW 1804   1.394   0.469   5.398
  487SOL    HW1 1805   1.374   0.512   5.486
  487SOL    HW2 1806   1.472   0.407   5.407
  488SOL     OW 1807   0.973   0.890   5.296
  488SOL    HW1 1808   1.019   0.806   5.267
  488SOL    HW2 1809   0.917   0.924   5.221
  489SOL     OW 1810   0.991   0.410   4.966
  489SOL    HW1 1811   0.914   0.444   5.020
  489SOL    HW2 1812   0.957   0.359   4.887
  490SOL     OW 1813   1.041   0.701   4.153
  490SOL    HW1 1814   1.067   0.697   4.249
  490SOL    HW2 1815   0.956   0.650   4.139
  491SOL     OW 1816   0.076   0.811   4.513
  491SOL    HW1 1817   0.175   0.799   4.522
  491SOL    HW2 1818   0.052   0.906   4.534
  492SOL     OW 1819   0.130   1.821   5.295
  492SOL    HW1 1820   0.120   1.806   5.394
  492SOL    HW2 1821   0.044   1.857   5.259
  493SOL     OW 1822   0.865   0.348   3.919
  493SOL    HW1 1823   0.924   0.411   3.870
  493SOL    HW2 1824   0.884   0.254   3.890
  494SOL     OW 1825   1.719   0.585   5.555
  494SOL    HW1 1826   1.693   0.674   5.519
  494SOL    HW2 1827   1.717   0.517   5.482
  495SOL     OW 1828   1.362   1.144   4.269
  495SOL    HW1 1829   1.445   1.115   4.221
  495SOL    HW2 1830   1.313   1.211   4.213
  496SOL     OW 1831   0.550   0.196   4.609
  496SOL    HW1 1832   0.545   0.191   4.709
  496SOL    HW2 1833   0.552   0.292   4.580
  497SOL     OW 1834   1.008   1.456   4.201
  497SOL    HW1 1835   0.962   1.528   4.149
  497SOL    HW2 1836   1.004   1.476   4.299
  498SOL     OW 1837   0.351   1.801   4.577
  498SOL    HW1 1838   0.401   1.715   4.583
  498SOL    HW2 1839   0.416   1.878   4.574
  499SOL     OW 1840   1.795   1.066   4.597
  499SOL    HW1 1841   1.733   1.051   4.521
  499SOL    HW2 1842   1.743   1.077   4.682
  500SOL     OW 1843   1.227   1.550   5.230
  500SOL    HW1 1844   1.233   1.473   5.294
  500SOL    HW2 1845   1.175   1.524   5.150
  501SOL     OW 1846   0.321   0.943   3.966
  501SOL    HW1 1847   0.403   0.982   3.924
  501SOL    HW2 1848   0.294   0.861   3.917
  502SOL     OW 1849   1.458   0.735   4.452
  502SOL    HW1 1850   1.453   0.670   4.527
  502SOL    HW2 1851   1.538   0.794   4.465
  503SOL     OW 1852   0.461   1.266   5.451
  503SOL    HW1 1853   0.411   1.267   5.365
  503SOL    HW2 1854   0.398   1.248   5.527
  504SOL     OW 1855   1.111   1.776   3.961
  504SOL    HW1 1856   1.051   1.714   4.011
  504SOL    HW2 1857   1.142   1.732   3.876
  505SOL     OW 1858   0.202   0.285   5.222
  505SOL    HW1 1859   0.122   0.345   5.209
  505SOL    HW2 1860   0.192   0.236   5.308
  506SOL     OW 1861   1.632   1.377   3.805
  506SOL    HW1 1862   1.600   1.471   3.795
  506SOL    HW2 1863   1.556   1.314   3.793
  507SOL     OW 1864   0.464   1.743   4.047
  507SOL    HW1 1865   0.497   1.782   4.133
  507SOL    HW2 1866   0.540   1.736   3.982
  508SOL     OW 1867   1.400   0.107   4.150
  508SOL    HW1 1868   1.376   0.070   4.060
  508SOL    HW2 1869   1.499   0.123   4.154
  509SOL     OW 1870   0.249   1.785   4.965
  509SOL    HW1 1871   0.306   1.720   5.015
  509SOL    HW2 1872   0.233   1.752   4.872
  510SOL     OW 1873   0.940   1.698   4.628
  510SOL    HW1 1874   1.020   1.641   4.649
  510SOL    HW2 1875   0.891   1.658   4.551
  511SOL     OW 1876   0.382   0.700   4.204
  511SOL    HW1 1877   0.427   0.610   4.201
  511SOL    HW2 1878   0.288   0.689   4.237
  512SOL     OW 1879   1.547   0.222   5.453
  512SOL    HW1 1880   1.542   0.259   5.545
  512SOL    HW2 1881   1.475   0.153   5.441
  513SOL     OW 1882   0.614   0.122   3.841
  513SOL    HW1 1883   0.712   0.100   3.848
  513SOL    HW2 1884   0.583   0.105   3.748
  514SOL     OW 1885   0.781   0.264   5.473
  514SOL    HW1 1886   0.848   0.203   5.516
  514SOL    HW2 1887   0.708   0.283   5.538
  515SOL     OW 1888   0.888   1.514   4.919
  515SOL    HW1 1889   0.865   1.489   4.825
  515SOL    HW2 1890   0.949   1.445   4.958
  516SOL     OW 1891   1.351   0.590   5.157
  516SOL    HW1 1892   1.379   0.547   5.242
  516SOL    HW2 1893   1.376   0.686   5.158
  517SOL     OW 1894   0.803   1.402   4.648
  517SOL    HW1 1895   0.893   1.416   4.606
  517SOL    HW2 1896   0.732   1.404   4.577
  518SOL     OW 1897   0.922   0.503   4.623
  518SOL    HW1 1898   0.897   0.494   4.527
  518SOL    HW2 1899   0.970   0.421   4.654
  519SOL     OW 1900   0.539   0.064   4.236
  519SOL    HW1 1901   0.458   0.065   4.294
  519SOL    HW2 1902   0.542   0.147   4.181
  520SOL     OW 1903   1.434   1.188   3.765
  520SOL    HW1 1904   1.466   1.112   3.822
  520SOL    HW2 1905   1.342   1.215   3.795
  521SOL     OW 1906   0.297   0.035   3.895
  521SOL    HW1 1907   0.346   0.119   3.874
  521SOL    HW2 1908   0.359  -0.030   3.940
  522SOL     OW 1909   0.935   0.236   4.204
  522SOL    HW1 1910   0.887   0.277   4.126
  522SOL    HW2 1911   1.034   0.234   4.185
  523SOL     OW 1912   1.076   0.683   5.188
  523SOL    HW1 1913   0.996   0.622   5.191
  523SOL    HW2 1914   1.157   0.630   5.164
  524SOL     OW 1915   1.227   1.570   4.517
  524SOL    HW1 1916   1.248   1.644   4.452
  524SOL    HW2 1917   1.295   1.570   4.590
  525SOL     OW 1918   0.459   1.152   4.465
  525SOL    HW1 1919   0.388   1.125   4.530
  525SOL    HW2 1920   0.433   1.124   4.372
  526SOL     OW 1921   1.271   1.797   4.315
  526SOL    HW1 1922   1.315   1.861   4.251
  526SOL    HW2 1923   1.221   1.849   4.385
  527SOL     OW 1924   1.032   0.549   3.740
  527SOL    HW1 1925   0.991   0.631   3.701
  527SOL    HW2 1926   1.096   0.575   3.813
  528SOL     OW 1927   0.078   0.556   5.110
  528SOL    HW1 1928   0.170   0.555   5.069
  528SOL    HW2 1929   0.072   0.630   5.177
  529SOL     OW 1930   0.561   0.222   4.871
  529SOL    HW1 1931   0.599   0.138   4.908
  529SOL    HW2 1932   0.473   0.241   4.915
  530SOL     OW 1933   0.866   0.454   4.366
  530SOL    HW1 1934   0.834   0.526   4.304
  530SOL    HW2 1935   0.890   0.373   4.313
  531SOL     OW 1936   1.017   0.039   4.477
  531SOL    HW1 1937   0.945   0.044   4.408
  531SOL    HW2 1938   0.993  -0.030   4.546
  532SOL     OW 1939   1.429   1.173   4.591
  532SOL    HW1 1940   1.374   1.089   4.584
  532SOL    HW2 1941   1.455   1.202   4.499
  533SOL     OW 1942   1.466   0.590   4.716
  533SOL    HW1 1943   1.436   0.495   4.723
  533SOL    HW2 1944   1.539   0.606   4.782
  534SOL     OW 1945   1.857   0.833   4.101
  534SOL    HW1 1946   1.899   0.769   4.165
  534SOL    HW2 1947   1.819   0.782   4.023
  535SOL     OW 1948   0.488   1.385   3.898
  535SOL    HW1 1949   0.401   1.370   3.945
  535SOL    HW2 1950   0.471   1.411   3.803
  536SOL     OW 1951   1.664   1.280   4.381
  536SOL    HW1 1952   1.763   1.288   4.395
  536SOL    HW2 1953   1.619   1.364   4.412
  537SOL     OW 1954   1.390   0.575   3.802
  537SOL    HW1 1955   1.336   0.554   3.883
  537SOL    HW2 1956   1.481   0.534   3.811
  538SOL     OW 1957   0.527   0.256   4.052
  538SOL    HW1 1958   0.554   0.197   3.977
  538SOL    HW2 1959   0.527   0.351   4.021
  539SOL     OW 1960   1.754   1.223   5.312
  539SOL    HW1 1961   1.845   1.184   5.299
  539SOL    HW2 1962   1.762   1.319   5.336
  540SOL     OW 1963   1.064   1.347   5.064
  540SOL    HW1 1964   0.984   1.324   5.119
  540SOL    HW2 1965   1.147   1.321   5.113
  541SOL     OW 1966   1.592   1.629   5.349
  541SOL    HW1 1967   1.619   1.663   5.259
  541SOL    HW2 1968   1.671   1.591   5.395
  542SOL     OW 1969   1.111   1.195   4.824
  542SOL    HW1 1970   1.071   1.239   4.905
  542SOL    HW2 1971   1.070   1.232   4.741
  543SOL     OW 1972   1.638   1.099   4.803
  543SOL    HW1 1973   1.643   1.180   4.862
  543SOL    HW2 1974   1.552   1.101   4.752
  544SOL     OW 1975   0.915   0.089   5.126
  544SOL    HW1 1976   0.940   0.069   5.031
  544SOL    HW2 1977   0.987   0.145   5.168
  545SOL     OW 1978   0.980   1.116   5.443
  545SOL    HW1 1979   0.881   1.122   5.453
  545SOL    HW2 1980   1.003   1.036   5.387
  546SOL     OW 1981   0.705   1.050   4.092
  546SOL    HW1 1982   0.691   1.057   4.191
  546SOL    HW2 1983   0.789   0.999   4.074
  547SOL     OW 1984   0.410   0.813   4.975
  547SOL    HW1 1985   0.496   0.825   5.025
  547SOL    HW2 1986   0.368   0.726   5.002
  548SOL     OW 1987   1.274   0.386   4.986
  548SOL    HW1 1988   1.295   0.460   5.050
  548SOL    HW2 1989   1.185   0.403   4.943
  549SOL     OW 1990   0.064   1.564   5.055
  549SOL    HW1 1991   0.018   1.646   5.021
  549SOL    HW2 1992   0.162   1.583   5.064
  550SOL     OW 1993   0.367   1.100   4.225
  550SOL    HW1 1994   0.360   1.183   4.169
  550SOL    HW2 1995   0.371   1.020   4.165
  551SOL     OW 1996   0.566   0.537   4.589
  551SOL    HW1 1997   0.578   0.603   4.515
  551SOL    HW2 1998   0.612   0.571   4.672
  552SOL     OW 1999   1.252   1.348   4.112
  552SOL    HW1 2000   1.302   1.425   4.152
  552SOL    HW2 2001   1.157   1.350   4.144
  553SOL     OW 2002   1.272   1.445   4.866
  553SOL    HW1 2003   1.319   1.458   4.953
  553SOL    HW2 2004   1.206   1.371   4.875
  554SOL     OW 2005   1.582   0.639   4.196
  554SOL    HW1 2006   1.551   0.700   4.269
  554SOL    HW2 2007   1.632   0.691   4.127
  555SOL     OW 2008   0.354   1.510   5.053
  555SOL    HW1 2009   0.333   1.466   4.966
  555SOL    HW2 2010   0.451   1.536   5.056
  556SOL     OW 2011   0.402   0.751   5.322
  556SOL    HW1 2012   0.470   0.806   5.275
  556SOL    HW2 2013   0.442   0.663   5.349
  557SOL     OW 2014   1.587   0.779   5.394
  557SOL    HW1 2015   1.495   0.817   5.389
  557SOL    HW2 2016   1.647   0.826   5.329
  558SOL     OW 2017   1.013   0.105   5.494
  558SOL    HW1 2018   1.019   0.190   5.442
  558SOL    HW2 2019   1.045   0.029   5.437
  559SOL     OW 2020   0.504   0.050   5.464
  559SOL    HW1 2021   0.462  -0.007   5.394
  559SOL    HW2 2022   0.438   0.119   5.496
  560SOL     OW 2023   0.573   0.870   4.753
  560SOL    HW1 2024   0.617   0.959   4.744
  560SOL    HW2 2025   0.510   0.870   4.830
  561SOL     OW 2026   1.360   0.862   4.769
  561SOL    HW1 2027   1.285   0.862   4.703
  561SOL    HW2 2028   1.397   0.770   4.778
  562SOL     OW 2029   1.209   0.525   3.999
  562SOL    HW1 2030   1.222   0.441   4.053
  562SOL    HW2 2031   1.180   0.599   4.059
  563SOL     OW 2032   0.307   0.213   4.955
  563SOL    HW1 2033   0.284   0.250   5.045
  563SOL    HW2 2034   0.277   0.118   4.949
  564SOL     OW 2035   0.037   1.310   5.006
  564SOL    HW1 2036   0.090   1.261   5.074
  564SOL    HW2 2037   0.059   1.408   5.011
  565SOL     OW 2038   0.732   0.634   4.788
  565SOL    HW1 2039   0.791   0.608   4.712
  565SOL    HW2 2040   0.704   0.730   4.777
  566SOL     OW 2041   1.728   0.935   5.578
  566SOL    HW1 2042   1.682   0.928   5.489
  566SOL    HW2 2043   1.666   0.979   5.644
  567SOL     OW 2044   0.307   0.063   4.342
  567SOL    HW1 2045   0.296   0.157   4.375
  567SOL    HW2 2046   0.302   0.000   4.419
  568SOL     OW 2047   1.622   0.367   4.098
  568SOL    HW1 2048   1.624   0.291   4.162
  568SOL    HW2 2049   1.574   0.444   4.138
  569SOL     OW 2050   1.023   0.766   4.690
  569SOL    HW1 2051   1.038   0.787   4.786
  569SOL    HW2 2052   0.993   0.671   4.681
  570SOL     OW 2053   0.980   1.573   5.424
  570SOL    HW1 2054   0.960   1.617   5.336
  570SOL    HW2 2055   1.019   1.482   5.408
  571SOL     OW 2056   1.859   1.518   5.329
  571SOL    HW1 2057   1.873   1.545   5.234
  571SOL    HW2 2058   1.942   1.540   5.382
  572SOL     OW 2059   0.350   0.898   5.528
  572SOL    HW1 2060   0.426   0.942   5.576
  572SOL    HW2 2061   0.385   0.851   5.446
  573SOL     OW 2062   1.540   0.274   3.849
  573SOL    HW1 2063   1.479   0.199   3.872
  573SOL    HW2 2064   1.562   0.326   3.932
  574SOL     OW 2065   1.303   0.838   3.766
  574SOL    HW1 2066   1.337   0.745   3.781
  574SOL    HW2 2067   1.321   0.865   3.671
  575SOL     OW 2068   1.068   1.333   4.573
  575SOL    HW1 2069   1.075   1.249   4.518
  575SOL    HW2 2070   1.130   1.402   4.537
  576SOL     OW 2071   0.319   0.810   4.673
  576SOL    HW1 2072   0.412   0.846   4.678
  576SOL    HW2 2073   0.313   0.725   4.725
  577SOL     OW 2074   0.339   0.509   4.730
  577SOL    HW1 2075   0.287   0.426   4.713
  577SOL    HW2 2076   0.416   0.514   4.666
  578SOL     OW 2077   1.138   0.380   5.402
  578SOL    HW1 2078   1.093   0.443   5.466
  578SOL    HW2 2079   1.231   0.411   5.385
  579SOL     OW 2080   1.160   0.207   5.201
  579SOL    HW1 2081   1.160   0.271   5.278
  579SOL    HW2 2082   1.188   0.255   5.118
  580SOL     OW 2083   0.008   1.326   3.924
  580SOL    HW1 2084  -0.085   1.347   3.893
  580SOL    HW2 2085   0.018   1.227   3.937
  581SOL     OW 2086   0.088   1.801   4.651
  581SOL    HW1 2087   0.046   1.715   4.624
  581SOL    HW2 2088   0.182   1.804   4.617
  582SOL     OW 2089   0.504   1.568   4.634
  582SOL    HW1 2090   0.570   1.642   4.643
  582SOL    HW2 2091   0.548   1.489   4.592
  583SOL     OW 2092   1.002   0.796   4.962
  583SOL    HW1 2093   1.043   0.764   5.048
  583SOL    HW2 2094   0.906   0.769   4.959
  584SOL     OW 2095   0.040   0.544   4.838
  584SOL    HW1 2096   0.125   0.511   4.797
  584SOL    HW2 2097   0.053   0.559   4.936
  585SOL     OW 2098   0.189   0.520   5.446
  585SOL    HW1 2099   0.248   0.480   5.376
  585SOL    HW2 2100   0.131   0.591   5.405
  586SOL     OW 2101   1.369   0.950   5.384
  586SOL    HW1 2102   1.408   1.039   5.404
  586SOL    HW2 2103   1.379   0.930   5.287
  587SOL     OW 2104   0.815   0.572   4.049
  587SOL    HW1 2105   0.822   0.483   4.003
  587SOL    HW2 2106   0.721   0.606   4.041
  588SOL     OW 2107   1.657   0.604   4.930
  588SOL    HW1 2108   1.619   0.535   4.992
  588SOL    HW2 2109   1.739   0.568   4.886
  589SOL     OW 2110   0.252   1.564   5.468
  589SOL    HW1 2111   0.222   1.621   5.544
  589SOL    HW2 2112   0.245   1.467   5.494
  590SOL     OW 2113   0.671   0.464   4.993
  590SOL    HW1 2114   0.637   0.375   4.963
  590SOL    HW2 2115   0.697   0.518   4.913
  591SOL     OW 2116   0.930   1.678   5.189
  591SOL    HW1 2117   0.906   1.660   5.094
  591SOL    HW2 2118   0.960   1.772   5.199
  592SOL     OW 2119   0.473   0.500   3.915
  592SOL    HW1 2120   0.534   0.580   3.919
  592SOL    HW2 2121   0.378   0.531   3.922
  593SOL     OW 2122   0.159   1.137   5.190
  593SOL    HW1 2123   0.181   1.076   5.266
  593SOL    HW2 2124   0.169   1.088   5.104
  594SOL     OW 2125   1.347   1.059   4.958
  594SOL    HW1 2126   1.371   0.996   4.884
  594SOL    HW2 2127   1.257   1.099   4.940
  595SOL     OW 2128   1.302   0.855   4.033
  595SOL    HW1 2129   1.216   0.824   4.075
  595SOL    HW2 2130   1.298   0.841   3.934
  596SOL     OW 2131   1.759   1.747   4.878
  596SOL    HW1 2132   1.820   1.777   4.805
  596SOL    HW2 2133   1.721   1.658   4.856
  597SOL     OW 2134   1.252   1.731   4.852
  597SOL    HW1 2135   1.336   1.736   4.798
  597SOL    HW2 2136   1.229   1.635   4.870
  598SOL     OW 2137   0.083   1.258   4.746
  598SOL    HW1 2138   0.078   1.257   4.846
  598SOL    HW2 2139   0.000   1.217   4.708
  599SOL     OW 2140   0.688   1.662   5.440
  599SOL    HW1 2141   0.632   1.743   5.449
  599SOL    HW2 2142   0.740   1.666   5.354
  600SOL     OW 2143   1.726   0.135   4.247
  600SOL    HW1 2144   1.799   0.118   4.180
  600SOL    HW2 2145   1.695   0.048   4.285
  601SOL     OW 2146   1.388   1.573   4.201
  601SOL    HW1 2147   1.455   1.585   4.127
  601SOL    HW2 2148   1.348   1.662   4.224
  602SOL     OW 2149   0.130   1.794   5.575
  602SOL    HW1 2150   0.089   1.720   5.628
  602SOL    HW2 2151   0.194   1.845   5.633
  603SOL     OW 2152   1.280   0.927   4.396
  603SOL    HW1 2153   1.340   0.846   4.398
  603SOL    HW2 2154   1.320   0.996   4.336
  604SOL     OW 2155   0.830   1.273   5.146
  604SOL    HW1 2156   0.825   1.306   5.241
  604SOL    HW2 2157   0.744   1.292   5.100
  605SOL     OW 2158   0.672   1.616   3.878
  605SOL    HW1 2159   0.681   1.626   3.779
  605SOL    HW2 2160   0.632   1.527   3.899
  606SOL     OW 2161   1.650   1.720   5.118
  606SOL    HW1 2162   1.703   1.730   5.034
  606SOL    HW2 2163   1.623   1.810   5.152
  607SOL     OW 2164   1.841   0.175   4.687
  607SOL    HW1 2165   1.880   0.090   4.651
  607SOL    HW2 2166   1.743   0.177   4.668
  608SOL     OW 2167   0.263   0.326   4.444
  608SOL    HW1 2168   0.184   0.377   4.410
  608SOL    HW2 2169   0.254   0.311   4.542
  609SOL     OW 2170   1.194   1.612   3.755
  609SOL    HW1 2171   1.200   1.519   3.792
  609SOL    HW2 2172   1.135   1.612   3.675
  610SOL     OW 2173   0.822   1.002   5.096
  610SOL    HW1 2174   0.862   1.001   5.004
  610SOL    HW2 2175   0.832   1.094   5.136
  611SOL     OW 2176   0.916   0.910   4.015
  611SOL    HW1 2177   0.979   0.948   3.947
  611SOL    HW2 2178   0.956   0.827   4.054
  612SOL     OW 2179   1.504   1.607   3.768
  612SOL    HW1 2180   1.412   1.644   3.775
  612SOL    HW2 2181   1.542   1.627   3.678
  613SOL     OW 2182   0.372   1.288   5.214
  613SOL    HW1 2183   0.359   1.381   5.180
  613SOL    HW2 2184   0.288   1.236   5.201
  614SOL     OW 2185   1.614   1.292   5.013
  614SOL    HW1 2186   1.674   1.295   5.093
  614SOL    HW2 2187   1.539   1.356   5.026
  615SOL     OW 2188   1.039   1.098   4.420
  615SOL    HW1 2189   0.969   1.051   4.474
  615SOL    HW2 2190   1.098   1.030   4.377
  616SOL     OW 2191   1.014   0.236   4.695
  616SOL    HW1 2192   1.006   0.200   4.602
  616SOL    HW2 2193   1.012   0.160   4.760
  617SOL     OW 2194   0.590   1.487   4.215
  617SOL    HW1 2195   0.632   1.429   4.145
  617SOL    HW2 2196   0.546   1.566   4.171
  618SOL     OW 2197   1.709   0.385   5.105
  618SOL    HW1 2198   1.782   0.454   5.109
  618SOL    HW2 2199   1.737   0.310   5.046
  619SOL     OW 2200   0.255   1.348   4.014
  619SOL    HW1 2201   0.159   1.349   3.987
  619SOL    HW2 2202   0.267   1.401   4.098
  620SOL     OW 2203   0.105   1.013   5.450
  620SOL    HW1 2204   0.028   0.980   5.504
  620SOL    HW2 2205   0.190   0.983   5.492
  621SOL     OW 2206   0.672   0.203   5.213
  621SOL    HW1 2207   0.762   0.187   5.173
  621SOL    HW2 2208   0.680   0.208   5.312
  622SOL     OW 2209   0.075   0.345   3.757
  622SOL    HW1 2210  -0.017   0.317   3.728
  622SOL    HW2 2211   0.106   0.422   3.701
  623SOL     OW 2212   1.440   0.856   5.122
  623SOL    HW1 2213   1.383   0.908   5.059
  623SOL    HW2 2214   1.536   0.868   5.098
  624SOL     OW 2215   0.072   0.166   4.042
  624SOL    HW1 2216   0.055   0.249   3.988
  624SOL    HW2 2217   0.162   0.129   4.020
  625SOL     OW 2218   1.183   1.335   3.843
  625SOL    HW1 2219   1.084   1.324   3.845
  625SOL    HW2 2220   1.217   1.350   3.936
  626SOL     OW 2221   0.613   0.842   5.155
  626SOL    HW1 2222   0.669   0.923   5.138
  626SOL    HW2 2223   0.672   0.762   5.158
  627SOL     OW 2224   1.493   1.767   4.683
  627SOL    HW1 2225   1.526   1.831   4.614
  627SOL    HW2 2226   1.559   1.761   4.758
  628SOL     OW 2227   0.716   0.565   5.432
  628SOL    HW1 2228   0.735   0.630   5.506
  628SOL    HW2 2229   0.776   0.485   5.441
  629SOL     OW 2230   1.450   1.220   5.357
  629SOL    HW1 2231   1.441   1.210   5.456
  629SOL    HW2 2232   1.546   1.213   5.331
  630SOL     OW 2233   0.390   1.741   5.284
  630SOL    HW1 2234   0.299   1.782   5.282
  630SOL    HW2 2235   0.383   1.647   5.316
  631SOL     OW 2236   1.674   0.883   4.978
  631SOL    HW1 2237   1.647   0.794   4.941
  631SOL    HW2 2238   1.675   0.951   4.905
  632SOL     OW 2239   1.225   0.325   4.173
  632SOL    HW1 2240   1.290   0.251   4.162
  632SOL    HW2 2241   1.245   0.375   4.257
  633SOL     OW 2242   0.594   0.745   4.376
  633SOL    HW1 2243   0.644   0.830   4.357
  633SOL    HW2 2244   0.506   0.747   4.328
  634SOL     OW 2245   1.777   0.342   5.366
  634SOL    HW1 2246   1.760   0.373   5.272
  634SOL    HW2 2247   1.693   0.305   5.404
  635SOL     OW 2248   1.730   0.934   5.241
  635SOL    HW1 2249   1.768   1.025   5.256
  635SOL    HW2 2250   1.722   0.917   5.142
  636SOL     OW 2251   0.859   1.374   3.740
  636SOL    HW1 2252   0.813   1.389   3.828
  636SOL    HW2 2253   0.903   1.459   3.710
  637SOL     OW 2254   0.661   1.790   4.677
  637SOL    HW1 2255   0.615   1.878   4.664
  637SOL    HW2 2256   0.760   1.802   4.670
  638SOL     OW 2257   0.859   0.956   4.585
  638SOL    HW1 2258   0.913   0.887   4.633
  638SOL    HW2 2259   0.827   1.025   4.651
  639SOL     OW 2260   1.083   0.984   3.811
  639SOL    HW1 2261   1.060   1.037   3.729
  639SOL    HW2 2262   1.164   0.928   3.792
  640SOL     OW 2263   1.861   1.569   4.575
  640SOL    HW1 2264   1.790   1.557   4.505
  640SOL    HW2 2265   1.862   1.490   4.635
  641SOL     OW 2266   0.221   1.314   5.568
  641SOL    HW1 2267   0.156   1.241   5.547
  641SOL    HW2 2268   0.225   1.328   5.666
  642SOL     OW 2269   0.079   1.240   4.377
  642SOL    HW1 2270   0.078   1.193   4.465
  642SOL    HW2 2271   0.161   1.212   4.326
  643SOL     OW 2272   0.672   1.391   5.348
  643SOL    HW1 2273   0.594   1.341   5.386
  643SOL    HW2 2274   0.669   1.486   5.379
  644SOL     OW 2275   1.824   0.192   4.951
  644SOL    HW1 2276   1.820   0.102   4.995
  644SOL    HW2 2277   1.827   0.181   4.852
  645SOL     OW 2278   0.428   0.424   4.244
  645SOL    HW1 2279   0.458   0.352   4.182
  645SOL    HW2 2280   0.389   0.384   4.327
  646SOL     OW 2281   1.705   1.487   4.828
  646SOL    HW1 2282   1.612   1.462   4.801
  646SOL    HW2 2283   1.731   1.437   4.910
  647SOL     OW 2284   0.317   0.547   5.004
  647SOL    HW1 2285   0.355   0.488   5.076
  647SOL    HW2 2286   0.357   0.521   4.916
  648SOL     OW 2287   0.812   1.586   4.411
  648SOL    HW1 2288   0.844   1.596   4.317
  648SOL    HW2 2289   0.733   1.524   4.413
  649SOL     OW 2290   1.424   0.214   4.836
  649SOL    HW1 2291   1.476   0.149   4.891
  649SOL    HW2 2292   1.375   0.277   4.897
  650SOL     OW 2293   1.001   0.034   4.878
  650SOL    HW1 2294   0.938  -0.038   4.847
  650SOL    HW2 2295   1.094  -0.002   4.878
  651SOL     OW 2296   0.618   1.567   5.008
  651SOL    HW1 2297   0.613   1.649   5.065
  651SOL    HW2 2298   0.707   1.564   4.963
  652SOL     OW 2299   1.352   0.052   3.892
  652SOL    HW1 2300   1.387   0.011   3.808
  652SOL    HW2 2301   1.262   0.014   3.912
  653SOL     OW 2302   1.300   0.453   4.415
  653SOL    HW1 2303   1.241   0.533   4.419
  653SOL    HW2 2304   1.315   0.418   4.508
  654SOL     OW 2305   1.593   0.221   4.606
  654SOL    HW1 2306   1.509   0.220   4.660
  654SOL    HW2 2307   1.595   0.304   4.550
  655SOL     OW 2308   0.039   1.077   4.024
  655SOL    HW1 2309   0.138   1.066   4.015
  655SOL    HW2 2310  -0.001   0.991   4.056
  656SOL     OW 2311   0.875   1.646   4.061
  656SOL    HW1 2312   0.798   1.611   4.007
  656SOL    HW2 2313   0.843   1.717   4.123
  657SOL     OW 2314   0.230   0.628   5.699
  657SOL    HW1 2315   0.137   0.626   5.736
  657SOL    HW2 2316   0.231   0.589   5.607
  658SOL     OW 2317   0.225   0.275   6.582
  658SOL    HW1 2318   0.260   0.258   6.674
  658SOL    HW2 2319   0.137   0.230   6.570
  659SOL     OW 2320   0.019   0.368   6.233
  659SOL    HW1 2321  -0.063   0.411   6.272
  659SOL    HW2 2322  -0.009   0.295   6.170
  660SOL     OW 2323   0.569   1.275   6.751
  660SOL    HW1 2324   0.476   1.268   6.714
  660SOL    HW2 2325   0.580   1.364   6.795
  661SOL     OW 2326   1.555   1.511   6.289
  661SOL    HW1 2327   1.498   1.495   6.370
  661SOL    HW2 2328   1.496   1.521   6.209
  662SOL     OW 2329   1.135   0.703   6.303
  662SOL    HW1 2330   1.192   0.781   6.278
  662SOL    HW2 2331   1.075   0.729   6.379
  663SOL     OW 2332   1.755   0.607   5.817
  663SOL    HW1 2333   1.743   0.594   5.718
  663SOL    HW2 2334   1.725   0.526   5.866
  664SOL     OW 2335   0.768   1.144   6.609
  664SOL    HW1 2336   0.690   1.161   6.669
  664SOL    HW2 2337   0.802   1.231   6.573
  665SOL     OW 2338   0.850   0.798   7.409
  665SOL    HW1 2339   0.846   0.874   7.474
  665SOL    HW2 2340   0.872   0.834   7.318
  666SOL     OW 2341   0.685   1.012   6.251
  666SOL    HW1 2342   0.754   0.996   6.321
  666SOL    HW2 2343   0.612   1.069   6.289
  667SOL     OW 2344   0.686   1.161   7.389
  667SOL    HW1 2345   0.746   1.240   7.403
  667SOL    HW2 2346   0.600   1.192   7.348
  668SOL     OW 2347   0.335   1.435   6.647
  668SOL    HW1 2348   0.257   1.404   6.594
  668SOL    HW2 2349   0.393   1.493   6.590
  669SOL     OW 2350   1.460   1.505   6.925
  669SOL    HW1 2351   1.484   1.599   6.951
  669SOL    HW2 2352   1.444   1.451   7.007
  670SOL     OW 2353   0.438   0.392   7.085
  670SOL    HW1 2354   0.520   0.336   7.094
  670SOL    HW2 2355   0.357   0.334   7.089
  671SOL     OW 2356   1.603   0.447   6.323
  671SOL    HW1 2357   1.529   0.493   6.273
  671SOL    HW2 2358   1.654   0.515   6.376
  672SOL     OW 2359   0.231   1.713   6.069
  672SOL    HW1 2360   0.265   1.790   6.123
  672SOL    HW2 2361   0.275   1.713   5.979
  673SOL     OW 2362   1.127   1.341   7.276
  673SOL    HW1 2363   1.174   1.341   7.364
  673SOL    HW2 2364   1.079   1.254   7.265
  674SOL     OW 2365   0.230   1.434   6.124
  674SOL    HW1 2366   0.204   1.530   6.124
  674SOL    HW2 2367   0.159   1.380   6.169
  675SOL     OW 2368   0.240   1.091   6.472
  675SOL    HW1 2369   0.254   1.007   6.524
  675SOL    HW2 2370   0.185   1.155   6.527
  676SOL     OW 2371   0.620   1.786   7.025
  676SOL    HW1 2372   0.528   1.769   7.060
  676SOL    HW2 2373   0.648   1.878   7.051
  677SOL     OW 2374   0.606   0.964   5.709
  677SOL    HW1 2375   0.613   1.048   5.655
  677SOL    HW2 2376   0.652   0.977   5.797
  678SOL     OW 2377   1.594   0.114   7.066
  678SOL    HW1 2378   1.576   0.181   6.994
  678SOL    HW2 2379   1.591   0.160   7.155
  679SOL     OW 2380   0.122   0.643   6.149
  679SOL    HW1 2381   0.077   0.555   6.166
  679SOL    HW2 2382   0.121   0.697   6.233
  680SOL     OW 2383   1.842   1.767   5.945
  680SOL    HW1 2384   1.896   1.738   6.025
  680SOL    HW2 2385   1.872   1.857   5.916
  681SOL     OW 2386   0.027   1.596   5.703
  681SOL    HW1 2387   0.008   1.500   5.724
  681SOL    HW2 2388  -0.006   1.654   5.778
  682SOL     OW 2389   1.689   0.922   6.198
  682SOL    HW1 2390   1.784   0.893   6.206
  682SOL    HW2 2391   1.681   0.987   6.123
  683SOL     OW 2392   1.641   1.108   6.018
  683SOL    HW1 2393   1.727   1.110   5.966
  683SOL    HW2 2394   1.655   1.155   6.106
  684SOL     OW 2395   0.113   0.737   7.183
  684SOL    HW1 2396   0.201   0.724   7.228
  684SOL    HW2 2397   0.100   0.834   7.161
  685SOL     OW 2398   0.613   1.365   6.312
  685SOL    HW1 2399   0.564   1.278   6.321
  685SOL    HW2 2400   0.590   1.408   6.225
  686SOL     OW 2401   1.293   1.228   7.009
  686SOL    HW1 2402   1.330   1.155   6.951
  686SOL    HW2 2403   1.345   1.233   7.094
  687SOL     OW 2404   0.809   0.004   6.088
  687SOL    HW1 2405   0.849   0.095   6.079
  687SOL    HW2 2406   0.709   0.012   6.094
  688SOL     OW 2407   0.197   0.976   6.850
  688SOL    HW1 2408   0.286   0.931   6.836
  688SOL    HW2 2409   0.124   0.911   6.831
  689SOL     OW 2410   1.525   0.999   5.776
  689SOL    HW1 2411   1.462   0.923   5.789
  689SOL    HW2 2412   1.573   1.017   5.862
  690SOL     OW 2413   1.187   1.792   7.202
  690SOL    HW1 2414   1.211   1.852   7.126
  690SOL    HW2 2415   1.194   1.697   7.172
  691SOL     OW 2416   0.317   0.251   7.387
  691SOL    HW1 2417   0.388   0.322   7.393
  691SOL    HW2 2418   0.229   0.290   7.415
  692SOL     OW 2419   1.466   1.417   6.539
  692SOL    HW1 2420   1.407   1.423   6.619
  692SOL    HW2 2421   1.451   1.329   6.493
  693SOL     OW 2422   1.667   1.714   6.158
  693SOL    HW1 2423   1.626   1.691   6.070
  693SOL    HW2 2424   1.649   1.640   6.223
  694SOL     OW 2425   0.598   0.729   5.856
  694SOL    HW1 2426   0.622   0.798   5.788
  694SOL    HW2 2427   0.520   0.762   5.910
  695SOL     OW 2428   1.281   0.345   6.530
  695SOL    HW1 2429   1.195   0.295   6.517
  695SOL    HW2 2430   1.343   0.291   6.586
  696SOL     OW 2431   1.576   1.662   5.893
  696SOL    HW1 2432   1.665   1.708   5.896
  696SOL    HW2 2433   1.555   1.638   5.798
  697SOL     OW 2434   0.807   0.605   7.051
  697SOL    HW1 2435   0.760   0.602   7.140
  697SOL    HW2 2436   0.756   0.550   6.985
  698SOL     OW 2437   1.394   0.469   7.260
  698SOL    HW1 2438   1.374   0.512   7.348
  698SOL    HW2 2439   1.472   0.407   7.269
  699SOL     OW 2440   0.973   0.890   7.158
  699SOL    HW1 2441   1.019   0.806   7.129
  699SOL    HW2 2442   0.917   0.924   7.083
  700SOL     OW 2443   0.991   0.410   6.828
  700SOL    HW1 2444   0.914   0.444   6.882
  700SOL    HW2 2445   0.957   0.359   6.749
  701SOL     OW 2446   1.041   0.701   6.015
  701SOL    HW1 2447   1.067   0.697   6.111
  701SOL    HW2 2448   0.956   0.650   6.001
  702SOL     OW 2449   0.076   0.811   6.375
  702SOL    HW1 2450   0.175   0.799   6.384
  702SOL    HW2 2451   0.052   0.906   6.396
  703SOL     OW 2452   0.130   1.821   7.157
  703SOL    HW1 2453   0.120   1.806   7.256
  703SOL    HW2 2454   0.044   1.857   7.121
  704SOL     OW 2455   0.865   0.348   5.781
  704SOL    HW1 2456   0.924   0.411   5.732
  704SOL    HW2 2457   0.884   0.254   5.752
  705SOL     OW 2458   1.719   0.585   7.417
  705SOL    HW1 2459   1.693   0.674   7.381
  705SOL    HW2 2460   1.717   0.517   7.344
  706SOL     OW 2461   1.362   1.144   6.131
  706SOL    HW1 2462   1.445   1.115   6.083
  706SOL    HW2 2463   1.313   1.211   6.075
  707SOL     OW 2464   0.550   0.196   6.471
  707SOL    HW1 2465   0.545   0.191   6.571
  707SOL    HW2 2466   0.552   0.292   6.442
  708SOL     OW 2467   1.008   1.456   6.063
  708SOL    HW1 2468   0.962   1.528   6.011
  708SOL    HW2 2469   1.004   1.476   6.161
  709SOL     OW 2470   0.351   1.801   6.439
  709SOL    HW1 2471   0.401   1.715   6.445
  709SOL    HW2 2472   0.416   1.878   6.436
  710SOL     OW 2473   1.795   1.066   6.459
  710SOL    HW1 2474   1.733   1.051   6.383
  710SOL    HW2 2475   1.743   1.077   6.544
  711SOL     OW 2476   1.227   1.550   7.092
  711SOL    HW1 2477   1.233   1.473   7.156
  711SOL    HW2 2478   1.175   1.524   7.012
  712SOL     OW 2479   0.321   0.943   5.828
  712SOL    HW1 2480   0.403   0.982   5.786
  712SOL    HW2 2481   0.294   0.861   5.779
  713SOL     OW 2482   1.458   0.735   6.314
  713SOL    HW1 2483   1.453   0.670   6.389
  713SOL    HW2 2484   1.538   0.794   6.327
  714SOL     OW 2485   0.461   1.266   7.313
  714SOL    HW1 2486   0.411   1.267   7.227
  714SOL    HW2 2487   0.398   1.248   7.389
  715SOL     OW 2488   1.111   1.776   5.823
  715SOL    HW1 2489   1.051   1.714   5.873
  715SOL    HW2 2490   1.142   1.732   5.738
  716SOL     OW 2491   0.202   0.285   7.084
  716SOL    HW1 2492   0.122   0.345   7.071
  716SOL    HW2 2493   0.192   0.236   7.170
  717SOL     OW 2494   1.632   1.377   5.667
  717SOL    HW1 2495   1.600   1.471   5.657
  717SOL    HW2 2496   1.556   1.314   5.655
  718SOL     OW 2497   0.464   1.743   5.909
  718SOL    HW1 2498   0.497   1.782   5.995
  718SOL    HW2 2499   0.540   1.736   5.844
  719SOL     OW 2500   1.400   0.107   6.012
  719SOL    HW1 2501   1.376   0.070   5.922
  719SOL    HW2 2502   1.499   0.123   6.016
  720SOL     OW 2503   0.249   1.785   6.827
  720SOL    HW1 2504   0.306   1.720   6.877
  720SOL    HW2 2505   0.233   1.752   6.734
  721SOL     OW 2506   0.940   1.698   6.490
  721SOL    HW1 2507   1.020   1.641   6.511
  721SOL    HW2 2508   0.891   1.658   6.413
  722SOL     OW 2509   0.382   0.700   6.066
  722SOL    HW1 2510   0.427   0.610   6.063
  722SOL    HW2 2511   0.288   0.689   6.099
  723SOL     OW 2512   1.547   0.222   7.315
  723SOL    HW1 2513   1.542   0.259   7.407
  723SOL    HW2 2514   1.475   0.153   7.303
  724SOL     OW 2515   0.614   0.122   5.703
  724SOL    HW1 2516   0.712   0.100   5.710
  724SOL    HW2 2517   0.583   0.105   5.610
  725SOL     OW 2518   0.781   0.264   7.335
  725SOL    HW1 2519   0.848   0.203   7.378
  725SOL    HW2 2520   0.708   0.283   7.400
  726SOL     OW 2521   0.888   1.514   6.781
  726SOL    HW1 2522   0.865   1.489   6.687
  726SOL    HW2 2523   0.949   1.445   6.820
  727SOL     OW 2524   1.351   0.590   7.019
  727SOL    HW1 2525   1.379   0.547   7.104
  727SOL    HW2 2526   1.376   0.686   7.020
  728SOL     OW 2527   0.803   1.402   6.510
  728SOL    HW1 2528   0.893   1.416   6.468
  728SOL    HW2 2529   0.732   1.404   6.439
  729SOL     OW 2530   0.922   0.503   6.485
  729SOL    HW1 2531   0.897   0.494   6.389
  729SOL    HW2 2532   0.970   0.421   6.516
  730SOL     OW 2533   0.539   0.064   6.098
  730SOL    HW1 2534   0.458   0.065   6.156
  730SOL    HW2 2535   0.542   0.147   6.043
  731SOL     OW 2536   1.434   1.188   5.627
  731SOL    HW1 2537   1.466   1.112   5.684
  731SOL    HW2 2538   1.342   1.215   5.657
  732SOL     OW 2539   0.297   0.035   5.757
  732SOL    HW1 2540   0.346   0.119   5.736
  732SOL    HW2 2541   0.359  -0.030   5.802
  733SOL     OW 2542   0.935   0.236   6.066
  733SOL    HW1 2543   0.887   0.277   5.988
  733SOL    HW2 2544   1.034   0.234   6.047
  734SOL     OW 2545   1.076   0.683   7.050
  734SOL    HW1 2546   0.996   0.622   7.053
  734SOL    HW2 2547   1.157   0.630   7.026
  735SOL     OW 2548   1.227   1.570   6.379
  735SOL    HW1 2549   1.248   1.644   6.314
  735SOL    HW2 2550   1.295   1.570   6.452
  736SOL     OW 2551   0.459   1.152   6.327
  736SOL    HW1 2552   0.388   1.125   6.392
  736SOL    HW2 2553   0.433   1.124   6.234
  737SOL     OW 2554   1.271   1.797   6.177
  737SOL    HW1 2555   1.315   1.861   6.113
  737SOL    HW2 2556   1.221   1.849   6.247
  738SOL     OW 2557   1.032   0.549   5.602
  738SOL    HW1 2558   0.991   0.631   5.563
  738SOL    HW2 2559   1.096   0.575   5.675
  739SOL     OW 2560   0.078   0.556   6.972
  739SOL    HW1 2561   0.170   0.555   6.931
  739SOL    HW2 2562   0.072   0.630   7.039
  740SOL     OW 2563   0.561   0.222   6.733
  740SOL    HW1 2564   0.599   0.138   6.770
  740SOL    HW2 2565   0.473   0.241   6.777
  741SOL     OW 2566   0.866   0.454   6.228
  741SOL    HW1 2567   0.834   0.526   6.166
  741SOL    HW2 2568   0.890   0.373   6.175
  742SOL     OW 2569   1.017   0.039   6.339
  742SOL    HW1 2570   0.945   0.044   6.270
  742SOL    HW2 2571   0.993  -0.030   6.408
  743SOL     OW 2572   1.429   1.173   6.453
  743SOL    HW1 2573   1.374   1.089   6.446
  743SOL    HW2 2574   1.455   1.202   6.361
  744SOL     OW 2575   1.466   0.590   6.578
  744SOL    HW1 2576   1.436   0.495   6.585
  744SOL    HW2 2577   1.539   0.606   6.644
  745SOL     OW 2578   1.857   0.833   5.963
  745SOL    HW1 2579   1.899   0.769   6.027
  745SOL    HW2 2580   1.819   0.782   5.885
  746SOL     OW 2581   0.488   1.385   5.760
  746SOL    HW1 2582   0.401   1.370   5.807
  746SOL    HW2 2583   0.471   1.411   5.665
  747SOL     OW 2584   1.664   1.280   6.243
  747SOL    HW1 2585   1.763   1.288   6.257
  747SOL    HW2 2586   1.619   1.364   6.274
  748SOL     OW 2587   1.390   0.575   5.664
  748SOL    HW1 2588   1.336   0.554   5.745
  748SOL    HW2 2589   1.481   0.534   5.673
  749SOL     OW 2590   0.527   0.256   5.914
  749SOL    HW1 2591   0.554   0.197   5.839
  749SOL    HW2 2592   0.527   0.351   5.883
  750SOL     OW 2593   1.754   1.223   7.174
  750SOL    HW1 2594   1.845   1.184   7.161
  750SOL    HW2 2595   1.762   1.319   7.198
  751SOL     OW 2596   1.064   1.347   6.926
  751SOL    HW1 2597   0.984   1.324   6.981
  751SOL    HW2 2598   1.147   1.321   6.975
  752SOL     OW 2599   1.592   1.629   7.211
  752SOL    HW1 2600   1.619   1.663   7.121
  752SOL    HW2 2601   1.671   1.591   7.257
  753SOL     OW 2602   1.111   1.195   6.686
  753SOL    HW1 2603   1.071   1.239   6.767
  753SOL    HW2 2604   1.070   1.232   6.603
  754SOL     OW 2605   1.638   1.099   6.665
  754SOL    HW1 2606   1.643   1.180   6.724
  754SOL    HW2 2607   1.552   1.101   6.614
  755SOL     OW 2608   0.915   0.089   6.988
  755SOL    HW1 2609   0.940   0.069   6.893
  755SOL    HW2 2610   0.987   0.145   7.030
  756SOL     OW 2611   0.980   1.116   7.305
  756SOL    HW1 2612   0.881   1.122   7.315
  756SOL    HW2 2613   1.003   1.036   7.249
  757SOL     OW 2614   0.705   1.050   5.954
  757SOL    HW1 2615   0.691   1.057   6.053
  757SOL    HW2 2616   0.789   0.999   5.936
  758SOL     OW 2617   0.410   0.813   6.837
  758SOL    HW1 2618   0.496   0.825   6.887
  758SOL    HW2 2619   0.368   0.726   6.864
  759SOL     OW 2620   1.274   0.386   6.848
  759SOL    HW1 2621   1.295   0.460   6.912
  759SOL    HW2 2622   1.185   0.403   6.805
  760SOL     OW 2623   0.064   1.564   6.917
  760SOL    HW1 2624   0.018   1.646   6.883
  760SOL    HW2 2625   0.162   1.583   6.926
  761SOL     OW 2626   0.367   1.100   6.087
  761SOL    HW1 2627   0.360   1.183   6.031
  761SOL    HW2 2628   0.371   1.020   6.027
  762SOL     OW 2629   0.566   0.537   6.451
  762SOL    HW1 2630   0.578   0.603   6.377
  762SOL    HW2 2631   0.612   0.571   6.534
  763SOL     OW 2632   1.252   1.348   5.974
  763SOL    HW1 2633   1.302   1.425   6.014
  763SOL    HW2 2634   1.157   1.350   6.006
  764SOL     OW 2635   1.272   1.445   6.728
  764SOL    HW1 2636   1.319   1.458   6.815
  764SOL    HW2 2637   1.206   1.371   6.737
  765SOL     OW 2638   1.582   0.639   6.058
  765SOL    HW1 2639   1.551   0.700   6.131
  765SOL    HW2 2640   1.632   0.691   5.989
  766SOL     OW 2641   0.354   1.510   6.915
  766SOL    HW1 2642   0.333   1.466   6.828
  766SOL    HW2 2643   0.451   1.536   6.918
  767SOL     OW 2644   0.402   0.751   7.184
  767SOL    HW1 2645   0.470   0.806   7.137
  767SOL    HW2 2646   0.442   0.663   7.211
  768SOL     OW 2647   1.587   0.779   7.256
  768SOL    HW1 2648   1.495   0.817   7.251
  768SOL    HW2 2649   1.647   0.826   7.191
  769SOL     OW 2650   1.013   0.105   7.356
  769SOL    HW1 2651   1.019   0.190   7.304
  769SOL    HW2 2652   1.045   0.029   7.299
  770SOL     OW 2653   0.504   0.050   7.326
  770SOL    HW1 2654   0.462  -0.007   7.256
  770SOL    HW2 2655   0.438   0.119   7.358
  771SOL     OW 2656   0.573   0.870   6.615
  771SOL    HW1 2657   0.617   0.959   6.606
  771SOL    HW2 2658   0.510   0.870   6.692
  772SOL     OW 2659   1.360   0.862   6.631
  772SOL    HW1 2660   1.285   0.862   6.565
  772SOL    HW2 2661   1.397   0.770   6.640
  773SOL     OW 2662   1.209   0.525   5.861
  773SOL    HW1 2663   1.222   0.441   5.915
  773SOL    HW2 2664   1.180   0.599   5.921
  774SOL     OW 2665   0.307   0.213   6.817
  774SOL    HW1 2666   0.284   0.250   6.907
  774SOL    HW2 2667   0.277   0.118   6.811
  775SOL     OW 2668   0.037   1.310   6.868
  775SOL    HW1 2669   0.090   1.261   6.936
  775SOL    HW2 2670   0.059   1.408   6.873
  776SOL     OW 2671   0.732   0.634   6.650
  776SOL    HW1 2672   0.791   0.608   6.574
  776SOL    HW2 2673   0.704   0.730   6.639
  777SOL     OW 2674   1.728   0.935   7.440
  777SOL    HW1 2675   1.682   0.928   7.351
  777SOL    HW2 2676   1.666   0.979   7.506
  778SOL     OW 2677   0.307   0.063   6.204
  778SOL    HW1 2678   0.296   0.157   6.237
  778SOL    HW2 2679   0.302   0.000   6.281
  779SOL     OW 2680   1.622   0.367   5.960
  779SOL    HW1 2681   1.624   0.291   6.024
  779SOL    HW2 2682   1.574   0.444   6.000
  780SOL     OW 2683   1.023   0.766   6.552
  780SOL    HW1 2684   1.038   0.787   6.648
  780SOL    HW2 2685   0.993   0.671   6.543
  781SOL     OW 2686   0.980   1.573   7.286
  781SOL    HW1 2687   0.960   1.617   7.198
  781SOL    HW2 2688   1.019   1.482   7.270
  782SOL     OW 2689   1.859   1.518   7.191
  782SOL    HW1 2690   1.873   1.545   7.096
  782SOL    HW2 2691   1.942   1.540   7.244
  783SOL     OW 2692   0.350   0.898   7.390
  783SOL    HW1 2693   0.426   0.942   7.438
  783SOL    HW2 2694   0.385   0.851   7.308
  784SOL     OW 2695   1.540   0.274   5.711
  784SOL    HW1 2696   1.479   0.199   5.734
  784SOL    HW2 2697   1.562   0.326   5.794
  785SOL     OW 2698   1.303   0.838   5.628
  785SOL    HW1 2699   1.337   0.745   5.643
  785SOL    HW2 2700   1.321   0.865   5.533
  786SOL     OW 2701   1.068   1.333   6.435
  786SOL    HW1 2702   1.075   1.249   6.380
  786SOL    HW2 2703   1.130   1.402   6.399
  787SOL     OW 2704   0.319   0.810   6.535
  787SOL    HW1 2705   0.412   0.846   6.540
  787SOL    HW2 2706   0.313   0.725   6.587
  788SOL     OW 2707   0.339   0.509   6.592
  788SOL    HW1 2708   0.287   0.426   6.575
  788SOL    HW2 2709   0.416   0.514   6.528
  789SOL     OW 2710   1.138   0.380   7.264
  789SOL    HW1 2711   1.093   0.443   7.328
  789SOL    HW2 2712   1.231   0.411   7.247
  790SOL     OW 2713   1.160   0.207   7.063
  790SOL    HW1 2714   1.160   0.271   7.140
  790SOL    HW2 2715   1.188   0.255   6.980
  791SOL     OW 2716   0.008   1.326   5.786
  791SOL    HW1 2717  -0.085   1.347   5.755
  791SOL    HW2 2718   0.018   1.227   5.799
  792SOL     OW 2719   0.088   1.801   6.513
  792SOL    HW1 2720   0.046   1.715   6.486
  792SOL    HW2 2721   0.182   1.804   6.479
  793SOL     OW 2722   0.504   1.568   6.496
  793SOL    HW1 2723   0.570   1.642   6.505
  793SOL    HW2 2724   0.548   1.489   6.454
  794SOL     OW 2725   1.002   0.796   6.824
  794SOL    HW1 2726   1.043   0.764   6.910
  794SOL    HW2 2727   0.906   0.769   6.821
  795SOL     OW 2728   0.040   0.544   6.700
  795SOL    HW1 2729   0.125   0.511   6.659
  795SOL    HW2 2730   0.053   0.559   6.798
  796SOL     OW 2731   0.189   0.520   7.308
  796SOL    HW1 2732   0.248   0.480   7.238
  796SOL    HW2 2733   0.131   0.591   7.267
  797SOL     OW 2734   1.369   0.950   7.246
  797SOL    HW1 2735   1.408   1.039   7.266
  797SOL    HW2 2736   1.379   0.930   7.149
  798SOL     OW 2737   0.815   0.572   5.911
  798SOL    HW1 2738   0.822   0.483   5.865
  798SOL    HW2 2739   0.721   0.606   5.903
  799SOL     OW 2740   1.657   0.604   6.792
  799SOL    HW1 2741   1.619   0.535   6.854
  799SOL    HW2 2742   1.739   0.568   6.748
  800SOL     OW 2743   0.252   1.564   7.330
  800SOL    HW1 2744   0.222   1.621   7.406
  800SOL    HW2 2745   0.245   1.467   7.356
  801SOL     OW 2746   0.671   0.464   6.855
  801SOL    HW1 2747   0.637   0.375   6.825
  801SOL    HW2 2748   0.697   0.518   6.775
  802SOL     OW 2749   0.930   1.678   7.051
  802SOL    HW1 2750   0.906   1.660   6.956
  802SOL    HW2 2751   0.960   1.772   7.061
  803SOL     OW 2752   0.473   0.500   5.777
  803SOL    HW1 2753   0.534   0.580   5.781
  803SOL    HW2 2754   0.378   0.531   5.784
  804SOL     OW 2755   0.159   1.137   7.052
  804SOL    HW1 2756   0.181   1.076   7.128
  804SOL    HW2 2757   0.169   1.088   6.966
  805SOL     OW 2758   1.347   1.059   6.820
  805SOL    HW1 2759   1.371   0.996   6.746
  805SOL    HW2 2760   1.257   1.099   6.802
  806SOL     OW 2761   1.302   0.855   5.895
  806SOL    HW1 2762   1.216   0.824   5.937
  806SOL    HW2 2763   1.298   0.841   5.796
  807SOL     OW 2764   1.759   1.747   6.740
  807SOL    HW1 2765   1.820   1.777   6.667
  807SOL    HW2 2766   1.721   1.658   6.718
  808SOL     OW 2767   1.252   1.731   6.714
  808SOL    HW1 2768   1.336   1.736   6.660
  808SOL    HW2 2769   1.229   1.635   6.732
  809SOL     OW 2770   0.083   1.258   6.608
  809SOL    HW1 2771   0.078   1.257   6.708
  809SOL    HW2 2772   0.000   1.217   6.570
  810SOL     OW 2773   0.688   1.662   7.302
  810SOL    HW1 2774   0.632   1.743   7.311
  810SOL    HW2 2775   0.740   1.666   7.216
  811SOL     OW 2776   1.726   0.135   6.109
  811SOL    HW1 2777   1.799   0.118   6.042
  811SOL    HW2 2778   1.695   0.048   6.147
  812SOL     OW 2779   1.388   1.573   6.063
  812SOL    HW1 2780   1.455   1.585   5.989
  812SOL    HW2 2781   1.348   1.662   6.086
  813SOL     OW 2782   0.130   1.794   7.437
  813SOL    HW1 2783   0.089   1.720   7.490
  813SOL    HW2 2784   0.194   1.845   7.495
  814SOL     OW 2785   1.280   0.927   6.258
  814SOL    HW1 2786   1.340   0.846   6.260
  814SOL    HW2 2787   1.320   0.996   6.198
  815SOL     OW 2788   0.830   1.273   7.008
  815SOL    HW1 2789   0.825   1.306   7.103
  815SOL    HW2 2790   0.744   1.292   6.962
  816SOL     OW 2791   0.672   1.616   5.740
  816SOL    HW1 2792   0.681   1.626   5.641
  816SOL    HW2 2793   0.632   1.527   5.761
  817SOL     OW 2794   1.650   1.720   6.980
  817SOL    HW1 2795   1.703   1.730   6.896
  817SOL    HW2 2796   1.623   1.810   7.014
  818SOL     OW 2797   1.841   0.175   6.549
  818SOL    HW1 2798   1.880   0.090   6.513
  818SOL    HW2 2799   1.743   0.177   6.530
  819SOL     OW 2800   0.263   0.326   6.306
  819SOL    HW1 2801   0.184   0.377   6.272
  819SOL    HW2 2802   0.254   0.311   6.404
  820SOL     OW 2803   1.194   1.612   5.617
  820SOL    HW1 2804   1.200   1.519   5.654
  820SOL    HW2 2805   1.135   1.612   5.537
  821SOL     OW 2806   0.822   1.002   6.958
  821SOL    HW1 2807   0.862   1.001   6.866
  821SOL    HW2 2808   0.832   1.094   6.998
  822SOL     OW 2809   0.916   0.910   5.877
  822SOL    HW1 2810   0.979   0.948   5.809
  822SOL    HW2 2811   0.956   0.827   5.916
  823SOL     OW 2812   1.504   1.607   5.630
  823SOL    HW1 2813   1.412   1.644   5.637
  823SOL    HW2 2814   1.542   1.627   5.540
  824SOL     OW 2815   0.372   1.288   7.076
  824SOL    HW1 2816   0.359   1.381   7.042
  824SOL    HW2 2817   0.288   1.236   7.063
  825SOL     OW 2818   1.614   1.292   6.875
  825SOL    HW1 2819   1.674   1.295   6.955
  825SOL    HW2 2820   1.539   1.356   6.888
  826SOL     OW 2821   1.039   1.098   6.282
  826SOL    HW1 2822   0.969   1.051   6.336
  826SOL    HW2 2823   1.098   1.030   6.239
  827SOL     OW 2824   1.014   0.236   6.557
  827SOL    HW1 2825   1.006   0.200   6.464
  827SOL    HW2 2826   1.012   0.160   6.622
  828SOL     OW 2827   0.590   1.487   6.077
  828SOL    HW1 2828   0.632   1.429   6.007
  828SOL    HW2 2829   0.546   1.566   6.033
  829SOL     OW 2830   1.709   0.385   6.967
  829SOL    HW1 2831   1.782   0.454   6.971
  829SOL    HW2 2832   1.737   0.310   6.908
  830SOL     OW 2833   0.255   1.348   5.876
  830SOL    HW1 2834   0.159   1.349   5.849
  830SOL    HW2 2835   0.267   1.401   5.960
  831SOL     OW 2836   0.105   1.013   7.312
  831SOL    HW1 2837   0.028   0.980   7.366
  831SOL    HW2 2838   0.190   0.983   7.354
  832SOL     OW 2839   0.672   0.203   7.075
  832SOL    HW1 2840   0.762   0.187   7.035
  832SOL    HW2 2841   0.680   0.208   7.174
  833SOL     OW 2842   0.075   0.345   5.619
  833SOL    HW1 2843  -0.017   0.317   5.590
  833SOL    HW2 2844   0.106   0.422   5.563
  834SOL     OW 2845   1.440   0.856   6.984
  834SOL    HW1 2846   1.383   0.908   6.921
  834SOL    HW2 2847   1.536   0.868   6.960
  835SOL     OW 2848   0.072   0.166   5.904
  835SOL    HW1 2849   0.055   0.249   5.850
  835SOL    HW2 2850   0.162   0.129   5.882
  836SOL     OW 2851   1.183   1.335   5.705
  836SOL    HW1 2852   1.084   1.324   5.707
  836SOL    HW2 2853   1.217   1.350   5.798
  837SOL     OW 2854   0.613   0.842   7.017
  837SOL    HW1 2855   0.669   0.923   7.000
  837SOL    HW2 2856   0.672   0.762   7.020
  838SOL     OW 2857   1.493   1.767   6.545
  838SOL    HW1 2858   1.526   1.831   6.476
  838SOL    HW2 2859   1.559   1.761   6.620
  839SOL     OW 2860   0.716   0.565   7.294
  839SOL    HW1 2861   0.735   0.630   7.368
  839SOL    HW2 2862   0.776   0.485   7.303
  840SOL     OW 2863   1.450   1.220   7.219
  840SOL    HW1 2864   1.441   1.210   7.318
  840SOL    HW2 2865   1.546   1.213   7.193
  841SOL     OW 2866   0.390   1.741   7.146
  841SOL    HW1 2867   0.299   1.782   7.144
  841SOL    HW2 2868   0.383   1.647   7.178
  842SOL     OW 2869   1.674   0.883   6.840
  842SOL    HW1 2870   1.647   0.794   6.803
  842SOL    HW2 2871   1.675   0.951   6.767
  843SOL     OW 2872   1.225   0.325   6.035
  843SOL    HW1 2873   1.290   0.251   6.024
  843SOL    HW2 2874   1.245   0.375   6.119
  844SOL     OW 2875   0.594   0.745   6.238
  844SOL    HW1 2876   0.644   0.830   6.219
  844SOL    HW2 2877   0.506   0.747   6.190
  845SOL     OW 2878   1.777   0.342   7.228
  845SOL    HW1 2879   1.760   0.373   7.134
  845SOL    HW2 2880   1.693   0.305   7.266
  846SOL     OW 2881   1.730   0.934   7.103
  846SOL    HW1 2882   1.768   1.025   7.118
  846SOL    HW2 2883   1.722   0.917   7.004
  847SOL     OW 2884   0.859   1.374   5.602
  847SOL    HW1 2885   0.813   1.389   5.690
  847SOL    HW2 2886   0.903   1.459   5.572
  848SOL     OW 2887   0.661   1.790   6.539
  848SOL    HW1 2888   0.615   1.878   6.526
  848SOL    HW2 2889   0.760   1.802   6.532
  849SOL     OW 2890   0.859   0.956   6.447
  849SOL    HW1 2891   0.913   0.887   6.495
  849SOL    HW2 2892   0.827   1.025   6.513
  850SOL     OW 2893   1.083   0.984   5.673
  850SOL    HW1 2894   1.060   1.037   5.591
  850SOL    HW2 2895   1.164   0.928   5.654
  851SOL     OW 2896   1.861   1.569   6.437
  851SOL    HW1 2897   1.790   1.557   6.367
  851SOL    HW2 2898   1.862   1.490   6.497
  852SOL     OW 2899   0.221   1.314   7.430
  852SOL    HW1 2900   0.156   1.241   7.409
  852SOL    HW2 2901   0.225   1.328   7.528
  853SOL     OW 2902   0.079   1.240   6.239
  853SOL    HW1 2903   0.078   1.193   6.327
  853SOL    HW2 2904   0.161   1.212   6.188
  854SOL     OW 2905   0.672   1.391   7.210
  854SOL    HW1 2906   0.594   1.341   7.248
  854SOL    HW2 2907   0.669   1.486   7.241
  855SOL     OW 2908   1.824   0.192   6.813
  855SOL    HW1 2909   1.820   0.102   6.857
  855SOL    HW2 2910   1.827   0.181   6.714
  856SOL     OW 2911   0.428   0.424   6.106
  856SOL    HW1 2912   0.458   0.352   6.044
  856SOL    HW2 2913   0.389   0.384   6.189
  857SOL     OW 2914   1.705   1.487   6.690
  857SOL    HW1 2915   1.612   1.462   6.663
  857SOL    HW2 2916   1.731   1.437   6.772
  858SOL     OW 2917   0.317   0.547   6.866
  858SOL    HW1 2918   0.355   0.488   6.938
  858SOL    HW2 2919   0.357   0.521   6.778
  859SOL     OW 2920   0.812   1.586   6.273
  859SOL    HW1 2921   0.844   1.596   6.179
  859SOL    HW2 2922   0.733   1.524   6.275
  860SOL     OW 2923   1.424   0.214   6.698
  860SOL    HW1 2924   1.476   0.149   6.753
  860SOL    HW2 2925   1.375   0.277   6.759
  861SOL     OW 2926   1.001   0.034   6.740
  861SOL    HW1 2927   0.938  -0.038   6.709
  861SOL    HW2 2928   1.094  -0.002   6.740
  862SOL     OW 2929   0.770   1.330   5.887
  862SOL    HW1 2930   0.724   1.243   5.904
  862SOL    HW2 2931   0.861   1.327   5.928
  863SOL     OW 2932   0.618   1.567   6.870
  863SOL    HW1 2933   0.613   1.649   6.927
  863SOL    HW2 2934   0.707   1.564   6.825
  864SOL     OW 2935   1.352   0.052   5.754
  864SOL    HW1 2936   1.387   0.011   5.670
  864SOL    HW2 2937   1.262   0.014   5.774
  865SOL     OW 2938   1.300   0.453   6.277
  865SOL    HW1 2939   1.241   0.533   6.281
  865SOL    HW2 2940   1.315   0.418   6.370
  866SOL     OW 2941   1.593   0.221   6.468
  866SOL    HW1 2942   1.509   0.220   6.522
  866SOL    HW2 2943   1.595   0.304   6.412
  867SOL     OW 2944   0.039   1.077   5.886
  867SOL    HW1 2945   0.138   1.066   5.877
  867SOL    HW2 2946  -0.001   0.991   5.918
  868SOL     OW 2947   0.875   1.646   5.923
  868SOL    HW1 2948   0.798   1.611   5.869
  868SOL    HW2 2949   0.843   1.717   5.985
  869SOL     OW 2950   0.230   0.628   7.561
  869SOL    HW1 2951   0.137   0.626   7.598
  869SOL    HW2 2952   0.231   0.589   7.469
  870SOL     OW 2953   1.755   0.607   7.679
  870SOL    HW1 2954   1.743   0.594   7.580
  870SOL    HW2 2955   1.725   0.526   7.728
  871SOL     OW 2956   0.231   1.713   7.931
  871SOL    HW1 2957   0.265   1.790   7.985
  871SOL    HW2 2958   0.275   1.713   7.841
  872SOL     OW 2959   0.606   0.964   7.571
  872SOL    HW1 2960   0.613   1.048   7.517
  872SOL    HW2 2961   0.652   0.977   7.659
  873SOL     OW 2962   1.842   1.767   7.807
  873SOL    HW1 2963   1.896   1.738   7.887
  873SOL    HW2 2964   1.872   1.857   7.778
  874SOL     OW 2965   0.027   1.596   7.565
  874SOL    HW1 2966   0.008   1.500   7.586
  874SOL    HW2 2967  -0.006   1.654   7.640
  875SOL     OW 2968   1.641   1.108   7.880
  875SOL    HW1 2969   1.727   1.110   7.828
  875SOL    HW2 2970   1.655   1.155   7.968
  876SOL     OW 2971   0.809   0.004   7.950
  876SOL    HW1 2972   0.849   0.095   7.941
  876SOL    HW2 2973   0.709   0.012   7.956
  877SOL     OW 2974   1.525   0.999   7.638
  877SOL    HW1 2975   1.462   0.923   7.651
  877SOL    HW2 2976   1.573   1.017   7.724
  878SOL     OW 2977   1.667   1.714   8.020
  878SOL    HW1 2978   1.626   1.691   7.932
  878SOL    HW2 2979   1.649   1.640   8.085
  879SOL     OW 2980   0.598   0.729   7.718
  879SOL    HW1 2981   0.622   0.798   7.650
  879SOL    HW2 2982   0.520   0.762   7.772
  880SOL     OW 2983   1.576   1.662   7.755
  880SOL    HW1 2984   1.665   1.708   7.758
  880SOL    HW2 2985   1.555   1.638   7.660
  881SOL     OW 2986   1.041   0.701   7.877
  881SOL    HW1 2987   1.067   0.697   7.973
  881SOL    HW2 2988   0.956   0.650   7.863
  882SOL     OW 2989   0.865   0.348   7.643
  882SOL    HW1 2990   0.924   0.411   7.594
  882SOL    HW2 2991   0.884   0.254   7.614
  883SOL     OW 2992   1.362   1.144   7.993
  883SOL    HW1 2993   1.445   1.115   7.945
  883SOL    HW2 2994   1.313   1.211   7.937
  884SOL     OW 2995   1.008   1.456   7.925
  884SOL    HW1 2996   0.962   1.528   7.873
  884SOL    HW2 2997   1.004   1.476   8.023
  885SOL     OW 2998   0.321   0.943   7.690
  885SOL    HW1 2999   0.403   0.982   7.648
  885SOL    HW2 3000   0.294   0.861   7.641
  886SOL     OW 3001   1.111   1.776   7.685
  886SOL    HW1 3002   1.051   1.714   7.735
  886SOL    HW2 3003   1.142   1.732   7.600
  887SOL     OW 3004   1.632   1.377   7.529
  887SOL    HW1 3005   1.600   1.471   7.519
  887SOL    HW2 3006   1.556   1.314   7.517
  888SOL     OW 3007   0.464   1.743   7.771
  888SOL    HW1 3008   0.497   1.782   7.857
  888SOL    HW2 3009   0.540   1.736   7.706
  889SOL     OW 3010   1.400   0.107   7.874
  889SOL    HW1 3011   1.376   0.070   7.784
  889SOL    HW2 3012   1.499   0.123   7.878
  890SOL     OW 3013   0.382   0.700   7.928
  890SOL    HW1 3014   0.427   0.610   7.925
  890SOL    HW2 3015   0.288   0.689   7.961
  891SOL     OW 3016   0.539   0.064   7.960
  891SOL    HW1 3017   0.458   0.065   8.018
  891SOL    HW2 3018   0.542   0.147   7.905
  892SOL     OW 3019   1.434   1.188   7.489
  892SOL    HW1 3020   1.466   1.112   7.546
  892SOL    HW2 3021   1.342   1.215   7.519
  893SOL     OW 3022   0.297   0.035   7.619
  893SOL    HW1 3023   0.346   0.119   7.598
  893SOL    HW2 3024   0.359  -0.030   7.664
  894SOL     OW 3025   0.935   0.236   7.928
  894SOL    HW1 3026   0.887   0.277   7.850
  894SOL    HW2 3027   1.034   0.234   7.909
  895SOL     OW 3028   1.032   0.549   7.464
  895SOL    HW1 3029   0.991   0.631   7.425
  895SOL    HW2 3030   1.096   0.575   7.537
  896SOL     OW 3031   1.857   0.833   7.825
  896SOL    HW1 3032   1.899   0.769   7.889
  896SOL    HW2 3033   1.819   0.782   7.747
  897SOL     OW 3034   0.488   1.385   7.622
  897SOL    HW1 3035   0.401   1.370   7.669
  897SOL    HW2 3036   0.471   1.411   7.527
  898SOL     OW 3037   1.390   0.575   7.526
  898SOL    HW1 3038   1.336   0.554   7.607
  898SOL    HW2 3039   1.481   0.534   7.535
  899SOL     OW 3040   0.527   0.256   7.776
  899SOL    HW1 3041   0.554   0.197   7.701
  899SOL    HW2 3042   0.527   0.351   7.745
  900SOL     OW 3043   0.705   1.050   7.816
  900SOL    HW1 3044   0.691   1.057   7.915
  900SOL    HW2 3045   0.789   0.999   7.798
  901SOL     OW 3046   0.367   1.100   7.949
  901SOL    HW1 3047   0.360   1.183   7.893
  901SOL    HW2 3048   0.371   1.020   7.889
  902SOL     OW 3049   1.252   1.348   7.836
  902SOL    HW1 3050   1.302   1.425   7.876
  902SOL    HW2 3051   1.157   1.350   7.868
  903SOL     OW 3052   1.582   0.639   7.920
  903SOL    HW1 3053   1.551   0.700   7.993
  903SOL    HW2 3054   1.632   0.691   7.851
  904SOL     OW 3055   1.209   0.525   7.723
  904SOL    HW1 3056   1.222   0.441   7.777
  904SOL    HW2 3057   1.180   0.599   7.783
  905SOL     OW 3058   1.622   0.367   7.822
  905SOL    HW1 3059   1.624   0.291   7.886
  905SOL    HW2 3060   1.574   0.444   7.862
  906SOL     OW 3061   1.540   0.274   7.573
  906SOL    HW1 3062   1.479   0.199   7.596
  906SOL    HW2 3063   1.562   0.326   7.656
  907SOL     OW 3064   1.303   0.838   7.490
  907SOL    HW1 3065   1.337   0.745   7.505
  907SOL    HW2 3066   1.321   0.865   7.395
  908SOL     OW 3067   0.008   1.326   7.648
  908SOL    HW1 3068  -0.085   1.347   7.617
  908SOL    HW2 3069   0.018   1.227   7.661
  909SOL     OW 3070   0.815   0.572   7.773
  909SOL    HW1 3071   0.822   0.483   7.727
  909SOL    HW2 3072   0.721   0.606   7.765
  910SOL     OW 3073   0.473   0.500   7.639
  910SOL    HW1 3074   0.534   0.580   7.643
  910SOL    HW2 3075   0.378   0.531   7.646
  911SOL     OW 3076   1.302   0.855   7.757
  911SOL    HW1 3077   1.216   0.824   7.799
  911SOL    HW2 3078   1.298   0.841   7.658
  912SOL     OW 3079   1.726   0.135   7.971
  912SOL    HW1 3080   1.799   0.118   7.904
  912SOL    HW2 3081   1.695   0.048   8.009
  913SOL     OW 3082   1.388   1.573   7.925
  913SOL    HW1 3083   1.455   1.585   7.851
  913SOL    HW2 3084   1.348   1.662   7.948
  914SOL     OW 3085   0.672   1.616   7.602
  914SOL    HW1 3086   0.681   1.626   7.503
  914SOL    HW2 3087   0.632   1.527   7.623
  915SOL     OW 3088   1.194   1.612   7.479
  915SOL    HW1 3089   1.200   1.519   7.516
  915SOL    HW2 3090   1.135   1.612   7.399
  916SOL     OW 3091   0.916   0.910   7.739
  916SOL    HW1 3092   0.979   0.948   7.671
  916SOL    HW2 3093   0.956   0.827   7.778
  917SOL     OW 3094   1.504   1.607   7.492
  917SOL    HW1 3095   1.412   1.644   7.499
  917SOL    HW2 3096   1.542   1.627   7.402
  918SOL     OW 3097   0.590   1.487   7.939
  918SOL    HW1 3098   0.632   1.429   7.869
  918SOL    HW2 3099   0.546   1.566   7.895
  919SOL     OW 3100   0.255   1.348   7.738
  919SOL    HW1 3101   0.159   1.349   7.711
  919SOL    HW2 3102   0.267   1.401   7.822
  920SOL     OW 3103   0.075   0.345   7.481
  920SOL    HW1 3104  -0.017   0.317   7.452
  920SOL    HW2 3105   0.106   0.422   7.425
  921SOL     OW 3106   0.072   0.166   7.766
  921SOL    HW1 3107   0.055   0.249   7.712
  921SOL    HW2 3108   0.162   0.129   7.744
  922SOL     OW 3109   1.183   1.335   7.567
  922SOL    HW1 3110   1.084   1.324   7.569
  922SOL    HW2 3111   1.217   1.350   7.660
  923SOL     OW 3112   1.225   0.325   7.897
  923SOL    HW1 3113   1.290   0.251   7.886
  923SOL    HW2 3114   1.245   0.375   7.981
  924SOL     OW 3115   0.859   1.374   7.464
  924SOL    HW1 3116   0.813   1.389   7.552
  924SOL    HW2 3117   0.903   1.459   7.434
  925SOL     OW 3118   1.083   0.984   7.535
  925SOL    HW1 3119   1.060   1.037   7.453
  925SOL    HW2 3120   1.164   0.928   7.516
  926SOL     OW 3121   0.428   0.424   7.968
  926SOL    HW1 3122   0.458   0.352   7.906
  926SOL    HW2 3123   0.389   0.384   8.051
  927SOL     OW 3124   0.770   1.330   7.749
  927SOL    HW1 3125   0.724   1.243   7.766
  927SOL    HW2 3126   0.861   1.327   7.790
  928SOL     OW 3127   1.352   0.052   7.616
  928SOL    HW1 3128   1.387   0.011   7.532
  928SOL    HW2 3129   1.262   0.014   7.636
  929SOL     OW 3130   0.039   1.077   7.748
  929SOL    HW1 3131   0.138   1.066   7.739
  929SOL    HW2 3132  -0.001   0.991   7.780
  930SOL     OW 3133   0.875   1.646   7.785
  930SOL    HW1 3134   0.798   1.611   7.731
  930SOL    HW2 3135   0.843   1.717   7.847
  931SOL     OW 3136   0.230   2.490   0.113
  931SOL    HW1 3137   0.137   2.488   0.150
  931SOL    HW2 3138   0.231   2.451   0.021
  932SOL     OW 3139   0.225   2.137   0.996
  932SOL    HW1 3140   0.260   2.120   1.088
  932SOL    HW2 3141   0.137   2.092   0.984
  933SOL     OW 3142   0.019   2.230   0.647
  933SOL    HW1 3143  -0.063   2.273   0.686
  933SOL    HW2 3144  -0.009   2.157   0.584
  934SOL     OW 3145   0.569   3.137   1.165
  934SOL    HW1 3146   0.476   3.130   1.128
  934SOL    HW2 3147   0.580   3.226   1.209
  935SOL     OW 3148   1.555   3.373   0.703
  935SOL    HW1 3149   1.498   3.357   0.784
  935SOL    HW2 3150   1.496   3.383   0.623
  936SOL     OW 3151   1.135   2.565   0.717
  936SOL    HW1 3152   1.192   2.643   0.692
  936SOL    HW2 3153   1.075   2.591   0.793
  937SOL     OW 3154   1.755   2.469   0.231
  937SOL    HW1 3155   1.743   2.456   0.132
  937SOL    HW2 3156   1.725   2.388   0.280
  938SOL     OW 3157   0.768   3.006   1.023
  938SOL    HW1 3158   0.690   3.023   1.083
  938SOL    HW2 3159   0.802   3.093   0.987
  939SOL     OW 3160   0.850   2.660   1.823
  939SOL    HW1 3161   0.846   2.736   1.888
  939SOL    HW2 3162   0.872   2.696   1.732
  940SOL     OW 3163   0.685   2.874   0.665
  940SOL    HW1 3164   0.754   2.858   0.735
  940SOL    HW2 3165   0.612   2.931   0.703
  941SOL     OW 3166   0.686   3.023   1.803
  941SOL    HW1 3167   0.746   3.102   1.817
  941SOL    HW2 3168   0.600   3.054   1.762
  942SOL     OW 3169   0.335   3.297   1.061
  942SOL    HW1 3170   0.257   3.266   1.008
  942SOL    HW2 3171   0.393   3.355   1.004
  943SOL     OW 3172   1.460   3.367   1.339
  943SOL    HW1 3173   1.484   3.461   1.365
  943SOL    HW2 3174   1.444   3.313   1.421
  944SOL     OW 3175   0.438   2.254   1.499
  944SOL    HW1 3176   0.520   2.198   1.508
  944SOL    HW2 3177   0.357   2.196   1.503
  945SOL     OW 3178   1.603   2.309   0.737
  945SOL    HW1 3179   1.529   2.355   0.687
  945SOL    HW2 3180   1.654   2.377   0.790
  946SOL     OW 3181   0.231   3.575   0.483
  946SOL    HW1 3182   0.265   3.652   0.537
  946SOL    HW2 3183   0.275   3.575   0.393
  947SOL     OW 3184   1.127   3.203   1.690
  947SOL    HW1 3185   1.174   3.203   1.778
  947SOL    HW2 3186   1.079   3.116   1.679
  948SOL     OW 3187   0.230   3.296   0.538
  948SOL    HW1 3188   0.204   3.392   0.538
  948SOL    HW2 3189   0.159   3.242   0.583
  949SOL     OW 3190   0.240   2.953   0.886
  949SOL    HW1 3191   0.254   2.869   0.938
  949SOL    HW2 3192   0.185   3.017   0.941
  950SOL     OW 3193   0.620   3.648   1.439
  950SOL    HW1 3194   0.528   3.631   1.474
  950SOL    HW2 3195   0.648   3.740   1.465
  951SOL     OW 3196   0.606   2.826   0.123
  951SOL    HW1 3197   0.613   2.910   0.069
  951SOL    HW2 3198   0.652   2.839   0.211
  952SOL     OW 3199   1.594   1.976   1.480
  952SOL    HW1 3200   1.576   2.043   1.408
  952SOL    HW2 3201   1.591   2.022   1.569
  953SOL     OW 3202   0.122   2.505   0.563
  953SOL    HW1 3203   0.077   2.417   0.580
  953SOL    HW2 3204   0.121   2.559   0.647
  954SOL     OW 3205   1.842   3.629   0.359
  954SOL    HW1 3206   1.896   3.600   0.439
  954SOL    HW2 3207   1.872   3.719   0.330
  955SOL     OW 3208   0.027   3.458   0.117
  955SOL    HW1 3209   0.008   3.362   0.138
  955SOL    HW2 3210  -0.006   3.516   0.192
  956SOL     OW 3211   1.689   2.784   0.612
  956SOL    HW1 3212   1.784   2.755   0.620
  956SOL    HW2 3213   1.681   2.849   0.537
  957SOL     OW 3214   1.641   2.970   0.432
  957SOL    HW1 3215   1.727   2.972   0.380
  957SOL    HW2 3216   1.655   3.017   0.520
  958SOL     OW 3217   0.113   2.599   1.597
  958SOL    HW1 3218   0.201   2.586   1.642
  958SOL    HW2 3219   0.100   2.696   1.575
  959SOL     OW 3220   0.613   3.227   0.726
  959SOL    HW1 3221   0.564   3.140   0.735
  959SOL    HW2 3222   0.590   3.270   0.639
  960SOL     OW 3223   1.293   3.090   1.423
  960SOL    HW1 3224   1.330   3.017   1.365
  960SOL    HW2 3225   1.345   3.095   1.508
  961SOL     OW 3226   0.809   1.866   0.502
  961SOL    HW1 3227   0.849   1.957   0.493
  961SOL    HW2 3228   0.709   1.874   0.508
  962SOL     OW 3229   0.197   2.838   1.264
  962SOL    HW1 3230   0.286   2.793   1.250
  962SOL    HW2 3231   0.124   2.773   1.245
  963SOL     OW 3232   1.525   2.861   0.190
  963SOL    HW1 3233   1.462   2.785   0.203
  963SOL    HW2 3234   1.573   2.879   0.276
  964SOL     OW 3235   1.187   3.654   1.616
  964SOL    HW1 3236   1.211   3.714   1.540
  964SOL    HW2 3237   1.194   3.559   1.586
  965SOL     OW 3238   0.317   2.113   1.801
  965SOL    HW1 3239   0.388   2.184   1.807
  965SOL    HW2 3240   0.229   2.152   1.829
  966SOL     OW 3241   1.466   3.279   0.953
  966SOL    HW1 3242   1.407   3.285   1.033
  966SOL    HW2 3243   1.451   3.191   0.907
  967SOL     OW 3244   1.667   3.576   0.572
  967SOL    HW1 3245   1.626   3.553   0.484
  967SOL    HW2 3246   1.649   3.502   0.637
  968SOL     OW 3247   0.598   2.591   0.270
  968SOL    HW1 3248   0.622   2.660   0.202
  968SOL    HW2 3249   0.520   2.624   0.324
  969SOL     OW 3250   1.281   2.207   0.944
  969SOL    HW1 3251   1.195   2.157   0.931
  969SOL    HW2 3252   1.343   2.153   1.000
  970SOL     OW 3253   1.576   3.524   0.307
  970SOL    HW1 3254   1.665   3.570   0.310
  970SOL    HW2 3255   1.555   3.500   0.212
  971SOL     OW 3256   0.807   2.467   1.465
  971SOL    HW1 3257   0.760   2.464   1.554
  971SOL    HW2 3258   0.756   2.412   1.399
  972SOL     OW 3259   1.394   2.331   1.674
  972SOL    HW1 3260   1.374   2.374   1.762
  972SOL    HW2 3261   1.472   2.269   1.683
  973SOL     OW 3262   0.973   2.752   1.572
  973SOL    HW1 3263   1.019   2.668   1.543
  973SOL    HW2 3264   0.917   2.786   1.497
  974SOL     OW 3265   0.991   2.272   1.242
  974SOL    HW1 3266   0.914   2.306   1.296
  974SOL    HW2 3267   0.957   2.221   1.163
  975SOL     OW 3268   1.041   2.563   0.429
  975SOL    HW1 3269   1.067   2.559   0.525
  975SOL    HW2 3270   0.956   2.512   0.415
  976SOL     OW 3271   0.076   2.673   0.789
  976SOL    HW1 3272   0.175   2.661   0.798
  976SOL    HW2 3273   0.052   2.768   0.810
  977SOL     OW 3274   0.130   3.683   1.571
  977SOL    HW1 3275   0.120   3.668   1.670
  977SOL    HW2 3276   0.044   3.719   1.535
  978SOL     OW 3277   0.865   2.210   0.195
  978SOL    HW1 3278   0.924   2.273   0.146
  978SOL    HW2 3279   0.884   2.116   0.166
  979SOL     OW 3280   1.719   2.447   1.831
  979SOL    HW1 3281   1.693   2.536   1.795
  979SOL    HW2 3282   1.717   2.379   1.758
  980SOL     OW 3283   1.362   3.006   0.545
  980SOL    HW1 3284   1.445   2.977   0.497
  980SOL    HW2 3285   1.313   3.073   0.489
  981SOL     OW 3286   0.550   2.058   0.885
  981SOL    HW1 3287   0.545   2.053   0.985
  981SOL    HW2 3288   0.552   2.154   0.856
  982SOL     OW 3289   1.008   3.318   0.477
  982SOL    HW1 3290   0.962   3.390   0.425
  982SOL    HW2 3291   1.004   3.338   0.575
  983SOL     OW 3292   0.351   3.663   0.853
  983SOL    HW1 3293   0.401   3.577   0.859
  983SOL    HW2 3294   0.416   3.740   0.850
  984SOL     OW 3295   1.795   2.928   0.873
  984SOL    HW1 3296   1.733   2.913   0.797
  984SOL    HW2 3297   1.743   2.939   0.958
  985SOL     OW 3298   1.227   3.412   1.506
  985SOL    HW1 3299   1.233   3.335   1.570
  985SOL    HW2 3300   1.175   3.386   1.426
  986SOL     OW 3301   0.321   2.805   0.242
  986SOL    HW1 3302   0.403   2.844   0.200
  986SOL    HW2 3303   0.294   2.723   0.193
  987SOL     OW 3304   1.458   2.597   0.728
  987SOL    HW1 3305   1.453   2.532   0.803
  987SOL    HW2 3306   1.538   2.656   0.741
  988SOL     OW 3307   0.461   3.128   1.727
  988SOL    HW1 3308   0.411   3.129   1.641
  988SOL    HW2 3309   0.398   3.110   1.803
  989SOL     OW 3310   1.111   3.638   0.237
  989SOL    HW1 3311   1.051   3.576   0.287
  989SOL    HW2 3312   1.142   3.594   0.152
  990SOL     OW 3313   0.202   2.147   1.498
  990SOL    HW1 3314   0.122   2.207   1.485
  990SOL    HW2 3315   0.192   2.098   1.584
  991SOL     OW 3316   1.632   3.239   0.081
  991SOL    HW1 3317   1.600   3.333   0.071
  991SOL    HW2 3318   1.556   3.176   0.069
  992SOL     OW 3319   0.464   3.605   0.323
  992SOL    HW1 3320   0.497   3.644   0.409
  992SOL    HW2 3321   0.540   3.598   0.258
  993SOL     OW 3322   1.400   1.969   0.426
  993SOL    HW1 3323   1.376   1.932   0.336
  993SOL    HW2 3324   1.499   1.985   0.430
  994SOL     OW 3325   0.249   3.647   1.241
  994SOL    HW1 3326   0.306   3.582   1.291
  994SOL    HW2 3327   0.233   3.614   1.148
  995SOL     OW 3328   0.940   3.560   0.904
  995SOL    HW1 3329   1.020   3.503   0.925
  995SOL    HW2 3330   0.891   3.520   0.827
  996SOL     OW 3331   0.382   2.562   0.480
  996SOL    HW1 3332   0.427   2.472   0.477
  996SOL    HW2 3333   0.288   2.551   0.513
  997SOL     OW 3334   1.547   2.084   1.729
  997SOL    HW1 3335   1.542   2.121   1.821
  997SOL    HW2 3336   1.475   2.015   1.717
  998SOL     OW 3337   0.614   1.984   0.117
  998SOL    HW1 3338   0.712   1.962   0.124
  998SOL    HW2 3339   0.583   1.967   0.024
  999SOL     OW 3340   0.781   2.126   1.749
  999SOL    HW1 3341   0.848   2.065   1.792
  999SOL    HW2 3342   0.708   2.145   1.814
 1000SOL     OW 3343   0.888   3.376   1.195
 1000SOL    HW1 3344   0.865   3.351   1.101
 1000SOL    HW2 3345   0.949   3.307   1.234
 1001SOL     OW 3346   1.351   2.452   1.433
 1001SOL    HW1 3347   1.379   2.409   1.518
 1001SOL    HW2 3348   1.376   2.548   1.434
 1002SOL     OW 3349   0.803   3.264   0.924
 1002SOL    HW1 3350   0.893   3.278   0.882
 1002SOL    HW2 3351   0.732   3.266   0.853
 1003SOL     OW 3352   0.922   2.365   0.899
 1003SOL    HW1 3353   0.897   2.356   0.803
 1003SOL    HW2 3354   0.970   2.283   0.930
 1004SOL     OW 3355   0.539   1.926   0.512
 1004SOL    HW1 3356   0.458   1.927   0.570
 1004SOL    HW2 3357   0.542   2.009   0.457
 1005SOL     OW 3358   1.434   3.050   0.041
 1005SOL    HW1 3359   1.466   2.974   0.098
 1005SOL    HW2 3360   1.342   3.077   0.071
 1006SOL     OW 3361   0.297   1.897   0.171
 1006SOL    HW1 3362   0.346   1.981   0.150
 1006SOL    HW2 3363   0.359   1.832   0.216
 1007SOL     OW 3364   0.935   2.098   0.480
 1007SOL    HW1 3365   0.887   2.139   0.402
 1007SOL    HW2 3366   1.034   2.096   0.461
 1008SOL     OW 3367   1.076   2.545   1.464
 1008SOL    HW1 3368   0.996   2.484   1.467
 1008SOL    HW2 3369   1.157   2.492   1.440
 1009SOL     OW 3370   1.227   3.432   0.793
 1009SOL    HW1 3371   1.248   3.506   0.728
 1009SOL    HW2 3372   1.295   3.432   0.866
 1010SOL     OW 3373   0.459   3.014   0.741
 1010SOL    HW1 3374   0.388   2.987   0.806
 1010SOL    HW2 3375   0.433   2.986   0.648
 1011SOL     OW 3376   1.271   3.659   0.591
 1011SOL    HW1 3377   1.315   3.723   0.527
 1011SOL    HW2 3378   1.221   3.711   0.661
 1012SOL     OW 3379   1.032   2.411   0.016
 1012SOL    HW1 3380   0.991   2.493  -0.023
 1012SOL    HW2 3381   1.096   2.437   0.089
 1013SOL     OW 3382   0.078   2.418   1.386
 1013SOL    HW1 3383   0.170   2.417   1.345
 1013SOL    HW2 3384   0.072   2.492   1.453
 1014SOL     OW 3385   0.561   2.084   1.147
 1014SOL    HW1 3386   0.599   2.000   1.184
 1014SOL    HW2 3387   0.473   2.103   1.191
 1015SOL     OW 3388   0.866   2.316   0.642
 1015SOL    HW1 3389   0.834   2.388   0.580
 1015SOL    HW2 3390   0.890   2.235   0.589
 1016SOL     OW 3391   1.017   1.901   0.753
 1016SOL    HW1 3392   0.945   1.906   0.684
 1016SOL    HW2 3393   0.993   1.832   0.822
 1017SOL     OW 3394   1.429   3.035   0.867
 1017SOL    HW1 3395   1.374   2.951   0.860
 1017SOL    HW2 3396   1.455   3.064   0.775
 1018SOL     OW 3397   1.466   2.452   0.992
 1018SOL    HW1 3398   1.436   2.357   0.999
 1018SOL    HW2 3399   1.539   2.468   1.058
 1019SOL     OW 3400   1.857   2.695   0.377
 1019SOL    HW1 3401   1.899   2.631   0.441
 1019SOL    HW2 3402   1.819   2.644   0.299
 1020SOL     OW 3403   0.488   3.247   0.174
 1020SOL    HW1 3404   0.401   3.232   0.221
 1020SOL    HW2 3405   0.471   3.273   0.079
 1021SOL     OW 3406   1.664   3.142   0.657
 1021SOL    HW1 3407   1.763   3.150   0.671
 1021SOL    HW2 3408   1.619   3.226   0.688
 1022SOL     OW 3409   1.390   2.437   0.078
 1022SOL    HW1 3410   1.336   2.416   0.159
 1022SOL    HW2 3411   1.481   2.396   0.087
 1023SOL     OW 3412   0.527   2.118   0.328
 1023SOL    HW1 3413   0.554   2.059   0.253
 1023SOL    HW2 3414   0.527   2.213   0.297
 1024SOL     OW 3415   1.754   3.085   1.588
 1024SOL    HW1 3416   1.845   3.046   1.575
 1024SOL    HW2 3417   1.762   3.181   1.612
 1025SOL     OW 3418   1.592   3.491   1.625
 1025SOL    HW1 3419   1.619   3.525   1.535
 1025SOL    HW2 3420   1.671   3.453   1.671
 1026SOL     OW 3421   1.111   3.057   1.100
 1026SOL    HW1 3422   1.071   3.101   1.181
 1026SOL    HW2 3423   1.070   3.094   1.017
 1027SOL     OW 3424   1.638   2.961   1.079
 1027SOL    HW1 3425   1.643   3.042   1.138
 1027SOL    HW2 3426   1.552   2.963   1.028
 1028SOL     OW 3427   0.915   1.951   1.402
 1028SOL    HW1 3428   0.940   1.931   1.307
 1028SOL    HW2 3429   0.987   2.007   1.444
 1029SOL     OW 3430   0.980   2.978   1.719
 1029SOL    HW1 3431   0.881   2.984   1.729
 1029SOL    HW2 3432   1.003   2.898   1.663
 1030SOL     OW 3433   0.705   2.912   0.368
 1030SOL    HW1 3434   0.691   2.919   0.467
 1030SOL    HW2 3435   0.789   2.861   0.350
 1031SOL     OW 3436   0.410   2.675   1.251
 1031SOL    HW1 3437   0.496   2.687   1.301
 1031SOL    HW2 3438   0.368   2.588   1.278
 1032SOL     OW 3439   1.274   2.248   1.262
 1032SOL    HW1 3440   1.295   2.322   1.326
 1032SOL    HW2 3441   1.185   2.265   1.219
 1033SOL     OW 3442   0.064   3.426   1.331
 1033SOL    HW1 3443   0.018   3.508   1.297
 1033SOL    HW2 3444   0.162   3.445   1.340
 1034SOL     OW 3445   0.367   2.962   0.501
 1034SOL    HW1 3446   0.360   3.045   0.445
 1034SOL    HW2 3447   0.371   2.882   0.441
 1035SOL     OW 3448   0.566   2.399   0.865
 1035SOL    HW1 3449   0.578   2.465   0.791
 1035SOL    HW2 3450   0.612   2.433   0.948
 1036SOL     OW 3451   1.252   3.210   0.388
 1036SOL    HW1 3452   1.302   3.287   0.428
 1036SOL    HW2 3453   1.157   3.212   0.420
 1037SOL     OW 3454   1.272   3.307   1.142
 1037SOL    HW1 3455   1.319   3.320   1.229
 1037SOL    HW2 3456   1.206   3.233   1.151
 1038SOL     OW 3457   1.582   2.501   0.472
 1038SOL    HW1 3458   1.551   2.562   0.545
 1038SOL    HW2 3459   1.632   2.553   0.403
 1039SOL     OW 3460   0.354   3.372   1.329
 1039SOL    HW1 3461   0.333   3.328   1.242
 1039SOL    HW2 3462   0.451   3.398   1.332
 1040SOL     OW 3463   0.402   2.613   1.598
 1040SOL    HW1 3464   0.470   2.668   1.551
 1040SOL    HW2 3465   0.442   2.525   1.625
 1041SOL     OW 3466   1.587   2.641   1.670
 1041SOL    HW1 3467   1.495   2.679   1.665
 1041SOL    HW2 3468   1.647   2.688   1.605
 1042SOL     OW 3469   1.013   1.967   1.770
 1042SOL    HW1 3470   1.019   2.052   1.718
 1042SOL    HW2 3471   1.045   1.891   1.713
 1043SOL     OW 3472   0.504   1.912   1.740
 1043SOL    HW1 3473   0.462   1.855   1.670
 1043SOL    HW2 3474   0.438   1.981   1.772
 1044SOL     OW 3475   0.573   2.732   1.029
 1044SOL    HW1 3476   0.617   2.821   1.020
 1044SOL    HW2 3477   0.510   2.732   1.106
 1045SOL     OW 3478   1.360   2.724   1.045
 1045SOL    HW1 3479   1.285   2.724   0.979
 1045SOL    HW2 3480   1.397   2.632   1.054
 1046SOL     OW 3481   1.209   2.387   0.275
 1046SOL    HW1 3482   1.222   2.303   0.329
 1046SOL    HW2 3483   1.180   2.461   0.335
 1047SOL     OW 3484   0.307   2.075   1.231
 1047SOL    HW1 3485   0.284   2.112   1.321
 1047SOL    HW2 3486   0.277   1.980   1.225
 1048SOL     OW 3487   0.037   3.172   1.282
 1048SOL    HW1 3488   0.090   3.123   1.350
 1048SOL    HW2 3489   0.059   3.270   1.287
 1049SOL     OW 3490   0.732   2.496   1.064
 1049SOL    HW1 3491   0.791   2.470   0.988
 1049SOL    HW2 3492   0.704   2.592   1.053
 1050SOL     OW 3493   1.728   2.797   1.854
 1050SOL    HW1 3494   1.682   2.790   1.765
 1050SOL    HW2 3495   1.666   2.841   1.920
 1051SOL     OW 3496   0.307   1.925   0.618
 1051SOL    HW1 3497   0.296   2.019   0.651
 1051SOL    HW2 3498   0.302   1.862   0.695
 1052SOL     OW 3499   1.622   2.229   0.374
 1052SOL    HW1 3500   1.624   2.153   0.438
 1052SOL    HW2 3501   1.574   2.306   0.414
 1053SOL     OW 3502   1.023   2.628   0.966
 1053SOL    HW1 3503   1.038   2.649   1.062
 1053SOL    HW2 3504   0.993   2.533   0.957
 1054SOL     OW 3505   0.980   3.435   1.700
 1054SOL    HW1 3506   0.960   3.479   1.612
 1054SOL    HW2 3507   1.019   3.344   1.684
 1055SOL     OW 3508   1.859   3.380   1.605
 1055SOL    HW1 3509   1.873   3.407   1.510
 1055SOL    HW2 3510   1.942   3.402   1.658
 1056SOL     OW 3511   0.350   2.760   1.804
 1056SOL    HW1 3512   0.426   2.804   1.852
 1056SOL    HW2 3513   0.385   2.713   1.722
 1057SOL     OW 3514   1.540   2.136   0.125
 1057SOL    HW1 3515   1.479   2.061   0.148
 1057SOL    HW2 3516   1.562   2.188   0.208
 1058SOL     OW 3517   1.303   2.700   0.042
 1058SOL    HW1 3518   1.337   2.607   0.057
 1058SOL    HW2 3519   1.321   2.727  -0.053
 1059SOL     OW 3520   1.068   3.195   0.849
 1059SOL    HW1 3521   1.075   3.111   0.794
 1059SOL    HW2 3522   1.130   3.264   0.813
 1060SOL     OW 3523   0.319   2.672   0.949
 1060SOL    HW1 3524   0.412   2.708   0.954
 1060SOL    HW2 3525   0.313   2.587   1.001
 1061SOL     OW 3526   1.138   2.242   1.678
 1061SOL    HW1 3527   1.093   2.305   1.742
 1061SOL    HW2 3528   1.231   2.273   1.661
 1062SOL     OW 3529   1.160   2.069   1.477
 1062SOL    HW1 3530   1.160   2.133   1.554
 1062SOL    HW2 3531   1.188   2.117   1.394
 1063SOL     OW 3532   0.008   3.188   0.200
 1063SOL    HW1 3533  -0.085   3.209   0.169
 1063SOL    HW2 3534   0.018   3.089   0.213
 1064SOL     OW 3535   0.088   3.663   0.927
 1064SOL    HW1 3536   0.046   3.577   0.900
 1064SOL    HW2 3537   0.182   3.666   0.893
 1065SOL     OW 3538   0.504   3.430   0.910
 1065SOL    HW1 3539   0.570   3.504   0.919
 1065SOL    HW2 3540   0.548   3.351   0.868
 1066SOL     OW 3541   1.002   2.658   1.238
 1066SOL    HW1 3542   1.043   2.626   1.324
 1066SOL    HW2 3543   0.906   2.631   1.235
 1067SOL     OW 3544   0.040   2.406   1.114
 1067SOL    HW1 3545   0.125   2.373   1.073
 1067SOL    HW2 3546   0.053   2.421   1.212
 1068SOL     OW 3547   0.189   2.382   1.722
 1068SOL    HW1 3548   0.248   2.342   1.652
 1068SOL    HW2 3549   0.131   2.453   1.681
 1069SOL     OW 3550   1.369   2.812   1.660
 1069SOL    HW1 3551   1.408   2.901   1.680
 1069SOL    HW2 3552   1.379   2.792   1.563
 1070SOL     OW 3553   0.815   2.434   0.325
 1070SOL    HW1 3554   0.822   2.345   0.279
 1070SOL    HW2 3555   0.721   2.468   0.317
 1071SOL     OW 3556   1.657   2.466   1.206
 1071SOL    HW1 3557   1.619   2.397   1.268
 1071SOL    HW2 3558   1.739   2.430   1.162
 1072SOL     OW 3559   0.252   3.426   1.744
 1072SOL    HW1 3560   0.222   3.483   1.820
 1072SOL    HW2 3561   0.245   3.329   1.770
 1073SOL     OW 3562   0.671   2.326   1.269
 1073SOL    HW1 3563   0.637   2.237   1.239
 1073SOL    HW2 3564   0.697   2.380   1.189
 1074SOL     OW 3565   0.930   3.540   1.465
 1074SOL    HW1 3566   0.906   3.522   1.370
 1074SOL    HW2 3567   0.960   3.634   1.475
 1075SOL     OW 3568   0.473   2.362   0.191
 1075SOL    HW1 3569   0.534   2.442   0.195
 1075SOL    HW2 3570   0.378   2.393   0.198
 1076SOL     OW 3571   0.159   2.999   1.466
 1076SOL    HW1 3572   0.181   2.938   1.542
 1076SOL    HW2 3573   0.169   2.950   1.380
 1077SOL     OW 3574   1.347   2.921   1.234
 1077SOL    HW1 3575   1.371   2.858   1.160
 1077SOL    HW2 3576   1.257   2.961   1.216
 1078SOL     OW 3577   1.302   2.717   0.309
 1078SOL    HW1 3578   1.216   2.686   0.351
 1078SOL    HW2 3579   1.298   2.703   0.210
 1079SOL     OW 3580   1.759   3.609   1.154
 1079SOL    HW1 3581   1.820   3.639   1.081
 1079SOL    HW2 3582   1.721   3.520   1.132
 1080SOL     OW 3583   1.252   3.593   1.128
 1080SOL    HW1 3584   1.336   3.598   1.074
 1080SOL    HW2 3585   1.229   3.497   1.146
 1081SOL     OW 3586   0.083   3.120   1.022
 1081SOL    HW1 3587   0.078   3.119   1.122
 1081SOL    HW2 3588   0.000   3.079   0.984
 1082SOL     OW 3589   0.688   3.524   1.716
 1082SOL    HW1 3590   0.632   3.605   1.725
 1082SOL    HW2 3591   0.740   3.528   1.630
 1083SOL     OW 3592   0.903   1.948   0.133
 1083SOL    HW1 3593   0.954   1.949   0.047
 1083SOL    HW2 3594   0.959   1.906   0.204
 1084SOL     OW 3595   1.726   1.997   0.523
 1084SOL    HW1 3596   1.799   1.980   0.456
 1084SOL    HW2 3597   1.695   1.910   0.561
 1085SOL     OW 3598   1.388   3.435   0.477
 1085SOL    HW1 3599   1.455   3.447   0.403
 1085SOL    HW2 3600   1.348   3.524   0.500
 1086SOL     OW 3601   0.130   3.656   1.851
 1086SOL    HW1 3602   0.089   3.582   1.904
 1086SOL    HW2 3603   0.194   3.707   1.909
 1087SOL     OW 3604   1.280   2.789   0.672
 1087SOL    HW1 3605   1.340   2.708   0.674
 1087SOL    HW2 3606   1.320   2.858   0.612
 1088SOL     OW 3607   0.830   3.135   1.422
 1088SOL    HW1 3608   0.825   3.168   1.517
 1088SOL    HW2 3609   0.744   3.154   1.376
 1089SOL     OW 3610   0.672   3.478   0.154
 1089SOL    HW1 3611   0.681   3.488   0.055
 1089SOL    HW2 3612   0.632   3.389   0.175
 1090SOL     OW 3613   1.650   3.582   1.394
 1090SOL    HW1 3614   1.703   3.592   1.310
 1090SOL    HW2 3615   1.623   3.672   1.428
 1091SOL     OW 3616   1.841   2.037   0.963
 1091SOL    HW1 3617   1.880   1.952   0.927
 1091SOL    HW2 3618   1.743   2.039   0.944
 1092SOL     OW 3619   0.263   2.188   0.720
 1092SOL    HW1 3620   0.184   2.239   0.686
 1092SOL    HW2 3621   0.254   2.173   0.818
 1093SOL     OW 3622   1.194   3.474   0.031
 1093SOL    HW1 3623   1.200   3.381   0.068
 1093SOL    HW2 3624   1.135   3.474  -0.049
 1094SOL     OW 3625   0.822   2.864   1.372
 1094SOL    HW1 3626   0.862   2.863   1.280
 1094SOL    HW2 3627   0.832   2.956   1.412
 1095SOL     OW 3628   0.916   2.772   0.291
 1095SOL    HW1 3629   0.979   2.810   0.223
 1095SOL    HW2 3630   0.956   2.689   0.330
 1096SOL     OW 3631   1.504   3.469   0.044
 1096SOL    HW1 3632   1.412   3.506   0.051
 1096SOL    HW2 3633   1.542   3.489  -0.046
 1097SOL     OW 3634   0.372   3.150   1.490
 1097SOL    HW1 3635   0.359   3.243   1.456
 1097SOL    HW2 3636   0.288   3.098   1.477
 1098SOL     OW 3637   1.614   3.154   1.289
 1098SOL    HW1 3638   1.674   3.157   1.369
 1098SOL    HW2 3639   1.539   3.218   1.302
 1099SOL     OW 3640   1.039   2.960   0.696
 1099SOL    HW1 3641   0.969   2.913   0.750
 1099SOL    HW2 3642   1.098   2.892   0.653
 1100SOL     OW 3643   1.014   2.098   0.971
 1100SOL    HW1 3644   1.006   2.062   0.878
 1100SOL    HW2 3645   1.012   2.022   1.036
 1101SOL     OW 3646   1.709   2.247   1.381
 1101SOL    HW1 3647   1.782   2.316   1.385
 1101SOL    HW2 3648   1.737   2.172   1.322
 1102SOL     OW 3649   0.255   3.210   0.290
 1102SOL    HW1 3650   0.159   3.211   0.263
 1102SOL    HW2 3651   0.267   3.263   0.374
 1103SOL     OW 3652   0.105   2.875   1.726
 1103SOL    HW1 3653   0.028   2.842   1.780
 1103SOL    HW2 3654   0.190   2.845   1.768
 1104SOL     OW 3655   0.672   2.065   1.489
 1104SOL    HW1 3656   0.762   2.049   1.449
 1104SOL    HW2 3657   0.680   2.070   1.588
 1105SOL     OW 3658   0.075   2.207   0.033
 1105SOL    HW1 3659  -0.017   2.179   0.004
 1105SOL    HW2 3660   0.106   2.284  -0.023
 1106SOL     OW 3661   1.440   2.718   1.398
 1106SOL    HW1 3662   1.383   2.770   1.335
 1106SOL    HW2 3663   1.536   2.730   1.374
 1107SOL     OW 3664   0.072   2.028   0.318
 1107SOL    HW1 3665   0.055   2.111   0.264
 1107SOL    HW2 3666   0.162   1.991   0.296
 1108SOL     OW 3667   1.183   3.197   0.119
 1108SOL    HW1 3668   1.084   3.186   0.121
 1108SOL    HW2 3669   1.217   3.212   0.212
 1109SOL     OW 3670   0.613   2.704   1.431
 1109SOL    HW1 3671   0.669   2.785   1.414
 1109SOL    HW2 3672   0.672   2.624   1.434
 1110SOL     OW 3673   1.493   3.629   0.959
 1110SOL    HW1 3674   1.526   3.693   0.890
 1110SOL    HW2 3675   1.559   3.623   1.034
 1111SOL     OW 3676   0.716   2.427   1.708
 1111SOL    HW1 3677   0.735   2.492   1.782
 1111SOL    HW2 3678   0.776   2.347   1.717
 1112SOL     OW 3679   1.450   3.082   1.633
 1112SOL    HW1 3680   1.441   3.072   1.732
 1112SOL    HW2 3681   1.546   3.075   1.607
 1113SOL     OW 3682   0.390   3.603   1.560
 1113SOL    HW1 3683   0.299   3.644   1.558
 1113SOL    HW2 3684   0.383   3.509   1.592
 1114SOL     OW 3685   1.674   2.745   1.254
 1114SOL    HW1 3686   1.647   2.656   1.217
 1114SOL    HW2 3687   1.675   2.813   1.181
 1115SOL     OW 3688   1.225   2.187   0.449
 1115SOL    HW1 3689   1.290   2.113   0.438
 1115SOL    HW2 3690   1.245   2.237   0.533
 1116SOL     OW 3691   0.594   2.607   0.652
 1116SOL    HW1 3692   0.644   2.692   0.633
 1116SOL    HW2 3693   0.506   2.609   0.604
 1117SOL     OW 3694   1.777   2.204   1.642
 1117SOL    HW1 3695   1.760   2.235   1.548
 1117SOL    HW2 3696   1.693   2.167   1.680
 1118SOL     OW 3697   1.730   2.796   1.517
 1118SOL    HW1 3698   1.768   2.887   1.532
 1118SOL    HW2 3699   1.722   2.779   1.418
 1119SOL     OW 3700   0.859   3.236   0.016
 1119SOL    HW1 3701   0.813   3.251   0.104
 1119SOL    HW2 3702   0.903   3.321  -0.014
 1120SOL     OW 3703   0.661   3.652   0.953
 1120SOL    HW1 3704   0.615   3.740   0.940
 1120SOL    HW2 3705   0.760   3.664   0.946
 1121SOL     OW 3706   0.859   2.818   0.861
 1121SOL    HW1 3707   0.913   2.749   0.909
 1121SOL    HW2 3708   0.827   2.887   0.927
 1122SOL     OW 3709   1.083   2.846   0.087
 1122SOL    HW1 3710   1.060   2.899   0.005
 1122SOL    HW2 3711   1.164   2.790   0.068
 1123SOL     OW 3712   1.861   3.431   0.851
 1123SOL    HW1 3713   1.790   3.419   0.781
 1123SOL    HW2 3714   1.862   3.352   0.911
 1124SOL     OW 3715   0.221   3.176   1.844
 1124SOL    HW1 3716   0.156   3.103   1.823
 1124SOL    HW2 3717   0.225   3.190   1.942
 1125SOL     OW 3718   0.079   3.102   0.653
 1125SOL    HW1 3719   0.078   3.055   0.741
 1125SOL    HW2 3720   0.161   3.074   0.602
 1126SOL     OW 3721   0.672   3.253   1.624
 1126SOL    HW1 3722   0.594   3.203   1.662
 1126SOL    HW2 3723   0.669   3.348   1.655
 1127SOL     OW 3724   1.824   2.054   1.227
 1127SOL    HW1 3725   1.820   1.964   1.271
 1127SOL    HW2 3726   1.827   2.043   1.128
 1128SOL     OW 3727   0.428   2.286   0.520
 1128SOL    HW1 3728   0.458   2.214   0.458
 1128SOL    HW2 3729   0.389   2.246   0.603
 1129SOL     OW 3730   1.705   3.349   1.104
 1129SOL    HW1 3731   1.612   3.324   1.077
 1129SOL    HW2 3732   1.731   3.299   1.186
 1130SOL     OW 3733   0.317   2.409   1.280
 1130SOL    HW1 3734   0.355   2.350   1.352
 1130SOL    HW2 3735   0.357   2.383   1.192
 1131SOL     OW 3736   0.812   3.448   0.687
 1131SOL    HW1 3737   0.844   3.458   0.593
 1131SOL    HW2 3738   0.733   3.386   0.689
 1132SOL     OW 3739   1.424   2.076   1.112
 1132SOL    HW1 3740   1.476   2.011   1.167
 1132SOL    HW2 3741   1.375   2.139   1.173
 1133SOL     OW 3742   1.001   1.896   1.154
 1133SOL    HW1 3743   0.938   1.824   1.123
 1133SOL    HW2 3744   1.094   1.860   1.154
 1134SOL     OW 3745   0.770   3.192   0.301
 1134SOL    HW1 3746   0.724   3.105   0.318
 1134SOL    HW2 3747   0.861   3.189   0.342
 1135SOL     OW 3748   0.618   3.429   1.284
 1135SOL    HW1 3749   0.613   3.511   1.341
 1135SOL    HW2 3750   0.707   3.426   1.239
 1136SOL     OW 3751   1.352   1.914   0.168
 1136SOL    HW1 3752   1.387   1.873   0.084
 1136SOL    HW2 3753   1.262   1.876   0.188
 1137SOL     OW 3754   1.300   2.315   0.691
 1137SOL    HW1 3755   1.241   2.395   0.695
 1137SOL    HW2 3756   1.315   2.280   0.784
 1138SOL     OW 3757   1.593   2.083   0.882
 1138SOL    HW1 3758   1.509   2.082   0.936
 1138SOL    HW2 3759   1.595   2.166   0.826
 1139SOL     OW 3760   0.039   2.939   0.300
 1139SOL    HW1 3761   0.138   2.928   0.291
 1139SOL    HW2 3762  -0.001   2.853   0.332
 1140SOL     OW 3763   0.875   3.508   0.337
 1140SOL    HW1 3764   0.798   3.473   0.283
 1140SOL    HW2 3765   0.843   3.579   0.399
 1141SOL     OW 3766   0.230   2.490   1.975
 1141SOL    HW1 3767   0.137   2.488   2.012
 1141SOL    HW2 3768   0.231   2.451   1.883
 1142SOL     OW 3769   0.225   2.137   2.858
 1142SOL    HW1 3770   0.260   2.120   2.950
 1142SOL    HW2 3771   0.137   2.092   2.846
 1143SOL     OW 3772   0.019   2.230   2.509
 1143SOL    HW1 3773  -0.063   2.273   2.548
 1143SOL    HW2 3774  -0.009   2.157   2.446
 1144SOL     OW 3775   0.569   3.137   3.027
 1144SOL    HW1 3776   0.476   3.130   2.990
 1144SOL    HW2 3777   0.580   3.226   3.071
 1145SOL     OW 3778   1.555   3.373   2.565
 1145SOL    HW1 3779   1.498   3.357   2.646
 1145SOL    HW2 3780   1.496   3.383   2.485
 1146SOL     OW 3781   1.135   2.565   2.579
 1146SOL    HW1 3782   1.192   2.643   2.554
 1146SOL    HW2 3783   1.075   2.591   2.655
 1147SOL     OW 3784   1.755   2.469   2.093
 1147SOL    HW1 3785   1.743   2.456   1.994
 1147SOL    HW2 3786   1.725   2.388   2.142
 1148SOL     OW 3787   0.768   3.006   2.885
 1148SOL    HW1 3788   0.690   3.023   2.945
 1148SOL    HW2 3789   0.802   3.093   2.849
 1149SOL     OW 3790   0.850   2.660   3.685
 1149SOL    HW1 3791   0.846   2.736   3.750
 1149SOL    HW2 3792   0.872   2.696   3.594
 1150SOL     OW 3793   0.685   2.874   2.527
 1150SOL    HW1 3794   0.754   2.858   2.597
 1150SOL    HW2 3795   0.612   2.931   2.565
 1151SOL     OW 3796   0.686   3.023   3.665
 1151SOL    HW1 3797   0.746   3.102   3.679
 1151SOL    HW2 3798   0.600   3.054   3.624
 1152SOL     OW 3799   1.460   3.367   3.201
 1152SOL    HW1 3800   1.484   3.461   3.227
 1152SOL    HW2 3801   1.444   3.313   3.283
 1153SOL     OW 3802   0.438   2.254   3.361
 1153SOL    HW1 3803   0.520   2.198   3.370
 1153SOL    HW2 3804   0.357   2.196   3.365
 1154SOL     OW 3805   1.603   2.309   2.599
 1154SOL    HW1 3806   1.529   2.355   2.549
 1154SOL    HW2 3807   1.654   2.377   2.652
 1155SOL     OW 3808   0.231   3.575   2.345
 1155SOL    HW1 3809   0.265   3.652   2.399
 1155SOL    HW2 3810   0.275   3.575   2.255
 1156SOL     OW 3811   1.127   3.203   3.552
 1156SOL    HW1 3812   1.174   3.203   3.640
 1156SOL    HW2 3813   1.079   3.116   3.541
 1157SOL     OW 3814   0.230   3.296   2.400
 1157SOL    HW1 3815   0.204   3.392   2.400
 1157SOL    HW2 3816   0.159   3.242   2.445
 1158SOL     OW 3817   0.240   2.953   2.748
 1158SOL    HW1 3818   0.254   2.869   2.800
 1158SOL    HW2 3819   0.185   3.017   2.803
 1159SOL     OW 3820   0.620   3.648   3.301
 1159SOL    HW1 3821   0.528   3.631   3.336
 1159SOL    HW2 3822   0.648   3.740   3.327
 1160SOL     OW 3823   0.606   2.826   1.985
 1160SOL    HW1 3824   0.613   2.910   1.931
 1160SOL    HW2 3825   0.652   2.839   2.073
 1161SOL     OW 3826   1.594   1.976   3.342
 1161SOL    HW1 3827   1.576   2.043   3.270
 1161SOL    HW2 3828   1.591   2.022   3.431
 1162SOL     OW 3829   0.122   2.505   2.425
 1162SOL    HW1 3830   0.077   2.417   2.442
 1162SOL    HW2 3831   0.121   2.559   2.509
 1163SOL     OW 3832   1.842   3.629   2.221
 1163SOL    HW1 3833   1.896   3.600   2.301
 1163SOL    HW2 3834   1.872   3.719   2.192
 1164SOL     OW 3835   0.027   3.458   1.979
 1164SOL    HW1 3836   0.008   3.362   2.000
 1164SOL    HW2 3837  -0.006   3.516   2.054
 1165SOL     OW 3838   1.689   2.784   2.474
 1165SOL    HW1 3839   1.784   2.755   2.482
 1165SOL    HW2 3840   1.681   2.849   2.399
 1166SOL     OW 3841   1.641   2.970   2.294
 1166SOL    HW1 3842   1.727   2.972   2.242
 1166SOL    HW2 3843   1.655   3.017   2.382
 1167SOL     OW 3844   0.113   2.599   3.459
 1167SOL    HW1 3845   0.201   2.586   3.504
 1167SOL    HW2 3846   0.100   2.696   3.437
 1168SOL     OW 3847   0.613   3.227   2.588
 1168SOL    HW1 3848   0.564   3.140   2.597
 1168SOL    HW2 3849   0.590   3.270   2.501
 1169SOL     OW 3850   1.293   3.090   3.285
 1169SOL    HW1 3851   1.330   3.017   3.227
 1169SOL    HW2 3852   1.345   3.095   3.370
 1170SOL     OW 3853   0.809   1.866   2.364
 1170SOL    HW1 3854   0.849   1.957   2.355
 1170SOL    HW2 3855   0.709   1.874   2.370
 1171SOL     OW 3856   0.197   2.838   3.126
 1171SOL    HW1 3857   0.286   2.793   3.112
 1171SOL    HW2 3858   0.124   2.773   3.107
 1172SOL     OW 3859   1.525   2.861   2.052
 1172SOL    HW1 3860   1.462   2.785   2.065
 1172SOL    HW2 3861   1.573   2.879   2.138
 1173SOL     OW 3862   1.187   3.654   3.478
 1173SOL    HW1 3863   1.211   3.714   3.402
 1173SOL    HW2 3864   1.194   3.559   3.448
 1174SOL     OW 3865   0.317   2.113   3.663
 1174SOL    HW1 3866   0.388   2.184   3.669
 1174SOL    HW2 3867   0.229   2.152   3.691
 1175SOL     OW 3868   1.466   3.279   2.815
 1175SOL    HW1 3869   1.407   3.285   2.895
 1175SOL    HW2 3870   1.451   3.191   2.769
 1176SOL     OW 3871   1.667   3.576   2.434
 1176SOL    HW1 3872   1.626   3.553   2.346
 1176SOL    HW2 3873   1.649   3.502   2.499
 1177SOL     OW 3874   0.598   2.591   2.132
 1177SOL    HW1 3875   0.622   2.660   2.064
 1177SOL    HW2 3876   0.520   2.624   2.186
 1178SOL     OW 3877   1.281   2.207   2.806
 1178SOL    HW1 3878   1.195   2.157   2.793
 1178SOL    HW2 3879   1.343   2.153   2.862
 1179SOL     OW 3880   1.576   3.524   2.169
 1179SOL    HW1 3881   1.665   3.570   2.172
 1179SOL    HW2 3882   1.555   3.500   2.074
 1180SOL     OW 3883   0.807   2.467   3.327
 1180SOL    HW1 3884   0.760   2.464   3.416
 1180SOL    HW2 3885   0.756   2.412   3.261
 1181SOL     OW 3886   1.394   2.331   3.536
 1181SOL    HW1 3887   1.374   2.374   3.624
 1181SOL    HW2 3888   1.472   2.269   3.545
 1182SOL     OW 3889   0.973   2.752   3.434
 1182SOL    HW1 3890   1.019   2.668   3.405
 1182SOL    HW2 3891   0.917   2.786   3.359
 1183SOL     OW 3892   0.991   2.272   3.104
 1183SOL    HW1 3893   0.914   2.306   3.158
 1183SOL    HW2 3894   0.957   2.221   3.025
 1184SOL     OW 3895   1.041   2.563   2.291
 1184SOL    HW1 3896   1.067   2.559   2.387
 1184SOL    HW2 3897   0.956   2.512   2.277
 1185SOL     OW 3898   0.076   2.673   2.651
 1185SOL    HW1 3899   0.175   2.661   2.660
 1185SOL    HW2 3900   0.052   2.768   2.672
 1186SOL     OW 3901   0.130   3.683   3.433
 1186SOL    HW1 3902   0.120   3.668   3.532
 1186SOL    HW2 3903   0.044   3.719   3.397
 1187SOL     OW 3904   0.865   2.210   2.057
 1187SOL    HW1 3905   0.924   2.273   2.008
 1187SOL    HW2 3906   0.884   2.116   2.028
 1188SOL     OW 3907   1.719   2.447   3.693
 1188SOL    HW1 3908   1.693   2.536   3.657
 1188SOL    HW2 3909   1.717   2.379   3.620
 1189SOL     OW 3910   1.362   3.006   2.407
 1189SOL    HW1 3911   1.445   2.977   2.359
 1189SOL    HW2 3912   1.313   3.073   2.351
 1190SOL     OW 3913   0.550   2.058   2.747
 1190SOL    HW1 3914   0.545   2.053   2.847
 1190SOL    HW2 3915   0.552   2.154   2.718
 1191SOL     OW 3916   1.008   3.318   2.339
 1191SOL    HW1 3917   0.962   3.390   2.287
 1191SOL    HW2 3918   1.004   3.338   2.437
 1192SOL     OW 3919   0.351   3.663   2.715
 1192SOL    HW1 3920   0.401   3.577   2.721
 1192SOL    HW2 3921   0.416   3.740   2.712
 1193SOL     OW 3922   1.795   2.928   2.735
 1193SOL    HW1 3923   1.733   2.913   2.659
 1193SOL    HW2 3924   1.743   2.939   2.820
 1194SOL     OW 3925   1.227   3.412   3.368
 1194SOL    HW1 3926   1.233   3.335   3.432
 1194SOL    HW2 3927   1.175   3.386   3.288
 1195SOL     OW 3928   0.321   2.805   2.104
 1195SOL    HW1 3929   0.403   2.844   2.062
 1195SOL    HW2 3930   0.294   2.723   2.055
 1196SOL     OW 3931   1.458   2.597   2.590
 1196SOL    HW1 3932   1.453   2.532   2.665
 1196SOL    HW2 3933   1.538   2.656   2.603
 1197SOL     OW 3934   0.461   3.128   3.589
 1197SOL    HW1 3935   0.411   3.129   3.503
 1197SOL    HW2 3936   0.398   3.110   3.665
 1198SOL     OW 3937   1.111   3.638   2.099
 1198SOL    HW1 3938   1.051   3.576   2.149
 1198SOL    HW2 3939   1.142   3.594   2.014
 1199SOL     OW 3940   0.202   2.147   3.360
 1199SOL    HW1 3941   0.122   2.207   3.347
 1199SOL    HW2 3942   0.192   2.098   3.446
 1200SOL     OW 3943   1.632   3.239   1.943
 1200SOL    HW1 3944   1.600   3.333   1.933
 1200SOL    HW2 3945   1.556   3.176   1.931
 1201SOL     OW 3946   0.464   3.605   2.185
 1201SOL    HW1 3947   0.497   3.644   2.271
 1201SOL    HW2 3948   0.540   3.598   2.120
 1202SOL     OW 3949   1.400   1.969   2.288
 1202SOL    HW1 3950   1.376   1.932   2.198
 1202SOL    HW2 3951   1.499   1.985   2.292
 1203SOL     OW 3952   0.249   3.647   3.103
 1203SOL    HW1 3953   0.306   3.582   3.153
 1203SOL    HW2 3954   0.233   3.614   3.010
 1204SOL     OW 3955   0.940   3.560   2.766
 1204SOL    HW1 3956   1.020   3.503   2.787
 1204SOL    HW2 3957   0.891   3.520   2.689
 1205SOL     OW 3958   0.382   2.562   2.342
 1205SOL    HW1 3959   0.427   2.472   2.339
 1205SOL    HW2 3960   0.288   2.551   2.375
 1206SOL     OW 3961   1.547   2.084   3.591
 1206SOL    HW1 3962   1.542   2.121   3.683
 1206SOL    HW2 3963   1.475   2.015   3.579
 1207SOL     OW 3964   0.614   1.984   1.979
 1207SOL    HW1 3965   0.712   1.962   1.986
 1207SOL    HW2 3966   0.583   1.967   1.886
 1208SOL     OW 3967   0.781   2.126   3.611
 1208SOL    HW1 3968   0.848   2.065   3.654
 1208SOL    HW2 3969   0.708   2.145   3.676
 1209SOL     OW 3970   0.888   3.376   3.057
 1209SOL    HW1 3971   0.865   3.351   2.963
 1209SOL    HW2 3972   0.949   3.307   3.096
 1210SOL     OW 3973   1.351   2.452   3.295
 1210SOL    HW1 3974   1.379   2.409   3.380
 1210SOL    HW2 3975   1.376   2.548   3.296
 1211SOL     OW 3976   0.803   3.264   2.786
 1211SOL    HW1 3977   0.893   3.278   2.744
 1211SOL    HW2 3978   0.732   3.266   2.715
 1212SOL     OW 3979   0.922   2.365   2.761
 1212SOL    HW1 3980   0.897   2.356   2.665
 1212SOL    HW2 3981   0.970   2.283   2.792
 1213SOL     OW 3982   0.539   1.926   2.374
 1213SOL    HW1 3983   0.458   1.927   2.432
 1213SOL    HW2 3984   0.542   2.009   2.319
 1214SOL     OW 3985   1.434   3.050   1.903
 1214SOL    HW1 3986   1.466   2.974   1.960
 1214SOL    HW2 3987   1.342   3.077   1.933
 1215SOL     OW 3988   0.297   1.897   2.033
 1215SOL    HW1 3989   0.346   1.981   2.012
 1215SOL    HW2 3990   0.359   1.832   2.078
 1216SOL     OW 3991   0.935   2.098   2.342
 1216SOL    HW1 3992   0.887   2.139   2.264
 1216SOL    HW2 3993   1.034   2.096   2.323
 1217SOL     OW 3994   1.076   2.545   3.326
 1217SOL    HW1 3995   0.996   2.484   3.329
 1217SOL    HW2 3996   1.157   2.492   3.302
 1218SOL     OW 3997   1.227   3.432   2.655
 1218SOL    HW1 3998   1.248   3.506   2.590
 1218SOL    HW2 3999   1.295   3.432   2.728
 1219SOL     OW 4000   0.459   3.014   2.603
 1219SOL    HW1 4001   0.388   2.987   2.668
 1219SOL    HW2 4002   0.433   2.986   2.510
 1220SOL     OW 4003   1.271   3.659   2.453
 1220SOL    HW1 4004   1.315   3.723   2.389
 1220SOL    HW2 4005   1.221   3.711   2.523
 1221SOL     OW 4006   1.032   2.411   1.878
 1221SOL    HW1 4007   0.991   2.493   1.839
 1221SOL    HW2 4008   1.096   2.437   1.951
 1222SOL     OW 4009   0.078   2.418   3.248
 1222SOL    HW1 4010   0.170   2.417   3.207
 1222SOL    HW2 4011   0.072   2.492   3.315
 1223SOL     OW 4012   0.561   2.084   3.009
 1223SOL    HW1 4013   0.599   2.000   3.046
 1223SOL    HW2 4014   0.473   2.103   3.053
 1224SOL     OW 4015   0.866   2.316   2.504
 1224SOL    HW1 4016   0.834   2.388   2.442
 1224SOL    HW2 4017   0.890   2.235   2.451
 1225SOL     OW 4018   1.017   1.901   2.615
 1225SOL    HW1 4019   0.945   1.906   2.546
 1225SOL    HW2 4020   0.993   1.832   2.684
 1226SOL     OW 4021   1.429   3.035   2.729
 1226SOL    HW1 4022   1.374   2.951   2.722
 1226SOL    HW2 4023   1.455   3.064   2.637
 1227SOL     OW 4024   1.466   2.452   2.854
 1227SOL    HW1 4025   1.436   2.357   2.861
 1227SOL    HW2 4026   1.539   2.468   2.920
 1228SOL     OW 4027   1.857   2.695   2.239
 1228SOL    HW1 4028   1.899   2.631   2.303
 1228SOL    HW2 4029   1.819   2.644   2.161
 1229SOL     OW 4030   0.488   3.247   2.036
 1229SOL    HW1 4031   0.401   3.232   2.083
 1229SOL    HW2 4032   0.471   3.273   1.941
 1230SOL     OW 4033   1.664   3.142   2.519
 1230SOL    HW1 4034   1.763   3.150   2.533
 1230SOL    HW2 4035   1.619   3.226   2.550
 1231SOL     OW 4036   1.390   2.437   1.940
 1231SOL    HW1 4037   1.336   2.416   2.021
 1231SOL    HW2 4038   1.481   2.396   1.949
 1232SOL     OW 4039   0.527   2.118   2.190
 1232SOL    HW1 4040   0.554   2.059   2.115
 1232SOL    HW2 4041   0.527   2.213   2.159
 1233SOL     OW 4042   1.754   3.085   3.450
 1233SOL    HW1 4043   1.845   3.046   3.437
 1233SOL    HW2 4044   1.762   3.181   3.474
 1234SOL     OW 4045   1.064   3.209   3.202
 1234SOL    HW1 4046   0.984   3.186   3.257
 1234SOL    HW2 4047   1.147   3.183   3.251
 1235SOL     OW 4048   1.592   3.491   3.487
 1235SOL    HW1 4049   1.619   3.525   3.397
 1235SOL    HW2 4050   1.671   3.453   3.533
 1236SOL     OW 4051   1.111   3.057   2.962
 1236SOL    HW1 4052   1.071   3.101   3.043
 1236SOL    HW2 4053   1.070   3.094   2.879
 1237SOL     OW 4054   1.638   2.961   2.941
 1237SOL    HW1 4055   1.643   3.042   3.000
 1237SOL    HW2 4056   1.552   2.963   2.890
 1238SOL     OW 4057   0.915   1.951   3.264
 1238SOL    HW1 4058   0.940   1.931   3.169
 1238SOL    HW2 4059   0.987   2.007   3.306
 1239SOL     OW 4060   0.980   2.978   3.581
 1239SOL    HW1 4061   0.881   2.984   3.591
 1239SOL    HW2 4062   1.003   2.898   3.525
 1240SOL     OW 4063   0.705   2.912   2.230
 1240SOL    HW1 4064   0.691   2.919   2.329
 1240SOL    HW2 4065   0.789   2.861   2.212
 1241SOL     OW 4066   0.410   2.675   3.113
 1241SOL    HW1 4067   0.496   2.687   3.163
 1241SOL    HW2 4068   0.368   2.588   3.140
 1242SOL     OW 4069   1.274   2.248   3.124
 1242SOL    HW1 4070   1.295   2.322   3.188
 1242SOL    HW2 4071   1.185   2.265   3.081
 1243SOL     OW 4072   0.064   3.426   3.193
 1243SOL    HW1 4073   0.018   3.508   3.159
 1243SOL    HW2 4074   0.162   3.445   3.202
 1244SOL     OW 4075   0.367   2.962   2.363
 1244SOL    HW1 4076   0.360   3.045   2.307
 1244SOL    HW2 4077   0.371   2.882   2.303
 1245SOL     OW 4078   0.566   2.399   2.727
 1245SOL    HW1 4079   0.578   2.465   2.653
 1245SOL    HW2 4080   0.612   2.433   2.810
 1246SOL     OW 4081   1.252   3.210   2.250
 1246SOL    HW1 4082   1.302   3.287   2.290
 1246SOL    HW2 4083   1.157   3.212   2.282
 1247SOL     OW 4084   1.272   3.307   3.004
 1247SOL    HW1 4085   1.319   3.320   3.091
 1247SOL    HW2 4086   1.206   3.233   3.013
 1248SOL     OW 4087   1.582   2.501   2.334
 1248SOL    HW1 4088   1.551   2.562   2.407
 1248SOL    HW2 4089   1.632   2.553   2.265
 1249SOL     OW 4090   0.354   3.372   3.191
 1249SOL    HW1 4091   0.333   3.328   3.104
 1249SOL    HW2 4092   0.451   3.398   3.194
 1250SOL     OW 4093   0.402   2.613   3.460
 1250SOL    HW1 4094   0.470   2.668   3.413
 1250SOL    HW2 4095   0.442   2.525   3.487
 1251SOL     OW 4096   1.587   2.641   3.532
 1251SOL    HW1 4097   1.495   2.679   3.527
 1251SOL    HW2 4098   1.647   2.688   3.467
 1252SOL     OW 4099   1.013   1.967   3.632
 1252SOL    HW1 4100   1.019   2.052   3.580
 1252SOL    HW2 4101   1.045   1.891   3.575
 1253SOL     OW 4102   0.504   1.912   3.602
 1253SOL    HW1 4103   0.462   1.855   3.532
 1253SOL    HW2 4104   0.438   1.981   3.634
 1254SOL     OW 4105   0.573   2.732   2.891
 1254SOL    HW1 4106   0.617   2.821   2.882
 1254SOL    HW2 4107   0.510   2.732   2.968
 1255SOL     OW 4108   1.360   2.724   2.907
 1255SOL    HW1 4109   1.285   2.724   2.841
 1255SOL    HW2 4110   1.397   2.632   2.916
 1256SOL     OW 4111   1.209   2.387   2.137
 1256SOL    HW1 4112   1.222   2.303   2.191
 1256SOL    HW2 4113   1.180   2.461   2.197
 1257SOL     OW 4114   0.307   2.075   3.093
 1257SOL    HW1 4115   0.284   2.112   3.183
 1257SOL    HW2 4116   0.277   1.980   3.087
 1258SOL     OW 4117   0.037   3.172   3.144
 1258SOL    HW1 4118   0.090   3.123   3.212
 1258SOL    HW2 4119   0.059   3.270   3.149
 1259SOL     OW 4120   0.732   2.496   2.926
 1259SOL    HW1 4121   0.791   2.470   2.850
 1259SOL    HW2 4122   0.704   2.592   2.915
 1260SOL     OW 4123   1.728   2.797   3.716
 1260SOL    HW1 4124   1.682   2.790   3.627
 1260SOL    HW2 4125   1.666   2.841   3.782
 1261SOL     OW 4126   0.307   1.925   2.480
 1261SOL    HW1 4127   0.296   2.019   2.513
 1261SOL    HW2 4128   0.302   1.862   2.557
 1262SOL     OW 4129   1.622   2.229   2.236
 1262SOL    HW1 4130   1.624   2.153   2.300
 1262SOL    HW2 4131   1.574   2.306   2.276
 1263SOL     OW 4132   1.023   2.628   2.828
 1263SOL    HW1 4133   1.038   2.649   2.924
 1263SOL    HW2 4134   0.993   2.533   2.819
 1264SOL     OW 4135   0.980   3.435   3.562
 1264SOL    HW1 4136   0.960   3.479   3.474
 1264SOL    HW2 4137   1.019   3.344   3.546
 1265SOL     OW 4138   1.859   3.380   3.467
 1265SOL    HW1 4139   1.873   3.407   3.372
 1265SOL    HW2 4140   1.942   3.402   3.520
 1266SOL     OW 4141   0.350   2.760   3.666
 1266SOL    HW1 4142   0.426   2.804   3.714
 1266SOL    HW2 4143   0.385   2.713   3.584
 1267SOL     OW 4144   1.540   2.136   1.987
 1267SOL    HW1 4145   1.479   2.061   2.010
 1267SOL    HW2 4146   1.562   2.188   2.070
 1268SOL     OW 4147   1.303   2.700   1.904
 1268SOL    HW1 4148   1.337   2.607   1.919
 1268SOL    HW2 4149   1.321   2.727   1.809
 1269SOL     OW 4150   1.068   3.195   2.711
 1269SOL    HW1 4151   1.075   3.111   2.656
 1269SOL    HW2 4152   1.130   3.264   2.675
 1270SOL     OW 4153   0.319   2.672   2.811
 1270SOL    HW1 4154   0.412   2.708   2.816
 1270SOL    HW2 4155   0.313   2.587   2.863
 1271SOL     OW 4156   0.339   2.371   2.868
 1271SOL    HW1 4157   0.287   2.288   2.851
 1271SOL    HW2 4158   0.416   2.376   2.804
 1272SOL     OW 4159   1.138   2.242   3.540
 1272SOL    HW1 4160   1.093   2.305   3.604
 1272SOL    HW2 4161   1.231   2.273   3.523
 1273SOL     OW 4162   1.160   2.069   3.339
 1273SOL    HW1 4163   1.160   2.133   3.416
 1273SOL    HW2 4164   1.188   2.117   3.256
 1274SOL     OW 4165   0.008   3.188   2.062
 1274SOL    HW1 4166  -0.085   3.209   2.031
 1274SOL    HW2 4167   0.018   3.089   2.075
 1275SOL     OW 4168   0.088   3.663   2.789
 1275SOL    HW1 4169   0.046   3.577   2.762
 1275SOL    HW2 4170   0.182   3.666   2.755
 1276SOL     OW 4171   0.504   3.430   2.772
 1276SOL    HW1 4172   0.570   3.504   2.781
 1276SOL    HW2 4173   0.548   3.351   2.730
 1277SOL     OW 4174   1.002   2.658   3.100
 1277SOL    HW1 4175   1.043   2.626   3.186
 1277SOL    HW2 4176   0.906   2.631   3.097
 1278SOL     OW 4177   0.040   2.406   2.976
 1278SOL    HW1 4178   0.125   2.373   2.935
 1278SOL    HW2 4179   0.053   2.421   3.074
 1279SOL     OW 4180   0.189   2.382   3.584
 1279SOL    HW1 4181   0.248   2.342   3.514
 1279SOL    HW2 4182   0.131   2.453   3.543
 1280SOL     OW 4183   1.369   2.812   3.522
 1280SOL    HW1 4184   1.408   2.901   3.542
 1280SOL    HW2 4185   1.379   2.792   3.425
 1281SOL     OW 4186   0.815   2.434   2.187
 1281SOL    HW1 4187   0.822   2.345   2.141
 1281SOL    HW2 4188   0.721   2.468   2.179
 1282SOL     OW 4189   1.657   2.466   3.068
 1282SOL    HW1 4190   1.619   2.397   3.130
 1282SOL    HW2 4191   1.739   2.430   3.024
 1283SOL     OW 4192   0.252   3.426   3.606
 1283SOL    HW1 4193   0.222   3.483   3.682
 1283SOL    HW2 4194   0.245   3.329   3.632
 1284SOL     OW 4195   0.671   2.326   3.131
 1284SOL    HW1 4196   0.637   2.237   3.101
 1284SOL    HW2 4197   0.697   2.380   3.051
 1285SOL     OW 4198   0.930   3.540   3.327
 1285SOL    HW1 4199   0.906   3.522   3.232
 1285SOL    HW2 4200   0.960   3.634   3.337
 1286SOL     OW 4201   0.473   2.362   2.053
 1286SOL    HW1 4202   0.534   2.442   2.057
 1286SOL    HW2 4203   0.378   2.393   2.060
 1287SOL     OW 4204   0.159   2.999   3.328
 1287SOL    HW1 4205   0.181   2.938   3.404
 1287SOL    HW2 4206   0.169   2.950   3.242
 1288SOL     OW 4207   1.347   2.921   3.096
 1288SOL    HW1 4208   1.371   2.858   3.022
 1288SOL    HW2 4209   1.257   2.961   3.078
 1289SOL     OW 4210   1.302   2.717   2.171
 1289SOL    HW1 4211   1.216   2.686   2.213
 1289SOL    HW2 4212   1.298   2.703   2.072
 1290SOL     OW 4213   1.759   3.609   3.016
 1290SOL    HW1 4214   1.820   3.639   2.943
 1290SOL    HW2 4215   1.721   3.520   2.994
 1291SOL     OW 4216   1.252   3.593   2.990
 1291SOL    HW1 4217   1.336   3.598   2.936
 1291SOL    HW2 4218   1.229   3.497   3.008
 1292SOL     OW 4219   0.083   3.120   2.884
 1292SOL    HW1 4220   0.078   3.119   2.984
 1292SOL    HW2 4221   0.000   3.079   2.846
 1293SOL     OW 4222   0.688   3.524   3.578
 1293SOL    HW1 4223   0.632   3.605   3.587
 1293SOL    HW2 4224   0.740   3.528   3.492
 1294SOL     OW 4225   1.726   1.997   2.385
 1294SOL    HW1 4226   1.799   1.980   2.318
 1294SOL    HW2 4227   1.695   1.910   2.423
 1295SOL     OW 4228   1.388   3.435   2.339
 1295SOL    HW1 4229   1.455   3.447   2.265
 1295SOL    HW2 4230   1.348   3.524   2.362
 1296SOL     OW 4231   0.130   3.656   3.713
 1296SOL    HW1 4232   0.089   3.582   3.766
 1296SOL    HW2 4233   0.194   3.707   3.771
 1297SOL     OW 4234   1.280   2.789   2.534
 1297SOL    HW1 4235   1.340   2.708   2.536
 1297SOL    HW2 4236   1.320   2.858   2.474
 1298SOL     OW 4237   0.830   3.135   3.284
 1298SOL    HW1 4238   0.825   3.168   3.379
 1298SOL    HW2 4239   0.744   3.154   3.238
 1299SOL     OW 4240   0.672   3.478   2.016
 1299SOL    HW1 4241   0.681   3.488   1.917
 1299SOL    HW2 4242   0.632   3.389   2.037
 1300SOL     OW 4243   1.650   3.582   3.256
 1300SOL    HW1 4244   1.703   3.592   3.172
 1300SOL    HW2 4245   1.623   3.672   3.290
 1301SOL     OW 4246   1.841   2.037   2.825
 1301SOL    HW1 4247   1.880   1.952   2.789
 1301SOL    HW2 4248   1.743   2.039   2.806
 1302SOL     OW 4249   0.263   2.188   2.582
 1302SOL    HW1 4250   0.184   2.239   2.548
 1302SOL    HW2 4251   0.254   2.173   2.680
 1303SOL     OW 4252   1.194   3.474   1.893
 1303SOL    HW1 4253   1.200   3.381   1.930
 1303SOL    HW2 4254   1.135   3.474   1.813
 1304SOL     OW 4255   0.822   2.864   3.234
 1304SOL    HW1 4256   0.862   2.863   3.142
 1304SOL    HW2 4257   0.832   2.956   3.274
 1305SOL     OW 4258   0.916   2.772   2.153
 1305SOL    HW1 4259   0.979   2.810   2.085
 1305SOL    HW2 4260   0.956   2.689   2.192
 1306SOL     OW 4261   1.504   3.469   1.906
 1306SOL    HW1 4262   1.412   3.506   1.913
 1306SOL    HW2 4263   1.542   3.489   1.816
 1307SOL     OW 4264   0.372   3.150   3.352
 1307SOL    HW1 4265   0.359   3.243   3.318
 1307SOL    HW2 4266   0.288   3.098   3.339
 1308SOL     OW 4267   1.614   3.154   3.151
 1308SOL    HW1 4268   1.674   3.157   3.231
 1308SOL    HW2 4269   1.539   3.218   3.164
 1309SOL     OW 4270   1.039   2.960   2.558
 1309SOL    HW1 4271   0.969   2.913   2.612
 1309SOL    HW2 4272   1.098   2.892   2.515
 1310SOL     OW 4273   1.014   2.098   2.833
 1310SOL    HW1 4274   1.006   2.062   2.740
 1310SOL    HW2 4275   1.012   2.022   2.898
 1311SOL     OW 4276   0.590   3.349   2.353
 1311SOL    HW1 4277   0.632   3.291   2.283
 1311SOL    HW2 4278   0.546   3.428   2.309
 1312SOL     OW 4279   0.255   3.210   2.152
 1312SOL    HW1 4280   0.159   3.211   2.125
 1312SOL    HW2 4281   0.267   3.263   2.236
 1313SOL     OW 4282   0.105   2.875   3.588
 1313SOL    HW1 4283   0.028   2.842   3.642
 1313SOL    HW2 4284   0.190   2.845   3.630
 1314SOL     OW 4285   0.672   2.065   3.351
 1314SOL    HW1 4286   0.762   2.049   3.311
 1314SOL    HW2 4287   0.680   2.070   3.450
 1315SOL     OW 4288   0.075   2.207   1.895
 1315SOL    HW1 4289  -0.017   2.179   1.866
 1315SOL    HW2 4290   0.106   2.284   1.839
 1316SOL     OW 4291   1.440   2.718   3.260
 1316SOL    HW1 4292   1.383   2.770   3.197
 1316SOL    HW2 4293   1.536   2.730   3.236
 1317SOL     OW 4294   0.072   2.028   2.180
 1317SOL    HW1 4295   0.055   2.111   2.126
 1317SOL    HW2 4296   0.162   1.991   2.158
 1318SOL     OW 4297   1.183   3.197   1.981
 1318SOL    HW1 4298   1.084   3.186   1.983
 1318SOL    HW2 4299   1.217   3.212   2.074
 1319SOL     OW 4300   0.613   2.704   3.293
 1319SOL    HW1 4301   0.669   2.785   3.276
 1319SOL    HW2 4302   0.672   2.624   3.296
 1320SOL     OW 4303   1.493   3.629   2.821
 1320SOL    HW1 4304   1.526   3.693   2.752
 1320SOL    HW2 4305   1.559   3.623   2.896
 1321SOL     OW 4306   0.716   2.427   3.570
 1321SOL    HW1 4307   0.735   2.492   3.644
 1321SOL    HW2 4308   0.776   2.347   3.579
 1322SOL     OW 4309   1.450   3.082   3.495
 1322SOL    HW1 4310   1.441   3.072   3.594
 1322SOL    HW2 4311   1.546   3.075   3.469
 1323SOL     OW 4312   0.390   3.603   3.422
 1323SOL    HW1 4313   0.299   3.644   3.420
 1323SOL    HW2 4314   0.383   3.509   3.454
 1324SOL     OW 4315   1.674   2.745   3.116
 1324SOL    HW1 4316   1.647   2.656   3.079
 1324SOL    HW2 4317   1.675   2.813   3.043
 1325SOL     OW 4318   1.225   2.187   2.311
 1325SOL    HW1 4319   1.290   2.113   2.300
 1325SOL    HW2 4320   1.245   2.237   2.395
 1326SOL     OW 4321   0.594   2.607   2.514
 1326SOL    HW1 4322   0.644   2.692   2.495
 1326SOL    HW2 4323   0.506   2.609   2.466
 1327SOL     OW 4324   1.777   2.204   3.504
 1327SOL    HW1 4325   1.760   2.235   3.410
 1327SOL    HW2 4326   1.693   2.167   3.542
 1328SOL     OW 4327   1.730   2.796   3.379
 1328SOL    HW1 4328   1.768   2.887   3.394
 1328SOL    HW2 4329   1.722   2.779   3.280
 1329SOL     OW 4330   0.859   3.236   1.878
 1329SOL    HW1 4331   0.813   3.251   1.966
 1329SOL    HW2 4332   0.903   3.321   1.848
 1330SOL     OW 4333   0.661   3.652   2.815
 1330SOL    HW1 4334   0.615   3.740   2.802
 1330SOL    HW2 4335   0.760   3.664   2.808
 1331SOL     OW 4336   0.859   2.818   2.723
 1331SOL    HW1 4337   0.913   2.749   2.771
 1331SOL    HW2 4338   0.827   2.887   2.789
 1332SOL     OW 4339   1.083   2.846   1.949
 1332SOL    HW1 4340   1.060   2.899   1.867
 1332SOL    HW2 4341   1.164   2.790   1.930
 1333SOL     OW 4342   1.861   3.431   2.713
 1333SOL    HW1 4343   1.790   3.419   2.643
 1333SOL    HW2 4344   1.862   3.352   2.773
 1334SOL     OW 4345   0.221   3.176   3.706
 1334SOL    HW1 4346   0.156   3.103   3.685
 1334SOL    HW2 4347   0.225   3.190   3.804
 1335SOL     OW 4348   0.079   3.102   2.515
 1335SOL    HW1 4349   0.078   3.055   2.603
 1335SOL    HW2 4350   0.161   3.074   2.464
 1336SOL     OW 4351   0.672   3.253   3.486
 1336SOL    HW1 4352   0.594   3.203   3.524
 1336SOL    HW2 4353   0.669   3.348   3.517
 1337SOL     OW 4354   1.824   2.054   3.089
 1337SOL    HW1 4355   1.820   1.964   3.133
 1337SOL    HW2 4356   1.827   2.043   2.990
 1338SOL     OW 4357   0.428   2.286   2.382
 1338SOL    HW1 4358   0.458   2.214   2.320
 1338SOL    HW2 4359   0.389   2.246   2.465
 1339SOL     OW 4360   1.705   3.349   2.966
 1339SOL    HW1 4361   1.612   3.324   2.939
 1339SOL    HW2 4362   1.731   3.299   3.048
 1340SOL     OW 4363   0.317   2.409   3.142
 1340SOL    HW1 4364   0.355   2.350   3.214
 1340SOL    HW2 4365   0.357   2.383   3.054
 1341SOL     OW 4366   0.812   3.448   2.549
 1341SOL    HW1 4367   0.844   3.458   2.455
 1341SOL    HW2 4368   0.733   3.386   2.551
 1342SOL     OW 4369   1.424   2.076   2.974
 1342SOL    HW1 4370   1.476   2.011   3.029
 1342SOL    HW2 4371   1.375   2.139   3.035
 1343SOL     OW 4372   1.001   1.896   3.016
 1343SOL    HW1 4373   0.938   1.824   2.985
 1343SOL    HW2 4374   1.094   1.860   3.016
 1344SOL     OW 4375   0.770   3.192   2.163
 1344SOL    HW1 4376   0.724   3.105   2.180
 1344SOL    HW2 4377   0.861   3.189   2.204
 1345SOL     OW 4378   0.618   3.429   3.146
 1345SOL    HW1 4379   0.613   3.511   3.203
 1345SOL    HW2 4380   0.707   3.426   3.101
 1346SOL     OW 4381   1.352   1.914   2.030
 1346SOL    HW1 4382   1.387   1.873   1.946
 1346SOL    HW2 4383   1.262   1.876   2.050
 1347SOL     OW 4384   1.300   2.315   2.553
 1347SOL    HW1 4385   1.241   2.395   2.557
 1347SOL    HW2 4386   1.315   2.280   2.646
 1348SOL     OW 4387   1.593   2.083   2.744
 1348SOL    HW1 4388   1.509   2.082   2.798
 1348SOL    HW2 4389   1.595   2.166   2.688
 1349SOL     OW 4390   0.039   2.939   2.162
 1349SOL    HW1 4391   0.138   2.928   2.153
 1349SOL    HW2 4392  -0.001   2.853   2.194
 1350SOL     OW 4393   0.875   3.508   2.199
 1350SOL    HW1 4394   0.798   3.473   2.145
 1350SOL    HW2 4395   0.843   3.579   2.261
 1351SOL     OW 4396   0.230   2.490   3.837
 1351SOL    HW1 4397   0.137   2.488   3.874
 1351SOL    HW2 4398   0.231   2.451   3.745
 1352SOL     OW 4399   0.225   2.137   4.720
 1352SOL    HW1 4400   0.260   2.120   4.812
 1352SOL    HW2 4401   0.137   2.092   4.708
 1353SOL     OW 4402   0.019   2.230   4.371
 1353SOL    HW1 4403  -0.063   2.273   4.410
 1353SOL    HW2 4404  -0.009   2.157   4.308
 1354SOL     OW 4405   0.569   3.137   4.889
 1354SOL    HW1 4406   0.476   3.130   4.852
 1354SOL    HW2 4407   0.580   3.226   4.933
 1355SOL     OW 4408   1.555   3.373   4.427
 1355SOL    HW1 4409   1.498   3.357   4.508
 1355SOL    HW2 4410   1.496   3.383   4.347
 1356SOL     OW 4411   1.135   2.565   4.441
 1356SOL    HW1 4412   1.192   2.643   4.416
 1356SOL    HW2 4413   1.075   2.591   4.517
 1357SOL     OW 4414   1.755   2.469   3.955
 1357SOL    HW1 4415   1.743   2.456   3.856
 1357SOL    HW2 4416   1.725   2.388   4.004
 1358SOL     OW 4417   0.768   3.006   4.747
 1358SOL    HW1 4418   0.690   3.023   4.807
 1358SOL    HW2 4419   0.802   3.093   4.711
 1359SOL     OW 4420   0.850   2.660   5.547
 1359SOL    HW1 4421   0.846   2.736   5.612
 1359SOL    HW2 4422   0.872   2.696   5.456
 1360SOL     OW 4423   0.685   2.874   4.389
 1360SOL    HW1 4424   0.754   2.858   4.459
 1360SOL    HW2 4425   0.612   2.931   4.427
 1361SOL     OW 4426   0.686   3.023   5.527
 1361SOL    HW1 4427   0.746   3.102   5.541
 1361SOL    HW2 4428   0.600   3.054   5.486
 1362SOL     OW 4429   0.335   3.297   4.785
 1362SOL    HW1 4430   0.257   3.266   4.732
 1362SOL    HW2 4431   0.393   3.355   4.728
 1363SOL     OW 4432   1.460   3.367   5.063
 1363SOL    HW1 4433   1.484   3.461   5.089
 1363SOL    HW2 4434   1.444   3.313   5.145
 1364SOL     OW 4435   0.438   2.254   5.223
 1364SOL    HW1 4436   0.520   2.198   5.232
 1364SOL    HW2 4437   0.357   2.196   5.227
 1365SOL     OW 4438   1.603   2.309   4.461
 1365SOL    HW1 4439   1.529   2.355   4.411
 1365SOL    HW2 4440   1.654   2.377   4.514
 1366SOL     OW 4441   0.231   3.575   4.207
 1366SOL    HW1 4442   0.265   3.652   4.261
 1366SOL    HW2 4443   0.275   3.575   4.117
 1367SOL     OW 4444   1.127   3.203   5.414
 1367SOL    HW1 4445   1.174   3.203   5.502
 1367SOL    HW2 4446   1.079   3.116   5.403
 1368SOL     OW 4447   0.230   3.296   4.262
 1368SOL    HW1 4448   0.204   3.392   4.262
 1368SOL    HW2 4449   0.159   3.242   4.307
 1369SOL     OW 4450   0.240   2.953   4.610
 1369SOL    HW1 4451   0.254   2.869   4.662
 1369SOL    HW2 4452   0.185   3.017   4.665
 1370SOL     OW 4453   0.620   3.648   5.163
 1370SOL    HW1 4454   0.528   3.631   5.198
 1370SOL    HW2 4455   0.648   3.740   5.189
 1371SOL     OW 4456   0.606   2.826   3.847
 1371SOL    HW1 4457   0.613   2.910   3.793
 1371SOL    HW2 4458   0.652   2.839   3.935
 1372SOL     OW 4459   1.594   1.976   5.204
 1372SOL    HW1 4460   1.576   2.043   5.132
 1372SOL    HW2 4461   1.591   2.022   5.293
 1373SOL     OW 4462   0.122   2.505   4.287
 1373SOL    HW1 4463   0.077   2.417   4.304
 1373SOL    HW2 4464   0.121   2.559   4.371
 1374SOL     OW 4465   1.842   3.629   4.083
 1374SOL    HW1 4466   1.896   3.600   4.163
 1374SOL    HW2 4467   1.872   3.719   4.054
 1375SOL     OW 4468   0.027   3.458   3.841
 1375SOL    HW1 4469   0.008   3.362   3.862
 1375SOL    HW2 4470  -0.006   3.516   3.916
 1376SOL     OW 4471   1.689   2.784   4.336
 1376SOL    HW1 4472   1.784   2.755   4.344
 1376SOL    HW2 4473   1.681   2.849   4.261
 1377SOL     OW 4474   1.641   2.970   4.156
 1377SOL    HW1 4475   1.727   2.972   4.104
 1377SOL    HW2 4476   1.655   3.017   4.244
 1378SOL     OW 4477   0.113   2.599   5.321
 1378SOL    HW1 4478   0.201   2.586   5.366
 1378SOL    HW2 4479   0.100   2.696   5.299
 1379SOL     OW 4480   0.613   3.227   4.450
 1379SOL    HW1 4481   0.564   3.140   4.459
 1379SOL    HW2 4482   0.590   3.270   4.363
 1380SOL     OW 4483   1.293   3.090   5.147
 1380SOL    HW1 4484   1.330   3.017   5.089
 1380SOL    HW2 4485   1.345   3.095   5.232
 1381SOL     OW 4486   0.809   1.866   4.226
 1381SOL    HW1 4487   0.849   1.957   4.217
 1381SOL    HW2 4488   0.709   1.874   4.232
 1382SOL     OW 4489   0.197   2.838   4.988
 1382SOL    HW1 4490   0.286   2.793   4.974
 1382SOL    HW2 4491   0.124   2.773   4.969
 1383SOL     OW 4492   1.525   2.861   3.914
 1383SOL    HW1 4493   1.462   2.785   3.927
 1383SOL    HW2 4494   1.573   2.879   4.000
 1384SOL     OW 4495   1.187   3.654   5.340
 1384SOL    HW1 4496   1.211   3.714   5.264
 1384SOL    HW2 4497   1.194   3.559   5.310
 1385SOL     OW 4498   0.317   2.113   5.525
 1385SOL    HW1 4499   0.388   2.184   5.531
 1385SOL    HW2 4500   0.229   2.152   5.553
 1386SOL     OW 4501   1.466   3.279   4.677
 1386SOL    HW1 4502   1.407   3.285   4.757
 1386SOL    HW2 4503   1.451   3.191   4.631
 1387SOL     OW 4504   1.667   3.576   4.296
 1387SOL    HW1 4505   1.626   3.553   4.208
 1387SOL    HW2 4506   1.649   3.502   4.361
 1388SOL     OW 4507   0.598   2.591   3.994
 1388SOL    HW1 4508   0.622   2.660   3.926
 1388SOL    HW2 4509   0.520   2.624   4.048
 1389SOL     OW 4510   1.281   2.207   4.668
 1389SOL    HW1 4511   1.195   2.157   4.655
 1389SOL    HW2 4512   1.343   2.153   4.724
 1390SOL     OW 4513   1.576   3.524   4.031
 1390SOL    HW1 4514   1.665   3.570   4.034
 1390SOL    HW2 4515   1.555   3.500   3.936
 1391SOL     OW 4516   0.807   2.467   5.189
 1391SOL    HW1 4517   0.760   2.464   5.278
 1391SOL    HW2 4518   0.756   2.412   5.123
 1392SOL     OW 4519   1.394   2.331   5.398
 1392SOL    HW1 4520   1.374   2.374   5.486
 1392SOL    HW2 4521   1.472   2.269   5.407
 1393SOL     OW 4522   0.973   2.752   5.296
 1393SOL    HW1 4523   1.019   2.668   5.267
 1393SOL    HW2 4524   0.917   2.786   5.221
 1394SOL     OW 4525   0.991   2.272   4.966
 1394SOL    HW1 4526   0.914   2.306   5.020
 1394SOL    HW2 4527   0.957   2.221   4.887
 1395SOL     OW 4528   1.041   2.563   4.153
 1395SOL    HW1 4529   1.067   2.559   4.249
 1395SOL    HW2 4530   0.956   2.512   4.139
 1396SOL     OW 4531   0.076   2.673   4.513
 1396SOL    HW1 4532   0.175   2.661   4.522
 1396SOL    HW2 4533   0.052   2.768   4.534
 1397SOL     OW 4534   0.130   3.683   5.295
 1397SOL    HW1 4535   0.120   3.668   5.394
 1397SOL    HW2 4536   0.044   3.719   5.259
 1398SOL     OW 4537   0.865   2.210   3.919
 1398SOL    HW1 4538   0.924   2.273   3.870
 1398SOL    HW2 4539   0.884   2.116   3.890
 1399SOL     OW 4540   1.719   2.447   5.555
 1399SOL    HW1 4541   1.693   2.536   5.519
 1399SOL    HW2 4542   1.717   2.379   5.482
 1400SOL     OW 4543   1.362   3.006   4.269
 1400SOL    HW1 4544   1.445   2.977   4.221
 1400SOL    HW2 4545   1.313   3.073   4.213
 1401SOL     OW 4546   0.550   2.058   4.609
 1401SOL    HW1 4547   0.545   2.053   4.709
 1401SOL    HW2 4548   0.552   2.154   4.580
 1402SOL     OW 4549   1.008   3.318   4.201
 1402SOL    HW1 4550   0.962   3.390   4.149
 1402SOL    HW2 4551   1.004   3.338   4.299
 1403SOL     OW 4552   0.351   3.663   4.577
 1403SOL    HW1 4553   0.401   3.577   4.583
 1403SOL    HW2 4554   0.416   3.740   4.574
 1404SOL     OW 4555   1.795   2.928   4.597
 1404SOL    HW1 4556   1.733   2.913   4.521
 1404SOL    HW2 4557   1.743   2.939   4.682
 1405SOL     OW 4558   1.227   3.412   5.230
 1405SOL    HW1 4559   1.233   3.335   5.294
 1405SOL    HW2 4560   1.175   3.386   5.150
 1406SOL     OW 4561   0.321   2.805   3.966
 1406SOL    HW1 4562   0.403   2.844   3.924
 1406SOL    HW2 4563   0.294   2.723   3.917
 1407SOL     OW 4564   1.458   2.597   4.452
 1407SOL    HW1 4565   1.453   2.532   4.527
 1407SOL    HW2 4566   1.538   2.656   4.465
 1408SOL     OW 4567   0.461   3.128   5.451
 1408SOL    HW1 4568   0.411   3.129   5.365
 1408SOL    HW2 4569   0.398   3.110   5.527
 1409SOL     OW 4570   1.111   3.638   3.961
 1409SOL    HW1 4571   1.051   3.576   4.011
 1409SOL    HW2 4572   1.142   3.594   3.876
 1410SOL     OW 4573   0.202   2.147   5.222
 1410SOL    HW1 4574   0.122   2.207   5.209
 1410SOL    HW2 4575   0.192   2.098   5.308
 1411SOL     OW 4576   1.632   3.239   3.805
 1411SOL    HW1 4577   1.600   3.333   3.795
 1411SOL    HW2 4578   1.556   3.176   3.793
 1412SOL     OW 4579   0.464   3.605   4.047
 1412SOL    HW1 4580   0.497   3.644   4.133
 1412SOL    HW2 4581   0.540   3.598   3.982
 1413SOL     OW 4582   1.400   1.969   4.150
 1413SOL    HW1 4583   1.376   1.932   4.060
 1413SOL    HW2 4584   1.499   1.985   4.154
 1414SOL     OW 4585   0.249   3.647   4.965
 1414SOL    HW1 4586   0.306   3.582   5.015
 1414SOL    HW2 4587   0.233   3.614   4.872
 1415SOL     OW 4588   0.940   3.560   4.628
 1415SOL    HW1 4589   1.020   3.503   4.649
 1415SOL    HW2 4590   0.891   3.520   4.551
 1416SOL     OW 4591   0.382   2.562   4.204
 1416SOL    HW1 4592   0.427   2.472   4.201
 1416SOL    HW2 4593   0.288   2.551   4.237
 1417SOL     OW 4594   1.547   2.084   5.453
 1417SOL    HW1 4595   1.542   2.121   5.545
 1417SOL    HW2 4596   1.475   2.015   5.441
 1418SOL     OW 4597   0.614   1.984   3.841
 1418SOL    HW1 4598   0.712   1.962   3.848
 1418SOL    HW2 4599   0.583   1.967   3.748
 1419SOL     OW 4600   0.781   2.126   5.473
 1419SOL    HW1 4601   0.848   2.065   5.516
 1419SOL    HW2 4602   0.708   2.145   5.538
 1420SOL     OW 4603   0.888   3.376   4.919
 1420SOL    HW1 4604   0.865   3.351   4.825
 1420SOL    HW2 4605   0.949   3.307   4.958
 1421SOL     OW 4606   1.351   2.452   5.157
 1421SOL    HW1 4607   1.379   2.409   5.242
 1421SOL    HW2 4608   1.376   2.548   5.158
 1422SOL     OW 4609   0.803   3.264   4.648
 1422SOL    HW1 4610   0.893   3.278   4.606
 1422SOL    HW2 4611   0.732   3.266   4.577
 1423SOL     OW 4612   0.922   2.365   4.623
 1423SOL    HW1 4613   0.897   2.356   4.527
 1423SOL    HW2 4614   0.970   2.283   4.654
 1424SOL     OW 4615   0.539   1.926   4.236
 1424SOL    HW1 4616   0.458   1.927   4.294
 1424SOL    HW2 4617   0.542   2.009   4.181
 1425SOL     OW 4618   1.434   3.050   3.765
 1425SOL    HW1 4619   1.466   2.974   3.822
 1425SOL    HW2 4620   1.342   3.077   3.795
 1426SOL     OW 4621   0.297   1.897   3.895
 1426SOL    HW1 4622   0.346   1.981   3.874
 1426SOL    HW2 4623   0.359   1.832   3.940
 1427SOL     OW 4624   0.935   2.098   4.204
 1427SOL    HW1 4625   0.887   2.139   4.126
 1427SOL    HW2 4626   1.034   2.096   4.185
 1428SOL     OW 4627   1.076   2.545   5.188
 1428SOL    HW1 4628   0.996   2.484   5.191
 1428SOL    HW2 4629   1.157   2.492   5.164
 1429SOL     OW 4630   1.227   3.432   4.517
 1429SOL    HW1 4631   1.248   3.506   4.452
 1429SOL    HW2 4632   1.295   3.432   4.590
 1430SOL     OW 4633   0.459   3.014   4.465
 1430SOL    HW1 4634   0.388   2.987   4.530
 1430SOL    HW2 4635   0.433   2.986   4.372
 1431SOL     OW 4636   1.271   3.659   4.315
 1431SOL    HW1 4637   1.315   3.723   4.251
 1431SOL    HW2 4638   1.221   3.711   4.385
 1432SOL     OW 4639   1.032   2.411   3.740
 1432SOL    HW1 4640   0.991   2.493   3.701
 1432SOL    HW2 4641   1.096   2.437   3.813
 1433SOL     OW 4642   0.078   2.418   5.110
 1433SOL    HW1 4643   0.170   2.417   5.069
 1433SOL    HW2 4644   0.072   2.492   5.177
 1434SOL     OW 4645   0.561   2.084   4.871
 1434SOL    HW1 4646   0.599   2.000   4.908
 1434SOL    HW2 4647   0.473   2.103   4.915
 1435SOL     OW 4648   0.866   2.316   4.366
 1435SOL    HW1 4649   0.834   2.388   4.304
 1435SOL    HW2 4650   0.890   2.235   4.313
 1436SOL     OW 4651   1.017   1.901   4.477
 1436SOL    HW1 4652   0.945   1.906   4.408
 1436SOL    HW2 4653   0.993   1.832   4.546
 1437SOL     OW 4654   1.429   3.035   4.591
 1437SOL    HW1 4655   1.374   2.951   4.584
 1437SOL    HW2 4656   1.455   3.064   4.499
 1438SOL     OW 4657   1.466   2.452   4.716
 1438SOL    HW1 4658   1.436   2.357   4.723
 1438SOL    HW2 4659   1.539   2.468   4.782
 1439SOL     OW 4660   1.857   2.695   4.101
 1439SOL    HW1 4661   1.899   2.631   4.165
 1439SOL    HW2 4662   1.819   2.644   4.023
 1440SOL     OW 4663   0.488   3.247   3.898
 1440SOL    HW1 4664   0.401   3.232   3.945
 1440SOL    HW2 4665   0.471   3.273   3.803
 1441SOL     OW 4666   1.664   3.142   4.381
 1441SOL    HW1 4667   1.763   3.150   4.395
 1441SOL    HW2 4668   1.619   3.226   4.412
 1442SOL     OW 4669   1.390   2.437   3.802
 1442SOL    HW1 4670   1.336   2.416   3.883
 1442SOL    HW2 4671   1.481   2.396   3.811
 1443SOL     OW 4672   0.527   2.118   4.052
 1443SOL    HW1 4673   0.554   2.059   3.977
 1443SOL    HW2 4674   0.527   2.213   4.021
 1444SOL     OW 4675   1.754   3.085   5.312
 1444SOL    HW1 4676   1.845   3.046   5.299
 1444SOL    HW2 4677   1.762   3.181   5.336
 1445SOL     OW 4678   1.064   3.209   5.064
 1445SOL    HW1 4679   0.984   3.186   5.119
 1445SOL    HW2 4680   1.147   3.183   5.113
 1446SOL     OW 4681   1.592   3.491   5.349
 1446SOL    HW1 4682   1.619   3.525   5.259
 1446SOL    HW2 4683   1.671   3.453   5.395
 1447SOL     OW 4684   1.111   3.057   4.824
 1447SOL    HW1 4685   1.071   3.101   4.905
 1447SOL    HW2 4686   1.070   3.094   4.741
 1448SOL     OW 4687   1.638   2.961   4.803
 1448SOL    HW1 4688   1.643   3.042   4.862
 1448SOL    HW2 4689   1.552   2.963   4.752
 1449SOL     OW 4690   0.915   1.951   5.126
 1449SOL    HW1 4691   0.940   1.931   5.031
 1449SOL    HW2 4692   0.987   2.007   5.168
 1450SOL     OW 4693   0.980   2.978   5.443
 1450SOL    HW1 4694   0.881   2.984   5.453
 1450SOL    HW2 4695   1.003   2.898   5.387
 1451SOL     OW 4696   0.705   2.912   4.092
 1451SOL    HW1 4697   0.691   2.919   4.191
 1451SOL    HW2 4698   0.789   2.861   4.074
 1452SOL     OW 4699   0.410   2.675   4.975
 1452SOL    HW1 4700   0.496   2.687   5.025
 1452SOL    HW2 4701   0.368   2.588   5.002
 1453SOL     OW 4702   1.274   2.248   4.986
 1453SOL    HW1 4703   1.295   2.322   5.050
 1453SOL    HW2 4704   1.185   2.265   4.943
 1454SOL     OW 4705   0.064   3.426   5.055
 1454SOL    HW1 4706   0.018   3.508   5.021
 1454SOL    HW2 4707   0.162   3.445   5.064
 1455SOL     OW 4708   0.367   2.962   4.225
 1455SOL    HW1 4709   0.360   3.045   4.169
 1455SOL    HW2 4710   0.371   2.882   4.165
 1456SOL     OW 4711   0.566   2.399   4.589
 1456SOL    HW1 4712   0.578   2.465   4.515
 1456SOL    HW2 4713   0.612   2.433   4.672
 1457SOL     OW 4714   1.252   3.210   4.112
 1457SOL    HW1 4715   1.302   3.287   4.152
 1457SOL    HW2 4716   1.157   3.212   4.144
 1458SOL     OW 4717   1.272   3.307   4.866
 1458SOL    HW1 4718   1.319   3.320   4.953
 1458SOL    HW2 4719   1.206   3.233   4.875
 1459SOL     OW 4720   1.582   2.501   4.196
 1459SOL    HW1 4721   1.551   2.562   4.269
 1459SOL    HW2 4722   1.632   2.553   4.127
 1460SOL     OW 4723   0.354   3.372   5.053
 1460SOL    HW1 4724   0.333   3.328   4.966
 1460SOL    HW2 4725   0.451   3.398   5.056
 1461SOL     OW 4726   0.402   2.613   5.322
 1461SOL    HW1 4727   0.470   2.668   5.275
 1461SOL    HW2 4728   0.442   2.525   5.349
 1462SOL     OW 4729   1.587   2.641   5.394
 1462SOL    HW1 4730   1.495   2.679   5.389
 1462SOL    HW2 4731   1.647   2.688   5.329
 1463SOL     OW 4732   1.013   1.967   5.494
 1463SOL    HW1 4733   1.019   2.052   5.442
 1463SOL    HW2 4734   1.045   1.891   5.437
 1464SOL     OW 4735   0.504   1.912   5.464
 1464SOL    HW1 4736   0.462   1.855   5.394
 1464SOL    HW2 4737   0.438   1.981   5.496
 1465SOL     OW 4738   0.573   2.732   4.753
 1465SOL    HW1 4739   0.617   2.821   4.744
 1465SOL    HW2 4740   0.510   2.732   4.830
 1466SOL     OW 4741   1.360   2.724   4.769
 1466SOL    HW1 4742   1.285   2.724   4.703
 1466SOL    HW2 4743   1.397   2.632   4.778
 1467SOL     OW 4744   1.209   2.387   3.999
 1467SOL    HW1 4745   1.222   2.303   4.053
 1467SOL    HW2 4746   1.180   2.461   4.059
 1468SOL     OW 4747   0.307   2.075   4.955
 1468SOL    HW1 4748   0.284   2.112   5.045
 1468SOL    HW2 4749   0.277   1.980   4.949
 1469SOL     OW 4750   0.037   3.172   5.006
 1469SOL    HW1 4751   0.090   3.123   5.074
 1469SOL    HW2 4752   0.059   3.270   5.011
 1470SOL     OW 4753   0.732   2.496   4.788
 1470SOL    HW1 4754   0.791   2.470   4.712
 1470SOL    HW2 4755   0.704   2.592   4.777
 1471SOL     OW 4756   1.728   2.797   5.578
 1471SOL    HW1 4757   1.682   2.790   5.489
 1471SOL    HW2 4758   1.666   2.841   5.644
 1472SOL     OW 4759   0.307   1.925   4.342
 1472SOL    HW1 4760   0.296   2.019   4.375
 1472SOL    HW2 4761   0.302   1.862   4.419
 1473SOL     OW 4762   1.622   2.229   4.098
 1473SOL    HW1 4763   1.624   2.153   4.162
 1473SOL    HW2 4764   1.574   2.306   4.138
 1474SOL     OW 4765   1.023   2.628   4.690
 1474SOL    HW1 4766   1.038   2.649   4.786
 1474SOL    HW2 4767   0.993   2.533   4.681
 1475SOL     OW 4768   0.980   3.435   5.424
 1475SOL    HW1 4769   0.960   3.479   5.336
 1475SOL    HW2 4770   1.019   3.344   5.408
 1476SOL     OW 4771   1.859   3.380   5.329
 1476SOL    HW1 4772   1.873   3.407   5.234
 1476SOL    HW2 4773   1.942   3.402   5.382
 1477SOL     OW 4774   0.350   2.760   5.528
 1477SOL    HW1 4775   0.426   2.804   5.576
 1477SOL    HW2 4776   0.385   2.713   5.446
 1478SOL     OW 4777   1.540   2.136   3.849
 1478SOL    HW1 4778   1.479   2.061   3.872
 1478SOL    HW2 4779   1.562   2.188   3.932
 1479SOL     OW 4780   1.303   2.700   3.766
 1479SOL    HW1 4781   1.337   2.607   3.781
 1479SOL    HW2 4782   1.321   2.727   3.671
 1480SOL     OW 4783   1.068   3.195   4.573
 1480SOL    HW1 4784   1.075   3.111   4.518
 1480SOL    HW2 4785   1.130   3.264   4.537
 1481SOL     OW 4786   0.319   2.672   4.673
 1481SOL    HW1 4787   0.412   2.708   4.678
 1481SOL    HW2 4788   0.313   2.587   4.725
 1482SOL     OW 4789   0.339   2.371   4.730
 1482SOL    HW1 4790   0.287   2.288   4.713
 1482SOL    HW2 4791   0.416   2.376   4.666
 1483SOL     OW 4792   1.138   2.242   5.402
 1483SOL    HW1 4793   1.093   2.305   5.466
 1483SOL    HW2 4794   1.231   2.273   5.385
 1484SOL     OW 4795   1.160   2.069   5.201
 1484SOL    HW1 4796   1.160   2.133   5.278
 1484SOL    HW2 4797   1.188   2.117   5.118
 1485SOL     OW 4798   0.008   3.188   3.924
 1485SOL    HW1 4799  -0.085   3.209   3.893
 1485SOL    HW2 4800   0.018   3.089   3.937
 1486SOL     OW 4801   0.088   3.663   4.651
 1486SOL    HW1 4802   0.046   3.577   4.624
 1486SOL    HW2 4803   0.182   3.666   4.617
 1487SOL     OW 4804   0.504   3.430   4.634
 1487SOL    HW1 4805   0.570   3.504   4.643
 1487SOL    HW2 4806   0.548   3.351   4.592
 1488SOL     OW 4807   1.002   2.658   4.962
 1488SOL    HW1 4808   1.043   2.626   5.048
 1488SOL    HW2 4809   0.906   2.631   4.959
 1489SOL     OW 4810   0.040   2.406   4.838
 1489SOL    HW1 4811   0.125   2.373   4.797
 1489SOL    HW2 4812   0.053   2.421   4.936
 1490SOL     OW 4813   0.189   2.382   5.446
 1490SOL    HW1 4814   0.248   2.342   5.376
 1490SOL    HW2 4815   0.131   2.453   5.405
 1491SOL     OW 4816   1.369   2.812   5.384
 1491SOL    HW1 4817   1.408   2.901   5.404
 1491SOL    HW2 4818   1.379   2.792   5.287
 1492SOL     OW 4819   0.815   2.434   4.049
 1492SOL    HW1 4820   0.822   2.345   4.003
 1492SOL    HW2 4821   0.721   2.468   4.041
 1493SOL     OW 4822   1.657   2.466   4.930
 1493SOL    HW1 4823   1.619   2.397   4.992
 1493SOL    HW2 4824   1.739   2.430   4.886
 1494SOL     OW 4825   0.252   3.426   5.468
 1494SOL    HW1 4826   0.222   3.483   5.544
 1494SOL    HW2 4827   0.245   3.329   5.494
 1495SOL     OW 4828   0.671   2.326   4.993
 1495SOL    HW1 4829   0.637   2.237   4.963
 1495SOL    HW2 4830   0.697   2.380   4.913
 1496SOL     OW 4831   0.930   3.540   5.189
 1496SOL    HW1 4832   0.906   3.522   5.094
 1496SOL    HW2 4833   0.960   3.634   5.199
 1497SOL     OW 4834   0.473   2.362   3.915
 1497SOL    HW1 4835   0.534   2.442   3.919
 1497SOL    HW2 4836   0.378   2.393   3.922
 1498SOL     OW 4837   0.159   2.999   5.190
 1498SOL    HW1 4838   0.181   2.938   5.266
 1498SOL    HW2 4839   0.169   2.950   5.104
 1499SOL     OW 4840   1.347   2.921   4.958
 1499SOL    HW1 4841   1.371   2.858   4.884
 1499SOL    HW2 4842   1.257   2.961   4.940
 1500SOL     OW 4843   1.302   2.717   4.033
 1500SOL    HW1 4844   1.216   2.686   4.075
 1500SOL    HW2 4845   1.298   2.703   3.934
 1501SOL     OW 4846   1.759   3.609   4.878
 1501SOL    HW1 4847   1.820   3.639   4.805
 1501SOL    HW2 4848   1.721   3.520   4.856
 1502SOL     OW 4849   0.083   3.120   4.746
 1502SOL    HW1 4850   0.078   3.119   4.846
 1502SOL    HW2 4851   0.000   3.079   4.708
 1503SOL     OW 4852   0.688   3.524   5.440
 1503SOL    HW1 4853   0.632   3.605   5.449
 1503SOL    HW2 4854   0.740   3.528   5.354
 1504SOL     OW 4855   1.726   1.997   4.247
 1504SOL    HW1 4856   1.799   1.980   4.180
 1504SOL    HW2 4857   1.695   1.910   4.285
 1505SOL     OW 4858   1.388   3.435   4.201
 1505SOL    HW1 4859   1.455   3.447   4.127
 1505SOL    HW2 4860   1.348   3.524   4.224
 1506SOL     OW 4861   0.130   3.656   5.575
 1506SOL    HW1 4862   0.089   3.582   5.628
 1506SOL    HW2 4863   0.194   3.707   5.633
 1507SOL     OW 4864   1.280   2.789   4.396
 1507SOL    HW1 4865   1.340   2.708   4.398
 1507SOL    HW2 4866   1.320   2.858   4.336
 1508SOL     OW 4867   0.830   3.135   5.146
 1508SOL    HW1 4868   0.825   3.168   5.241
 1508SOL    HW2 4869   0.744   3.154   5.100
 1509SOL     OW 4870   0.672   3.478   3.878
 1509SOL    HW1 4871   0.681   3.488   3.779
 1509SOL    HW2 4872   0.632   3.389   3.899
 1510SOL     OW 4873   1.650   3.582   5.118
 1510SOL    HW1 4874   1.703   3.592   5.034
 1510SOL    HW2 4875   1.623   3.672   5.152
 1511SOL     OW 4876   1.841   2.037   4.687
 1511SOL    HW1 4877   1.880   1.952   4.651
 1511SOL    HW2 4878   1.743   2.039   4.668
 1512SOL     OW 4879   0.263   2.188   4.444
 1512SOL    HW1 4880   0.184   2.239   4.410
 1512SOL    HW2 4881   0.254   2.173   4.542
 1513SOL     OW 4882   1.194   3.474   3.755
 1513SOL    HW1 4883   1.200   3.381   3.792
 1513SOL    HW2 4884   1.135   3.474   3.675
 1514SOL     OW 4885   0.822   2.864   5.096
 1514SOL    HW1 4886   0.862   2.863   5.004
 1514SOL    HW2 4887   0.832   2.956   5.136
 1515SOL     OW 4888   0.916   2.772   4.015
 1515SOL    HW1 4889   0.979   2.810   3.947
 1515SOL    HW2 4890   0.956   2.689   4.054
 1516SOL     OW 4891   1.504   3.469   3.768
 1516SOL    HW1 4892   1.412   3.506   3.775
 1516SOL    HW2 4893   1.542   3.489   3.678
 1517SOL     OW 4894   0.372   3.150   5.214
 1517SOL    HW1 4895   0.359   3.243   5.180
 1517SOL    HW2 4896   0.288   3.098   5.201
 1518SOL     OW 4897   1.614   3.154   5.013
 1518SOL    HW1 4898   1.674   3.157   5.093
 1518SOL    HW2 4899   1.539   3.218   5.026
 1519SOL     OW 4900   1.039   2.960   4.420
 1519SOL    HW1 4901   0.969   2.913   4.474
 1519SOL    HW2 4902   1.098   2.892   4.377
 1520SOL     OW 4903   1.014   2.098   4.695
 1520SOL    HW1 4904   1.006   2.062   4.602
 1520SOL    HW2 4905   1.012   2.022   4.760
 1521SOL     OW 4906   0.590   3.349   4.215
 1521SOL    HW1 4907   0.632   3.291   4.145
 1521SOL    HW2 4908   0.546   3.428   4.171
 1522SOL     OW 4909   1.709   2.247   5.105
 1522SOL    HW1 4910   1.782   2.316   5.109
 1522SOL    HW2 4911   1.737   2.172   5.046
 1523SOL     OW 4912   0.255   3.210   4.014
 1523SOL    HW1 4913   0.159   3.211   3.987
 1523SOL    HW2 4914   0.267   3.263   4.098
 1524SOL     OW 4915   0.105   2.875   5.450
 1524SOL    HW1 4916   0.028   2.842   5.504
 1524SOL    HW2 4917   0.190   2.845   5.492
 1525SOL     OW 4918   0.672   2.065   5.213
 1525SOL    HW1 4919   0.762   2.049   5.173
 1525SOL    HW2 4920   0.680   2.070   5.312
 1526SOL     OW 4921   0.075   2.207   3.757
 1526SOL    HW1 4922  -0.017   2.179   3.728
 1526SOL    HW2 4923   0.106   2.284   3.701
 1527SOL     OW 4924   1.440   2.718   5.122
 1527SOL    HW1 4925   1.383   2.770   5.059
 1527SOL    HW2 4926   1.536   2.730   5.098
 1528SOL     OW 4927   0.072   2.028   4.042
 1528SOL    HW1 4928   0.055   2.111   3.988
 1528SOL    HW2 4929   0.162   1.991   4.020
 1529SOL     OW 4930   1.183   3.197   3.843
 1529SOL    HW1 4931   1.084   3.186   3.845
 1529SOL    HW2 4932   1.217   3.212   3.936
 1530SOL     OW 4933   0.613   2.704   5.155
 1530SOL    HW1 4934   0.669   2.785   5.138
 1530SOL    HW2 4935   0.672   2.624   5.158
 1531SOL     OW 4936   1.493   3.629   4.683
 1531SOL    HW1 4937   1.526   3.693   4.614
 1531SOL    HW2 4938   1.559   3.623   4.758
 1532SOL     OW 4939   0.716   2.427   5.432
 1532SOL    HW1 4940   0.735   2.492   5.506
 1532SOL    HW2 4941   0.776   2.347   5.441
 1533SOL     OW 4942   1.450   3.082   5.357
 1533SOL    HW1 4943   1.441   3.072   5.456
 1533SOL    HW2 4944   1.546   3.075   5.331
 1534SOL     OW 4945   0.390   3.603   5.284
 1534SOL    HW1 4946   0.299   3.644   5.282
 1534SOL    HW2 4947   0.383   3.509   5.316
 1535SOL     OW 4948   1.674   2.745   4.978
 1535SOL    HW1 4949   1.647   2.656   4.941
 1535SOL    HW2 4950   1.675   2.813   4.905
 1536SOL     OW 4951   1.225   2.187   4.173
 1536SOL    HW1 4952   1.290   2.113   4.162
 1536SOL    HW2 4953   1.245   2.237   4.257
 1537SOL     OW 4954   0.594   2.607   4.376
 1537SOL    HW1 4955   0.644   2.692   4.357
 1537SOL    HW2 4956   0.506   2.609   4.328
 1538SOL     OW 4957   1.777   2.204   5.366
 1538SOL    HW1 4958   1.760   2.235   5.272
 1538SOL    HW2 4959   1.693   2.167   5.404
 1539SOL     OW 4960   1.730   2.796   5.241
 1539SOL    HW1 4961   1.768   2.887   5.256
 1539SOL    HW2 4962   1.722   2.779   5.142
 1540SOL     OW 4963   0.859   3.236   3.740
 1540SOL    HW1 4964   0.813   3.251   3.828
 1540SOL    HW2 4965   0.903   3.321   3.710
 1541SOL     OW 4966   0.661   3.652   4.677
 1541SOL    HW1 4967   0.615   3.740   4.664
 1541SOL    HW2 4968   0.760   3.664   4.670
 1542SOL     OW 4969   0.859   2.818   4.585
 1542SOL    HW1 4970   0.913   2.749   4.633
 1542SOL    HW2 4971   0.827   2.887   4.651
 1543SOL     OW 4972   1.083   2.846   3.811
 1543SOL    HW1 4973   1.060   2.899   3.729
 1543SOL    HW2 4974   1.164   2.790   3.792
 1544SOL     OW 4975   1.861   3.431   4.575
 1544SOL    HW1 4976   1.790   3.419   4.505
 1544SOL    HW2 4977   1.862   3.352   4.635
 1545SOL     OW 4978   0.221   3.176   5.568
 1545SOL    HW1 4979   0.156   3.103   5.547
 1545SOL    HW2 4980   0.225   3.190   5.666
 1546SOL     OW 4981   0.079   3.102   4.377
 1546SOL    HW1 4982   0.078   3.055   4.465
 1546SOL    HW2 4983   0.161   3.074   4.326
 1547SOL     OW 4984   0.672   3.253   5.348
 1547SOL    HW1 4985   0.594   3.203   5.386
 1547SOL    HW2 4986   0.669   3.348   5.379
 1548SOL     OW 4987   1.824   2.054   4.951
 1548SOL    HW1 4988   1.820   1.964   4.995
 1548SOL    HW2 4989   1.827   2.043   4.852
 1549SOL     OW 4990   0.428   2.286   4.244
 1549SOL    HW1 4991   0.458   2.214   4.182
 1549SOL    HW2 4992   0.389   2.246   4.327
 1550SOL     OW 4993   1.705   3.349   4.828
 1550SOL    HW1 4994   1.612   3.324   4.801
 1550SOL    HW2 4995   1.731   3.299   4.910
 1551SOL     OW 4996   0.317   2.409   5.004
 1551SOL    HW1 4997   0.355   2.350   5.076
 1551SOL    HW2 4998   0.357   2.383   4.916
 1552SOL     OW 4999   0.812   3.448   4.411
 1552SOL    HW1 5000   0.844   3.458   4.317
 1552SOL    HW2 5001   0.733   3.386   4.413
 1553SOL     OW 5002   1.424   2.076   4.836
 1553SOL    HW1 5003   1.476   2.011   4.891
 1553SOL    HW2 5004   1.375   2.139   4.897
 1554SOL     OW 5005   1.001   1.896   4.878
 1554SOL    HW1 5006   0.938   1.824   4.847
 1554SOL    HW2 5007   1.094   1.860   4.878
 1555SOL     OW 5008   0.770   3.192   4.025
 1555SOL    HW1 5009   0.724   3.105   4.042
 1555SOL    HW2 5010   0.861   3.189   4.066
 1556SOL     OW 5011   0.618   3.429   5.008
 1556SOL    HW1 5012   0.613   3.511   5.065
 1556SOL    HW2 5013   0.707   3.426   4.963
 1557SOL     OW 5014   1.352   1.914   3.892
 1557SOL    HW1 5015   1.387   1.873   3.808
 1557SOL    HW2 5016   1.262   1.876   3.912
 1558SOL     OW 5017   1.300   2.315   4.415
 1558SOL    HW1 5018   1.241   2.395   4.419
 1558SOL    HW2 5019   1.315   2.280   4.508
 1559SOL     OW 5020   1.593   2.083   4.606
 1559SOL    HW1 5021   1.509   2.082   4.660
 1559SOL    HW2 5022   1.595   2.166   4.550
 1560SOL     OW 5023   0.039   2.939   4.024
 1560SOL    HW1 5024   0.138   2.928   4.015
 1560SOL    HW2 5025  -0.001   2.853   4.056
 1561SOL     OW 5026   0.875   3.508   4.061
 1561SOL    HW1 5027   0.798   3.473   4.007
 1561SOL    HW2 5028   0.843   3.579   4.123
 1562SOL     OW 5029   0.230   2.490   5.699
 1562SOL    HW1 5030   0.137   2.488   5.736
 1562SOL    HW2 5031   0.231   2.451   5.607
 1563SOL     OW 5032   0.225   2.137   6.582
 1563SOL    HW1 5033   0.260   2.120   6.674
 1563SOL    HW2 5034   0.137   2.092   6.570
 1564SOL     OW 5035   0.019   2.230   6.233
 1564SOL    HW1 5036  -0.063   2.273   6.272
 1564SOL    HW2 5037  -0.009   2.157   6.170
 1565SOL     OW 5038   0.569   3.137   6.751
 1565SOL    HW1 5039   0.476   3.130   6.714
 1565SOL    HW2 5040   0.580   3.226   6.795
 1566SOL     OW 5041   1.555   3.373   6.289
 1566SOL    HW1 5042   1.498   3.357   6.370
 1566SOL    HW2 5043   1.496   3.383   6.209
 1567SOL     OW 5044   1.135   2.565   6.303
 1567SOL    HW1 5045   1.192   2.643   6.278
 1567SOL    HW2 5046   1.075   2.591   6.379
 1568SOL     OW 5047   1.755   2.469   5.817
 1568SOL    HW1 5048   1.743   2.456   5.718
 1568SOL    HW2 5049   1.725   2.388   5.866
 1569SOL     OW 5050   0.768   3.006   6.609
 1569SOL    HW1 5051   0.690   3.023   6.669
 1569SOL    HW2 5052   0.802   3.093   6.573
 1570SOL     OW 5053   0.850   2.660   7.409
 1570SOL    HW1 5054   0.846   2.736   7.474
 1570SOL    HW2 5055   0.872   2.696   7.318
 1571SOL     OW 5056   0.685   2.874   6.251
 1571SOL    HW1 5057   0.754   2.858   6.321
 1571SOL    HW2 5058   0.612   2.931   6.289
 1572SOL     OW 5059   0.686   3.023   7.389
 1572SOL    HW1 5060   0.746   3.102   7.403
 1572SOL    HW2 5061   0.600   3.054   7.348
 1573SOL     OW 5062   0.335   3.297   6.647
 1573SOL    HW1 5063   0.257   3.266   6.594
 1573SOL    HW2 5064   0.393   3.355   6.590
 1574SOL     OW 5065   1.460   3.367   6.925
 1574SOL    HW1 5066   1.484   3.461   6.951
 1574SOL    HW2 5067   1.444   3.313   7.007
 1575SOL     OW 5068   0.438   2.254   7.085
 1575SOL    HW1 5069   0.520   2.198   7.094
 1575SOL    HW2 5070   0.357   2.196   7.089
 1576SOL     OW 5071   1.603   2.309   6.323
 1576SOL    HW1 5072   1.529   2.355   6.273
 1576SOL    HW2 5073   1.654   2.377   6.376
 1577SOL     OW 5074   0.231   3.575   6.069
 1577SOL    HW1 5075   0.265   3.652   6.123
 1577SOL    HW2 5076   0.275   3.575   5.979
 1578SOL     OW 5077   1.127   3.203   7.276
 1578SOL    HW1 5078   1.174   3.203   7.364
 1578SOL    HW2 5079   1.079   3.116   7.265
 1579SOL     OW 5080   0.230   3.296   6.124
 1579SOL    HW1 5081   0.204   3.392   6.124
 1579SOL    HW2 5082   0.159   3.242   6.169
 1580SOL     OW 5083   0.240   2.953   6.472
 1580SOL    HW1 5084   0.254   2.869   6.524
 1580SOL    HW2 5085   0.185   3.017   6.527
 1581SOL     OW 5086   0.620   3.648   7.025
 1581SOL    HW1 5087   0.528   3.631   7.060
 1581SOL    HW2 5088   0.648   3.740   7.051
 1582SOL     OW 5089   0.606   2.826   5.709
 1582SOL    HW1 5090   0.613   2.910   5.655
 1582SOL    HW2 5091   0.652   2.839   5.797
 1583SOL     OW 5092   1.594   1.976   7.066
 1583SOL    HW1 5093   1.576   2.043   6.994
 1583SOL    HW2 5094   1.591   2.022   7.155
 1584SOL     OW 5095   0.122   2.505   6.149
 1584SOL    HW1 5096   0.077   2.417   6.166
 1584SOL    HW2 5097   0.121   2.559   6.233
 1585SOL     OW 5098   1.842   3.629   5.945
 1585SOL    HW1 5099   1.896   3.600   6.025
 1585SOL    HW2 5100   1.872   3.719   5.916
 1586SOL     OW 5101   0.027   3.458   5.703
 1586SOL    HW1 5102   0.008   3.362   5.724
 1586SOL    HW2 5103  -0.006   3.516   5.778
 1587SOL     OW 5104   1.689   2.784   6.198
 1587SOL    HW1 5105   1.784   2.755   6.206
 1587SOL    HW2 5106   1.681   2.849   6.123
 1588SOL     OW 5107   1.641   2.970   6.018
 1588SOL    HW1 5108   1.727   2.972   5.966
 1588SOL    HW2 5109   1.655   3.017   6.106
 1589SOL     OW 5110   0.113   2.599   7.183
 1589SOL    HW1 5111   0.201   2.586   7.228
 1589SOL    HW2 5112   0.100   2.696   7.161
 1590SOL     OW 5113   0.613   3.227   6.312
 1590SOL    HW1 5114   0.564   3.140   6.321
 1590SOL    HW2 5115   0.590   3.270   6.225
 1591SOL     OW 5116   1.293   3.090   7.009
 1591SOL    HW1 5117   1.330   3.017   6.951
 1591SOL    HW2 5118   1.345   3.095   7.094
 1592SOL     OW 5119   0.809   1.866   6.088
 1592SOL    HW1 5120   0.849   1.957   6.079
 1592SOL    HW2 5121   0.709   1.874   6.094
 1593SOL     OW 5122   0.197   2.838   6.850
 1593SOL    HW1 5123   0.286   2.793   6.836
 1593SOL    HW2 5124   0.124   2.773   6.831
 1594SOL     OW 5125   1.525   2.861   5.776
 1594SOL    HW1 5126   1.462   2.785   5.789
 1594SOL    HW2 5127   1.573   2.879   5.862
 1595SOL     OW 5128   1.187   3.654   7.202
 1595SOL    HW1 5129   1.211   3.714   7.126
 1595SOL    HW2 5130   1.194   3.559   7.172
 1596SOL     OW 5131   0.317   2.113   7.387
 1596SOL    HW1 5132   0.388   2.184   7.393
 1596SOL    HW2 5133   0.229   2.152   7.415
 1597SOL     OW 5134   1.466   3.279   6.539
 1597SOL    HW1 5135   1.407   3.285   6.619
 1597SOL    HW2 5136   1.451   3.191   6.493
 1598SOL     OW 5137   1.667   3.576   6.158
 1598SOL    HW1 5138   1.626   3.553   6.070
 1598SOL    HW2 5139   1.649   3.502   6.223
 1599SOL     OW 5140   0.598   2.591   5.856
 1599SOL    HW1 5141   0.622   2.660   5.788
 1599SOL    HW2 5142   0.520   2.624   5.910
 1600SOL     OW 5143   1.281   2.207   6.530
 1600SOL    HW1 5144   1.195   2.157   6.517
 1600SOL    HW2 5145   1.343   2.153   6.586
 1601SOL     OW 5146   1.576   3.524   5.893
 1601SOL    HW1 5147   1.665   3.570   5.896
 1601SOL    HW2 5148   1.555   3.500   5.798
 1602SOL     OW 5149   0.807   2.467   7.051
 1602SOL    HW1 5150   0.760   2.464   7.140
 1602SOL    HW2 5151   0.756   2.412   6.985
 1603SOL     OW 5152   1.394   2.331   7.260
 1603SOL    HW1 5153   1.374   2.374   7.348
 1603SOL    HW2 5154   1.472   2.269   7.269
 1604SOL     OW 5155   0.973   2.752   7.158
 1604SOL    HW1 5156   1.019   2.668   7.129
 1604SOL    HW2 5157   0.917   2.786   7.083
 1605SOL     OW 5158   0.991   2.272   6.828
 1605SOL    HW1 5159   0.914   2.306   6.882
 1605SOL    HW2 5160   0.957   2.221   6.749
 1606SOL     OW 5161   1.041   2.563   6.015
 1606SOL    HW1 5162   1.067   2.559   6.111
 1606SOL    HW2 5163   0.956   2.512   6.001
 1607SOL     OW 5164   0.076   2.673   6.375
 1607SOL    HW1 5165   0.175   2.661   6.384
 1607SOL    HW2 5166   0.052   2.768   6.396
 1608SOL     OW 5167   0.130   3.683   7.157
 1608SOL    HW1 5168   0.120   3.668   7.256
 1608SOL    HW2 5169   0.044   3.719   7.121
 1609SOL     OW 5170   0.865   2.210   5.781
 1609SOL    HW1 5171   0.924   2.273   5.732
 1609SOL    HW2 5172   0.884   2.116   5.752
 1610SOL     OW 5173   1.719   2.447   7.417
 1610SOL    HW1 5174   1.693   2.536   7.381
 1610SOL    HW2 5175   1.717   2.379   7.344
 1611SOL     OW 5176   1.362   3.006   6.131
 1611SOL    HW1 5177   1.445   2.977   6.083
 1611SOL    HW2 5178   1.313   3.073   6.075
 1612SOL     OW 5179   0.550   2.058   6.471
 1612SOL    HW1 5180   0.545   2.053   6.571
 1612SOL    HW2 5181   0.552   2.154   6.442
 1613SOL     OW 5182   1.008   3.318   6.063
 1613SOL    HW1 5183   0.962   3.390   6.011
 1613SOL    HW2 5184   1.004   3.338   6.161
 1614SOL     OW 5185   0.351   3.663   6.439
 1614SOL    HW1 5186   0.401   3.577   6.445
 1614SOL    HW2 5187   0.416   3.740   6.436
 1615SOL     OW 5188   1.795   2.928   6.459
 1615SOL    HW1 5189   1.733   2.913   6.383
 1615SOL    HW2 5190   1.743   2.939   6.544
 1616SOL     OW 5191   1.227   3.412   7.092
 1616SOL    HW1 5192   1.233   3.335   7.156
 1616SOL    HW2 5193   1.175   3.386   7.012
 1617SOL     OW 5194   0.321   2.805   5.828
 1617SOL    HW1 5195   0.403   2.844   5.786
 1617SOL    HW2 5196   0.294   2.723   5.779
 1618SOL     OW 5197   1.458   2.597   6.314
 1618SOL    HW1 5198   1.453   2.532   6.389
 1618SOL    HW2 5199   1.538   2.656   6.327
 1619SOL     OW 5200   0.461   3.128   7.313
 1619SOL    HW1 5201   0.411   3.129   7.227
 1619SOL    HW2 5202   0.398   3.110   7.389
 1620SOL     OW 5203   1.111   3.638   5.823
 1620SOL    HW1 5204   1.051   3.576   5.873
 1620SOL    HW2 5205   1.142   3.594   5.738
 1621SOL     OW 5206   0.202   2.147   7.084
 1621SOL    HW1 5207   0.122   2.207   7.071
 1621SOL    HW2 5208   0.192   2.098   7.170
 1622SOL     OW 5209   1.632   3.239   5.667
 1622SOL    HW1 5210   1.600   3.333   5.657
 1622SOL    HW2 5211   1.556   3.176   5.655
 1623SOL     OW 5212   0.464   3.605   5.909
 1623SOL    HW1 5213   0.497   3.644   5.995
 1623SOL    HW2 5214   0.540   3.598   5.844
 1624SOL     OW 5215   1.400   1.969   6.012
 1624SOL    HW1 5216   1.376   1.932   5.922
 1624SOL    HW2 5217   1.499   1.985   6.016
 1625SOL     OW 5218   0.249   3.647   6.827
 1625SOL    HW1 5219   0.306   3.582   6.877
 1625SOL    HW2 5220   0.233   3.614   6.734
 1626SOL     OW 5221   0.940   3.560   6.490
 1626SOL    HW1 5222   1.020   3.503   6.511
 1626SOL    HW2 5223   0.891   3.520   6.413
 1627SOL     OW 5224   0.382   2.562   6.066
 1627SOL    HW1 5225   0.427   2.472   6.063
 1627SOL    HW2 5226   0.288   2.551   6.099
 1628SOL     OW 5227   1.547   2.084   7.315
 1628SOL    HW1 5228   1.542   2.121   7.407
 1628SOL    HW2 5229   1.475   2.015   7.303
 1629SOL     OW 5230   0.614   1.984   5.703
 1629SOL    HW1 5231   0.712   1.962   5.710
 1629SOL    HW2 5232   0.583   1.967   5.610
 1630SOL     OW 5233   0.781   2.126   7.335
 1630SOL    HW1 5234   0.848   2.065   7.378
 1630SOL    HW2 5235   0.708   2.145   7.400
 1631SOL     OW 5236   0.888   3.376   6.781
 1631SOL    HW1 5237   0.865   3.351   6.687
 1631SOL    HW2 5238   0.949   3.307   6.820
 1632SOL     OW 5239   1.351   2.452   7.019
 1632SOL    HW1 5240   1.379   2.409   7.104
 1632SOL    HW2 5241   1.376   2.548   7.020
 1633SOL     OW 5242   0.803   3.264   6.510
 1633SOL    HW1 5243   0.893   3.278   6.468
 1633SOL    HW2 5244   0.732   3.266   6.439
 1634SOL     OW 5245   0.922   2.365   6.485
 1634SOL    HW1 5246   0.897   2.356   6.389
 1634SOL    HW2 5247   0.970   2.283   6.516
 1635SOL     OW 5248   0.539   1.926   6.098
 1635SOL    HW1 5249   0.458   1.927   6.156
 1635SOL    HW2 5250   0.542   2.009   6.043
 1636SOL     OW 5251   1.434   3.050   5.627
 1636SOL    HW1 5252   1.466   2.974   5.684
 1636SOL    HW2 5253   1.342   3.077   5.657
 1637SOL     OW 5254   0.297   1.897   5.757
 1637SOL    HW1 5255   0.346   1.981   5.736
 1637SOL    HW2 5256   0.359   1.832   5.802
 1638SOL     OW 5257   0.935   2.098   6.066
 1638SOL    HW1 5258   0.887   2.139   5.988
 1638SOL    HW2 5259   1.034   2.096   6.047
 1639SOL     OW 5260   1.076   2.545   7.050
 1639SOL    HW1 5261   0.996   2.484   7.053
 1639SOL    HW2 5262   1.157   2.492   7.026
 1640SOL     OW 5263   1.227   3.432   6.379
 1640SOL    HW1 5264   1.248   3.506   6.314
 1640SOL    HW2 5265   1.295   3.432   6.452
 1641SOL     OW 5266   0.459   3.014   6.327
 1641SOL    HW1 5267   0.388   2.987   6.392
 1641SOL    HW2 5268   0.433   2.986   6.234
 1642SOL     OW 5269   1.271   3.659   6.177
 1642SOL    HW1 5270   1.315   3.723   6.113
 1642SOL    HW2 5271   1.221   3.711   6.247
 1643SOL     OW 5272   1.032   2.411   5.602
 1643SOL    HW1 5273   0.991   2.493   5.563
 1643SOL    HW2 5274   1.096   2.437   5.675
 1644SOL     OW 5275   0.078   2.418   6.972
 1644SOL    HW1 5276   0.170   2.417   6.931
 1644SOL    HW2 5277   0.072   2.492   7.039
 1645SOL     OW 5278   0.561   2.084   6.733
 1645SOL    HW1 5279   0.599   2.000   6.770
 1645SOL    HW2 5280   0.473   2.103   6.777
 1646SOL     OW 5281   0.866   2.316   6.228
 1646SOL    HW1 5282   0.834   2.388   6.166
 1646SOL    HW2 5283   0.890   2.235   6.175
 1647SOL     OW 5284   1.017   1.901   6.339
 1647SOL    HW1 5285   0.945   1.906   6.270
 1647SOL    HW2 5286   0.993   1.832   6.408
 1648SOL     OW 5287   1.429   3.035   6.453
 1648SOL    HW1 5288   1.374   2.951   6.446
 1648SOL    HW2 5289   1.455   3.064   6.361
 1649SOL     OW 5290   1.466   2.452   6.578
 1649SOL    HW1 5291   1.436   2.357   6.585
 1649SOL    HW2 5292   1.539   2.468   6.644
 1650SOL     OW 5293   1.857   2.695   5.963
 1650SOL    HW1 5294   1.899   2.631   6.027
 1650SOL    HW2 5295   1.819   2.644   5.885
 1651SOL     OW 5296   0.488   3.247   5.760
 1651SOL    HW1 5297   0.401   3.232   5.807
 1651SOL    HW2 5298   0.471   3.273   5.665
 1652SOL     OW 5299   1.664   3.142   6.243
 1652SOL    HW1 5300   1.763   3.150   6.257
 1652SOL    HW2 5301   1.619   3.226   6.274
 1653SOL     OW 5302   1.390   2.437   5.664
 1653SOL    HW1 5303   1.336   2.416   5.745
 1653SOL    HW2 5304   1.481   2.396   5.673
 1654SOL     OW 5305   0.527   2.118   5.914
 1654SOL    HW1 5306   0.554   2.059   5.839
 1654SOL    HW2 5307   0.527   2.213   5.883
 1655SOL     OW 5308   1.754   3.085   7.174
 1655SOL    HW1 5309   1.845   3.046   7.161
 1655SOL    HW2 5310   1.762   3.181   7.198
 1656SOL     OW 5311   1.064   3.209   6.926
 1656SOL    HW1 5312   0.984   3.186   6.981
 1656SOL    HW2 5313   1.147   3.183   6.975
 1657SOL     OW 5314   1.592   3.491   7.211
 1657SOL    HW1 5315   1.619   3.525   7.121
 1657SOL    HW2 5316   1.671   3.453   7.257
 1658SOL     OW 5317   1.111   3.057   6.686
 1658SOL    HW1 5318   1.071   3.101   6.767
 1658SOL    HW2 5319   1.070   3.094   6.603
 1659SOL     OW 5320   1.638   2.961   6.665
 1659SOL    HW1 5321   1.643   3.042   6.724
 1659SOL    HW2 5322   1.552   2.963   6.614
 1660SOL     OW 5323   0.915   1.951   6.988
 1660SOL    HW1 5324   0.940   1.931   6.893
 1660SOL    HW2 5325   0.987   2.007   7.030
 1661SOL     OW 5326   0.980   2.978   7.305
 1661SOL    HW1 5327   0.881   2.984   7.315
 1661SOL    HW2 5328   1.003   2.898   7.249
 1662SOL     OW 5329   0.705   2.912   5.954
 1662SOL    HW1 5330   0.691   2.919   6.053
 1662SOL    HW2 5331   0.789   2.861   5.936
 1663SOL     OW 5332   0.410   2.675   6.837
 1663SOL    HW1 5333   0.496   2.687   6.887
 1663SOL    HW2 5334   0.368   2.588   6.864
 1664SOL     OW 5335   1.274   2.248   6.848
 1664SOL    HW1 5336   1.295   2.322   6.912
 1664SOL    HW2 5337   1.185   2.265   6.805
 1665SOL     OW 5338   0.064   3.426   6.917
 1665SOL    HW1 5339   0.018   3.508   6.883
 1665SOL    HW2 5340   0.162   3.445   6.926
 1666SOL     OW 5341   0.367   2.962   6.087
 1666SOL    HW1 5342   0.360   3.045   6.031
 1666SOL    HW2 5343   0.371   2.882   6.027
 1667SOL     OW 5344   0.566   2.399   6.451
 1667SOL    HW1 5345   0.578   2.465   6.377
 1667SOL    HW2 5346   0.612   2.433   6.534
 1668SOL     OW 5347   1.252   3.210   5.974
 1668SOL    HW1 5348   1.302   3.287   6.014
 1668SOL    HW2 5349   1.157   3.212   6.006
 1669SOL     OW 5350   1.272   3.307   6.728
 1669SOL    HW1 5351   1.319   3.320   6.815
 1669SOL    HW2 5352   1.206   3.233   6.737
 1670SOL     OW 5353   1.582   2.501   6.058
 1670SOL    HW1 5354   1.551   2.562   6.131
 1670SOL    HW2 5355   1.632   2.553   5.989
 1671SOL     OW 5356   0.354   3.372   6.915
 1671SOL    HW1 5357   0.333   3.328   6.828
 1671SOL    HW2 5358   0.451   3.398   6.918
 1672SOL     OW 5359   0.402   2.613   7.184
 1672SOL    HW1 5360   0.470   2.668   7.137
 1672SOL    HW2 5361   0.442   2.525   7.211
 1673SOL     OW 5362   1.587   2.641   7.256
 1673SOL    HW1 5363   1.495   2.679   7.251
 1673SOL    HW2 5364   1.647   2.688   7.191
 1674SOL     OW 5365   1.013   1.967   7.356
 1674SOL    HW1 5366   1.019   2.052   7.304
 1674SOL    HW2 5367   1.045   1.891   7.299
 1675SOL     OW 5368   0.504   1.912   7.326
 1675SOL    HW1 5369   0.462   1.855   7.256
 1675SOL    HW2 5370   0.438   1.981   7.358
 1676SOL     OW 5371   0.573   2.732   6.615
 1676SOL    HW1 5372   0.617   2.821   6.606
 1676SOL    HW2 5373   0.510   2.732   6.692
 1677SOL     OW 5374   1.360   2.724   6.631
 1677SOL    HW1 5375   1.285   2.724   6.565
 1677SOL    HW2 5376   1.397   2.632   6.640
 1678SOL     OW 5377   1.209   2.387   5.861
 1678SOL    HW1 5378   1.222   2.303   5.915
 1678SOL    HW2 5379   1.180   2.461   5.921
 1679SOL     OW 5380   0.307   2.075   6.817
 1679SOL    HW1 5381   0.284   2.112   6.907
 1679SOL    HW2 5382   0.277   1.980   6.811
 1680SOL     OW 5383   0.037   3.172   6.868
 1680SOL    HW1 5384   0.090   3.123   6.936
 1680SOL    HW2 5385   0.059   3.270   6.873
 1681SOL     OW 5386   0.732   2.496   6.650
 1681SOL    HW1 5387   0.791   2.470   6.574
 1681SOL    HW2 5388   0.704   2.592   6.639
 1682SOL     OW 5389   1.728   2.797   7.440
 1682SOL    HW1 5390   1.682   2.790   7.351
 1682SOL    HW2 5391   1.666   2.841   7.506
 1683SOL     OW 5392   0.307   1.925   6.204
 1683SOL    HW1 5393   0.296   2.019   6.237
 1683SOL    HW2 5394   0.302   1.862   6.281
 1684SOL     OW 5395   1.622   2.229   5.960
 1684SOL    HW1 5396   1.624   2.153   6.024
 1684SOL    HW2 5397   1.574   2.306   6.000
 1685SOL     OW 5398   1.023   2.628   6.552
 1685SOL    HW1 5399   1.038   2.649   6.648
 1685SOL    HW2 5400   0.993   2.533   6.543
 1686SOL     OW 5401   0.980   3.435   7.286
 1686SOL    HW1 5402   0.960   3.479   7.198
 1686SOL    HW2 5403   1.019   3.344   7.270
 1687SOL     OW 5404   1.859   3.380   7.191
 1687SOL    HW1 5405   1.873   3.407   7.096
 1687SOL    HW2 5406   1.942   3.402   7.244
 1688SOL     OW 5407   0.350   2.760   7.390
 1688SOL    HW1 5408   0.426   2.804   7.438
 1688SOL    HW2 5409   0.385   2.713   7.308
 1689SOL     OW 5410   1.540   2.136   5.711
 1689SOL    HW1 5411   1.479   2.061   5.734
 1689SOL    HW2 5412   1.562   2.188   5.794
 1690SOL     OW 5413   1.303   2.700   5.628
 1690SOL    HW1 5414   1.337   2.607   5.643
 1690SOL    HW2 5415   1.321   2.727   5.533
 1691SOL     OW 5416   1.068   3.195   6.435
 1691SOL    HW1 5417   1.075   3.111   6.380
 1691SOL    HW2 5418   1.130   3.264   6.399
 1692SOL     OW 5419   0.319   2.672   6.535
 1692SOL    HW1 5420   0.412   2.708   6.540
 1692SOL    HW2 5421   0.313   2.587   6.587
 1693SOL     OW 5422   0.339   2.371   6.592
 1693SOL    HW1 5423   0.287   2.288   6.575
 1693SOL    HW2 5424   0.416   2.376   6.528
 1694SOL     OW 5425   1.160   2.069   7.063
 1694SOL    HW1 5426   1.160   2.133   7.140
 1694SOL    HW2 5427   1.188   2.117   6.980
 1695SOL     OW 5428   0.008   3.188   5.786
 1695SOL    HW1 5429  -0.085   3.209   5.755
 1695SOL    HW2 5430   0.018   3.089   5.799
 1696SOL     OW 5431   0.088   3.663   6.513
 1696SOL    HW1 5432   0.046   3.577   6.486
 1696SOL    HW2 5433   0.182   3.666   6.479
 1697SOL     OW 5434   0.504   3.430   6.496
 1697SOL    HW1 5435   0.570   3.504   6.505
 1697SOL    HW2 5436   0.548   3.351   6.454
 1698SOL     OW 5437   1.002   2.658   6.824
 1698SOL    HW1 5438   1.043   2.626   6.910
 1698SOL    HW2 5439   0.906   2.631   6.821
 1699SOL     OW 5440   0.040   2.406   6.700
 1699SOL    HW1 5441   0.125   2.373   6.659
 1699SOL    HW2 5442   0.053   2.421   6.798
 1700SOL     OW 5443   0.189   2.382   7.308
 1700SOL    HW1 5444   0.248   2.342   7.238
 1700SOL    HW2 5445   0.131   2.453   7.267
 1701SOL     OW 5446   1.369   2.812   7.246
 1701SOL    HW1 5447   1.408   2.901   7.266
 1701SOL    HW2 5448   1.379   2.792   7.149
 1702SOL     OW 5449   0.815   2.434   5.911
 1702SOL    HW1 5450   0.822   2.345   5.865
 1702SOL    HW2 5451   0.721   2.468   5.903
 1703SOL     OW 5452   1.657   2.466   6.792
 1703SOL    HW1 5453   1.619   2.397   6.854
 1703SOL    HW2 5454   1.739   2.430   6.748
 1704SOL     OW 5455   0.252   3.426   7.330
 1704SOL    HW1 5456   0.222   3.483   7.406
 1704SOL    HW2 5457   0.245   3.329   7.356
 1705SOL     OW 5458   0.671   2.326   6.855
 1705SOL    HW1 5459   0.637   2.237   6.825
 1705SOL    HW2 5460   0.697   2.380   6.775
 1706SOL     OW 5461   0.930   3.540   7.051
 1706SOL    HW1 5462   0.906   3.522   6.956
 1706SOL    HW2 5463   0.960   3.634   7.061
 1707SOL     OW 5464   0.473   2.362   5.777
 1707SOL    HW1 5465   0.534   2.442   5.781
 1707SOL    HW2 5466   0.378   2.393   5.784
 1708SOL     OW 5467   0.159   2.999   7.052
 1708SOL    HW1 5468   0.181   2.938   7.128
 1708SOL    HW2 5469   0.169   2.950   6.966
 1709SOL     OW 5470   1.347   2.921   6.820
 1709SOL    HW1 5471   1.371   2.858   6.746
 1709SOL    HW2 5472   1.257   2.961   6.802
 1710SOL     OW 5473   1.302   2.717   5.895
 1710SOL    HW1 5474   1.216   2.686   5.937
 1710SOL    HW2 5475   1.298   2.703   5.796
 1711SOL     OW 5476   1.759   3.609   6.740
 1711SOL    HW1 5477   1.820   3.639   6.667
 1711SOL    HW2 5478   1.721   3.520   6.718
 1712SOL     OW 5479   1.252   3.593   6.714
 1712SOL    HW1 5480   1.336   3.598   6.660
 1712SOL    HW2 5481   1.229   3.497   6.732
 1713SOL     OW 5482   0.083   3.120   6.608
 1713SOL    HW1 5483   0.078   3.119   6.708
 1713SOL    HW2 5484   0.000   3.079   6.570
 1714SOL     OW 5485   0.688   3.524   7.302
 1714SOL    HW1 5486   0.632   3.605   7.311
 1714SOL    HW2 5487   0.740   3.528   7.216
 1715SOL     OW 5488   1.726   1.997   6.109
 1715SOL    HW1 5489   1.799   1.980   6.042
 1715SOL    HW2 5490   1.695   1.910   6.147
 1716SOL     OW 5491   1.388   3.435   6.063
 1716SOL    HW1 5492   1.455   3.447   5.989
 1716SOL    HW2 5493   1.348   3.524   6.086
 1717SOL     OW 5494   0.130   3.656   7.437
 1717SOL    HW1 5495   0.089   3.582   7.490
 1717SOL    HW2 5496   0.194   3.707   7.495
 1718SOL     OW 5497   1.280   2.789   6.258
 1718SOL    HW1 5498   1.340   2.708   6.260
 1718SOL    HW2 5499   1.320   2.858   6.198
 1719SOL     OW 5500   0.830   3.135   7.008
 1719SOL    HW1 5501   0.825   3.168   7.103
 1719SOL    HW2 5502   0.744   3.154   6.962
 1720SOL     OW 5503   0.672   3.478   5.740
 1720SOL    HW1 5504   0.681   3.488   5.641
 1720SOL    HW2 5505   0.632   3.389   5.761
 1721SOL     OW 5506   1.650   3.582   6.980
 1721SOL    HW1 5507   1.703   3.592   6.896
 1721SOL    HW2 5508   1.623   3.672   7.014
 1722SOL     OW 5509   1.841   2.037   6.549
 1722SOL    HW1 5510   1.880   1.952   6.513
 1722SOL    HW2 5511   1.743   2.039   6.530
 1723SOL     OW 5512   0.263   2.188   6.306
 1723SOL    HW1 5513   0.184   2.239   6.272
 1723SOL    HW2 5514   0.254   2.173   6.404
 1724SOL     OW 5515   1.194   3.474   5.617
 1724SOL    HW1 5516   1.200   3.381   5.654
 1724SOL    HW2 5517   1.135   3.474   5.537
 1725SOL     OW 5518   0.822   2.864   6.958
 1725SOL    HW1 5519   0.862   2.863   6.866
 1725SOL    HW2 5520   0.832   2.956   6.998
 1726SOL     OW 5521   1.504   3.469   5.630
 1726SOL    HW1 5522   1.412   3.506   5.637
 1726SOL    HW2 5523   1.542   3.489   5.540
 1727SOL     OW 5524   0.372   3.150   7.076
 1727SOL    HW1 5525   0.359   3.243   7.042
 1727SOL    HW2 5526   0.288   3.098   7.063
 1728SOL     OW 5527   1.614   3.154   6.875
 1728SOL    HW1 5528   1.674   3.157   6.955
 1728SOL    HW2 5529   1.539   3.218   6.888
 1729SOL     OW 5530   1.039   2.960   6.282
 1729SOL    HW1 5531   0.969   2.913   6.336
 1729SOL    HW2 5532   1.098   2.892   6.239
 1730SOL     OW 5533   1.014   2.098   6.557
 1730SOL    HW1 5534   1.006   2.062   6.464
 1730SOL    HW2 5535   1.012   2.022   6.622
 1731SOL     OW 5536   0.590   3.349   6.077
 1731SOL    HW1 5537   0.632   3.291   6.007
 1731SOL    HW2 5538   0.546   3.428   6.033
 1732SOL     OW 5539   1.709   2.247   6.967
 1732SOL    HW1 5540   1.782   2.316   6.971
 1732SOL    HW2 5541   1.737   2.172   6.908
 1733SOL     OW 5542   0.255   3.210   5.876
 1733SOL    HW1 5543   0.159   3.211   5.849
 1733SOL    HW2 5544   0.267   3.263   5.960
 1734SOL     OW 5545   0.105   2.875   7.312
 1734SOL    HW1 5546   0.028   2.842   7.366
 1734SOL    HW2 5547   0.190   2.845   7.354
 1735SOL     OW 5548   0.672   2.065   7.075
 1735SOL    HW1 5549   0.762   2.049   7.035
 1735SOL    HW2 5550   0.680   2.070   7.174
 1736SOL     OW 5551   0.075   2.207   5.619
 1736SOL    HW1 5552  -0.017   2.179   5.590
 1736SOL    HW2 5553   0.106   2.284   5.563
 1737SOL     OW 5554   1.440   2.718   6.984
 1737SOL    HW1 5555   1.383   2.770   6.921
 1737SOL    HW2 5556   1.536   2.730   6.960
 1738SOL     OW 5557   0.072   2.028   5.904
 1738SOL    HW1 5558   0.055   2.111   5.850
 1738SOL    HW2 5559   0.162   1.991   5.882
 1739SOL     OW 5560   1.183   3.197   5.705
 1739SOL    HW1 5561   1.084   3.186   5.707
 1739SOL    HW2 5562   1.217   3.212   5.798
 1740SOL     OW 5563   0.613   2.704   7.017
 1740SOL    HW1 5564   0.669   2.785   7.000
 1740SOL    HW2 5565   0.672   2.624   7.020
 1741SOL     OW 5566   0.716   2.427   7.294
 1741SOL    HW1 5567   0.735   2.492   7.368
 1741SOL    HW2 5568   0.776   2.347   7.303
 1742SOL     OW 5569   1.450   3.082   7.219
 1742SOL    HW1 5570   1.441   3.072   7.318
 1742SOL    HW2 5571   1.546   3.075   7.193
 1743SOL     OW 5572   0.390   3.603   7.146
 1743SOL    HW1 5573   0.299   3.644   7.144
 1743SOL    HW2 5574   0.383   3.509   7.178
 1744SOL     OW 5575   1.674   2.745   6.840
 1744SOL    HW1 5576   1.647   2.656   6.803
 1744SOL    HW2 5577   1.675   2.813   6.767
 1745SOL     OW 5578   1.225   2.187   6.035
 1745SOL    HW1 5579   1.290   2.113   6.024
 1745SOL    HW2 5580   1.245   2.237   6.119
 1746SOL     OW 5581   0.594   2.607   6.238
 1746SOL    HW1 5582   0.644   2.692   6.219
 1746SOL    HW2 5583   0.506   2.609   6.190
 1747SOL     OW 5584   1.777   2.204   7.228
 1747SOL    HW1 5585   1.760   2.235   7.134
 1747SOL    HW2 5586   1.693   2.167   7.266
 1748SOL     OW 5587   1.730   2.796   7.103
 1748SOL    HW1 5588   1.768   2.887   7.118
 1748SOL    HW2 5589   1.722   2.779   7.004
 1749SOL     OW 5590   0.859   3.236   5.602
 1749SOL    HW1 5591   0.813   3.251   5.690
 1749SOL    HW2 5592   0.903   3.321   5.572
 1750SOL     OW 5593   0.661   3.652   6.539
 1750SOL    HW1 5594   0.615   3.740   6.526
 1750SOL    HW2 5595   0.760   3.664   6.532
 1751SOL     OW 5596   0.859   2.818   6.447
 1751SOL    HW1 5597   0.913   2.749   6.495
 1751SOL    HW2 5598   0.827   2.887   6.513
 1752SOL     OW 5599   1.083   2.846   5.673
 1752SOL    HW1 5600   1.060   2.899   5.591
 1752SOL    HW2 5601   1.164   2.790   5.654
 1753SOL     OW 5602   1.861   3.431   6.437
 1753SOL    HW1 5603   1.790   3.419   6.367
 1753SOL    HW2 5604   1.862   3.352   6.497
 1754SOL     OW 5605   0.221   3.176   7.430
 1754SOL    HW1 5606   0.156   3.103   7.409
 1754SOL    HW2 5607   0.225   3.190   7.528
 1755SOL     OW 5608   0.079   3.102   6.239
 1755SOL    HW1 5609   0.078   3.055   6.327
 1755SOL    HW2 5610   0.161   3.074   6.188
 1756SOL     OW 5611   0.672   3.253   7.210
 1756SOL    HW1 5612   0.594   3.203   7.248
 1756SOL    HW2 5613   0.669   3.348   7.241
 1757SOL     OW 5614   1.824   2.054   6.813
 1757SOL    HW1 5615   1.820   1.964   6.857
 1757SOL    HW2 5616   1.827   2.043   6.714
 1758SOL     OW 5617   0.428   2.286   6.106
 1758SOL    HW1 5618   0.458   2.214   6.044
 1758SOL    HW2 5619   0.389   2.246   6.189
 1759SOL     OW 5620   1.705   3.349   6.690
 1759SOL    HW1 5621   1.612   3.324   6.663
 1759SOL    HW2 5622   1.731   3.299   6.772
 1760SOL     OW 5623   0.317   2.409   6.866
 1760SOL    HW1 5624   0.355   2.350   6.938
 1760SOL    HW2 5625   0.357   2.383   6.778
 1761SOL     OW 5626   0.812   3.448   6.273
 1761SOL    HW1 5627   0.844   3.458   6.179
 1761SOL    HW2 5628   0.733   3.386   6.275
 1762SOL     OW 5629   1.424   2.076   6.698
 1762SOL    HW1 5630   1.476   2.011   6.753
 1762SOL    HW2 5631   1.375   2.139   6.759
 1763SOL     OW 5632   1.001   1.896   6.740
 1763SOL    HW1 5633   0.938   1.824   6.709
 1763SOL    HW2 5634   1.094   1.860   6.740
 1764SOL     OW 5635   0.770   3.192   5.887
 1764SOL    HW1 5636   0.724   3.105   5.904
 1764SOL    HW2 5637   0.861   3.189   5.928
 1765SOL     OW 5638   0.618   3.429   6.870
 1765SOL    HW1 5639   0.613   3.511   6.927
 1765SOL    HW2 5640   0.707   3.426   6.825
 1766SOL     OW 5641   1.352   1.914   5.754
 1766SOL    HW1 5642   1.387   1.873   5.670
 1766SOL    HW2 5643   1.262   1.876   5.774
 1767SOL     OW 5644   1.300   2.315   6.277
 1767SOL    HW1 5645   1.241   2.395   6.281
 1767SOL    HW2 5646   1.315   2.280   6.370
 1768SOL     OW 5647   1.593   2.083   6.468
 1768SOL    HW1 5648   1.509   2.082   6.522
 1768SOL    HW2 5649   1.595   2.166   6.412
 1769SOL     OW 5650   0.039   2.939   5.886
 1769SOL    HW1 5651   0.138   2.928   5.877
 1769SOL    HW2 5652  -0.001   2.853   5.918
 1770SOL     OW 5653   0.875   3.508   5.923
 1770SOL    HW1 5654   0.798   3.473   5.869
 1770SOL    HW2 5655   0.843   3.579   5.985
 1771SOL     OW 5656   0.230   2.490   7.561
 1771SOL    HW1 5657   0.137   2.488   7.598
 1771SOL    HW2 5658   0.231   2.451   7.469
 1772SOL     OW 5659   1.755   2.469   7.679
 1772SOL    HW1 5660   1.743   2.456   7.580
 1772SOL    HW2 5661   1.725   2.388   7.728
 1773SOL     OW 5662   0.231   3.575   7.931
 1773SOL    HW1 5663   0.265   3.652   7.985
 1773SOL    HW2 5664   0.275   3.575   7.841
 1774SOL     OW 5665   0.606   2.826   7.571
 1774SOL    HW1 5666   0.613   2.910   7.517
 1774SOL    HW2 5667   0.652   2.839   7.659
 1775SOL     OW 5668   1.842   3.629   7.807
 1775SOL    HW1 5669   1.896   3.600   7.887
 1775SOL    HW2 5670   1.872   3.719   7.778
 1776SOL     OW 5671   0.027   3.458   7.565
 1776SOL    HW1 5672   0.008   3.362   7.586
 1776SOL    HW2 5673  -0.006   3.516   7.640
 1777SOL     OW 5674   1.641   2.970   7.880
 1777SOL    HW1 5675   1.727   2.972   7.828
 1777SOL    HW2 5676   1.655   3.017   7.968
 1778SOL     OW 5677   0.809   1.866   7.950
 1778SOL    HW1 5678   0.849   1.957   7.941
 1778SOL    HW2 5679   0.709   1.874   7.956
 1779SOL     OW 5680   1.525   2.861   7.638
 1779SOL    HW1 5681   1.462   2.785   7.651
 1779SOL    HW2 5682   1.573   2.879   7.724
 1780SOL     OW 5683   1.667   3.576   8.020
 1780SOL    HW1 5684   1.626   3.553   7.932
 1780SOL    HW2 5685   1.649   3.502   8.085
 1781SOL     OW 5686   0.598   2.591   7.718
 1781SOL    HW1 5687   0.622   2.660   7.650
 1781SOL    HW2 5688   0.520   2.624   7.772
 1782SOL     OW 5689   1.576   3.524   7.755
 1782SOL    HW1 5690   1.665   3.570   7.758
 1782SOL    HW2 5691   1.555   3.500   7.660
 1783SOL     OW 5692   1.041   2.563   7.877
 1783SOL    HW1 5693   1.067   2.559   7.973
 1783SOL    HW2 5694   0.956   2.512   7.863
 1784SOL     OW 5695   0.865   2.210   7.643
 1784SOL    HW1 5696   0.924   2.273   7.594
 1784SOL    HW2 5697   0.884   2.116   7.614
 1785SOL     OW 5698   1.362   3.006   7.993
 1785SOL    HW1 5699   1.445   2.977   7.945
 1785SOL    HW2 5700   1.313   3.073   7.937
 1786SOL     OW 5701   1.008   3.318   7.925
 1786SOL    HW1 5702   0.962   3.390   7.873
 1786SOL    HW2 5703   1.004   3.338   8.023
 1787SOL     OW 5704   0.321   2.805   7.690
 1787SOL    HW1 5705   0.403   2.844   7.648
 1787SOL    HW2 5706   0.294   2.723   7.641
 1788SOL     OW 5707   1.111   3.638   7.685
 1788SOL    HW1 5708   1.051   3.576   7.735
 1788SOL    HW2 5709   1.142   3.594   7.600
 1789SOL     OW 5710   1.632   3.239   7.529
 1789SOL    HW1 5711   1.600   3.333   7.519
 1789SOL    HW2 5712   1.556   3.176   7.517
 1790SOL     OW 5713   0.464   3.605   7.771
 1790SOL    HW1 5714   0.497   3.644   7.857
 1790SOL    HW2 5715   0.540   3.598   7.706
 1791SOL     OW 5716   1.400   1.969   7.874
 1791SOL    HW1 5717   1.376   1.932   7.784
 1791SOL    HW2 5718   1.499   1.985   7.878
 1792SOL     OW 5719   0.382   2.562   7.928
 1792SOL    HW1 5720   0.427   2.472   7.925
 1792SOL    HW2 5721   0.288   2.551   7.961
 1793SOL     OW 5722   0.614   1.984   7.565
 1793SOL    HW1 5723   0.712   1.962   7.572
 1793SOL    HW2 5724   0.583   1.967   7.472
 1794SOL     OW 5725   0.539   1.926   7.960
 1794SOL    HW1 5726   0.458   1.927   8.018
 1794SOL    HW2 5727   0.542   2.009   7.905
 1795SOL     OW 5728   1.434   3.050   7.489
 1795SOL    HW1 5729   1.466   2.974   7.546
 1795SOL    HW2 5730   1.342   3.077   7.519
 1796SOL     OW 5731   0.297   1.897   7.619
 1796SOL    HW1 5732   0.346   1.981   7.598
 1796SOL    HW2 5733   0.359   1.832   7.664
 1797SOL     OW 5734   0.935   2.098   7.928
 1797SOL    HW1 5735   0.887   2.139   7.850
 1797SOL    HW2 5736   1.034   2.096   7.909
 1798SOL     OW 5737   1.032   2.411   7.464
 1798SOL    HW1 5738   0.991   2.493   7.425
 1798SOL    HW2 5739   1.096   2.437   7.537
 1799SOL     OW 5740   1.857   2.695   7.825
 1799SOL    HW1 5741   1.899   2.631   7.889
 1799SOL    HW2 5742   1.819   2.644   7.747
 1800SOL     OW 5743   0.488   3.247   7.622
 1800SOL    HW1 5744   0.401   3.232   7.669
 1800SOL    HW2 5745   0.471   3.273   7.527
 1801SOL     OW 5746   1.390   2.437   7.526
 1801SOL    HW1 5747   1.336   2.416   7.607
 1801SOL    HW2 5748   1.481   2.396   7.535
 1802SOL     OW 5749   0.527   2.118   7.776
 1802SOL    HW1 5750   0.554   2.059   7.701
 1802SOL    HW2 5751   0.527   2.213   7.745
 1803SOL     OW 5752   0.705   2.912   7.816
 1803SOL    HW1 5753   0.691   2.919   7.915
 1803SOL    HW2 5754   0.789   2.861   7.798
 1804SOL     OW 5755   0.367   2.962   7.949
 1804SOL    HW1 5756   0.360   3.045   7.893
 1804SOL    HW2 5757   0.371   2.882   7.889
 1805SOL     OW 5758   1.252   3.210   7.836
 1805SOL    HW1 5759   1.302   3.287   7.876
 1805SOL    HW2 5760   1.157   3.212   7.868
 1806SOL     OW 5761   1.582   2.501   7.920
 1806SOL    HW1 5762   1.551   2.562   7.993
 1806SOL    HW2 5763   1.632   2.553   7.851
 1807SOL     OW 5764   1.209   2.387   7.723
 1807SOL    HW1 5765   1.222   2.303   7.777
 1807SOL    HW2 5766   1.180   2.461   7.783
 1808SOL     OW 5767   1.622   2.229   7.822
 1808SOL    HW1 5768   1.624   2.153   7.886
 1808SOL    HW2 5769   1.574   2.306   7.862
 1809SOL     OW 5770   1.540   2.136   7.573
 1809SOL    HW1 5771   1.479   2.061   7.596
 1809SOL    HW2 5772   1.562   2.188   7.656
 1810SOL     OW 5773   1.303   2.700   7.490
 1810SOL    HW1 5774   1.337   2.607   7.505
 1810SOL    HW2 5775   1.321   2.727   7.395
 1811SOL     OW 5776   0.008   3.188   7.648
 1811SOL    HW1 5777  -0.085   3.209   7.617
 1811SOL    HW2 5778   0.018   3.089   7.661
 1812SOL     OW 5779   0.815   2.434   7.773
 1812SOL    HW1 5780   0.822   2.345   7.727
 1812SOL    HW2 5781   0.721   2.468   7.765
 1813SOL     OW 5782   0.473   2.362   7.639
 1813SOL    HW1 5783   0.534   2.442   7.643
 1813SOL    HW2 5784   0.378   2.393   7.646
 1814SOL     OW 5785   1.302   2.717   7.757
 1814SOL    HW1 5786   1.216   2.686   7.799
 1814SOL    HW2 5787   1.298   2.703   7.658
 1815SOL     OW 5788   1.726   1.997   7.971
 1815SOL    HW1 5789   1.799   1.980   7.904
 1815SOL    HW2 5790   1.695   1.910   8.009
 1816SOL     OW 5791   1.388   3.435   7.925
 1816SOL    HW1 5792   1.455   3.447   7.851
 1816SOL    HW2 5793   1.348   3.524   7.948
 1817SOL     OW 5794   0.672   3.478   7.602
 1817SOL    HW1 5795   0.681   3.488   7.503
 1817SOL    HW2 5796   0.632   3.389   7.623
 1818SOL     OW 5797   1.194   3.474   7.479
 1818SOL    HW1 5798   1.200   3.381   7.516
 1818SOL    HW2 5799   1.135   3.474   7.399
 1819SOL     OW 5800   0.916   2.772   7.739
 1819SOL    HW1 5801   0.979   2.810   7.671
 1819SOL    HW2 5802   0.956   2.689   7.778
 1820SOL     OW 5803   1.504   3.469   7.492
 1820SOL    HW1 5804   1.412   3.506   7.499
 1820SOL    HW2 5805   1.542   3.489   7.402
 1821SOL     OW 5806   0.590   3.349   7.939
 1821SOL    HW1 5807   0.632   3.291   7.869
 1821SOL    HW2 5808   0.546   3.428   7.895
 1822SOL     OW 5809   0.255   3.210   7.738
 1822SOL    HW1 5810   0.159   3.211   7.711
 1822SOL    HW2 5811   0.267   3.263   7.822
 1823SOL     OW 5812   0.075   2.207   7.481
 1823SOL    HW1 5813  -0.017   2.179   7.452
 1823SOL    HW2 5814   0.106   2.284   7.425
 1824SOL     OW 5815   0.072   2.028   7.766
 1824SOL    HW1 5816   0.055   2.111   7.712
 1824SOL    HW2 5817   0.162   1.991   7.744
 1825SOL     OW 5818   1.183   3.197   7.567
 1825SOL    HW1 5819   1.084   3.186   7.569
 1825SOL    HW2 5820   1.217   3.212   7.660
 1826SOL     OW 5821   1.225   2.187   7.897
 1826SOL    HW1 5822   1.290   2.113   7.886
 1826SOL    HW2 5823   1.245   2.237   7.981
 1827SOL     OW 5824   0.859   3.236   7.464
 1827SOL    HW1 5825   0.813   3.251   7.552
 1827SOL    HW2 5826   0.903   3.321   7.434
 1828SOL     OW 5827   1.083   2.846   7.535
 1828SOL    HW1 5828   1.060   2.899   7.453
 1828SOL    HW2 5829   1.164   2.790   7.516
 1829SOL     OW 5830   0.428   2.286   7.968
 1829SOL    HW1 5831   0.458   2.214   7.906
 1829SOL    HW2 5832   0.389   2.246   8.051
 1830SOL     OW 5833   0.770   3.192   7.749
 1830SOL    HW1 5834   0.724   3.105   7.766
 1830SOL    HW2 5835   0.861   3.189   7.790
 1831SOL     OW 5836   1.352   1.914   7.616
 1831SOL    HW1 5837   1.387   1.873   7.532
 1831SOL    HW2 5838   1.262   1.876   7.636
 1832SOL     OW 5839   0.039   2.939   7.748
 1832SOL    HW1 5840   0.138   2.928   7.739
 1832SOL    HW2 5841  -0.001   2.853   7.780
 1833SOL     OW 5842   0.875   3.508   7.785
 1833SOL    HW1 5843   0.798   3.473   7.731
 1833SOL    HW2 5844   0.843   3.579   7.847
 1834SOL     OW 5845   0.230   4.352   0.113
 1834SOL    HW1 5846   0.137   4.350   0.150
 1834SOL    HW2 5847   0.231   4.313   0.021
 1835SOL     OW 5848   0.225   3.999   0.996
 1835SOL    HW1 5849   0.260   3.982   1.088
 1835SOL    HW2 5850   0.137   3.954   0.984
 1836SOL     OW 5851   0.019   4.092   0.647
 1836SOL    HW1 5852  -0.063   4.135   0.686
 1836SOL    HW2 5853  -0.009   4.019   0.584
 1837SOL     OW 5854   0.569   4.999   1.165
 1837SOL    HW1 5855   0.476   4.992   1.128
 1837SOL    HW2 5856   0.580   5.088   1.209
 1838SOL     OW 5857   1.555   5.235   0.703
 1838SOL    HW1 5858   1.498   5.219   0.784
 1838SOL    HW2 5859   1.496   5.245   0.623
 1839SOL     OW 5860   1.135   4.427   0.717
 1839SOL    HW1 5861   1.192   4.505   0.692
 1839SOL    HW2 5862   1.075   4.453   0.793
 1840SOL     OW 5863   1.755   4.331   0.231
 1840SOL    HW1 5864   1.743   4.318   0.132
 1840SOL    HW2 5865   1.725   4.250   0.280
 1841SOL     OW 5866   0.768   4.868   1.023
 1841SOL    HW1 5867   0.690   4.885   1.083
 1841SOL    HW2 5868   0.802   4.955   0.987
 1842SOL     OW 5869   0.850   4.522   1.823
 1842SOL    HW1 5870   0.846   4.598   1.888
 1842SOL    HW2 5871   0.872   4.558   1.732
 1843SOL     OW 5872   0.685   4.736   0.665
 1843SOL    HW1 5873   0.754   4.720   0.735
 1843SOL    HW2 5874   0.612   4.793   0.703
 1844SOL     OW 5875   0.686   4.885   1.803
 1844SOL    HW1 5876   0.746   4.964   1.817
 1844SOL    HW2 5877   0.600   4.916   1.762
 1845SOL     OW 5878   0.335   5.159   1.061
 1845SOL    HW1 5879   0.257   5.128   1.008
 1845SOL    HW2 5880   0.393   5.217   1.004
 1846SOL     OW 5881   1.460   5.229   1.339
 1846SOL    HW1 5882   1.484   5.323   1.365
 1846SOL    HW2 5883   1.444   5.175   1.421
 1847SOL     OW 5884   0.438   4.116   1.499
 1847SOL    HW1 5885   0.520   4.060   1.508
 1847SOL    HW2 5886   0.357   4.058   1.503
 1848SOL     OW 5887   1.603   4.171   0.737
 1848SOL    HW1 5888   1.529   4.217   0.687
 1848SOL    HW2 5889   1.654   4.239   0.790
 1849SOL     OW 5890   0.231   5.437   0.483
 1849SOL    HW1 5891   0.265   5.514   0.537
 1849SOL    HW2 5892   0.275   5.437   0.393
 1850SOL     OW 5893   1.127   5.065   1.690
 1850SOL    HW1 5894   1.174   5.065   1.778
 1850SOL    HW2 5895   1.079   4.978   1.679
 1851SOL     OW 5896   0.230   5.158   0.538
 1851SOL    HW1 5897   0.204   5.254   0.538
 1851SOL    HW2 5898   0.159   5.104   0.583
 1852SOL     OW 5899   0.240   4.815   0.886
 1852SOL    HW1 5900   0.254   4.731   0.938
 1852SOL    HW2 5901   0.185   4.879   0.941
 1853SOL     OW 5902   0.620   5.510   1.439
 1853SOL    HW1 5903   0.528   5.493   1.474
 1853SOL    HW2 5904   0.648   5.602   1.465
 1854SOL     OW 5905   0.606   4.688   0.123
 1854SOL    HW1 5906   0.613   4.772   0.069
 1854SOL    HW2 5907   0.652   4.701   0.211
 1855SOL     OW 5908   1.594   3.838   1.480
 1855SOL    HW1 5909   1.576   3.905   1.408
 1855SOL    HW2 5910   1.591   3.884   1.569
 1856SOL     OW 5911   0.122   4.367   0.563
 1856SOL    HW1 5912   0.077   4.279   0.580
 1856SOL    HW2 5913   0.121   4.421   0.647
 1857SOL     OW 5914   1.842   5.491   0.359
 1857SOL    HW1 5915   1.896   5.462   0.439
 1857SOL    HW2 5916   1.872   5.581   0.330
 1858SOL     OW 5917   0.027   5.320   0.117
 1858SOL    HW1 5918   0.008   5.224   0.138
 1858SOL    HW2 5919  -0.006   5.378   0.192
 1859SOL     OW 5920   1.689   4.646   0.612
 1859SOL    HW1 5921   1.784   4.617   0.620
 1859SOL    HW2 5922   1.681   4.711   0.537
 1860SOL     OW 5923   1.641   4.832   0.432
 1860SOL    HW1 5924   1.727   4.834   0.380
 1860SOL    HW2 5925   1.655   4.879   0.520
 1861SOL     OW 5926   0.113   4.461   1.597
 1861SOL    HW1 5927   0.201   4.448   1.642
 1861SOL    HW2 5928   0.100   4.558   1.575
 1862SOL     OW 5929   0.613   5.089   0.726
 1862SOL    HW1 5930   0.564   5.002   0.735
 1862SOL    HW2 5931   0.590   5.132   0.639
 1863SOL     OW 5932   1.293   4.952   1.423
 1863SOL    HW1 5933   1.330   4.879   1.365
 1863SOL    HW2 5934   1.345   4.957   1.508
 1864SOL     OW 5935   0.809   3.728   0.502
 1864SOL    HW1 5936   0.849   3.819   0.493
 1864SOL    HW2 5937   0.709   3.736   0.508
 1865SOL     OW 5938   0.197   4.700   1.264
 1865SOL    HW1 5939   0.286   4.655   1.250
 1865SOL    HW2 5940   0.124   4.635   1.245
 1866SOL     OW 5941   1.525   4.723   0.190
 1866SOL    HW1 5942   1.462   4.647   0.203
 1866SOL    HW2 5943   1.573   4.741   0.276
 1867SOL     OW 5944   1.187   5.516   1.616
 1867SOL    HW1 5945   1.211   5.576   1.540
 1867SOL    HW2 5946   1.194   5.421   1.586
 1868SOL     OW 5947   0.317   3.975   1.801
 1868SOL    HW1 5948   0.388   4.046   1.807
 1868SOL    HW2 5949   0.229   4.014   1.829
 1869SOL     OW 5950   1.466   5.141   0.953
 1869SOL    HW1 5951   1.407   5.147   1.033
 1869SOL    HW2 5952   1.451   5.053   0.907
 1870SOL     OW 5953   1.667   5.438   0.572
 1870SOL    HW1 5954   1.626   5.415   0.484
 1870SOL    HW2 5955   1.649   5.364   0.637
 1871SOL     OW 5956   0.598   4.453   0.270
 1871SOL    HW1 5957   0.622   4.522   0.202
 1871SOL    HW2 5958   0.520   4.486   0.324
 1872SOL     OW 5959   1.281   4.069   0.944
 1872SOL    HW1 5960   1.195   4.019   0.931
 1872SOL    HW2 5961   1.343   4.015   1.000
 1873SOL     OW 5962   1.576   5.386   0.307
 1873SOL    HW1 5963   1.665   5.432   0.310
 1873SOL    HW2 5964   1.555   5.362   0.212
 1874SOL     OW 5965   0.807   4.329   1.465
 1874SOL    HW1 5966   0.760   4.326   1.554
 1874SOL    HW2 5967   0.756   4.274   1.399
 1875SOL     OW 5968   1.394   4.193   1.674
 1875SOL    HW1 5969   1.374   4.236   1.762
 1875SOL    HW2 5970   1.472   4.131   1.683
 1876SOL     OW 5971   0.973   4.614   1.572
 1876SOL    HW1 5972   1.019   4.530   1.543
 1876SOL    HW2 5973   0.917   4.648   1.497
 1877SOL     OW 5974   0.991   4.134   1.242
 1877SOL    HW1 5975   0.914   4.168   1.296
 1877SOL    HW2 5976   0.957   4.083   1.163
 1878SOL     OW 5977   1.041   4.425   0.429
 1878SOL    HW1 5978   1.067   4.421   0.525
 1878SOL    HW2 5979   0.956   4.374   0.415
 1879SOL     OW 5980   0.076   4.535   0.789
 1879SOL    HW1 5981   0.175   4.523   0.798
 1879SOL    HW2 5982   0.052   4.630   0.810
 1880SOL     OW 5983   0.130   5.545   1.571
 1880SOL    HW1 5984   0.120   5.530   1.670
 1880SOL    HW2 5985   0.044   5.581   1.535
 1881SOL     OW 5986   0.865   4.072   0.195
 1881SOL    HW1 5987   0.924   4.135   0.146
 1881SOL    HW2 5988   0.884   3.978   0.166
 1882SOL     OW 5989   1.719   4.309   1.831
 1882SOL    HW1 5990   1.693   4.398   1.795
 1882SOL    HW2 5991   1.717   4.241   1.758
 1883SOL     OW 5992   1.362   4.868   0.545
 1883SOL    HW1 5993   1.445   4.839   0.497
 1883SOL    HW2 5994   1.313   4.935   0.489
 1884SOL     OW 5995   0.550   3.920   0.885
 1884SOL    HW1 5996   0.545   3.915   0.985
 1884SOL    HW2 5997   0.552   4.016   0.856
 1885SOL     OW 5998   1.008   5.180   0.477
 1885SOL    HW1 5999   0.962   5.252   0.425
 1885SOL    HW2 6000   1.004   5.200   0.575
 1886SOL     OW 6001   0.351   5.525   0.853
 1886SOL    HW1 6002   0.401   5.439   0.859
 1886SOL    HW2 6003   0.416   5.602   0.850
 1887SOL     OW 6004   1.795   4.790   0.873
 1887SOL    HW1 6005   1.733   4.775   0.797
 1887SOL    HW2 6006   1.743   4.801   0.958
 1888SOL     OW 6007   1.227   5.274   1.506
 1888SOL    HW1 6008   1.233   5.197   1.570
 1888SOL    HW2 6009   1.175   5.248   1.426
 1889SOL     OW 6010   0.321   4.667   0.242
 1889SOL    HW1 6011   0.403   4.706   0.200
 1889SOL    HW2 6012   0.294   4.585   0.193
 1890SOL     OW 6013   1.458   4.459   0.728
 1890SOL    HW1 6014   1.453   4.394   0.803
 1890SOL    HW2 6015   1.538   4.518   0.741
 1891SOL     OW 6016   0.461   4.990   1.727
 1891SOL    HW1 6017   0.411   4.991   1.641
 1891SOL    HW2 6018   0.398   4.972   1.803
 1892SOL     OW 6019   0.202   4.009   1.498
 1892SOL    HW1 6020   0.122   4.069   1.485
 1892SOL    HW2 6021   0.192   3.960   1.584
 1893SOL     OW 6022   0.464   5.467   0.323
 1893SOL    HW1 6023   0.497   5.506   0.409
 1893SOL    HW2 6024   0.540   5.460   0.258
 1894SOL     OW 6025   1.400   3.831   0.426
 1894SOL    HW1 6026   1.376   3.794   0.336
 1894SOL    HW2 6027   1.499   3.847   0.430
 1895SOL     OW 6028   0.249   5.509   1.241
 1895SOL    HW1 6029   0.306   5.444   1.291
 1895SOL    HW2 6030   0.233   5.476   1.148
 1896SOL     OW 6031   0.940   5.422   0.904
 1896SOL    HW1 6032   1.020   5.365   0.925
 1896SOL    HW2 6033   0.891   5.382   0.827
 1897SOL     OW 6034   0.382   4.424   0.480
 1897SOL    HW1 6035   0.427   4.334   0.477
 1897SOL    HW2 6036   0.288   4.413   0.513
 1898SOL     OW 6037   1.547   3.946   1.729
 1898SOL    HW1 6038   1.542   3.983   1.821
 1898SOL    HW2 6039   1.475   3.877   1.717
 1899SOL     OW 6040   0.614   3.846   0.117
 1899SOL    HW1 6041   0.712   3.824   0.124
 1899SOL    HW2 6042   0.583   3.829   0.024
 1900SOL     OW 6043   0.781   3.988   1.749
 1900SOL    HW1 6044   0.848   3.927   1.792
 1900SOL    HW2 6045   0.708   4.007   1.814
 1901SOL     OW 6046   0.888   5.238   1.195
 1901SOL    HW1 6047   0.865   5.213   1.101
 1901SOL    HW2 6048   0.949   5.169   1.234
 1902SOL     OW 6049   1.351   4.314   1.433
 1902SOL    HW1 6050   1.379   4.271   1.518
 1902SOL    HW2 6051   1.376   4.410   1.434
 1903SOL     OW 6052   0.803   5.126   0.924
 1903SOL    HW1 6053   0.893   5.140   0.882
 1903SOL    HW2 6054   0.732   5.128   0.853
 1904SOL     OW 6055   0.922   4.227   0.899
 1904SOL    HW1 6056   0.897   4.218   0.803
 1904SOL    HW2 6057   0.970   4.145   0.930
 1905SOL     OW 6058   0.539   3.788   0.512
 1905SOL    HW1 6059   0.458   3.789   0.570
 1905SOL    HW2 6060   0.542   3.871   0.457
 1906SOL     OW 6061   1.434   4.912   0.041
 1906SOL    HW1 6062   1.466   4.836   0.098
 1906SOL    HW2 6063   1.342   4.939   0.071
 1907SOL     OW 6064   0.297   3.759   0.171
 1907SOL    HW1 6065   0.346   3.843   0.150
 1907SOL    HW2 6066   0.359   3.694   0.216
 1908SOL     OW 6067   0.935   3.960   0.480
 1908SOL    HW1 6068   0.887   4.001   0.402
 1908SOL    HW2 6069   1.034   3.958   0.461
 1909SOL     OW 6070   1.076   4.407   1.464
 1909SOL    HW1 6071   0.996   4.346   1.467
 1909SOL    HW2 6072   1.157   4.354   1.440
 1910SOL     OW 6073   1.227   5.294   0.793
 1910SOL    HW1 6074   1.248   5.368   0.728
 1910SOL    HW2 6075   1.295   5.294   0.866
 1911SOL     OW 6076   0.459   4.876   0.741
 1911SOL    HW1 6077   0.388   4.849   0.806
 1911SOL    HW2 6078   0.433   4.848   0.648
 1912SOL     OW 6079   1.271   5.521   0.591
 1912SOL    HW1 6080   1.315   5.585   0.527
 1912SOL    HW2 6081   1.221   5.573   0.661
 1913SOL     OW 6082   1.032   4.273   0.016
 1913SOL    HW1 6083   0.991   4.355  -0.023
 1913SOL    HW2 6084   1.096   4.299   0.089
 1914SOL     OW 6085   0.078   4.280   1.386
 1914SOL    HW1 6086   0.170   4.279   1.345
 1914SOL    HW2 6087   0.072   4.354   1.453
 1915SOL     OW 6088   0.561   3.946   1.147
 1915SOL    HW1 6089   0.599   3.862   1.184
 1915SOL    HW2 6090   0.473   3.965   1.191
 1916SOL     OW 6091   0.866   4.178   0.642
 1916SOL    HW1 6092   0.834   4.250   0.580
 1916SOL    HW2 6093   0.890   4.097   0.589
 1917SOL     OW 6094   1.017   3.763   0.753
 1917SOL    HW1 6095   0.945   3.768   0.684
 1917SOL    HW2 6096   0.993   3.694   0.822
 1918SOL     OW 6097   1.429   4.897   0.867
 1918SOL    HW1 6098   1.374   4.813   0.860
 1918SOL    HW2 6099   1.455   4.926   0.775
 1919SOL     OW 6100   1.466   4.314   0.992
 1919SOL    HW1 6101   1.436   4.219   0.999
 1919SOL    HW2 6102   1.539   4.330   1.058
 1920SOL     OW 6103   1.857   4.557   0.377
 1920SOL    HW1 6104   1.899   4.493   0.441
 1920SOL    HW2 6105   1.819   4.506   0.299
 1921SOL     OW 6106   0.488   5.109   0.174
 1921SOL    HW1 6107   0.401   5.094   0.221
 1921SOL    HW2 6108   0.471   5.135   0.079
 1922SOL     OW 6109   1.664   5.004   0.657
 1922SOL    HW1 6110   1.763   5.012   0.671
 1922SOL    HW2 6111   1.619   5.088   0.688
 1923SOL     OW 6112   1.390   4.299   0.078
 1923SOL    HW1 6113   1.336   4.278   0.159
 1923SOL    HW2 6114   1.481   4.258   0.087
 1924SOL     OW 6115   0.527   3.980   0.328
 1924SOL    HW1 6116   0.554   3.921   0.253
 1924SOL    HW2 6117   0.527   4.075   0.297
 1925SOL     OW 6118   1.754   4.947   1.588
 1925SOL    HW1 6119   1.845   4.908   1.575
 1925SOL    HW2 6120   1.762   5.043   1.612
 1926SOL     OW 6121   1.064   5.071   1.340
 1926SOL    HW1 6122   0.984   5.048   1.395
 1926SOL    HW2 6123   1.147   5.045   1.389
 1927SOL     OW 6124   1.592   5.353   1.625
 1927SOL    HW1 6125   1.619   5.387   1.535
 1927SOL    HW2 6126   1.671   5.315   1.671
 1928SOL     OW 6127   1.111   4.919   1.100
 1928SOL    HW1 6128   1.071   4.963   1.181
 1928SOL    HW2 6129   1.070   4.956   1.017
 1929SOL     OW 6130   1.638   4.823   1.079
 1929SOL    HW1 6131   1.643   4.904   1.138
 1929SOL    HW2 6132   1.552   4.825   1.028
 1930SOL     OW 6133   0.915   3.813   1.402
 1930SOL    HW1 6134   0.940   3.793   1.307
 1930SOL    HW2 6135   0.987   3.869   1.444
 1931SOL     OW 6136   0.980   4.840   1.719
 1931SOL    HW1 6137   0.881   4.846   1.729
 1931SOL    HW2 6138   1.003   4.760   1.663
 1932SOL     OW 6139   0.705   4.774   0.368
 1932SOL    HW1 6140   0.691   4.781   0.467
 1932SOL    HW2 6141   0.789   4.723   0.350
 1933SOL     OW 6142   0.410   4.537   1.251
 1933SOL    HW1 6143   0.496   4.549   1.301
 1933SOL    HW2 6144   0.368   4.450   1.278
 1934SOL     OW 6145   1.274   4.110   1.262
 1934SOL    HW1 6146   1.295   4.184   1.326
 1934SOL    HW2 6147   1.185   4.127   1.219
 1935SOL     OW 6148   0.064   5.288   1.331
 1935SOL    HW1 6149   0.018   5.370   1.297
 1935SOL    HW2 6150   0.162   5.307   1.340
 1936SOL     OW 6151   0.367   4.824   0.501
 1936SOL    HW1 6152   0.360   4.907   0.445
 1936SOL    HW2 6153   0.371   4.744   0.441
 1937SOL     OW 6154   0.566   4.261   0.865
 1937SOL    HW1 6155   0.578   4.327   0.791
 1937SOL    HW2 6156   0.612   4.295   0.948
 1938SOL     OW 6157   1.252   5.072   0.388
 1938SOL    HW1 6158   1.302   5.149   0.428
 1938SOL    HW2 6159   1.157   5.074   0.420
 1939SOL     OW 6160   1.272   5.169   1.142
 1939SOL    HW1 6161   1.319   5.182   1.229
 1939SOL    HW2 6162   1.206   5.095   1.151
 1940SOL     OW 6163   1.582   4.363   0.472
 1940SOL    HW1 6164   1.551   4.424   0.545
 1940SOL    HW2 6165   1.632   4.415   0.403
 1941SOL     OW 6166   0.354   5.234   1.329
 1941SOL    HW1 6167   0.333   5.190   1.242
 1941SOL    HW2 6168   0.451   5.260   1.332
 1942SOL     OW 6169   0.402   4.475   1.598
 1942SOL    HW1 6170   0.470   4.530   1.551
 1942SOL    HW2 6171   0.442   4.387   1.625
 1943SOL     OW 6172   1.587   4.503   1.670
 1943SOL    HW1 6173   1.495   4.541   1.665
 1943SOL    HW2 6174   1.647   4.550   1.605
 1944SOL     OW 6175   1.013   3.829   1.770
 1944SOL    HW1 6176   1.019   3.914   1.718
 1944SOL    HW2 6177   1.045   3.753   1.713
 1945SOL     OW 6178   0.504   3.774   1.740
 1945SOL    HW1 6179   0.462   3.717   1.670
 1945SOL    HW2 6180   0.438   3.843   1.772
 1946SOL     OW 6181   0.573   4.594   1.029
 1946SOL    HW1 6182   0.617   4.683   1.020
 1946SOL    HW2 6183   0.510   4.594   1.106
 1947SOL     OW 6184   1.360   4.586   1.045
 1947SOL    HW1 6185   1.285   4.586   0.979
 1947SOL    HW2 6186   1.397   4.494   1.054
 1948SOL     OW 6187   1.209   4.249   0.275
 1948SOL    HW1 6188   1.222   4.165   0.329
 1948SOL    HW2 6189   1.180   4.323   0.335
 1949SOL     OW 6190   0.307   3.937   1.231
 1949SOL    HW1 6191   0.284   3.974   1.321
 1949SOL    HW2 6192   0.277   3.842   1.225
 1950SOL     OW 6193   0.037   5.034   1.282
 1950SOL    HW1 6194   0.090   4.985   1.350
 1950SOL    HW2 6195   0.059   5.132   1.287
 1951SOL     OW 6196   0.732   4.358   1.064
 1951SOL    HW1 6197   0.791   4.332   0.988
 1951SOL    HW2 6198   0.704   4.454   1.053
 1952SOL     OW 6199   1.728   4.659   1.854
 1952SOL    HW1 6200   1.682   4.652   1.765
 1952SOL    HW2 6201   1.666   4.703   1.920
 1953SOL     OW 6202   0.307   3.787   0.618
 1953SOL    HW1 6203   0.296   3.881   0.651
 1953SOL    HW2 6204   0.302   3.724   0.695
 1954SOL     OW 6205   1.622   4.091   0.374
 1954SOL    HW1 6206   1.624   4.015   0.438
 1954SOL    HW2 6207   1.574   4.168   0.414
 1955SOL     OW 6208   1.023   4.490   0.966
 1955SOL    HW1 6209   1.038   4.511   1.062
 1955SOL    HW2 6210   0.993   4.395   0.957
 1956SOL     OW 6211   0.980   5.297   1.700
 1956SOL    HW1 6212   0.960   5.341   1.612
 1956SOL    HW2 6213   1.019   5.206   1.684
 1957SOL     OW 6214   1.859   5.242   1.605
 1957SOL    HW1 6215   1.873   5.269   1.510
 1957SOL    HW2 6216   1.942   5.264   1.658
 1958SOL     OW 6217   0.350   4.622   1.804
 1958SOL    HW1 6218   0.426   4.666   1.852
 1958SOL    HW2 6219   0.385   4.575   1.722
 1959SOL     OW 6220   1.540   3.998   0.125
 1959SOL    HW1 6221   1.479   3.923   0.148
 1959SOL    HW2 6222   1.562   4.050   0.208
 1960SOL     OW 6223   1.303   4.562   0.042
 1960SOL    HW1 6224   1.337   4.469   0.057
 1960SOL    HW2 6225   1.321   4.589  -0.053
 1961SOL     OW 6226   1.068   5.057   0.849
 1961SOL    HW1 6227   1.075   4.973   0.794
 1961SOL    HW2 6228   1.130   5.126   0.813
 1962SOL     OW 6229   0.319   4.534   0.949
 1962SOL    HW1 6230   0.412   4.570   0.954
 1962SOL    HW2 6231   0.313   4.449   1.001
 1963SOL     OW 6232   0.339   4.233   1.006
 1963SOL    HW1 6233   0.287   4.150   0.989
 1963SOL    HW2 6234   0.416   4.238   0.942
 1964SOL     OW 6235   1.138   4.104   1.678
 1964SOL    HW1 6236   1.093   4.167   1.742
 1964SOL    HW2 6237   1.231   4.135   1.661
 1965SOL     OW 6238   1.160   3.931   1.477
 1965SOL    HW1 6239   1.160   3.995   1.554
 1965SOL    HW2 6240   1.188   3.979   1.394
 1966SOL     OW 6241   0.008   5.050   0.200
 1966SOL    HW1 6242  -0.085   5.071   0.169
 1966SOL    HW2 6243   0.018   4.951   0.213
 1967SOL     OW 6244   0.088   5.525   0.927
 1967SOL    HW1 6245   0.046   5.439   0.900
 1967SOL    HW2 6246   0.182   5.528   0.893
 1968SOL     OW 6247   0.504   5.292   0.910
 1968SOL    HW1 6248   0.570   5.366   0.919
 1968SOL    HW2 6249   0.548   5.213   0.868
 1969SOL     OW 6250   1.002   4.520   1.238
 1969SOL    HW1 6251   1.043   4.488   1.324
 1969SOL    HW2 6252   0.906   4.493   1.235
 1970SOL     OW 6253   0.040   4.268   1.114
 1970SOL    HW1 6254   0.125   4.235   1.073
 1970SOL    HW2 6255   0.053   4.283   1.212
 1971SOL     OW 6256   0.189   4.244   1.722
 1971SOL    HW1 6257   0.248   4.204   1.652
 1971SOL    HW2 6258   0.131   4.315   1.681
 1972SOL     OW 6259   1.369   4.674   1.660
 1972SOL    HW1 6260   1.408   4.763   1.680
 1972SOL    HW2 6261   1.379   4.654   1.563
 1973SOL     OW 6262   0.815   4.296   0.325
 1973SOL    HW1 6263   0.822   4.207   0.279
 1973SOL    HW2 6264   0.721   4.330   0.317
 1974SOL     OW 6265   1.657   4.328   1.206
 1974SOL    HW1 6266   1.619   4.259   1.268
 1974SOL    HW2 6267   1.739   4.292   1.162
 1975SOL     OW 6268   0.252   5.288   1.744
 1975SOL    HW1 6269   0.222   5.345   1.820
 1975SOL    HW2 6270   0.245   5.191   1.770
 1976SOL     OW 6271   0.671   4.188   1.269
 1976SOL    HW1 6272   0.637   4.099   1.239
 1976SOL    HW2 6273   0.697   4.242   1.189
 1977SOL     OW 6274   0.930   5.402   1.465
 1977SOL    HW1 6275   0.906   5.384   1.370
 1977SOL    HW2 6276   0.960   5.496   1.475
 1978SOL     OW 6277   0.473   4.224   0.191
 1978SOL    HW1 6278   0.534   4.304   0.195
 1978SOL    HW2 6279   0.378   4.255   0.198
 1979SOL     OW 6280   0.159   4.861   1.466
 1979SOL    HW1 6281   0.181   4.800   1.542
 1979SOL    HW2 6282   0.169   4.812   1.380
 1980SOL     OW 6283   1.347   4.783   1.234
 1980SOL    HW1 6284   1.371   4.720   1.160
 1980SOL    HW2 6285   1.257   4.823   1.216
 1981SOL     OW 6286   1.302   4.579   0.309
 1981SOL    HW1 6287   1.216   4.548   0.351
 1981SOL    HW2 6288   1.298   4.565   0.210
 1982SOL     OW 6289   1.759   5.471   1.154
 1982SOL    HW1 6290   1.820   5.501   1.081
 1982SOL    HW2 6291   1.721   5.382   1.132
 1983SOL     OW 6292   1.252   5.455   1.128
 1983SOL    HW1 6293   1.336   5.460   1.074
 1983SOL    HW2 6294   1.229   5.359   1.146
 1984SOL     OW 6295   0.083   4.982   1.022
 1984SOL    HW1 6296   0.078   4.981   1.122
 1984SOL    HW2 6297   0.000   4.941   0.984
 1985SOL     OW 6298   0.688   5.386   1.716
 1985SOL    HW1 6299   0.632   5.467   1.725
 1985SOL    HW2 6300   0.740   5.390   1.630
 1986SOL     OW 6301   0.903   3.810   0.133
 1986SOL    HW1 6302   0.954   3.811   0.047
 1986SOL    HW2 6303   0.959   3.768   0.204
 1987SOL     OW 6304   1.726   3.859   0.523
 1987SOL    HW1 6305   1.799   3.842   0.456
 1987SOL    HW2 6306   1.695   3.772   0.561
 1988SOL     OW 6307   1.388   5.297   0.477
 1988SOL    HW1 6308   1.455   5.309   0.403
 1988SOL    HW2 6309   1.348   5.386   0.500
 1989SOL     OW 6310   0.130   5.518   1.851
 1989SOL    HW1 6311   0.089   5.444   1.904
 1989SOL    HW2 6312   0.194   5.569   1.909
 1990SOL     OW 6313   1.280   4.651   0.672
 1990SOL    HW1 6314   1.340   4.570   0.674
 1990SOL    HW2 6315   1.320   4.720   0.612
 1991SOL     OW 6316   0.830   4.997   1.422
 1991SOL    HW1 6317   0.825   5.030   1.517
 1991SOL    HW2 6318   0.744   5.016   1.376
 1992SOL     OW 6319   0.672   5.340   0.154
 1992SOL    HW1 6320   0.681   5.350   0.055
 1992SOL    HW2 6321   0.632   5.251   0.175
 1993SOL     OW 6322   1.650   5.444   1.394
 1993SOL    HW1 6323   1.703   5.454   1.310
 1993SOL    HW2 6324   1.623   5.534   1.428
 1994SOL     OW 6325   1.841   3.899   0.963
 1994SOL    HW1 6326   1.880   3.814   0.927
 1994SOL    HW2 6327   1.743   3.901   0.944
 1995SOL     OW 6328   0.263   4.050   0.720
 1995SOL    HW1 6329   0.184   4.101   0.686
 1995SOL    HW2 6330   0.254   4.035   0.818
 1996SOL     OW 6331   1.194   5.336   0.031
 1996SOL    HW1 6332   1.200   5.243   0.068
 1996SOL    HW2 6333   1.135   5.336  -0.049
 1997SOL     OW 6334   0.822   4.726   1.372
 1997SOL    HW1 6335   0.862   4.725   1.280
 1997SOL    HW2 6336   0.832   4.818   1.412
 1998SOL     OW 6337   0.916   4.634   0.291
 1998SOL    HW1 6338   0.979   4.672   0.223
 1998SOL    HW2 6339   0.956   4.551   0.330
 1999SOL     OW 6340   1.504   5.331   0.044
 1999SOL    HW1 6341   1.412   5.368   0.051
 1999SOL    HW2 6342   1.542   5.351  -0.046
 2000SOL     OW 6343   0.372   5.012   1.490
 2000SOL    HW1 6344   0.359   5.105   1.456
 2000SOL    HW2 6345   0.288   4.960   1.477
 2001SOL     OW 6346   1.614   5.016   1.289
 2001SOL    HW1 6347   1.674   5.019   1.369
 2001SOL    HW2 6348   1.539   5.080   1.302
 2002SOL     OW 6349   1.039   4.822   0.696
 2002SOL    HW1 6350   0.969   4.775   0.750
 2002SOL    HW2 6351   1.098   4.754   0.653
 2003SOL     OW 6352   1.014   3.960   0.971
 2003SOL    HW1 6353   1.006   3.924   0.878
 2003SOL    HW2 6354   1.012   3.884   1.036
 2004SOL     OW 6355   0.590   5.211   0.491
 2004SOL    HW1 6356   0.632   5.153   0.421
 2004SOL    HW2 6357   0.546   5.290   0.447
 2005SOL     OW 6358   1.709   4.109   1.381
 2005SOL    HW1 6359   1.782   4.178   1.385
 2005SOL    HW2 6360   1.737   4.034   1.322
 2006SOL     OW 6361   0.255   5.072   0.290
 2006SOL    HW1 6362   0.159   5.073   0.263
 2006SOL    HW2 6363   0.267   5.125   0.374
 2007SOL     OW 6364   0.105   4.737   1.726
 2007SOL    HW1 6365   0.028   4.704   1.780
 2007SOL    HW2 6366   0.190   4.707   1.768
 2008SOL     OW 6367   0.672   3.927   1.489
 2008SOL    HW1 6368   0.762   3.911   1.449
 2008SOL    HW2 6369   0.680   3.932   1.588
 2009SOL     OW 6370   0.075   4.069   0.033
 2009SOL    HW1 6371  -0.017   4.041   0.004
 2009SOL    HW2 6372   0.106   4.146  -0.023
 2010SOL     OW 6373   1.440   4.580   1.398
 2010SOL    HW1 6374   1.383   4.632   1.335
 2010SOL    HW2 6375   1.536   4.592   1.374
 2011SOL     OW 6376   0.072   3.890   0.318
 2011SOL    HW1 6377   0.055   3.973   0.264
 2011SOL    HW2 6378   0.162   3.853   0.296
 2012SOL     OW 6379   1.183   5.059   0.119
 2012SOL    HW1 6380   1.084   5.048   0.121
 2012SOL    HW2 6381   1.217   5.074   0.212
 2013SOL     OW 6382   0.613   4.566   1.431
 2013SOL    HW1 6383   0.669   4.647   1.414
 2013SOL    HW2 6384   0.672   4.486   1.434
 2014SOL     OW 6385   1.493   5.491   0.959
 2014SOL    HW1 6386   1.526   5.555   0.890
 2014SOL    HW2 6387   1.559   5.485   1.034
 2015SOL     OW 6388   0.716   4.289   1.708
 2015SOL    HW1 6389   0.735   4.354   1.782
 2015SOL    HW2 6390   0.776   4.209   1.717
 2016SOL     OW 6391   1.450   4.944   1.633
 2016SOL    HW1 6392   1.441   4.934   1.732
 2016SOL    HW2 6393   1.546   4.937   1.607
 2017SOL     OW 6394   0.390   5.465   1.560
 2017SOL    HW1 6395   0.299   5.506   1.558
 2017SOL    HW2 6396   0.383   5.371   1.592
 2018SOL     OW 6397   1.674   4.607   1.254
 2018SOL    HW1 6398   1.647   4.518   1.217
 2018SOL    HW2 6399   1.675   4.675   1.181
 2019SOL     OW 6400   1.225   4.049   0.449
 2019SOL    HW1 6401   1.290   3.975   0.438
 2019SOL    HW2 6402   1.245   4.099   0.533
 2020SOL     OW 6403   0.594   4.469   0.652
 2020SOL    HW1 6404   0.644   4.554   0.633
 2020SOL    HW2 6405   0.506   4.471   0.604
 2021SOL     OW 6406   1.777   4.066   1.642
 2021SOL    HW1 6407   1.760   4.097   1.548
 2021SOL    HW2 6408   1.693   4.029   1.680
 2022SOL     OW 6409   1.730   4.658   1.517
 2022SOL    HW1 6410   1.768   4.749   1.532
 2022SOL    HW2 6411   1.722   4.641   1.418
 2023SOL     OW 6412   0.859   5.098   0.016
 2023SOL    HW1 6413   0.813   5.113   0.104
 2023SOL    HW2 6414   0.903   5.183  -0.014
 2024SOL     OW 6415   0.661   5.514   0.953
 2024SOL    HW1 6416   0.615   5.602   0.940
 2024SOL    HW2 6417   0.760   5.526   0.946
 2025SOL     OW 6418   0.859   4.680   0.861
 2025SOL    HW1 6419   0.913   4.611   0.909
 2025SOL    HW2 6420   0.827   4.749   0.927
 2026SOL     OW 6421   1.083   4.708   0.087
 2026SOL    HW1 6422   1.060   4.761   0.005
 2026SOL    HW2 6423   1.164   4.652   0.068
 2027SOL     OW 6424   1.861   5.293   0.851
 2027SOL    HW1 6425   1.790   5.281   0.781
 2027SOL    HW2 6426   1.862   5.214   0.911
 2028SOL     OW 6427   0.221   5.038   1.844
 2028SOL    HW1 6428   0.156   4.965   1.823
 2028SOL    HW2 6429   0.225   5.052   1.942
 2029SOL     OW 6430   0.079   4.964   0.653
 2029SOL    HW1 6431   0.078   4.917   0.741
 2029SOL    HW2 6432   0.161   4.936   0.602
 2030SOL     OW 6433   0.672   5.115   1.624
 2030SOL    HW1 6434   0.594   5.065   1.662
 2030SOL    HW2 6435   0.669   5.210   1.655
 2031SOL     OW 6436   1.824   3.916   1.227
 2031SOL    HW1 6437   1.820   3.826   1.271
 2031SOL    HW2 6438   1.827   3.905   1.128
 2032SOL     OW 6439   0.428   4.148   0.520
 2032SOL    HW1 6440   0.458   4.076   0.458
 2032SOL    HW2 6441   0.389   4.108   0.603
 2033SOL     OW 6442   1.705   5.211   1.104
 2033SOL    HW1 6443   1.612   5.186   1.077
 2033SOL    HW2 6444   1.731   5.161   1.186
 2034SOL     OW 6445   0.317   4.271   1.280
 2034SOL    HW1 6446   0.355   4.212   1.352
 2034SOL    HW2 6447   0.357   4.245   1.192
 2035SOL     OW 6448   0.812   5.310   0.687
 2035SOL    HW1 6449   0.844   5.320   0.593
 2035SOL    HW2 6450   0.733   5.248   0.689
 2036SOL     OW 6451   1.424   3.938   1.112
 2036SOL    HW1 6452   1.476   3.873   1.167
 2036SOL    HW2 6453   1.375   4.001   1.173
 2037SOL     OW 6454   1.001   3.758   1.154
 2037SOL    HW1 6455   0.938   3.686   1.123
 2037SOL    HW2 6456   1.094   3.722   1.154
 2038SOL     OW 6457   0.770   5.054   0.301
 2038SOL    HW1 6458   0.724   4.967   0.318
 2038SOL    HW2 6459   0.861   5.051   0.342
 2039SOL     OW 6460   0.618   5.291   1.284
 2039SOL    HW1 6461   0.613   5.373   1.341
 2039SOL    HW2 6462   0.707   5.288   1.239
 2040SOL     OW 6463   1.352   3.776   0.168
 2040SOL    HW1 6464   1.387   3.735   0.084
 2040SOL    HW2 6465   1.262   3.738   0.188
 2041SOL     OW 6466   1.300   4.177   0.691
 2041SOL    HW1 6467   1.241   4.257   0.695
 2041SOL    HW2 6468   1.315   4.142   0.784
 2042SOL     OW 6469   1.593   3.945   0.882
 2042SOL    HW1 6470   1.509   3.944   0.936
 2042SOL    HW2 6471   1.595   4.028   0.826
 2043SOL     OW 6472   0.039   4.801   0.300
 2043SOL    HW1 6473   0.138   4.790   0.291
 2043SOL    HW2 6474  -0.001   4.715   0.332
 2044SOL     OW 6475   0.875   5.370   0.337
 2044SOL    HW1 6476   0.798   5.335   0.283
 2044SOL    HW2 6477   0.843   5.441   0.399
 2045SOL     OW 6478   0.230   4.352   1.975
 2045SOL    HW1 6479   0.137   4.350   2.012
 2045SOL    HW2 6480   0.231   4.313   1.883
 2046SOL     OW 6481   0.225   3.999   2.858
 2046SOL    HW1 6482   0.260   3.982   2.950
 2046SOL    HW2 6483   0.137   3.954   2.846
 2047SOL     OW 6484   0.019   4.092   2.509
 2047SOL    HW1 6485  -0.063   4.135   2.548
 2047SOL    HW2 6486  -0.009   4.019   2.446
 2048SOL     OW 6487   0.569   4.999   3.027
 2048SOL    HW1 6488   0.476   4.992   2.990
 2048SOL    HW2 6489   0.580   5.088   3.071
 2049SOL     OW 6490   1.555   5.235   2.565
 2049SOL    HW1 6491   1.498   5.219   2.646
 2049SOL    HW2 6492   1.496   5.245   2.485
 2050SOL     OW 6493   1.135   4.427   2.579
 2050SOL    HW1 6494   1.192   4.505   2.554
 2050SOL    HW2 6495   1.075   4.453   2.655
 2051SOL     OW 6496   1.755   4.331   2.093
 2051SOL    HW1 6497   1.743   4.318   1.994
 2051SOL    HW2 6498   1.725   4.250   2.142
 2052SOL     OW 6499   0.768   4.868   2.885
 2052SOL    HW1 6500   0.690   4.885   2.945
 2052SOL    HW2 6501   0.802   4.955   2.849
 2053SOL     OW 6502   0.850   4.522   3.685
 2053SOL    HW1 6503   0.846   4.598   3.750
 2053SOL    HW2 6504   0.872   4.558   3.594
 2054SOL     OW 6505   0.685   4.736   2.527
 2054SOL    HW1 6506   0.754   4.720   2.597
 2054SOL    HW2 6507   0.612   4.793   2.565
 2055SOL     OW 6508   0.686   4.885   3.665
 2055SOL    HW1 6509   0.746   4.964   3.679
 2055SOL    HW2 6510   0.600   4.916   3.624
 2056SOL     OW 6511   0.335   5.159   2.923
 2056SOL    HW1 6512   0.257   5.128   2.870
 2056SOL    HW2 6513   0.393   5.217   2.866
 2057SOL     OW 6514   1.460   5.229   3.201
 2057SOL    HW1 6515   1.484   5.323   3.227
 2057SOL    HW2 6516   1.444   5.175   3.283
 2058SOL     OW 6517   0.438   4.116   3.361
 2058SOL    HW1 6518   0.520   4.060   3.370
 2058SOL    HW2 6519   0.357   4.058   3.365
 2059SOL     OW 6520   1.603   4.171   2.599
 2059SOL    HW1 6521   1.529   4.217   2.549
 2059SOL    HW2 6522   1.654   4.239   2.652
 2060SOL     OW 6523   0.231   5.437   2.345
 2060SOL    HW1 6524   0.265   5.514   2.399
 2060SOL    HW2 6525   0.275   5.437   2.255
 2061SOL     OW 6526   1.127   5.065   3.552
 2061SOL    HW1 6527   1.174   5.065   3.640
 2061SOL    HW2 6528   1.079   4.978   3.541
 2062SOL     OW 6529   0.230   5.158   2.400
 2062SOL    HW1 6530   0.204   5.254   2.400
 2062SOL    HW2 6531   0.159   5.104   2.445
 2063SOL     OW 6532   0.240   4.815   2.748
 2063SOL    HW1 6533   0.254   4.731   2.800
 2063SOL    HW2 6534   0.185   4.879   2.803
 2064SOL     OW 6535   0.620   5.510   3.301
 2064SOL    HW1 6536   0.528   5.493   3.336
 2064SOL    HW2 6537   0.648   5.602   3.327
 2065SOL     OW 6538   0.606   4.688   1.985
 2065SOL    HW1 6539   0.613   4.772   1.931
 2065SOL    HW2 6540   0.652   4.701   2.073
 2066SOL     OW 6541   1.594   3.838   3.342
 2066SOL    HW1 6542   1.576   3.905   3.270
 2066SOL    HW2 6543   1.591   3.884   3.431
 2067SOL     OW 6544   0.122   4.367   2.425
 2067SOL    HW1 6545   0.077   4.279   2.442
 2067SOL    HW2 6546   0.121   4.421   2.509
 2068SOL     OW 6547   1.842   5.491   2.221
 2068SOL    HW1 6548   1.896   5.462   2.301
 2068SOL    HW2 6549   1.872   5.581   2.192
 2069SOL     OW 6550   0.027   5.320   1.979
 2069SOL    HW1 6551   0.008   5.224   2.000
 2069SOL    HW2 6552  -0.006   5.378   2.054
 2070SOL     OW 6553   1.689   4.646   2.474
 2070SOL    HW1 6554   1.784   4.617   2.482
 2070SOL    HW2 6555   1.681   4.711   2.399
 2071SOL     OW 6556   1.641   4.832   2.294
 2071SOL    HW1 6557   1.727   4.834   2.242
 2071SOL    HW2 6558   1.655   4.879   2.382
 2072SOL     OW 6559   0.113   4.461   3.459
 2072SOL    HW1 6560   0.201   4.448   3.504
 2072SOL    HW2 6561   0.100   4.558   3.437
 2073SOL     OW 6562   0.613   5.089   2.588
 2073SOL    HW1 6563   0.564   5.002   2.597
 2073SOL    HW2 6564   0.590   5.132   2.501
 2074SOL     OW 6565   1.293   4.952   3.285
 2074SOL    HW1 6566   1.330   4.879   3.227
 2074SOL    HW2 6567   1.345   4.957   3.370
 2075SOL     OW 6568   0.809   3.728   2.364
 2075SOL    HW1 6569   0.849   3.819   2.355
 2075SOL    HW2 6570   0.709   3.736   2.370
 2076SOL     OW 6571   0.197   4.700   3.126
 2076SOL    HW1 6572   0.286   4.655   3.112
 2076SOL    HW2 6573   0.124   4.635   3.107
 2077SOL     OW 6574   1.525   4.723   2.052
 2077SOL    HW1 6575   1.462   4.647   2.065
 2077SOL    HW2 6576   1.573   4.741   2.138
 2078SOL     OW 6577   1.187   5.516   3.478
 2078SOL    HW1 6578   1.211   5.576   3.402
 2078SOL    HW2 6579   1.194   5.421   3.448
 2079SOL     OW 6580   0.317   3.975   3.663
 2079SOL    HW1 6581   0.388   4.046   3.669
 2079SOL    HW2 6582   0.229   4.014   3.691
 2080SOL     OW 6583   1.466   5.141   2.815
 2080SOL    HW1 6584   1.407   5.147   2.895
 2080SOL    HW2 6585   1.451   5.053   2.769
 2081SOL     OW 6586   1.667   5.438   2.434
 2081SOL    HW1 6587   1.626   5.415   2.346
 2081SOL    HW2 6588   1.649   5.364   2.499
 2082SOL     OW 6589   0.598   4.453   2.132
 2082SOL    HW1 6590   0.622   4.522   2.064
 2082SOL    HW2 6591   0.520   4.486   2.186
 2083SOL     OW 6592   1.281   4.069   2.806
 2083SOL    HW1 6593   1.195   4.019   2.793
 2083SOL    HW2 6594   1.343   4.015   2.862
 2084SOL     OW 6595   1.576   5.386   2.169
 2084SOL    HW1 6596   1.665   5.432   2.172
 2084SOL    HW2 6597   1.555   5.362   2.074
 2085SOL     OW 6598   0.807   4.329   3.327
 2085SOL    HW1 6599   0.760   4.326   3.416
 2085SOL    HW2 6600   0.756   4.274   3.261
 2086SOL     OW 6601   1.394   4.193   3.536
 2086SOL    HW1 6602   1.374   4.236   3.624
 2086SOL    HW2 6603   1.472   4.131   3.545
 2087SOL     OW 6604   0.973   4.614   3.434
 2087SOL    HW1 6605   1.019   4.530   3.405
 2087SOL    HW2 6606   0.917   4.648   3.359
 2088SOL     OW 6607   0.991   4.134   3.104
 2088SOL    HW1 6608   0.914   4.168   3.158
 2088SOL    HW2 6609   0.957   4.083   3.025
 2089SOL     OW 6610   1.041   4.425   2.291
 2089SOL    HW1 6611   1.067   4.421   2.387
 2089SOL    HW2 6612   0.956   4.374   2.277
 2090SOL     OW 6613   0.076   4.535   2.651
 2090SOL    HW1 6614   0.175   4.523   2.660
 2090SOL    HW2 6615   0.052   4.630   2.672
 2091SOL     OW 6616   0.130   5.545   3.433
 2091SOL    HW1 6617   0.120   5.530   3.532
 2091SOL    HW2 6618   0.044   5.581   3.397
 2092SOL     OW 6619   0.865   4.072   2.057
 2092SOL    HW1 6620   0.924   4.135   2.008
 2092SOL    HW2 6621   0.884   3.978   2.028
 2093SOL     OW 6622   1.719   4.309   3.693
 2093SOL    HW1 6623   1.693   4.398   3.657
 2093SOL    HW2 6624   1.717   4.241   3.620
 2094SOL     OW 6625   1.362   4.868   2.407
 2094SOL    HW1 6626   1.445   4.839   2.359
 2094SOL    HW2 6627   1.313   4.935   2.351
 2095SOL     OW 6628   0.550   3.920   2.747
 2095SOL    HW1 6629   0.545   3.915   2.847
 2095SOL    HW2 6630   0.552   4.016   2.718
 2096SOL     OW 6631   1.008   5.180   2.339
 2096SOL    HW1 6632   0.962   5.252   2.287
 2096SOL    HW2 6633   1.004   5.200   2.437
 2097SOL     OW 6634   0.351   5.525   2.715
 2097SOL    HW1 6635   0.401   5.439   2.721
 2097SOL    HW2 6636   0.416   5.602   2.712
 2098SOL     OW 6637   1.795   4.790   2.735
 2098SOL    HW1 6638   1.733   4.775   2.659
 2098SOL    HW2 6639   1.743   4.801   2.820
 2099SOL     OW 6640   1.227   5.274   3.368
 2099SOL    HW1 6641   1.233   5.197   3.432
 2099SOL    HW2 6642   1.175   5.248   3.288
 2100SOL     OW 6643   0.321   4.667   2.104
 2100SOL    HW1 6644   0.403   4.706   2.062
 2100SOL    HW2 6645   0.294   4.585   2.055
 2101SOL     OW 6646   1.458   4.459   2.590
 2101SOL    HW1 6647   1.453   4.394   2.665
 2101SOL    HW2 6648   1.538   4.518   2.603
 2102SOL     OW 6649   0.461   4.990   3.589
 2102SOL    HW1 6650   0.411   4.991   3.503
 2102SOL    HW2 6651   0.398   4.972   3.665
 2103SOL     OW 6652   1.111   5.500   2.099
 2103SOL    HW1 6653   1.051   5.438   2.149
 2103SOL    HW2 6654   1.142   5.456   2.014
 2104SOL     OW 6655   0.202   4.009   3.360
 2104SOL    HW1 6656   0.122   4.069   3.347
 2104SOL    HW2 6657   0.192   3.960   3.446
 2105SOL     OW 6658   1.632   5.101   1.943
 2105SOL    HW1 6659   1.600   5.195   1.933
 2105SOL    HW2 6660   1.556   5.038   1.931
 2106SOL     OW 6661   0.464   5.467   2.185
 2106SOL    HW1 6662   0.497   5.506   2.271
 2106SOL    HW2 6663   0.540   5.460   2.120
 2107SOL     OW 6664   1.400   3.831   2.288
 2107SOL    HW1 6665   1.376   3.794   2.198
 2107SOL    HW2 6666   1.499   3.847   2.292
 2108SOL     OW 6667   0.249   5.509   3.103
 2108SOL    HW1 6668   0.306   5.444   3.153
 2108SOL    HW2 6669   0.233   5.476   3.010
 2109SOL     OW 6670   0.940   5.422   2.766
 2109SOL    HW1 6671   1.020   5.365   2.787
 2109SOL    HW2 6672   0.891   5.382   2.689
 2110SOL     OW 6673   0.382   4.424   2.342
 2110SOL    HW1 6674   0.427   4.334   2.339
 2110SOL    HW2 6675   0.288   4.413   2.375
 2111SOL     OW 6676   1.547   3.946   3.591
 2111SOL    HW1 6677   1.542   3.983   3.683
 2111SOL    HW2 6678   1.475   3.877   3.579
 2112SOL     OW 6679   0.614   3.846   1.979
 2112SOL    HW1 6680   0.712   3.824   1.986
 2112SOL    HW2 6681   0.583   3.829   1.886
 2113SOL     OW 6682   0.781   3.988   3.611
 2113SOL    HW1 6683   0.848   3.927   3.654
 2113SOL    HW2 6684   0.708   4.007   3.676
 2114SOL     OW 6685   0.888   5.238   3.057
 2114SOL    HW1 6686   0.865   5.213   2.963
 2114SOL    HW2 6687   0.949   5.169   3.096
 2115SOL     OW 6688   1.351   4.314   3.295
 2115SOL    HW1 6689   1.379   4.271   3.380
 2115SOL    HW2 6690   1.376   4.410   3.296
 2116SOL     OW 6691   0.803   5.126   2.786
 2116SOL    HW1 6692   0.893   5.140   2.744
 2116SOL    HW2 6693   0.732   5.128   2.715
 2117SOL     OW 6694   0.922   4.227   2.761
 2117SOL    HW1 6695   0.897   4.218   2.665
 2117SOL    HW2 6696   0.970   4.145   2.792
 2118SOL     OW 6697   0.539   3.788   2.374
 2118SOL    HW1 6698   0.458   3.789   2.432
 2118SOL    HW2 6699   0.542   3.871   2.319
 2119SOL     OW 6700   1.434   4.912   1.903
 2119SOL    HW1 6701   1.466   4.836   1.960
 2119SOL    HW2 6702   1.342   4.939   1.933
 2120SOL     OW 6703   0.297   3.759   2.033
 2120SOL    HW1 6704   0.346   3.843   2.012
 2120SOL    HW2 6705   0.359   3.694   2.078
 2121SOL     OW 6706   0.935   3.960   2.342
 2121SOL    HW1 6707   0.887   4.001   2.264
 2121SOL    HW2 6708   1.034   3.958   2.323
 2122SOL     OW 6709   1.076   4.407   3.326
 2122SOL    HW1 6710   0.996   4.346   3.329
 2122SOL    HW2 6711   1.157   4.354   3.302
 2123SOL     OW 6712   1.227   5.294   2.655
 2123SOL    HW1 6713   1.248   5.368   2.590
 2123SOL    HW2 6714   1.295   5.294   2.728
 2124SOL     OW 6715   0.459   4.876   2.603
 2124SOL    HW1 6716   0.388   4.849   2.668
 2124SOL    HW2 6717   0.433   4.848   2.510
 2125SOL     OW 6718   1.271   5.521   2.453
 2125SOL    HW1 6719   1.315   5.585   2.389
 2125SOL    HW2 6720   1.221   5.573   2.523
 2126SOL     OW 6721   1.032   4.273   1.878
 2126SOL    HW1 6722   0.991   4.355   1.839
 2126SOL    HW2 6723   1.096   4.299   1.951
 2127SOL     OW 6724   0.078   4.280   3.248
 2127SOL    HW1 6725   0.170   4.279   3.207
 2127SOL    HW2 6726   0.072   4.354   3.315
 2128SOL     OW 6727   0.561   3.946   3.009
 2128SOL    HW1 6728   0.599   3.862   3.046
 2128SOL    HW2 6729   0.473   3.965   3.053
 2129SOL     OW 6730   0.866   4.178   2.504
 2129SOL    HW1 6731   0.834   4.250   2.442
 2129SOL    HW2 6732   0.890   4.097   2.451
 2130SOL     OW 6733   1.017   3.763   2.615
 2130SOL    HW1 6734   0.945   3.768   2.546
 2130SOL    HW2 6735   0.993   3.694   2.684
 2131SOL     OW 6736   1.429   4.897   2.729
 2131SOL    HW1 6737   1.374   4.813   2.722
 2131SOL    HW2 6738   1.455   4.926   2.637
 2132SOL     OW 6739   1.466   4.314   2.854
 2132SOL    HW1 6740   1.436   4.219   2.861
 2132SOL    HW2 6741   1.539   4.330   2.920
 2133SOL     OW 6742   1.857   4.557   2.239
 2133SOL    HW1 6743   1.899   4.493   2.303
 2133SOL    HW2 6744   1.819   4.506   2.161
 2134SOL     OW 6745   0.488   5.109   2.036
 2134SOL    HW1 6746   0.401   5.094   2.083
 2134SOL    HW2 6747   0.471   5.135   1.941
 2135SOL     OW 6748   1.664   5.004   2.519
 2135SOL    HW1 6749   1.763   5.012   2.533
 2135SOL    HW2 6750   1.619   5.088   2.550
 2136SOL     OW 6751   1.390   4.299   1.940
 2136SOL    HW1 6752   1.336   4.278   2.021
 2136SOL    HW2 6753   1.481   4.258   1.949
 2137SOL     OW 6754   0.527   3.980   2.190
 2137SOL    HW1 6755   0.554   3.921   2.115
 2137SOL    HW2 6756   0.527   4.075   2.159
 2138SOL     OW 6757   1.754   4.947   3.450
 2138SOL    HW1 6758   1.845   4.908   3.437
 2138SOL    HW2 6759   1.762   5.043   3.474
 2139SOL     OW 6760   1.064   5.071   3.202
 2139SOL    HW1 6761   0.984   5.048   3.257
 2139SOL    HW2 6762   1.147   5.045   3.251
 2140SOL     OW 6763   1.592   5.353   3.487
 2140SOL    HW1 6764   1.619   5.387   3.397
 2140SOL    HW2 6765   1.671   5.315   3.533
 2141SOL     OW 6766   1.111   4.919   2.962
 2141SOL    HW1 6767   1.071   4.963   3.043
 2141SOL    HW2 6768   1.070   4.956   2.879
 2142SOL     OW 6769   1.638   4.823   2.941
 2142SOL    HW1 6770   1.643   4.904   3.000
 2142SOL    HW2 6771   1.552   4.825   2.890
 2143SOL     OW 6772   0.915   3.813   3.264
 2143SOL    HW1 6773   0.940   3.793   3.169
 2143SOL    HW2 6774   0.987   3.869   3.306
 2144SOL     OW 6775   0.980   4.840   3.581
 2144SOL    HW1 6776   0.881   4.846   3.591
 2144SOL    HW2 6777   1.003   4.760   3.525
 2145SOL     OW 6778   0.705   4.774   2.230
 2145SOL    HW1 6779   0.691   4.781   2.329
 2145SOL    HW2 6780   0.789   4.723   2.212
 2146SOL     OW 6781   0.410   4.537   3.113
 2146SOL    HW1 6782   0.496   4.549   3.163
 2146SOL    HW2 6783   0.368   4.450   3.140
 2147SOL     OW 6784   1.274   4.110   3.124
 2147SOL    HW1 6785   1.295   4.184   3.188
 2147SOL    HW2 6786   1.185   4.127   3.081
 2148SOL     OW 6787   0.064   5.288   3.193
 2148SOL    HW1 6788   0.018   5.370   3.159
 2148SOL    HW2 6789   0.162   5.307   3.202
 2149SOL     OW 6790   0.367   4.824   2.363
 2149SOL    HW1 6791   0.360   4.907   2.307
 2149SOL    HW2 6792   0.371   4.744   2.303
 2150SOL     OW 6793   0.566   4.261   2.727
 2150SOL    HW1 6794   0.578   4.327   2.653
 2150SOL    HW2 6795   0.612   4.295   2.810
 2151SOL     OW 6796   1.252   5.072   2.250
 2151SOL    HW1 6797   1.302   5.149   2.290
 2151SOL    HW2 6798   1.157   5.074   2.282
 2152SOL     OW 6799   1.272   5.169   3.004
 2152SOL    HW1 6800   1.319   5.182   3.091
 2152SOL    HW2 6801   1.206   5.095   3.013
 2153SOL     OW 6802   1.582   4.363   2.334
 2153SOL    HW1 6803   1.551   4.424   2.407
 2153SOL    HW2 6804   1.632   4.415   2.265
 2154SOL     OW 6805   0.354   5.234   3.191
 2154SOL    HW1 6806   0.333   5.190   3.104
 2154SOL    HW2 6807   0.451   5.260   3.194
 2155SOL     OW 6808   0.402   4.475   3.460
 2155SOL    HW1 6809   0.470   4.530   3.413
 2155SOL    HW2 6810   0.442   4.387   3.487
 2156SOL     OW 6811   1.587   4.503   3.532
 2156SOL    HW1 6812   1.495   4.541   3.527
 2156SOL    HW2 6813   1.647   4.550   3.467
 2157SOL     OW 6814   1.013   3.829   3.632
 2157SOL    HW1 6815   1.019   3.914   3.580
 2157SOL    HW2 6816   1.045   3.753   3.575
 2158SOL     OW 6817   0.504   3.774   3.602
 2158SOL    HW1 6818   0.462   3.717   3.532
 2158SOL    HW2 6819   0.438   3.843   3.634
 2159SOL     OW 6820   0.573   4.594   2.891
 2159SOL    HW1 6821   0.617   4.683   2.882
 2159SOL    HW2 6822   0.510   4.594   2.968
 2160SOL     OW 6823   1.360   4.586   2.907
 2160SOL    HW1 6824   1.285   4.586   2.841
 2160SOL    HW2 6825   1.397   4.494   2.916
 2161SOL     OW 6826   1.209   4.249   2.137
 2161SOL    HW1 6827   1.222   4.165   2.191
 2161SOL    HW2 6828   1.180   4.323   2.197
 2162SOL     OW 6829   0.307   3.937   3.093
 2162SOL    HW1 6830   0.284   3.974   3.183
 2162SOL    HW2 6831   0.277   3.842   3.087
 2163SOL     OW 6832   0.037   5.034   3.144
 2163SOL    HW1 6833   0.090   4.985   3.212
 2163SOL    HW2 6834   0.059   5.132   3.149
 2164SOL     OW 6835   0.732   4.358   2.926
 2164SOL    HW1 6836   0.791   4.332   2.850
 2164SOL    HW2 6837   0.704   4.454   2.915
 2165SOL     OW 6838   1.728   4.659   3.716
 2165SOL    HW1 6839   1.682   4.652   3.627
 2165SOL    HW2 6840   1.666   4.703   3.782
 2166SOL     OW 6841   0.307   3.787   2.480
 2166SOL    HW1 6842   0.296   3.881   2.513
 2166SOL    HW2 6843   0.302   3.724   2.557
 2167SOL     OW 6844   1.622   4.091   2.236
 2167SOL    HW1 6845   1.624   4.015   2.300
 2167SOL    HW2 6846   1.574   4.168   2.276
 2168SOL     OW 6847   1.023   4.490   2.828
 2168SOL    HW1 6848   1.038   4.511   2.924
 2168SOL    HW2 6849   0.993   4.395   2.819
 2169SOL     OW 6850   0.980   5.297   3.562
 2169SOL    HW1 6851   0.960   5.341   3.474
 2169SOL    HW2 6852   1.019   5.206   3.546
 2170SOL     OW 6853   1.859   5.242   3.467
 2170SOL    HW1 6854   1.873   5.269   3.372
 2170SOL    HW2 6855   1.942   5.264   3.520
 2171SOL     OW 6856   0.350   4.622   3.666
 2171SOL    HW1 6857   0.426   4.666   3.714
 2171SOL    HW2 6858   0.385   4.575   3.584
 2172SOL     OW 6859   1.540   3.998   1.987
 2172SOL    HW1 6860   1.479   3.923   2.010
 2172SOL    HW2 6861   1.562   4.050   2.070
 2173SOL     OW 6862   1.303   4.562   1.904
 2173SOL    HW1 6863   1.337   4.469   1.919
 2173SOL    HW2 6864   1.321   4.589   1.809
 2174SOL     OW 6865   1.068   5.057   2.711
 2174SOL    HW1 6866   1.075   4.973   2.656
 2174SOL    HW2 6867   1.130   5.126   2.675
 2175SOL     OW 6868   0.319   4.534   2.811
 2175SOL    HW1 6869   0.412   4.570   2.816
 2175SOL    HW2 6870   0.313   4.449   2.863
 2176SOL     OW 6871   0.339   4.233   2.868
 2176SOL    HW1 6872   0.287   4.150   2.851
 2176SOL    HW2 6873   0.416   4.238   2.804
 2177SOL     OW 6874   1.138   4.104   3.540
 2177SOL    HW1 6875   1.093   4.167   3.604
 2177SOL    HW2 6876   1.231   4.135   3.523
 2178SOL     OW 6877   1.160   3.931   3.339
 2178SOL    HW1 6878   1.160   3.995   3.416
 2178SOL    HW2 6879   1.188   3.979   3.256
 2179SOL     OW 6880   0.008   5.050   2.062
 2179SOL    HW1 6881  -0.085   5.071   2.031
 2179SOL    HW2 6882   0.018   4.951   2.075
 2180SOL     OW 6883   0.088   5.525   2.789
 2180SOL    HW1 6884   0.046   5.439   2.762
 2180SOL    HW2 6885   0.182   5.528   2.755
 2181SOL     OW 6886   0.504   5.292   2.772
 2181SOL    HW1 6887   0.570   5.366   2.781
 2181SOL    HW2 6888   0.548   5.213   2.730
 2182SOL     OW 6889   1.002   4.520   3.100
 2182SOL    HW1 6890   1.043   4.488   3.186
 2182SOL    HW2 6891   0.906   4.493   3.097
 2183SOL     OW 6892   0.040   4.268   2.976
 2183SOL    HW1 6893   0.125   4.235   2.935
 2183SOL    HW2 6894   0.053   4.283   3.074
 2184SOL     OW 6895   0.189   4.244   3.584
 2184SOL    HW1 6896   0.248   4.204   3.514
 2184SOL    HW2 6897   0.131   4.315   3.543
 2185SOL     OW 6898   1.369   4.674   3.522
 2185SOL    HW1 6899   1.408   4.763   3.542
 2185SOL    HW2 6900   1.379   4.654   3.425
 2186SOL     OW 6901   0.815   4.296   2.187
 2186SOL    HW1 6902   0.822   4.207   2.141
 2186SOL    HW2 6903   0.721   4.330   2.179
 2187SOL     OW 6904   1.657   4.328   3.068
 2187SOL    HW1 6905   1.619   4.259   3.130
 2187SOL    HW2 6906   1.739   4.292   3.024
 2188SOL     OW 6907   0.252   5.288   3.606
 2188SOL    HW1 6908   0.222   5.345   3.682
 2188SOL    HW2 6909   0.245   5.191   3.632
 2189SOL     OW 6910   0.671   4.188   3.131
 2189SOL    HW1 6911   0.637   4.099   3.101
 2189SOL    HW2 6912   0.697   4.242   3.051
 2190SOL     OW 6913   0.930   5.402   3.327
 2190SOL    HW1 6914   0.906   5.384   3.232
 2190SOL    HW2 6915   0.960   5.496   3.337
 2191SOL     OW 6916   0.473   4.224   2.053
 2191SOL    HW1 6917   0.534   4.304   2.057
 2191SOL    HW2 6918   0.378   4.255   2.060
 2192SOL     OW 6919   0.159   4.861   3.328
 2192SOL    HW1 6920   0.181   4.800   3.404
 2192SOL    HW2 6921   0.169   4.812   3.242
 2193SOL     OW 6922   1.347   4.783   3.096
 2193SOL    HW1 6923   1.371   4.720   3.022
 2193SOL    HW2 6924   1.257   4.823   3.078
 2194SOL     OW 6925   1.302   4.579   2.171
 2194SOL    HW1 6926   1.216   4.548   2.213
 2194SOL    HW2 6927   1.298   4.565   2.072
 2195SOL     OW 6928   1.759   5.471   3.016
 2195SOL    HW1 6929   1.820   5.501   2.943
 2195SOL    HW2 6930   1.721   5.382   2.994
 2196SOL     OW 6931   1.252   5.455   2.990
 2196SOL    HW1 6932   1.336   5.460   2.936
 2196SOL    HW2 6933   1.229   5.359   3.008
 2197SOL     OW 6934   0.083   4.982   2.884
 2197SOL    HW1 6935   0.078   4.981   2.984
 2197SOL    HW2 6936   0.000   4.941   2.846
 2198SOL     OW 6937   0.688   5.386   3.578
 2198SOL    HW1 6938   0.632   5.467   3.587
 2198SOL    HW2 6939   0.740   5.390   3.492
 2199SOL     OW 6940   1.726   3.859   2.385
 2199SOL    HW1 6941   1.799   3.842   2.318
 2199SOL    HW2 6942   1.695   3.772   2.423
 2200SOL     OW 6943   1.388   5.297   2.339
 2200SOL    HW1 6944   1.455   5.309   2.265
 2200SOL    HW2 6945   1.348   5.386   2.362
 2201SOL     OW 6946   0.130   5.518   3.713
 2201SOL    HW1 6947   0.089   5.444   3.766
 2201SOL    HW2 6948   0.194   5.569   3.771
 2202SOL     OW 6949   1.280   4.651   2.534
 2202SOL    HW1 6950   1.340   4.570   2.536
 2202SOL    HW2 6951   1.320   4.720   2.474
 2203SOL     OW 6952   0.830   4.997   3.284
 2203SOL    HW1 6953   0.825   5.030   3.379
 2203SOL    HW2 6954   0.744   5.016   3.238
 2204SOL     OW 6955   0.672   5.340   2.016
 2204SOL    HW1 6956   0.681   5.350   1.917
 2204SOL    HW2 6957   0.632   5.251   2.037
 2205SOL     OW 6958   1.650   5.444   3.256
 2205SOL    HW1 6959   1.703   5.454   3.172
 2205SOL    HW2 6960   1.623   5.534   3.290
 2206SOL     OW 6961   1.841   3.899   2.825
 2206SOL    HW1 6962   1.880   3.814   2.789
 2206SOL    HW2 6963   1.743   3.901   2.806
 2207SOL     OW 6964   0.263   4.050   2.582
 2207SOL    HW1 6965   0.184   4.101   2.548
 2207SOL    HW2 6966   0.254   4.035   2.680
 2208SOL     OW 6967   1.194   5.336   1.893
 2208SOL    HW1 6968   1.200   5.243   1.930
 2208SOL    HW2 6969   1.135   5.336   1.813
 2209SOL     OW 6970   0.822   4.726   3.234
 2209SOL    HW1 6971   0.862   4.725   3.142
 2209SOL    HW2 6972   0.832   4.818   3.274
 2210SOL     OW 6973   0.916   4.634   2.153
 2210SOL    HW1 6974   0.979   4.672   2.085
 2210SOL    HW2 6975   0.956   4.551   2.192
 2211SOL     OW 6976   1.504   5.331   1.906
 2211SOL    HW1 6977   1.412   5.368   1.913
 2211SOL    HW2 6978   1.542   5.351   1.816
 2212SOL     OW 6979   0.372   5.012   3.352
 2212SOL    HW1 6980   0.359   5.105   3.318
 2212SOL    HW2 6981   0.288   4.960   3.339
 2213SOL     OW 6982   1.614   5.016   3.151
 2213SOL    HW1 6983   1.674   5.019   3.231
 2213SOL    HW2 6984   1.539   5.080   3.164
 2214SOL     OW 6985   1.039   4.822   2.558
 2214SOL    HW1 6986   0.969   4.775   2.612
 2214SOL    HW2 6987   1.098   4.754   2.515
 2215SOL     OW 6988   1.014   3.960   2.833
 2215SOL    HW1 6989   1.006   3.924   2.740
 2215SOL    HW2 6990   1.012   3.884   2.898
 2216SOL     OW 6991   0.590   5.211   2.353
 2216SOL    HW1 6992   0.632   5.153   2.283
 2216SOL    HW2 6993   0.546   5.290   2.309
 2217SOL     OW 6994   1.709   4.109   3.243
 2217SOL    HW1 6995   1.782   4.178   3.247
 2217SOL    HW2 6996   1.737   4.034   3.184
 2218SOL     OW 6997   0.255   5.072   2.152
 2218SOL    HW1 6998   0.159   5.073   2.125
 2218SOL    HW2 6999   0.267   5.125   2.236
 2219SOL     OW 7000   0.105   4.737   3.588
 2219SOL    HW1 7001   0.028   4.704   3.642
 2219SOL    HW2 7002   0.190   4.707   3.630
 2220SOL     OW 7003   0.672   3.927   3.351
 2220SOL    HW1 7004   0.762   3.911   3.311
 2220SOL    HW2 7005   0.680   3.932   3.450
 2221SOL     OW 7006   0.075   4.069   1.895
 2221SOL    HW1 7007  -0.017   4.041   1.866
 2221SOL    HW2 7008   0.106   4.146   1.839
 2222SOL     OW 7009   1.440   4.580   3.260
 2222SOL    HW1 7010   1.383   4.632   3.197
 2222SOL    HW2 7011   1.536   4.592   3.236
 2223SOL     OW 7012   0.072   3.890   2.180
 2223SOL    HW1 7013   0.055   3.973   2.126
 2223SOL    HW2 7014   0.162   3.853   2.158
 2224SOL     OW 7015   1.183   5.059   1.981
 2224SOL    HW1 7016   1.084   5.048   1.983
 2224SOL    HW2 7017   1.217   5.074   2.074
 2225SOL     OW 7018   0.613   4.566   3.293
 2225SOL    HW1 7019   0.669   4.647   3.276
 2225SOL    HW2 7020   0.672   4.486   3.296
 2226SOL     OW 7021   1.493   5.491   2.821
 2226SOL    HW1 7022   1.526   5.555   2.752
 2226SOL    HW2 7023   1.559   5.485   2.896
 2227SOL     OW 7024   0.716   4.289   3.570
 2227SOL    HW1 7025   0.735   4.354   3.644
 2227SOL    HW2 7026   0.776   4.209   3.579
 2228SOL     OW 7027   1.450   4.944   3.495
 2228SOL    HW1 7028   1.441   4.934   3.594
 2228SOL    HW2 7029   1.546   4.937   3.469
 2229SOL     OW 7030   1.674   4.607   3.116
 2229SOL    HW1 7031   1.647   4.518   3.079
 2229SOL    HW2 7032   1.675   4.675   3.043
 2230SOL     OW 7033   1.225   4.049   2.311
 2230SOL    HW1 7034   1.290   3.975   2.300
 2230SOL    HW2 7035   1.245   4.099   2.395
 2231SOL     OW 7036   0.594   4.469   2.514
 2231SOL    HW1 7037   0.644   4.554   2.495
 2231SOL    HW2 7038   0.506   4.471   2.466
 2232SOL     OW 7039   1.777   4.066   3.504
 2232SOL    HW1 7040   1.760   4.097   3.410
 2232SOL    HW2 7041   1.693   4.029   3.542
 2233SOL     OW 7042   1.730   4.658   3.379
 2233SOL    HW1 7043   1.768   4.749   3.394
 2233SOL    HW2 7044   1.722   4.641   3.280
 2234SOL     OW 7045   0.859   5.098   1.878
 2234SOL    HW1 7046   0.813   5.113   1.966
 2234SOL    HW2 7047   0.903   5.183   1.848
 2235SOL     OW 7048   0.661   5.514   2.815
 2235SOL    HW1 7049   0.615   5.602   2.802
 2235SOL    HW2 7050   0.760   5.526   2.808
 2236SOL     OW 7051   0.859   4.680   2.723
 2236SOL    HW1 7052   0.913   4.611   2.771
 2236SOL    HW2 7053   0.827   4.749   2.789
 2237SOL     OW 7054   1.861   5.293   2.713
 2237SOL    HW1 7055   1.790   5.281   2.643
 2237SOL    HW2 7056   1.862   5.214   2.773
 2238SOL     OW 7057   0.221   5.038   3.706
 2238SOL    HW1 7058   0.156   4.965   3.685
 2238SOL    HW2 7059   0.225   5.052   3.804
 2239SOL     OW 7060   0.079   4.964   2.515
 2239SOL    HW1 7061   0.078   4.917   2.603
 2239SOL    HW2 7062   0.161   4.936   2.464
 2240SOL     OW 7063   0.672   5.115   3.486
 2240SOL    HW1 7064   0.594   5.065   3.524
 2240SOL    HW2 7065   0.669   5.210   3.517
 2241SOL     OW 7066   1.824   3.916   3.089
 2241SOL    HW1 7067   1.820   3.826   3.133
 2241SOL    HW2 7068   1.827   3.905   2.990
 2242SOL     OW 7069   0.428   4.148   2.382
 2242SOL    HW1 7070   0.458   4.076   2.320
 2242SOL    HW2 7071   0.389   4.108   2.465
 2243SOL     OW 7072   1.705   5.211   2.966
 2243SOL    HW1 7073   1.612   5.186   2.939
 2243SOL    HW2 7074   1.731   5.161   3.048
 2244SOL     OW 7075   0.317   4.271   3.142
 2244SOL    HW1 7076   0.355   4.212   3.214
 2244SOL    HW2 7077   0.357   4.245   3.054
 2245SOL     OW 7078   0.812   5.310   2.549
 2245SOL    HW1 7079   0.844   5.320   2.455
 2245SOL    HW2 7080   0.733   5.248   2.551
 2246SOL     OW 7081   1.424   3.938   2.974
 2246SOL    HW1 7082   1.476   3.873   3.029
 2246SOL    HW2 7083   1.375   4.001   3.035
 2247SOL     OW 7084   1.001   3.758   3.016
 2247SOL    HW1 7085   0.938   3.686   2.985
 2247SOL    HW2 7086   1.094   3.722   3.016
 2248SOL     OW 7087   0.770   5.054   2.163
 2248SOL    HW1 7088   0.724   4.967   2.180
 2248SOL    HW2 7089   0.861   5.051   2.204
 2249SOL     OW 7090   0.618   5.291   3.146
 2249SOL    HW1 7091   0.613   5.373   3.203
 2249SOL    HW2 7092   0.707   5.288   3.101
 2250SOL     OW 7093   1.352   3.776   2.030
 2250SOL    HW1 7094   1.387   3.735   1.946
 2250SOL    HW2 7095   1.262   3.738   2.050
 2251SOL     OW 7096   1.300   4.177   2.553
 2251SOL    HW1 7097   1.241   4.257   2.557
 2251SOL    HW2 7098   1.315   4.142   2.646
 2252SOL     OW 7099   1.593   3.945   2.744
 2252SOL    HW1 7100   1.509   3.944   2.798
 2252SOL    HW2 7101   1.595   4.028   2.688
 2253SOL     OW 7102   0.039   4.801   2.162
 2253SOL    HW1 7103   0.138   4.790   2.153
 2253SOL    HW2 7104  -0.001   4.715   2.194
 2254SOL     OW 7105   0.875   5.370   2.199
 2254SOL    HW1 7106   0.798   5.335   2.145
 2254SOL    HW2 7107   0.843   5.441   2.261
 2255SOL     OW 7108   0.230   4.352   3.837
 2255SOL    HW1 7109   0.137   4.350   3.874
 2255SOL    HW2 7110   0.231   4.313   3.745
 2256SOL     OW 7111   0.225   3.999   4.720
 2256SOL    HW1 7112   0.260   3.982   4.812
 2256SOL    HW2 7113   0.137   3.954   4.708
 2257SOL     OW 7114   0.019   4.092   4.371
 2257SOL    HW1 7115  -0.063   4.135   4.410
 2257SOL    HW2 7116  -0.009   4.019   4.308
 2258SOL     OW 7117   0.569   4.999   4.889
 2258SOL    HW1 7118   0.476   4.992   4.852
 2258SOL    HW2 7119   0.580   5.088   4.933
 2259SOL     OW 7120   1.555   5.235   4.427
 2259SOL    HW1 7121   1.498   5.219   4.508
 2259SOL    HW2 7122   1.496   5.245   4.347
 2260SOL     OW 7123   1.135   4.427   4.441
 2260SOL    HW1 7124   1.192   4.505   4.416
 2260SOL    HW2 7125   1.075   4.453   4.517
 2261SOL     OW 7126   1.755   4.331   3.955
 2261SOL    HW1 7127   1.743   4.318   3.856
 2261SOL    HW2 7128   1.725   4.250   4.004
 2262SOL     OW 7129   0.768   4.868   4.747
 2262SOL    HW1 7130   0.690   4.885   4.807
 2262SOL    HW2 7131   0.802   4.955   4.711
 2263SOL     OW 7132   0.850   4.522   5.547
 2263SOL    HW1 7133   0.846   4.598   5.612
 2263SOL    HW2 7134   0.872   4.558   5.456
 2264SOL     OW 7135   0.685   4.736   4.389
 2264SOL    HW1 7136   0.754   4.720   4.459
 2264SOL    HW2 7137   0.612   4.793   4.427
 2265SOL     OW 7138   0.686   4.885   5.527
 2265SOL    HW1 7139   0.746   4.964   5.541
 2265SOL    HW2 7140   0.600   4.916   5.486
 2266SOL     OW 7141   0.335   5.159   4.785
 2266SOL    HW1 7142   0.257   5.128   4.732
 2266SOL    HW2 7143   0.393   5.217   4.728
 2267SOL     OW 7144   1.460   5.229   5.063
 2267SOL    HW1 7145   1.484   5.323   5.089
 2267SOL    HW2 7146   1.444   5.175   5.145
 2268SOL     OW 7147   0.438   4.116   5.223
 2268SOL    HW1 7148   0.520   4.060   5.232
 2268SOL    HW2 7149   0.357   4.058   5.227
 2269SOL     OW 7150   1.603   4.171   4.461
 2269SOL    HW1 7151   1.529   4.217   4.411
 2269SOL    HW2 7152   1.654   4.239   4.514
 2270SOL     OW 7153   0.231   5.437   4.207
 2270SOL    HW1 7154   0.265   5.514   4.261
 2270SOL    HW2 7155   0.275   5.437   4.117
 2271SOL     OW 7156   1.127   5.065   5.414
 2271SOL    HW1 7157   1.174   5.065   5.502
 2271SOL    HW2 7158   1.079   4.978   5.403
 2272SOL     OW 7159   0.230   5.158   4.262
 2272SOL    HW1 7160   0.204   5.254   4.262
 2272SOL    HW2 7161   0.159   5.104   4.307
 2273SOL     OW 7162   0.240   4.815   4.610
 2273SOL    HW1 7163   0.254   4.731   4.662
 2273SOL    HW2 7164   0.185   4.879   4.665
 2274SOL     OW 7165   0.620   5.510   5.163
 2274SOL    HW1 7166   0.528   5.493   5.198
 2274SOL    HW2 7167   0.648   5.602   5.189
 2275SOL     OW 7168   0.606   4.688   3.847
 2275SOL    HW1 7169   0.613   4.772   3.793
 2275SOL    HW2 7170   0.652   4.701   3.935
 2276SOL     OW 7171   1.594   3.838   5.204
 2276SOL    HW1 7172   1.576   3.905   5.132
 2276SOL    HW2 7173   1.591   3.884   5.293
 2277SOL     OW 7174   0.122   4.367   4.287
 2277SOL    HW1 7175   0.077   4.279   4.304
 2277SOL    HW2 7176   0.121   4.421   4.371
 2278SOL     OW 7177   1.842   5.491   4.083
 2278SOL    HW1 7178   1.896   5.462   4.163
 2278SOL    HW2 7179   1.872   5.581   4.054
 2279SOL     OW 7180   0.027   5.320   3.841
 2279SOL    HW1 7181   0.008   5.224   3.862
 2279SOL    HW2 7182  -0.006   5.378   3.916
 2280SOL     OW 7183   1.689   4.646   4.336
 2280SOL    HW1 7184   1.784   4.617   4.344
 2280SOL    HW2 7185   1.681   4.711   4.261
 2281SOL     OW 7186   1.641   4.832   4.156
 2281SOL    HW1 7187   1.727   4.834   4.104
 2281SOL    HW2 7188   1.655   4.879   4.244
 2282SOL     OW 7189   0.113   4.461   5.321
 2282SOL    HW1 7190   0.201   4.448   5.366
 2282SOL    HW2 7191   0.100   4.558   5.299
 2283SOL     OW 7192   0.613   5.089   4.450
 2283SOL    HW1 7193   0.564   5.002   4.459
 2283SOL    HW2 7194   0.590   5.132   4.363
 2284SOL     OW 7195   1.293   4.952   5.147
 2284SOL    HW1 7196   1.330   4.879   5.089
 2284SOL    HW2 7197   1.345   4.957   5.232
 2285SOL     OW 7198   0.809   3.728   4.226
 2285SOL    HW1 7199   0.849   3.819   4.217
 2285SOL    HW2 7200   0.709   3.736   4.232
 2286SOL     OW 7201   0.197   4.700   4.988
 2286SOL    HW1 7202   0.286   4.655   4.974
 2286SOL    HW2 7203   0.124   4.635   4.969
 2287SOL     OW 7204   1.525   4.723   3.914
 2287SOL    HW1 7205   1.462   4.647   3.927
 2287SOL    HW2 7206   1.573   4.741   4.000
 2288SOL     OW 7207   1.187   5.516   5.340
 2288SOL    HW1 7208   1.211   5.576   5.264
 2288SOL    HW2 7209   1.194   5.421   5.310
 2289SOL     OW 7210   0.317   3.975   5.525
 2289SOL    HW1 7211   0.388   4.046   5.531
 2289SOL    HW2 7212   0.229   4.014   5.553
 2290SOL     OW 7213   1.466   5.141   4.677
 2290SOL    HW1 7214   1.407   5.147   4.757
 2290SOL    HW2 7215   1.451   5.053   4.631
 2291SOL     OW 7216   1.667   5.438   4.296
 2291SOL    HW1 7217   1.626   5.415   4.208
 2291SOL    HW2 7218   1.649   5.364   4.361
 2292SOL     OW 7219   0.598   4.453   3.994
 2292SOL    HW1 7220   0.622   4.522   3.926
 2292SOL    HW2 7221   0.520   4.486   4.048
 2293SOL     OW 7222   1.281   4.069   4.668
 2293SOL    HW1 7223   1.195   4.019   4.655
 2293SOL    HW2 7224   1.343   4.015   4.724
 2294SOL     OW 7225   1.576   5.386   4.031
 2294SOL    HW1 7226   1.665   5.432   4.034
 2294SOL    HW2 7227   1.555   5.362   3.936
 2295SOL     OW 7228   0.807   4.329   5.189
 2295SOL    HW1 7229   0.760   4.326   5.278
 2295SOL    HW2 7230   0.756   4.274   5.123
 2296SOL     OW 7231   1.394   4.193   5.398
 2296SOL    HW1 7232   1.374   4.236   5.486
 2296SOL    HW2 7233   1.472   4.131   5.407
 2297SOL     OW 7234   0.973   4.614   5.296
 2297SOL    HW1 7235   1.019   4.530   5.267
 2297SOL    HW2 7236   0.917   4.648   5.221
 2298SOL     OW 7237   0.991   4.134   4.966
 2298SOL    HW1 7238   0.914   4.168   5.020
 2298SOL    HW2 7239   0.957   4.083   4.887
 2299SOL     OW 7240   1.041   4.425   4.153
 2299SOL    HW1 7241   1.067   4.421   4.249
 2299SOL    HW2 7242   0.956   4.374   4.139
 2300SOL     OW 7243   0.076   4.535   4.513
 2300SOL    HW1 7244   0.175   4.523   4.522
 2300SOL    HW2 7245   0.052   4.630   4.534
 2301SOL     OW 7246   0.130   5.545   5.295
 2301SOL    HW1 7247   0.120   5.530   5.394
 2301SOL    HW2 7248   0.044   5.581   5.259
 2302SOL     OW 7249   0.865   4.072   3.919
 2302SOL    HW1 7250   0.924   4.135   3.870
 2302SOL    HW2 7251   0.884   3.978   3.890
 2303SOL     OW 7252   1.719   4.309   5.555
 2303SOL    HW1 7253   1.693   4.398   5.519
 2303SOL    HW2 7254   1.717   4.241   5.482
 2304SOL     OW 7255   1.362   4.868   4.269
 2304SOL    HW1 7256   1.445   4.839   4.221
 2304SOL    HW2 7257   1.313   4.935   4.213
 2305SOL     OW 7258   0.550   3.920   4.609
 2305SOL    HW1 7259   0.545   3.915   4.709
 2305SOL    HW2 7260   0.552   4.016   4.580
 2306SOL     OW 7261   1.008   5.180   4.201
 2306SOL    HW1 7262   0.962   5.252   4.149
 2306SOL    HW2 7263   1.004   5.200   4.299
 2307SOL     OW 7264   0.351   5.525   4.577
 2307SOL    HW1 7265   0.401   5.439   4.583
 2307SOL    HW2 7266   0.416   5.602   4.574
 2308SOL     OW 7267   1.795   4.790   4.597
 2308SOL    HW1 7268   1.733   4.775   4.521
 2308SOL    HW2 7269   1.743   4.801   4.682
 2309SOL     OW 7270   1.227   5.274   5.230
 2309SOL    HW1 7271   1.233   5.197   5.294
 2309SOL    HW2 7272   1.175   5.248   5.150
 2310SOL     OW 7273   0.321   4.667   3.966
 2310SOL    HW1 7274   0.403   4.706   3.924
 2310SOL    HW2 7275   0.294   4.585   3.917
 2311SOL     OW 7276   1.458   4.459   4.452
 2311SOL    HW1 7277   1.453   4.394   4.527
 2311SOL    HW2 7278   1.538   4.518   4.465
 2312SOL     OW 7279   0.461   4.990   5.451
 2312SOL    HW1 7280   0.411   4.991   5.365
 2312SOL    HW2 7281   0.398   4.972   5.527
 2313SOL     OW 7282   1.111   5.500   3.961
 2313SOL    HW1 7283   1.051   5.438   4.011
 2313SOL    HW2 7284   1.142   5.456   3.876
 2314SOL     OW 7285   0.202   4.009   5.222
 2314SOL    HW1 7286   0.122   4.069   5.209
 2314SOL    HW2 7287   0.192   3.960   5.308
 2315SOL     OW 7288   1.632   5.101   3.805
 2315SOL    HW1 7289   1.600   5.195   3.795
 2315SOL    HW2 7290   1.556   5.038   3.793
 2316SOL     OW 7291   0.464   5.467   4.047
 2316SOL    HW1 7292   0.497   5.506   4.133
 2316SOL    HW2 7293   0.540   5.460   3.982
 2317SOL     OW 7294   1.400   3.831   4.150
 2317SOL    HW1 7295   1.376   3.794   4.060
 2317SOL    HW2 7296   1.499   3.847   4.154
 2318SOL     OW 7297   0.249   5.509   4.965
 2318SOL    HW1 7298   0.306   5.444   5.015
 2318SOL    HW2 7299   0.233   5.476   4.872
 2319SOL     OW 7300   0.940   5.422   4.628
 2319SOL    HW1 7301   1.020   5.365   4.649
 2319SOL    HW2 7302   0.891   5.382   4.551
 2320SOL     OW 7303   0.382   4.424   4.204
 2320SOL    HW1 7304   0.427   4.334   4.201
 2320SOL    HW2 7305   0.288   4.413   4.237
 2321SOL     OW 7306   1.547   3.946   5.453
 2321SOL    HW1 7307   1.542   3.983   5.545
 2321SOL    HW2 7308   1.475   3.877   5.441
 2322SOL     OW 7309   0.614   3.846   3.841
 2322SOL    HW1 7310   0.712   3.824   3.848
 2322SOL    HW2 7311   0.583   3.829   3.748
 2323SOL     OW 7312   0.781   3.988   5.473
 2323SOL    HW1 7313   0.848   3.927   5.516
 2323SOL    HW2 7314   0.708   4.007   5.538
 2324SOL     OW 7315   0.888   5.238   4.919
 2324SOL    HW1 7316   0.865   5.213   4.825
 2324SOL    HW2 7317   0.949   5.169   4.958
 2325SOL     OW 7318   1.351   4.314   5.157
 2325SOL    HW1 7319   1.379   4.271   5.242
 2325SOL    HW2 7320   1.376   4.410   5.158
 2326SOL     OW 7321   0.803   5.126   4.648
 2326SOL    HW1 7322   0.893   5.140   4.606
 2326SOL    HW2 7323   0.732   5.128   4.577
 2327SOL     OW 7324   0.922   4.227   4.623
 2327SOL    HW1 7325   0.897   4.218   4.527
 2327SOL    HW2 7326   0.970   4.145   4.654
 2328SOL     OW 7327   0.539   3.788   4.236
 2328SOL    HW1 7328   0.458   3.789   4.294
 2328SOL    HW2 7329   0.542   3.871   4.181
 2329SOL     OW 7330   1.434   4.912   3.765
 2329SOL    HW1 7331   1.466   4.836   3.822
 2329SOL    HW2 7332   1.342   4.939   3.795
 2330SOL     OW 7333   0.297   3.759   3.895
 2330SOL    HW1 7334   0.346   3.843   3.874
 2330SOL    HW2 7335   0.359   3.694   3.940
 2331SOL     OW 7336   0.935   3.960   4.204
 2331SOL    HW1 7337   0.887   4.001   4.126
 2331SOL    HW2 7338   1.034   3.958   4.185
 2332SOL     OW 7339   1.076   4.407   5.188
 2332SOL    HW1 7340   0.996   4.346   5.191
 2332SOL    HW2 7341   1.157   4.354   5.164
 2333SOL     OW 7342   1.227   5.294   4.517
 2333SOL    HW1 7343   1.248   5.368   4.452
 2333SOL    HW2 7344   1.295   5.294   4.590
 2334SOL     OW 7345   0.459   4.876   4.465
 2334SOL    HW1 7346   0.388   4.849   4.530
 2334SOL    HW2 7347   0.433   4.848   4.372
 2335SOL     OW 7348   1.271   5.521   4.315
 2335SOL    HW1 7349   1.315   5.585   4.251
 2335SOL    HW2 7350   1.221   5.573   4.385
 2336SOL     OW 7351   1.032   4.273   3.740
 2336SOL    HW1 7352   0.991   4.355   3.701
 2336SOL    HW2 7353   1.096   4.299   3.813
 2337SOL     OW 7354   0.078   4.280   5.110
 2337SOL    HW1 7355   0.170   4.279   5.069
 2337SOL    HW2 7356   0.072   4.354   5.177
 2338SOL     OW 7357   0.561   3.946   4.871
 2338SOL    HW1 7358   0.599   3.862   4.908
 2338SOL    HW2 7359   0.473   3.965   4.915
 2339SOL     OW 7360   0.866   4.178   4.366
 2339SOL    HW1 7361   0.834   4.250   4.304
 2339SOL    HW2 7362   0.890   4.097   4.313
 2340SOL     OW 7363   1.017   3.763   4.477
 2340SOL    HW1 7364   0.945   3.768   4.408
 2340SOL    HW2 7365   0.993   3.694   4.546
 2341SOL     OW 7366   1.429   4.897   4.591
 2341SOL    HW1 7367   1.374   4.813   4.584
 2341SOL    HW2 7368   1.455   4.926   4.499
 2342SOL     OW 7369   1.466   4.314   4.716
 2342SOL    HW1 7370   1.436   4.219   4.723
 2342SOL    HW2 7371   1.539   4.330   4.782
 2343SOL     OW 7372   1.857   4.557   4.101
 2343SOL    HW1 7373   1.899   4.493   4.165
 2343SOL    HW2 7374   1.819   4.506   4.023
 2344SOL     OW 7375   0.488   5.109   3.898
 2344SOL    HW1 7376   0.401   5.094   3.945
 2344SOL    HW2 7377   0.471   5.135   3.803
 2345SOL     OW 7378   1.664   5.004   4.381
 2345SOL    HW1 7379   1.763   5.012   4.395
 2345SOL    HW2 7380   1.619   5.088   4.412
 2346SOL     OW 7381   1.390   4.299   3.802
 2346SOL    HW1 7382   1.336   4.278   3.883
 2346SOL    HW2 7383   1.481   4.258   3.811
 2347SOL     OW 7384   0.527   3.980   4.052
 2347SOL    HW1 7385   0.554   3.921   3.977
 2347SOL    HW2 7386   0.527   4.075   4.021
 2348SOL     OW 7387   1.754   4.947   5.312
 2348SOL    HW1 7388   1.845   4.908   5.299
 2348SOL    HW2 7389   1.762   5.043   5.336
 2349SOL     OW 7390   1.064   5.071   5.064
 2349SOL    HW1 7391   0.984   5.048   5.119
 2349SOL    HW2 7392   1.147   5.045   5.113
 2350SOL     OW 7393   1.592   5.353   5.349
 2350SOL    HW1 7394   1.619   5.387   5.259
 2350SOL    HW2 7395   1.671   5.315   5.395
 2351SOL     OW 7396   1.111   4.919   4.824
 2351SOL    HW1 7397   1.071   4.963   4.905
 2351SOL    HW2 7398   1.070   4.956   4.741
 2352SOL     OW 7399   1.638   4.823   4.803
 2352SOL    HW1 7400   1.643   4.904   4.862
 2352SOL    HW2 7401   1.552   4.825   4.752
 2353SOL     OW 7402   0.915   3.813   5.126
 2353SOL    HW1 7403   0.940   3.793   5.031
 2353SOL    HW2 7404   0.987   3.869   5.168
 2354SOL     OW 7405   0.705   4.774   4.092
 2354SOL    HW1 7406   0.691   4.781   4.191
 2354SOL    HW2 7407   0.789   4.723   4.074
 2355SOL     OW 7408   0.410   4.537   4.975
 2355SOL    HW1 7409   0.496   4.549   5.025
 2355SOL    HW2 7410   0.368   4.450   5.002
 2356SOL     OW 7411   1.274   4.110   4.986
 2356SOL    HW1 7412   1.295   4.184   5.050
 2356SOL    HW2 7413   1.185   4.127   4.943
 2357SOL     OW 7414   0.064   5.288   5.055
 2357SOL    HW1 7415   0.018   5.370   5.021
 2357SOL    HW2 7416   0.162   5.307   5.064
 2358SOL     OW 7417   0.367   4.824   4.225
 2358SOL    HW1 7418   0.360   4.907   4.169
 2358SOL    HW2 7419   0.371   4.744   4.165
 2359SOL     OW 7420   0.566   4.261   4.589
 2359SOL    HW1 7421   0.578   4.327   4.515
 2359SOL    HW2 7422   0.612   4.295   4.672
 2360SOL     OW 7423   1.252   5.072   4.112
 2360SOL    HW1 7424   1.302   5.149   4.152
 2360SOL    HW2 7425   1.157   5.074   4.144
 2361SOL     OW 7426   1.272   5.169   4.866
 2361SOL    HW1 7427   1.319   5.182   4.953
 2361SOL    HW2 7428   1.206   5.095   4.875
 2362SOL     OW 7429   1.582   4.363   4.196
 2362SOL    HW1 7430   1.551   4.424   4.269
 2362SOL    HW2 7431   1.632   4.415   4.127
 2363SOL     OW 7432   0.354   5.234   5.053
 2363SOL    HW1 7433   0.333   5.190   4.966
 2363SOL    HW2 7434   0.451   5.260   5.056
 2364SOL     OW 7435   0.402   4.475   5.322
 2364SOL    HW1 7436   0.470   4.530   5.275
 2364SOL    HW2 7437   0.442   4.387   5.349
 2365SOL     OW 7438   1.587   4.503   5.394
 2365SOL    HW1 7439   1.495   4.541   5.389
 2365SOL    HW2 7440   1.647   4.550   5.329
 2366SOL     OW 7441   1.013   3.829   5.494
 2366SOL    HW1 7442   1.019   3.914   5.442
 2366SOL    HW2 7443   1.045   3.753   5.437
 2367SOL     OW 7444   0.573   4.594   4.753
 2367SOL    HW1 7445   0.617   4.683   4.744
 2367SOL    HW2 7446   0.510   4.594   4.830
 2368SOL     OW 7447   1.360   4.586   4.769
 2368SOL    HW1 7448   1.285   4.586   4.703
 2368SOL    HW2 7449   1.397   4.494   4.778
 2369SOL     OW 7450   1.209   4.249   3.999
 2369SOL    HW1 7451   1.222   4.165   4.053
 2369SOL    HW2 7452   1.180   4.323   4.059
 2370SOL     OW 7453   0.307   3.937   4.955
 2370SOL    HW1 7454   0.284   3.974   5.045
 2370SOL    HW2 7455   0.277   3.842   4.949
 2371SOL     OW 7456   0.037   5.034   5.006
 2371SOL    HW1 7457   0.090   4.985   5.074
 2371SOL    HW2 7458   0.059   5.132   5.011
 2372SOL     OW 7459   0.732   4.358   4.788
 2372SOL    HW1 7460   0.791   4.332   4.712
 2372SOL    HW2 7461   0.704   4.454   4.777
 2373SOL     OW 7462   1.728   4.659   5.578
 2373SOL    HW1 7463   1.682   4.652   5.489
 2373SOL    HW2 7464   1.666   4.703   5.644
 2374SOL     OW 7465   0.307   3.787   4.342
 2374SOL    HW1 7466   0.296   3.881   4.375
 2374SOL    HW2 7467   0.302   3.724   4.419
 2375SOL     OW 7468   1.622   4.091   4.098
 2375SOL    HW1 7469   1.624   4.015   4.162
 2375SOL    HW2 7470   1.574   4.168   4.138
 2376SOL     OW 7471   1.023   4.490   4.690
 2376SOL    HW1 7472   1.038   4.511   4.786
 2376SOL    HW2 7473   0.993   4.395   4.681
 2377SOL     OW 7474   0.980   5.297   5.424
 2377SOL    HW1 7475   0.960   5.341   5.336
 2377SOL    HW2 7476   1.019   5.206   5.408
 2378SOL     OW 7477   1.859   5.242   5.329
 2378SOL    HW1 7478   1.873   5.269   5.234
 2378SOL    HW2 7479   1.942   5.264   5.382
 2379SOL     OW 7480   0.350   4.622   5.528
 2379SOL    HW1 7481   0.426   4.666   5.576
 2379SOL    HW2 7482   0.385   4.575   5.446
 2380SOL     OW 7483   1.540   3.998   3.849
 2380SOL    HW1 7484   1.479   3.923   3.872
 2380SOL    HW2 7485   1.562   4.050   3.932
 2381SOL     OW 7486   1.303   4.562   3.766
 2381SOL    HW1 7487   1.337   4.469   3.781
 2381SOL    HW2 7488   1.321   4.589   3.671
 2382SOL     OW 7489   1.068   5.057   4.573
 2382SOL    HW1 7490   1.075   4.973   4.518
 2382SOL    HW2 7491   1.130   5.126   4.537
 2383SOL     OW 7492   0.319   4.534   4.673
 2383SOL    HW1 7493   0.412   4.570   4.678
 2383SOL    HW2 7494   0.313   4.449   4.725
 2384SOL     OW 7495   0.339   4.233   4.730
 2384SOL    HW1 7496   0.287   4.150   4.713
 2384SOL    HW2 7497   0.416   4.238   4.666
 2385SOL     OW 7498   1.138   4.104   5.402
 2385SOL    HW1 7499   1.093   4.167   5.466
 2385SOL    HW2 7500   1.231   4.135   5.385
 2386SOL     OW 7501   1.160   3.931   5.201
 2386SOL    HW1 7502   1.160   3.995   5.278
 2386SOL    HW2 7503   1.188   3.979   5.118
 2387SOL     OW 7504   0.008   5.050   3.924
 2387SOL    HW1 7505  -0.085   5.071   3.893
 2387SOL    HW2 7506   0.018   4.951   3.937
 2388SOL     OW 7507   0.088   5.525   4.651
 2388SOL    HW1 7508   0.046   5.439   4.624
 2388SOL    HW2 7509   0.182   5.528   4.617
 2389SOL     OW 7510   0.504   5.292   4.634
 2389SOL    HW1 7511   0.570   5.366   4.643
 2389SOL    HW2 7512   0.548   5.213   4.592
 2390SOL     OW 7513   1.002   4.520   4.962
 2390SOL    HW1 7514   1.043   4.488   5.048
 2390SOL    HW2 7515   0.906   4.493   4.959
 2391SOL     OW 7516   0.040   4.268   4.838
 2391SOL    HW1 7517   0.125   4.235   4.797
 2391SOL    HW2 7518   0.053   4.283   4.936
 2392SOL     OW 7519   0.189   4.244   5.446
 2392SOL    HW1 7520   0.248   4.204   5.376
 2392SOL    HW2 7521   0.131   4.315   5.405
 2393SOL     OW 7522   1.369   4.674   5.384
 2393SOL    HW1 7523   1.408   4.763   5.404
 2393SOL    HW2 7524   1.379   4.654   5.287
 2394SOL     OW 7525   0.815   4.296   4.049
 2394SOL    HW1 7526   0.822   4.207   4.003
 2394SOL    HW2 7527   0.721   4.330   4.041
 2395SOL     OW 7528   1.657   4.328   4.930
 2395SOL    HW1 7529   1.619   4.259   4.992
 2395SOL    HW2 7530   1.739   4.292   4.886
 2396SOL     OW 7531   0.252   5.288   5.468
 2396SOL    HW1 7532   0.222   5.345   5.544
 2396SOL    HW2 7533   0.245   5.191   5.494
 2397SOL     OW 7534   0.671   4.188   4.993
 2397SOL    HW1 7535   0.637   4.099   4.963
 2397SOL    HW2 7536   0.697   4.242   4.913
 2398SOL     OW 7537   0.930   5.402   5.189
 2398SOL    HW1 7538   0.906   5.384   5.094
 2398SOL    HW2 7539   0.960   5.496   5.199
 2399SOL     OW 7540   0.473   4.224   3.915
 2399SOL    HW1 7541   0.534   4.304   3.919
 2399SOL    HW2 7542   0.378   4.255   3.922
 2400SOL     OW 7543   0.159   4.861   5.190
 2400SOL    HW1 7544   0.181   4.800   5.266
 2400SOL    HW2 7545   0.169   4.812   5.104
 2401SOL     OW 7546   1.347   4.783   4.958
 2401SOL    HW1 7547   1.371   4.720   4.884
 2401SOL    HW2 7548   1.257   4.823   4.940
 2402SOL     OW 7549   1.302   4.579   4.033
 2402SOL    HW1 7550   1.216   4.548   4.075
 2402SOL    HW2 7551   1.298   4.565   3.934
 2403SOL     OW 7552   1.759   5.471   4.878
 2403SOL    HW1 7553   1.820   5.501   4.805
 2403SOL    HW2 7554   1.721   5.382   4.856
 2404SOL     OW 7555   1.252   5.455   4.852
 2404SOL    HW1 7556   1.336   5.460   4.798
 2404SOL    HW2 7557   1.229   5.359   4.870
 2405SOL     OW 7558   0.083   4.982   4.746
 2405SOL    HW1 7559   0.078   4.981   4.846
 2405SOL    HW2 7560   0.000   4.941   4.708
 2406SOL     OW 7561   0.688   5.386   5.440
 2406SOL    HW1 7562   0.632   5.467   5.449
 2406SOL    HW2 7563   0.740   5.390   5.354
 2407SOL     OW 7564   1.726   3.859   4.247
 2407SOL    HW1 7565   1.799   3.842   4.180
 2407SOL    HW2 7566   1.695   3.772   4.285
 2408SOL     OW 7567   1.388   5.297   4.201
 2408SOL    HW1 7568   1.455   5.309   4.127
 2408SOL    HW2 7569   1.348   5.386   4.224
 2409SOL     OW 7570   0.130   5.518   5.575
 2409SOL    HW1 7571   0.089   5.444   5.628
 2409SOL    HW2 7572   0.194   5.569   5.633
 2410SOL     OW 7573   1.280   4.651   4.396
 2410SOL    HW1 7574   1.340   4.570   4.398
 2410SOL    HW2 7575   1.320   4.720   4.336
 2411SOL     OW 7576   0.830   4.997   5.146
 2411SOL    HW1 7577   0.825   5.030   5.241
 2411SOL    HW2 7578   0.744   5.016   5.100
 2412SOL     OW 7579   0.672   5.340   3.878
 2412SOL    HW1 7580   0.681   5.350   3.779
 2412SOL    HW2 7581   0.632   5.251   3.899
 2413SOL     OW 7582   1.650   5.444   5.118
 2413SOL    HW1 7583   1.703   5.454   5.034
 2413SOL    HW2 7584   1.623   5.534   5.152
 2414SOL     OW 7585   1.841   3.899   4.687
 2414SOL    HW1 7586   1.880   3.814   4.651
 2414SOL    HW2 7587   1.743   3.901   4.668
 2415SOL     OW 7588   0.263   4.050   4.444
 2415SOL    HW1 7589   0.184   4.101   4.410
 2415SOL    HW2 7590   0.254   4.035   4.542
 2416SOL     OW 7591   1.194   5.336   3.755
 2416SOL    HW1 7592   1.200   5.243   3.792
 2416SOL    HW2 7593   1.135   5.336   3.675
 2417SOL     OW 7594   0.822   4.726   5.096
 2417SOL    HW1 7595   0.862   4.725   5.004
 2417SOL    HW2 7596   0.832   4.818   5.136
 2418SOL     OW 7597   0.916   4.634   4.015
 2418SOL    HW1 7598   0.979   4.672   3.947
 2418SOL    HW2 7599   0.956   4.551   4.054
 2419SOL     OW 7600   1.504   5.331   3.768
 2419SOL    HW1 7601   1.412   5.368   3.775
 2419SOL    HW2 7602   1.542   5.351   3.678
 2420SOL     OW 7603   0.372   5.012   5.214
 2420SOL    HW1 7604   0.359   5.105   5.180
 2420SOL    HW2 7605   0.288   4.960   5.201
 2421SOL     OW 7606   1.614   5.016   5.013
 2421SOL    HW1 7607   1.674   5.019   5.093
 2421SOL    HW2 7608   1.539   5.080   5.026
 2422SOL     OW 7609   1.039   4.822   4.420
 2422SOL    HW1 7610   0.969   4.775   4.474
 2422SOL    HW2 7611   1.098   4.754   4.377
 2423SOL     OW 7612   1.014   3.960   4.695
 2423SOL    HW1 7613   1.006   3.924   4.602
 2423SOL    HW2 7614   1.012   3.884   4.760
 2424SOL     OW 7615   0.590   5.211   4.215
 2424SOL    HW1 7616   0.632   5.153   4.145
 2424SOL    HW2 7617   0.546   5.290   4.171
 2425SOL     OW 7618   1.709   4.109   5.105
 2425SOL    HW1 7619   1.782   4.178   5.109
 2425SOL    HW2 7620   1.737   4.034   5.046
 2426SOL     OW 7621   0.255   5.072   4.014
 2426SOL    HW1 7622   0.159   5.073   3.987
 2426SOL    HW2 7623   0.267   5.125   4.098
 2427SOL     OW 7624   0.105   4.737   5.450
 2427SOL    HW1 7625   0.028   4.704   5.504
 2427SOL    HW2 7626   0.190   4.707   5.492
 2428SOL     OW 7627   0.672   3.927   5.213
 2428SOL    HW1 7628   0.762   3.911   5.173
 2428SOL    HW2 7629   0.680   3.932   5.312
 2429SOL     OW 7630   0.075   4.069   3.757
 2429SOL    HW1 7631  -0.017   4.041   3.728
 2429SOL    HW2 7632   0.106   4.146   3.701
 2430SOL     OW 7633   1.440   4.580   5.122
 2430SOL    HW1 7634   1.383   4.632   5.059
 2430SOL    HW2 7635   1.536   4.592   5.098
 2431SOL     OW 7636   0.072   3.890   4.042
 2431SOL    HW1 7637   0.055   3.973   3.988
 2431SOL    HW2 7638   0.162   3.853   4.020
 2432SOL     OW 7639   1.183   5.059   3.843
 2432SOL    HW1 7640   1.084   5.048   3.845
 2432SOL    HW2 7641   1.217   5.074   3.936
 2433SOL     OW 7642   0.613   4.566   5.155
 2433SOL    HW1 7643   0.669   4.647   5.138
 2433SOL    HW2 7644   0.672   4.486   5.158
 2434SOL     OW 7645   1.493   5.491   4.683
 2434SOL    HW1 7646   1.526   5.555   4.614
 2434SOL    HW2 7647   1.559   5.485   4.758
 2435SOL     OW 7648   0.716   4.289   5.432
 2435SOL    HW1 7649   0.735   4.354   5.506
 2435SOL    HW2 7650   0.776   4.209   5.441
 2436SOL     OW 7651   1.450   4.944   5.357
 2436SOL    HW1 7652   1.441   4.934   5.456
 2436SOL    HW2 7653   1.546   4.937   5.331
 2437SOL     OW 7654   0.390   5.465   5.284
 2437SOL    HW1 7655   0.299   5.506   5.282
 2437SOL    HW2 7656   0.383   5.371   5.316
 2438SOL     OW 7657   1.674   4.607   4.978
 2438SOL    HW1 7658   1.647   4.518   4.941
 2438SOL    HW2 7659   1.675   4.675   4.905
 2439SOL     OW 7660   1.225   4.049   4.173
 2439SOL    HW1 7661   1.290   3.975   4.162
 2439SOL    HW2 7662   1.245   4.099   4.257
 2440SOL     OW 7663   0.594   4.469   4.376
 2440SOL    HW1 7664   0.644   4.554   4.357
 2440SOL    HW2 7665   0.506   4.471   4.328
 2441SOL     OW 7666   1.777   4.066   5.366
 2441SOL    HW1 7667   1.760   4.097   5.272
 2441SOL    HW2 7668   1.693   4.029   5.404
 2442SOL     OW 7669   1.730   4.658   5.241
 2442SOL    HW1 7670   1.768   4.749   5.256
 2442SOL    HW2 7671   1.722   4.641   5.142
 2443SOL     OW 7672   0.859   5.098   3.740
 2443SOL    HW1 7673   0.813   5.113   3.828
 2443SOL    HW2 7674   0.903   5.183   3.710
 2444SOL     OW 7675   0.661   5.514   4.677
 2444SOL    HW1 7676   0.615   5.602   4.664
 2444SOL    HW2 7677   0.760   5.526   4.670
 2445SOL     OW 7678   0.859   4.680   4.585
 2445SOL    HW1 7679   0.913   4.611   4.633
 2445SOL    HW2 7680   0.827   4.749   4.651
 2446SOL     OW 7681   1.083   4.708   3.811
 2446SOL    HW1 7682   1.060   4.761   3.729
 2446SOL    HW2 7683   1.164   4.652   3.792
 2447SOL     OW 7684   1.861   5.293   4.575
 2447SOL    HW1 7685   1.790   5.281   4.505
 2447SOL    HW2 7686   1.862   5.214   4.635
 2448SOL     OW 7687   0.221   5.038   5.568
 2448SOL    HW1 7688   0.156   4.965   5.547
 2448SOL    HW2 7689   0.225   5.052   5.666
 2449SOL     OW 7690   0.079   4.964   4.377
 2449SOL    HW1 7691   0.078   4.917   4.465
 2449SOL    HW2 7692   0.161   4.936   4.326
 2450SOL     OW 7693   0.672   5.115   5.348
 2450SOL    HW1 7694   0.594   5.065   5.386
 2450SOL    HW2 7695   0.669   5.210   5.379
 2451SOL     OW 7696   1.824   3.916   4.951
 2451SOL    HW1 7697   1.820   3.826   4.995
 2451SOL    HW2 7698   1.827   3.905   4.852
 2452SOL     OW 7699   0.428   4.148   4.244
 2452SOL    HW1 7700   0.458   4.076   4.182
 2452SOL    HW2 7701   0.389   4.108   4.327
 2453SOL     OW 7702   1.705   5.211   4.828
 2453SOL    HW1 7703   1.612   5.186   4.801
 2453SOL    HW2 7704   1.731   5.161   4.910
 2454SOL     OW 7705   0.317   4.271   5.004
 2454SOL    HW1 7706   0.355   4.212   5.076
 2454SOL    HW2 7707   0.357   4.245   4.916
 2455SOL     OW 7708   0.812   5.310   4.411
 2455SOL    HW1 7709   0.844   5.320   4.317
 2455SOL    HW2 7710   0.733   5.248   4.413
 2456SOL     OW 7711   1.424   3.938   4.836
 2456SOL    HW1 7712   1.476   3.873   4.891
 2456SOL    HW2 7713   1.375   4.001   4.897
 2457SOL     OW 7714   1.001   3.758   4.878
 2457SOL    HW1 7715   0.938   3.686   4.847
 2457SOL    HW2 7716   1.094   3.722   4.878
 2458SOL     OW 7717   0.770   5.054   4.025
 2458SOL    HW1 7718   0.724   4.967   4.042
 2458SOL    HW2 7719   0.861   5.051   4.066
 2459SOL     OW 7720   0.618   5.291   5.008
 2459SOL    HW1 7721   0.613   5.373   5.065
 2459SOL    HW2 7722   0.707   5.288   4.963
 2460SOL     OW 7723   1.352   3.776   3.892
 2460SOL    HW1 7724   1.387   3.735   3.808
 2460SOL    HW2 7725   1.262   3.738   3.912
 2461SOL     OW 7726   1.300   4.177   4.415
 2461SOL    HW1 7727   1.241   4.257   4.419
 2461SOL    HW2 7728   1.315   4.142   4.508
 2462SOL     OW 7729   1.593   3.945   4.606
 2462SOL    HW1 7730   1.509   3.944   4.660
 2462SOL    HW2 7731   1.595   4.028   4.550
 2463SOL     OW 7732   0.039   4.801   4.024
 2463SOL    HW1 7733   0.138   4.790   4.015
 2463SOL    HW2 7734  -0.001   4.715   4.056
 2464SOL     OW 7735   0.875   5.370   4.061
 2464SOL    HW1 7736   0.798   5.335   4.007
 2464SOL    HW2 7737   0.843   5.441   4.123
 2465SOL     OW 7738   0.230   4.352   5.699
 2465SOL    HW1 7739   0.137   4.350   5.736
 2465SOL    HW2 7740   0.231   4.313   5.607
 2466SOL     OW 7741   0.225   3.999   6.582
 2466SOL    HW1 7742   0.260   3.982   6.674
 2466SOL    HW2 7743   0.137   3.954   6.570
 2467SOL     OW 7744   0.019   4.092   6.233
 2467SOL    HW1 7745  -0.063   4.135   6.272
 2467SOL    HW2 7746  -0.009   4.019   6.170
 2468SOL     OW 7747   0.569   4.999   6.751
 2468SOL    HW1 7748   0.476   4.992   6.714
 2468SOL    HW2 7749   0.580   5.088   6.795
 2469SOL     OW 7750   1.555   5.235   6.289
 2469SOL    HW1 7751   1.498   5.219   6.370
 2469SOL    HW2 7752   1.496   5.245   6.209
 2470SOL     OW 7753   1.135   4.427   6.303
 2470SOL    HW1 7754   1.192   4.505   6.278
 2470SOL    HW2 7755   1.075   4.453   6.379
 2471SOL     OW 7756   1.755   4.331   5.817
 2471SOL    HW1 7757   1.743   4.318   5.718
 2471SOL    HW2 7758   1.725   4.250   5.866
 2472SOL     OW 7759   0.768   4.868   6.609
 2472SOL    HW1 7760   0.690   4.885   6.669
 2472SOL    HW2 7761   0.802   4.955   6.573
 2473SOL     OW 7762   0.850   4.522   7.409
 2473SOL    HW1 7763   0.846   4.598   7.474
 2473SOL    HW2 7764   0.872   4.558   7.318
 2474SOL     OW 7765   0.685   4.736   6.251
 2474SOL    HW1 7766   0.754   4.720   6.321
 2474SOL    HW2 7767   0.612   4.793   6.289
 2475SOL     OW 7768   0.686   4.885   7.389
 2475SOL    HW1 7769   0.746   4.964   7.403
 2475SOL    HW2 7770   0.600   4.916   7.348
 2476SOL     OW 7771   0.335   5.159   6.647
 2476SOL    HW1 7772   0.257   5.128   6.594
 2476SOL    HW2 7773   0.393   5.217   6.590
 2477SOL     OW 7774   1.460   5.229   6.925
 2477SOL    HW1 7775   1.484   5.323   6.951
 2477SOL    HW2 7776   1.444   5.175   7.007
 2478SOL     OW 7777   0.438   4.116   7.085
 2478SOL    HW1 7778   0.520   4.060   7.094
 2478SOL    HW2 7779   0.357   4.058   7.089
 2479SOL     OW 7780   1.603   4.171   6.323
 2479SOL    HW1 7781   1.529   4.217   6.273
 2479SOL    HW2 7782   1.654   4.239   6.376
 2480SOL     OW 7783   0.231   5.437   6.069
 2480SOL    HW1 7784   0.265   5.514   6.123
 2480SOL    HW2 7785   0.275   5.437   5.979
 2481SOL     OW 7786   1.127   5.065   7.276
 2481SOL    HW1 7787   1.174   5.065   7.364
 2481SOL    HW2 7788   1.079   4.978   7.265
 2482SOL     OW 7789   0.230   5.158   6.124
 2482SOL    HW1 7790   0.204   5.254   6.124
 2482SOL    HW2 7791   0.159   5.104   6.169
 2483SOL     OW 7792   0.240   4.815   6.472
 2483SOL    HW1 7793   0.254   4.731   6.524
 2483SOL    HW2 7794   0.185   4.879   6.527
 2484SOL     OW 7795   0.620   5.510   7.025
 2484SOL    HW1 7796   0.528   5.493   7.060
 2484SOL    HW2 7797   0.648   5.602   7.051
 2485SOL     OW 7798   0.606   4.688   5.709
 2485SOL    HW1 7799   0.613   4.772   5.655
 2485SOL    HW2 7800   0.652   4.701   5.797
 2486SOL     OW 7801   1.594   3.838   7.066
 2486SOL    HW1 7802   1.576   3.905   6.994
 2486SOL    HW2 7803   1.591   3.884   7.155
 2487SOL     OW 7804   0.122   4.367   6.149
 2487SOL    HW1 7805   0.077   4.279   6.166
 2487SOL    HW2 7806   0.121   4.421   6.233
 2488SOL     OW 7807   1.842   5.491   5.945
 2488SOL    HW1 7808   1.896   5.462   6.025
 2488SOL    HW2 7809   1.872   5.581   5.916
 2489SOL     OW 7810   0.027   5.320   5.703
 2489SOL    HW1 7811   0.008   5.224   5.724
 2489SOL    HW2 7812  -0.006   5.378   5.778
 2490SOL     OW 7813   1.689   4.646   6.198
 2490SOL    HW1 7814   1.784   4.617   6.206
 2490SOL    HW2 7815   1.681   4.711   6.123
 2491SOL     OW 7816   1.641   4.832   6.018
 2491SOL    HW1 7817   1.727   4.834   5.966
 2491SOL    HW2 7818   1.655   4.879   6.106
 2492SOL     OW 7819   0.113   4.461   7.183
 2492SOL    HW1 7820   0.201   4.448   7.228
 2492SOL    HW2 7821   0.100   4.558   7.161
 2493SOL     OW 7822   0.613   5.089   6.312
 2493SOL    HW1 7823   0.564   5.002   6.321
 2493SOL    HW2 7824   0.590   5.132   6.225
 2494SOL     OW 7825   1.293   4.952   7.009
 2494SOL    HW1 7826   1.330   4.879   6.951
 2494SOL    HW2 7827   1.345   4.957   7.094
 2495SOL     OW 7828   0.809   3.728   6.088
 2495SOL    HW1 7829   0.849   3.819   6.079
 2495SOL    HW2 7830   0.709   3.736   6.094
 2496SOL     OW 7831   0.197   4.700   6.850
 2496SOL    HW1 7832   0.286   4.655   6.836
 2496SOL    HW2 7833   0.124   4.635   6.831
 2497SOL     OW 7834   1.525   4.723   5.776
 2497SOL    HW1 7835   1.462   4.647   5.789
 2497SOL    HW2 7836   1.573   4.741   5.862
 2498SOL     OW 7837   1.187   5.516   7.202
 2498SOL    HW1 7838   1.211   5.576   7.126
 2498SOL    HW2 7839   1.194   5.421   7.172
 2499SOL     OW 7840   0.317   3.975   7.387
 2499SOL    HW1 7841   0.388   4.046   7.393
 2499SOL    HW2 7842   0.229   4.014   7.415
 2500SOL     OW 7843   1.466   5.141   6.539
 2500SOL    HW1 7844   1.407   5.147   6.619
 2500SOL    HW2 7845   1.451   5.053   6.493
 2501SOL     OW 7846   1.667   5.438   6.158
 2501SOL    HW1 7847   1.626   5.415   6.070
 2501SOL    HW2 7848   1.649   5.364   6.223
 2502SOL     OW 7849   0.598   4.453   5.856
 2502SOL    HW1 7850   0.622   4.522   5.788
 2502SOL    HW2 7851   0.520   4.486   5.910
 2503SOL     OW 7852   1.281   4.069   6.530
 2503SOL    HW1 7853   1.195   4.019   6.517
 2503SOL    HW2 7854   1.343   4.015   6.586
 2504SOL     OW 7855   1.576   5.386   5.893
 2504SOL    HW1 7856   1.665   5.432   5.896
 2504SOL    HW2 7857   1.555   5.362   5.798
 2505SOL     OW 7858   0.807   4.329   7.051
 2505SOL    HW1 7859   0.760   4.326   7.140
 2505SOL    HW2 7860   0.756   4.274   6.985
 2506SOL     OW 7861   1.394   4.193   7.260
 2506SOL    HW1 7862   1.374   4.236   7.348
 2506SOL    HW2 7863   1.472   4.131   7.269
 2507SOL     OW 7864   0.973   4.614   7.158
 2507SOL    HW1 7865   1.019   4.530   7.129
 2507SOL    HW2 7866   0.917   4.648   7.083
 2508SOL     OW 7867   0.991   4.134   6.828
 2508SOL    HW1 7868   0.914   4.168   6.882
 2508SOL    HW2 7869   0.957   4.083   6.749
 2509SOL     OW 7870   1.041   4.425   6.015
 2509SOL    HW1 7871   1.067   4.421   6.111
 2509SOL    HW2 7872   0.956   4.374   6.001
 2510SOL     OW 7873   0.076   4.535   6.375
 2510SOL    HW1 7874   0.175   4.523   6.384
 2510SOL    HW2 7875   0.052   4.630   6.396
 2511SOL     OW 7876   0.130   5.545   7.157
 2511SOL    HW1 7877   0.120   5.530   7.256
 2511SOL    HW2 7878   0.044   5.581   7.121
 2512SOL     OW 7879   0.865   4.072   5.781
 2512SOL    HW1 7880   0.924   4.135   5.732
 2512SOL    HW2 7881   0.884   3.978   5.752
 2513SOL     OW 7882   1.719   4.309   7.417
 2513SOL    HW1 7883   1.693   4.398   7.381
 2513SOL    HW2 7884   1.717   4.241   7.344
 2514SOL     OW 7885   1.362   4.868   6.131
 2514SOL    HW1 7886   1.445   4.839   6.083
 2514SOL    HW2 7887   1.313   4.935   6.075
 2515SOL     OW 7888   0.550   3.920   6.471
 2515SOL    HW1 7889   0.545   3.915   6.571
 2515SOL    HW2 7890   0.552   4.016   6.442
 2516SOL     OW 7891   1.008   5.180   6.063
 2516SOL    HW1 7892   0.962   5.252   6.011
 2516SOL    HW2 7893   1.004   5.200   6.161
 2517SOL     OW 7894   0.351   5.525   6.439
 2517SOL    HW1 7895   0.401   5.439   6.445
 2517SOL    HW2 7896   0.416   5.602   6.436
 2518SOL     OW 7897   1.795   4.790   6.459
 2518SOL    HW1 7898   1.733   4.775   6.383
 2518SOL    HW2 7899   1.743   4.801   6.544
 2519SOL     OW 7900   1.227   5.274   7.092
 2519SOL    HW1 7901   1.233   5.197   7.156
 2519SOL    HW2 7902   1.175   5.248   7.012
 2520SOL     OW 7903   0.321   4.667   5.828
 2520SOL    HW1 7904   0.403   4.706   5.786
 2520SOL    HW2 7905   0.294   4.585   5.779
 2521SOL     OW 7906   1.458   4.459   6.314
 2521SOL    HW1 7907   1.453   4.394   6.389
 2521SOL    HW2 7908   1.538   4.518   6.327
 2522SOL     OW 7909   0.461   4.990   7.313
 2522SOL    HW1 7910   0.411   4.991   7.227
 2522SOL    HW2 7911   0.398   4.972   7.389
 2523SOL     OW 7912   1.111   5.500   5.823
 2523SOL    HW1 7913   1.051   5.438   5.873
 2523SOL    HW2 7914   1.142   5.456   5.738
 2524SOL     OW 7915   0.202   4.009   7.084
 2524SOL    HW1 7916   0.122   4.069   7.071
 2524SOL    HW2 7917   0.192   3.960   7.170
 2525SOL     OW 7918   1.632   5.101   5.667
 2525SOL    HW1 7919   1.600   5.195   5.657
 2525SOL    HW2 7920   1.556   5.038   5.655
 2526SOL     OW 7921   0.464   5.467   5.909
 2526SOL    HW1 7922   0.497   5.506   5.995
 2526SOL    HW2 7923   0.540   5.460   5.844
 2527SOL     OW 7924   1.400   3.831   6.012
 2527SOL    HW1 7925   1.376   3.794   5.922
 2527SOL    HW2 7926   1.499   3.847   6.016
 2528SOL     OW 7927   0.249   5.509   6.827
 2528SOL    HW1 7928   0.306   5.444   6.877
 2528SOL    HW2 7929   0.233   5.476   6.734
 2529SOL     OW 7930   0.940   5.422   6.490
 2529SOL    HW1 7931   1.020   5.365   6.511
 2529SOL    HW2 7932   0.891   5.382   6.413
 2530SOL     OW 7933   0.382   4.424   6.066
 2530SOL    HW1 7934   0.427   4.334   6.063
 2530SOL    HW2 7935   0.288   4.413   6.099
 2531SOL     OW 7936   1.547   3.946   7.315
 2531SOL    HW1 7937   1.542   3.983   7.407
 2531SOL    HW2 7938   1.475   3.877   7.303
 2532SOL     OW 7939   0.614   3.846   5.703
 2532SOL    HW1 7940   0.712   3.824   5.710
 2532SOL    HW2 7941   0.583   3.829   5.610
 2533SOL     OW 7942   0.781   3.988   7.335
 2533SOL    HW1 7943   0.848   3.927   7.378
 2533SOL    HW2 7944   0.708   4.007   7.400
 2534SOL     OW 7945   0.888   5.238   6.781
 2534SOL    HW1 7946   0.865   5.213   6.687
 2534SOL    HW2 7947   0.949   5.169   6.820
 2535SOL     OW 7948   1.351   4.314   7.019
 2535SOL    HW1 7949   1.379   4.271   7.104
 2535SOL    HW2 7950   1.376   4.410   7.020
 2536SOL     OW 7951   0.803   5.126   6.510
 2536SOL    HW1 7952   0.893   5.140   6.468
 2536SOL    HW2 7953   0.732   5.128   6.439
 2537SOL     OW 7954   0.922   4.227   6.485
 2537SOL    HW1 7955   0.897   4.218   6.389
 2537SOL    HW2 7956   0.970   4.145   6.516
 2538SOL     OW 7957   0.539   3.788   6.098
 2538SOL    HW1 7958   0.458   3.789   6.156
 2538SOL    HW2 7959   0.542   3.871   6.043
 2539SOL     OW 7960   1.434   4.912   5.627
 2539SOL    HW1 7961   1.466   4.836   5.684
 2539SOL    HW2 7962   1.342   4.939   5.657
 2540SOL     OW 7963   0.297   3.759   5.757
 2540SOL    HW1 7964   0.346   3.843   5.736
 2540SOL    HW2 7965   0.359   3.694   5.802
 2541SOL     OW 7966   0.935   3.960   6.066
 2541SOL    HW1 7967   0.887   4.001   5.988
 2541SOL    HW2 7968   1.034   3.958   6.047
 2542SOL     OW 7969   1.076   4.407   7.050
 2542SOL    HW1 7970   0.996   4.346   7.053
 2542SOL    HW2 7971   1.157   4.354   7.026
 2543SOL     OW 7972   1.227   5.294   6.379
 2543SOL    HW1 7973   1.248   5.368   6.314
 2543SOL    HW2 7974   1.295   5.294   6.452
 2544SOL     OW 7975   0.459   4.876   6.327
 2544SOL    HW1 7976   0.388   4.849   6.392
 2544SOL    HW2 7977   0.433   4.848   6.234
 2545SOL     OW 7978   1.271   5.521   6.177
 2545SOL    HW1 7979   1.315   5.585   6.113
 2545SOL    HW2 7980   1.221   5.573   6.247
 2546SOL     OW 7981   1.032   4.273   5.602
 2546SOL    HW1 7982   0.991   4.355   5.563
 2546SOL    HW2 7983   1.096   4.299   5.675
 2547SOL     OW 7984   0.078   4.280   6.972
 2547SOL    HW1 7985   0.170   4.279   6.931
 2547SOL    HW2 7986   0.072   4.354   7.039
 2548SOL     OW 7987   0.561   3.946   6.733
 2548SOL    HW1 7988   0.599   3.862   6.770
 2548SOL    HW2 7989   0.473   3.965   6.777
 2549SOL     OW 7990   0.866   4.178   6.228
 2549SOL    HW1 7991   0.834   4.250   6.166
 2549SOL    HW2 7992   0.890   4.097   6.175
 2550SOL     OW 7993   1.017   3.763   6.339
 2550SOL    HW1 7994   0.945   3.768   6.270
 2550SOL    HW2 7995   0.993   3.694   6.408
 2551SOL     OW 7996   1.429   4.897   6.453
 2551SOL    HW1 7997   1.374   4.813   6.446
 2551SOL    HW2 7998   1.455   4.926   6.361
 2552SOL     OW 7999   1.466   4.314   6.578
 2552SOL    HW1 8000   1.436   4.219   6.585
 2552SOL    HW2 8001   1.539   4.330   6.644
 2553SOL     OW 8002   1.857   4.557   5.963
 2553SOL    HW1 8003   1.899   4.493   6.027
 2553SOL    HW2 8004   1.819   4.506   5.885
 2554SOL     OW 8005   0.488   5.109   5.760
 2554SOL    HW1 8006   0.401   5.094   5.807
 2554SOL    HW2 8007   0.471   5.135   5.665
 2555SOL     OW 8008   1.664   5.004   6.243
 2555SOL    HW1 8009   1.763   5.012   6.257
 2555SOL    HW2 8010   1.619   5.088   6.274
 2556SOL     OW 8011   1.390   4.299   5.664
 2556SOL    HW1 8012   1.336   4.278   5.745
 2556SOL    HW2 8013   1.481   4.258   5.673
 2557SOL     OW 8014   0.527   3.980   5.914
 2557SOL    HW1 8015   0.554   3.921   5.839
 2557SOL    HW2 8016   0.527   4.075   5.883
 2558SOL     OW 8017   1.754   4.947   7.174
 2558SOL    HW1 8018   1.845   4.908   7.161
 2558SOL    HW2 8019   1.762   5.043   7.198
 2559SOL     OW 8020   1.064   5.071   6.926
 2559SOL    HW1 8021   0.984   5.048   6.981
 2559SOL    HW2 8022   1.147   5.045   6.975
 2560SOL     OW 8023   1.592   5.353   7.211
 2560SOL    HW1 8024   1.619   5.387   7.121
 2560SOL    HW2 8025   1.671   5.315   7.257
 2561SOL     OW 8026   1.111   4.919   6.686
 2561SOL    HW1 8027   1.071   4.963   6.767
 2561SOL    HW2 8028   1.070   4.956   6.603
 2562SOL     OW 8029   1.638   4.823   6.665
 2562SOL    HW1 8030   1.643   4.904   6.724
 2562SOL    HW2 8031   1.552   4.825   6.614
 2563SOL     OW 8032   0.915   3.813   6.988
 2563SOL    HW1 8033   0.940   3.793   6.893
 2563SOL    HW2 8034   0.987   3.869   7.030
 2564SOL     OW 8035   0.980   4.840   7.305
 2564SOL    HW1 8036   0.881   4.846   7.315
 2564SOL    HW2 8037   1.003   4.760   7.249
 2565SOL     OW 8038   0.705   4.774   5.954
 2565SOL    HW1 8039   0.691   4.781   6.053
 2565SOL    HW2 8040   0.789   4.723   5.936
 2566SOL     OW 8041   0.410   4.537   6.837
 2566SOL    HW1 8042   0.496   4.549   6.887
 2566SOL    HW2 8043   0.368   4.450   6.864
 2567SOL     OW 8044   1.274   4.110   6.848
 2567SOL    HW1 8045   1.295   4.184   6.912
 2567SOL    HW2 8046   1.185   4.127   6.805
 2568SOL     OW 8047   0.064   5.288   6.917
 2568SOL    HW1 8048   0.018   5.370   6.883
 2568SOL    HW2 8049   0.162   5.307   6.926
 2569SOL     OW 8050   0.367   4.824   6.087
 2569SOL    HW1 8051   0.360   4.907   6.031
 2569SOL    HW2 8052   0.371   4.744   6.027
 2570SOL     OW 8053   0.566   4.261   6.451
 2570SOL    HW1 8054   0.578   4.327   6.377
 2570SOL    HW2 8055   0.612   4.295   6.534
 2571SOL     OW 8056   1.252   5.072   5.974
 2571SOL    HW1 8057   1.302   5.149   6.014
 2571SOL    HW2 8058   1.157   5.074   6.006
 2572SOL     OW 8059   1.272   5.169   6.728
 2572SOL    HW1 8060   1.319   5.182   6.815
 2572SOL    HW2 8061   1.206   5.095   6.737
 2573SOL     OW 8062   1.582   4.363   6.058
 2573SOL    HW1 8063   1.551   4.424   6.131
 2573SOL    HW2 8064   1.632   4.415   5.989
 2574SOL     OW 8065   0.354   5.234   6.915
 2574SOL    HW1 8066   0.333   5.190   6.828
 2574SOL    HW2 8067   0.451   5.260   6.918
 2575SOL     OW 8068   0.402   4.475   7.184
 2575SOL    HW1 8069   0.470   4.530   7.137
 2575SOL    HW2 8070   0.442   4.387   7.211
 2576SOL     OW 8071   1.587   4.503   7.256
 2576SOL    HW1 8072   1.495   4.541   7.251
 2576SOL    HW2 8073   1.647   4.550   7.191
 2577SOL     OW 8074   1.013   3.829   7.356
 2577SOL    HW1 8075   1.019   3.914   7.304
 2577SOL    HW2 8076   1.045   3.753   7.299
 2578SOL     OW 8077   0.504   3.774   7.326
 2578SOL    HW1 8078   0.462   3.717   7.256
 2578SOL    HW2 8079   0.438   3.843   7.358
 2579SOL     OW 8080   0.573   4.594   6.615
 2579SOL    HW1 8081   0.617   4.683   6.606
 2579SOL    HW2 8082   0.510   4.594   6.692
 2580SOL     OW 8083   1.360   4.586   6.631
 2580SOL    HW1 8084   1.285   4.586   6.565
 2580SOL    HW2 8085   1.397   4.494   6.640
 2581SOL     OW 8086   1.209   4.249   5.861
 2581SOL    HW1 8087   1.222   4.165   5.915
 2581SOL    HW2 8088   1.180   4.323   5.921
 2582SOL     OW 8089   0.307   3.937   6.817
 2582SOL    HW1 8090   0.284   3.974   6.907
 2582SOL    HW2 8091   0.277   3.842   6.811
 2583SOL     OW 8092   0.037   5.034   6.868
 2583SOL    HW1 8093   0.090   4.985   6.936
 2583SOL    HW2 8094   0.059   5.132   6.873
 2584SOL     OW 8095   0.732   4.358   6.650
 2584SOL    HW1 8096   0.791   4.332   6.574
 2584SOL    HW2 8097   0.704   4.454   6.639
 2585SOL     OW 8098   1.728   4.659   7.440
 2585SOL    HW1 8099   1.682   4.652   7.351
 2585SOL    HW2 8100   1.666   4.703   7.506
 2586SOL     OW 8101   0.307   3.787   6.204
 2586SOL    HW1 8102   0.296   3.881   6.237
 2586SOL    HW2 8103   0.302   3.724   6.281
 2587SOL     OW 8104   1.622   4.091   5.960
 2587SOL    HW1 8105   1.624   4.015   6.024
 2587SOL    HW2 8106   1.574   4.168   6.000
 2588SOL     OW 8107   1.023   4.490   6.552
 2588SOL    HW1 8108   1.038   4.511   6.648
 2588SOL    HW2 8109   0.993   4.395   6.543
 2589SOL     OW 8110   0.980   5.297   7.286
 2589SOL    HW1 8111   0.960   5.341   7.198
 2589SOL    HW2 8112   1.019   5.206   7.270
 2590SOL     OW 8113   1.859   5.242   7.191
 2590SOL    HW1 8114   1.873   5.269   7.096
 2590SOL    HW2 8115   1.942   5.264   7.244
 2591SOL     OW 8116   0.350   4.622   7.390
 2591SOL    HW1 8117   0.426   4.666   7.438
 2591SOL    HW2 8118   0.385   4.575   7.308
 2592SOL     OW 8119   1.540   3.998   5.711
 2592SOL    HW1 8120   1.479   3.923   5.734
 2592SOL    HW2 8121   1.562   4.050   5.794
 2593SOL     OW 8122   1.303   4.562   5.628
 2593SOL    HW1 8123   1.337   4.469   5.643
 2593SOL    HW2 8124   1.321   4.589   5.533
 2594SOL     OW 8125   1.068   5.057   6.435
 2594SOL    HW1 8126   1.075   4.973   6.380
 2594SOL    HW2 8127   1.130   5.126   6.399
 2595SOL     OW 8128   0.319   4.534   6.535
 2595SOL    HW1 8129   0.412   4.570   6.540
 2595SOL    HW2 8130   0.313   4.449   6.587
 2596SOL     OW 8131   0.339   4.233   6.592
 2596SOL    HW1 8132   0.287   4.150   6.575
 2596SOL    HW2 8133   0.416   4.238   6.528
 2597SOL     OW 8134   1.138   4.104   7.264
 2597SOL    HW1 8135   1.093   4.167   7.328
 2597SOL    HW2 8136   1.231   4.135   7.247
 2598SOL     OW 8137   1.160   3.931   7.063
 2598SOL    HW1 8138   1.160   3.995   7.140
 2598SOL    HW2 8139   1.188   3.979   6.980
 2599SOL     OW 8140   0.008   5.050   5.786
 2599SOL    HW1 8141  -0.085   5.071   5.755
 2599SOL    HW2 8142   0.018   4.951   5.799
 2600SOL     OW 8143   0.088   5.525   6.513
 2600SOL    HW1 8144   0.046   5.439   6.486
 2600SOL    HW2 8145   0.182   5.528   6.479
 2601SOL     OW 8146   0.504   5.292   6.496
 2601SOL    HW1 8147   0.570   5.366   6.505
 2601SOL    HW2 8148   0.548   5.213   6.454
 2602SOL     OW 8149   1.002   4.520   6.824
 2602SOL    HW1 8150   1.043   4.488   6.910
 2602SOL    HW2 8151   0.906   4.493   6.821
 2603SOL     OW 8152   0.040   4.268   6.700
 2603SOL    HW1 8153   0.125   4.235   6.659
 2603SOL    HW2 8154   0.053   4.283   6.798
 2604SOL     OW 8155   0.189   4.244   7.308
 2604SOL    HW1 8156   0.248   4.204   7.238
 2604SOL    HW2 8157   0.131   4.315   7.267
 2605SOL     OW 8158   1.369   4.674   7.246
 2605SOL    HW1 8159   1.408   4.763   7.266
 2605SOL    HW2 8160   1.379   4.654   7.149
 2606SOL     OW 8161   0.815   4.296   5.911
 2606SOL    HW1 8162   0.822   4.207   5.865
 2606SOL    HW2 8163   0.721   4.330   5.903
 2607SOL     OW 8164   1.657   4.328   6.792
 2607SOL    HW1 8165   1.619   4.259   6.854
 2607SOL    HW2 8166   1.739   4.292   6.748
 2608SOL     OW 8167   0.252   5.288   7.330
 2608SOL    HW1 8168   0.222   5.345   7.406
 2608SOL    HW2 8169   0.245   5.191   7.356
 2609SOL     OW 8170   0.671   4.188   6.855
 2609SOL    HW1 8171   0.637   4.099   6.825
 2609SOL    HW2 8172   0.697   4.242   6.775
 2610SOL     OW 8173   0.930   5.402   7.051
 2610SOL    HW1 8174   0.906   5.384   6.956
 2610SOL    HW2 8175   0.960   5.496   7.061
 2611SOL     OW 8176   0.473   4.224   5.777
 2611SOL    HW1 8177   0.534   4.304   5.781
 2611SOL    HW2 8178   0.378   4.255   5.784
 2612SOL     OW 8179   0.159   4.861   7.052
 2612SOL    HW1 8180   0.181   4.800   7.128
 2612SOL    HW2 8181   0.169   4.812   6.966
 2613SOL     OW 8182   1.347   4.783   6.820
 2613SOL    HW1 8183   1.371   4.720   6.746
 2613SOL    HW2 8184   1.257   4.823   6.802
 2614SOL     OW 8185   1.302   4.579   5.895
 2614SOL    HW1 8186   1.216   4.548   5.937
 2614SOL    HW2 8187   1.298   4.565   5.796
 2615SOL     OW 8188   1.759   5.471   6.740
 2615SOL    HW1 8189   1.820   5.501   6.667
 2615SOL    HW2 8190   1.721   5.382   6.718
 2616SOL     OW 8191   1.252   5.455   6.714
 2616SOL    HW1 8192   1.336   5.460   6.660
 2616SOL    HW2 8193   1.229   5.359   6.732
 2617SOL     OW 8194   0.083   4.982   6.608
 2617SOL    HW1 8195   0.078   4.981   6.708
 2617SOL    HW2 8196   0.000   4.941   6.570
 2618SOL     OW 8197   0.688   5.386   7.302
 2618SOL    HW1 8198   0.632   5.467   7.311
 2618SOL    HW2 8199   0.740   5.390   7.216
 2619SOL     OW 8200   1.726   3.859   6.109
 2619SOL    HW1 8201   1.799   3.842   6.042
 2619SOL    HW2 8202   1.695   3.772   6.147
 2620SOL     OW 8203   1.388   5.297   6.063
 2620SOL    HW1 8204   1.455   5.309   5.989
 2620SOL    HW2 8205   1.348   5.386   6.086
 2621SOL     OW 8206   0.130   5.518   7.437
 2621SOL    HW1 8207   0.089   5.444   7.490
 2621SOL    HW2 8208   0.194   5.569   7.495
 2622SOL     OW 8209   1.280   4.651   6.258
 2622SOL    HW1 8210   1.340   4.570   6.260
 2622SOL    HW2 8211   1.320   4.720   6.198
 2623SOL     OW 8212   0.830   4.997   7.008
 2623SOL    HW1 8213   0.825   5.030   7.103
 2623SOL    HW2 8214   0.744   5.016   6.962
 2624SOL     OW 8215   0.672   5.340   5.740
 2624SOL    HW1 8216   0.681   5.350   5.641
 2624SOL    HW2 8217   0.632   5.251   5.761
 2625SOL     OW 8218   1.650   5.444   6.980
 2625SOL    HW1 8219   1.703   5.454   6.896
 2625SOL    HW2 8220   1.623   5.534   7.014
 2626SOL     OW 8221   1.841   3.899   6.549
 2626SOL    HW1 8222   1.880   3.814   6.513
 2626SOL    HW2 8223   1.743   3.901   6.530
 2627SOL     OW 8224   1.194   5.336   5.617
 2627SOL    HW1 8225   1.200   5.243   5.654
 2627SOL    HW2 8226   1.135   5.336   5.537
 2628SOL     OW 8227   0.822   4.726   6.958
 2628SOL    HW1 8228   0.862   4.725   6.866
 2628SOL    HW2 8229   0.832   4.818   6.998
 2629SOL     OW 8230   0.916   4.634   5.877
 2629SOL    HW1 8231   0.979   4.672   5.809
 2629SOL    HW2 8232   0.956   4.551   5.916
 2630SOL     OW 8233   1.504   5.331   5.630
 2630SOL    HW1 8234   1.412   5.368   5.637
 2630SOL    HW2 8235   1.542   5.351   5.540
 2631SOL     OW 8236   0.372   5.012   7.076
 2631SOL    HW1 8237   0.359   5.105   7.042
 2631SOL    HW2 8238   0.288   4.960   7.063
 2632SOL     OW 8239   1.614   5.016   6.875
 2632SOL    HW1 8240   1.674   5.019   6.955
 2632SOL    HW2 8241   1.539   5.080   6.888
 2633SOL     OW 8242   1.039   4.822   6.282
 2633SOL    HW1 8243   0.969   4.775   6.336
 2633SOL    HW2 8244   1.098   4.754   6.239
 2634SOL     OW 8245   1.014   3.960   6.557
 2634SOL    HW1 8246   1.006   3.924   6.464
 2634SOL    HW2 8247   1.012   3.884   6.622
 2635SOL     OW 8248   0.590   5.211   6.077
 2635SOL    HW1 8249   0.632   5.153   6.007
 2635SOL    HW2 8250   0.546   5.290   6.033
 2636SOL     OW 8251   1.709   4.109   6.967
 2636SOL    HW1 8252   1.782   4.178   6.971
 2636SOL    HW2 8253   1.737   4.034   6.908
 2637SOL     OW 8254   0.255   5.072   5.876
 2637SOL    HW1 8255   0.159   5.073   5.849
 2637SOL    HW2 8256   0.267   5.125   5.960
 2638SOL     OW 8257   0.105   4.737   7.312
 2638SOL    HW1 8258   0.028   4.704   7.366
 2638SOL    HW2 8259   0.190   4.707   7.354
 2639SOL     OW 8260   0.672   3.927   7.075
 2639SOL    HW1 8261   0.762   3.911   7.035
 2639SOL    HW2 8262   0.680   3.932   7.174
 2640SOL     OW 8263   0.075   4.069   5.619
 2640SOL    HW1 8264  -0.017   4.041   5.590
 2640SOL    HW2 8265   0.106   4.146   5.563
 2641SOL     OW 8266   1.440   4.580   6.984
 2641SOL    HW1 8267   1.383   4.632   6.921
 2641SOL    HW2 8268   1.536   4.592   6.960
 2642SOL     OW 8269   0.072   3.890   5.904
 2642SOL    HW1 8270   0.055   3.973   5.850
 2642SOL    HW2 8271   0.162   3.853   5.882
 2643SOL     OW 8272   1.183   5.059   5.705
 2643SOL    HW1 8273   1.084   5.048   5.707
 2643SOL    HW2 8274   1.217   5.074   5.798
 2644SOL     OW 8275   0.613   4.566   7.017
 2644SOL    HW1 8276   0.669   4.647   7.000
 2644SOL    HW2 8277   0.672   4.486   7.020
 2645SOL     OW 8278   1.493   5.491   6.545
 2645SOL    HW1 8279   1.526   5.555   6.476
 2645SOL    HW2 8280   1.559   5.485   6.620
 2646SOL     OW 8281   0.716   4.289   7.294
 2646SOL    HW1 8282   0.735   4.354   7.368
 2646SOL    HW2 8283   0.776   4.209   7.303
 2647SOL     OW 8284   1.450   4.944   7.219
 2647SOL    HW1 8285   1.441   4.934   7.318
 2647SOL    HW2 8286   1.546   4.937   7.193
 2648SOL     OW 8287   0.390   5.465   7.146
 2648SOL    HW1 8288   0.299   5.506   7.144
 2648SOL    HW2 8289   0.383   5.371   7.178
 2649SOL     OW 8290   1.674   4.607   6.840
 2649SOL    HW1 8291   1.647   4.518   6.803
 2649SOL    HW2 8292   1.675   4.675   6.767
 2650SOL     OW 8293   1.225   4.049   6.035
 2650SOL    HW1 8294   1.290   3.975   6.024
 2650SOL    HW2 8295   1.245   4.099   6.119
 2651SOL     OW 8296   0.594   4.469   6.238
 2651SOL    HW1 8297   0.644   4.554   6.219
 2651SOL    HW2 8298   0.506   4.471   6.190
 2652SOL     OW 8299   1.777   4.066   7.228
 2652SOL    HW1 8300   1.760   4.097   7.134
 2652SOL    HW2 8301   1.693   4.029   7.266
 2653SOL     OW 8302   1.730   4.658   7.103
 2653SOL    HW1 8303   1.768   4.749   7.118
 2653SOL    HW2 8304   1.722   4.641   7.004
 2654SOL     OW 8305   0.859   5.098   5.602
 2654SOL    HW1 8306   0.813   5.113   5.690
 2654SOL    HW2 8307   0.903   5.183   5.572
 2655SOL     OW 8308   0.661   5.514   6.539
 2655SOL    HW1 8309   0.615   5.602   6.526
 2655SOL    HW2 8310   0.760   5.526   6.532
 2656SOL     OW 8311   0.859   4.680   6.447
 2656SOL    HW1 8312   0.913   4.611   6.495
 2656SOL    HW2 8313   0.827   4.749   6.513
 2657SOL     OW 8314   1.083   4.708   5.673
 2657SOL    HW1 8315   1.060   4.761   5.591
 2657SOL    HW2 8316   1.164   4.652   5.654
 2658SOL     OW 8317   1.861   5.293   6.437
 2658SOL    HW1 8318   1.790   5.281   6.367
 2658SOL    HW2 8319   1.862   5.214   6.497
 2659SOL     OW 8320   0.221   5.038   7.430
 2659SOL    HW1 8321   0.156   4.965   7.409
 2659SOL    HW2 8322   0.225   5.052   7.528
 2660SOL     OW 8323   0.079   4.964   6.239
 2660SOL    HW1 8324   0.078   4.917   6.327
 2660SOL    HW2 8325   0.161   4.936   6.188
 2661SOL     OW 8326   0.672   5.115   7.210
 2661SOL    HW1 8327   0.594   5.065   7.248
 2661SOL    HW2 8328   0.669   5.210   7.241
 2662SOL     OW 8329   1.824   3.916   6.813
 2662SOL    HW1 8330   1.820   3.826   6.857
 2662SOL    HW2 8331   1.827   3.905   6.714
 2663SOL     OW 8332   0.428   4.148   6.106
 2663SOL    HW1 8333   0.458   4.076   6.044
 2663SOL    HW2 8334   0.389   4.108   6.189
 2664SOL     OW 8335   1.705   5.211   6.690
 2664SOL    HW1 8336   1.612   5.186   6.663
 2664SOL    HW2 8337   1.731   5.161   6.772
 2665SOL     OW 8338   0.317   4.271   6.866
 2665SOL    HW1 8339   0.355   4.212   6.938
 2665SOL    HW2 8340   0.357   4.245   6.778
 2666SOL     OW 8341   0.812   5.310   6.273
 2666SOL    HW1 8342   0.844   5.320   6.179
 2666SOL    HW2 8343   0.733   5.248   6.275
 2667SOL     OW 8344   1.424   3.938   6.698
 2667SOL    HW1 8345   1.476   3.873   6.753
 2667SOL    HW2 8346   1.375   4.001   6.759
 2668SOL     OW 8347   1.001   3.758   6.740
 2668SOL    HW1 8348   0.938   3.686   6.709
 2668SOL    HW2 8349   1.094   3.722   6.740
 2669SOL     OW 8350   0.770   5.054   5.887
 2669SOL    HW1 8351   0.724   4.967   5.904
 2669SOL    HW2 8352   0.861   5.051   5.928
 2670SOL     OW 8353   0.618   5.291   6.870
 2670SOL    HW1 8354   0.613   5.373   6.927
 2670SOL    HW2 8355   0.707   5.288   6.825
 2671SOL     OW 8356   1.352   3.776   5.754
 2671SOL    HW1 8357   1.387   3.735   5.670
 2671SOL    HW2 8358   1.262   3.738   5.774
 2672SOL     OW 8359   1.300   4.177   6.277
 2672SOL    HW1 8360   1.241   4.257   6.281
 2672SOL    HW2 8361   1.315   4.142   6.370
 2673SOL     OW 8362   1.593   3.945   6.468
 2673SOL    HW1 8363   1.509   3.944   6.522
 2673SOL    HW2 8364   1.595   4.028   6.412
 2674SOL     OW 8365   0.039   4.801   5.886
 2674SOL    HW1 8366   0.138   4.790   5.877
 2674SOL    HW2 8367  -0.001   4.715   5.918
 2675SOL     OW 8368   0.875   5.370   5.923
 2675SOL    HW1 8369   0.798   5.335   5.869
 2675SOL    HW2 8370   0.843   5.441   5.985
 2676SOL     OW 8371   0.230   4.352   7.561
 2676SOL    HW1 8372   0.137   4.350   7.598
 2676SOL    HW2 8373   0.231   4.313   7.469
 2677SOL     OW 8374   1.755   4.331   7.679
 2677SOL    HW1 8375   1.743   4.318   7.580
 2677SOL    HW2 8376   1.725   4.250   7.728
 2678SOL     OW 8377   0.231   5.437   7.931
 2678SOL    HW1 8378   0.265   5.514   7.985
 2678SOL    HW2 8379   0.275   5.437   7.841
 2679SOL     OW 8380   0.606   4.688   7.571
 2679SOL    HW1 8381   0.613   4.772   7.517
 2679SOL    HW2 8382   0.652   4.701   7.659
 2680SOL     OW 8383   1.842   5.491   7.807
 2680SOL    HW1 8384   1.896   5.462   7.887
 2680SOL    HW2 8385   1.872   5.581   7.778
 2681SOL     OW 8386   0.027   5.320   7.565
 2681SOL    HW1 8387   0.008   5.224   7.586
 2681SOL    HW2 8388  -0.006   5.378   7.640
 2682SOL     OW 8389   1.641   4.832   7.880
 2682SOL    HW1 8390   1.727   4.834   7.828
 2682SOL    HW2 8391   1.655   4.879   7.968
 2683SOL     OW 8392   0.809   3.728   7.950
 2683SOL    HW1 8393   0.849   3.819   7.941
 2683SOL    HW2 8394   0.709   3.736   7.956
 2684SOL     OW 8395   1.525   4.723   7.638
 2684SOL    HW1 8396   1.462   4.647   7.651
 2684SOL    HW2 8397   1.573   4.741   7.724
 2685SOL     OW 8398   1.667   5.438   8.020
 2685SOL    HW1 8399   1.626   5.415   7.932
 2685SOL    HW2 8400   1.649   5.364   8.085
 2686SOL     OW 8401   0.598   4.453   7.718
 2686SOL    HW1 8402   0.622   4.522   7.650
 2686SOL    HW2 8403   0.520   4.486   7.772
 2687SOL     OW 8404   1.576   5.386   7.755
 2687SOL    HW1 8405   1.665   5.432   7.758
 2687SOL    HW2 8406   1.555   5.362   7.660
 2688SOL     OW 8407   1.041   4.425   7.877
 2688SOL    HW1 8408   1.067   4.421   7.973
 2688SOL    HW2 8409   0.956   4.374   7.863
 2689SOL     OW 8410   0.865   4.072   7.643
 2689SOL    HW1 8411   0.924   4.135   7.594
 2689SOL    HW2 8412   0.884   3.978   7.614
 2690SOL     OW 8413   1.362   4.868   7.993
 2690SOL    HW1 8414   1.445   4.839   7.945
 2690SOL    HW2 8415   1.313   4.935   7.937
 2691SOL     OW 8416   1.008   5.180   7.925
 2691SOL    HW1 8417   0.962   5.252   7.873
 2691SOL    HW2 8418   1.004   5.200   8.023
 2692SOL     OW 8419   0.321   4.667   7.690
 2692SOL    HW1 8420   0.403   4.706   7.648
 2692SOL    HW2 8421   0.294   4.585   7.641
 2693SOL     OW 8422   1.111   5.500   7.685
 2693SOL    HW1 8423   1.051   5.438   7.735
 2693SOL    HW2 8424   1.142   5.456   7.600
 2694SOL     OW 8425   1.632   5.101   7.529
 2694SOL    HW1 8426   1.600   5.195   7.519
 2694SOL    HW2 8427   1.556   5.038   7.517
 2695SOL     OW 8428   0.464   5.467   7.771
 2695SOL    HW1 8429   0.497   5.506   7.857
 2695SOL    HW2 8430   0.540   5.460   7.706
 2696SOL     OW 8431   1.400   3.831   7.874
 2696SOL    HW1 8432   1.376   3.794   7.784
 2696SOL    HW2 8433   1.499   3.847   7.878
 2697SOL     OW 8434   0.382   4.424   7.928
 2697SOL    HW1 8435   0.427   4.334   7.925
 2697SOL    HW2 8436   0.288   4.413   7.961
 2698SOL     OW 8437   0.614   3.846   7.565
 2698SOL    HW1 8438   0.712   3.824   7.572
 2698SOL    HW2 8439   0.583   3.829   7.472
 2699SOL     OW 8440   0.539   3.788   7.960
 2699SOL    HW1 8441   0.458   3.789   8.018
 2699SOL    HW2 8442   0.542   3.871   7.905
 2700SOL     OW 8443   1.434   4.912   7.489
 2700SOL    HW1 8444   1.466   4.836   7.546
 2700SOL    HW2 8445   1.342   4.939   7.519
 2701SOL     OW 8446   0.297   3.759   7.619
 2701SOL    HW1 8447   0.346   3.843   7.598
 2701SOL    HW2 8448   0.359   3.694   7.664
 2702SOL     OW 8449   0.935   3.960   7.928
 2702SOL    HW1 8450   0.887   4.001   7.850
 2702SOL    HW2 8451   1.034   3.958   7.909
 2703SOL     OW 8452   1.032   4.273   7.464
 2703SOL    HW1 8453   0.991   4.355   7.425
 2703SOL    HW2 8454   1.096   4.299   7.537
 2704SOL     OW 8455   1.857   4.557   7.825
 2704SOL    HW1 8456   1.899   4.493   7.889
 2704SOL    HW2 8457   1.819   4.506   7.747
 2705SOL     OW 8458   0.488   5.109   7.622
 2705SOL    HW1 8459   0.401   5.094   7.669
 2705SOL    HW2 8460   0.471   5.135   7.527
 2706SOL     OW 8461   1.390   4.299   7.526
 2706SOL    HW1 8462   1.336   4.278   7.607
 2706SOL    HW2 8463   1.481   4.258   7.535
 2707SOL     OW 8464   0.527   3.980   7.776
 2707SOL    HW1 8465   0.554   3.921   7.701
 2707SOL    HW2 8466   0.527   4.075   7.745
 2708SOL     OW 8467   0.705   4.774   7.816
 2708SOL    HW1 8468   0.691   4.781   7.915
 2708SOL    HW2 8469   0.789   4.723   7.798
 2709SOL     OW 8470   0.367   4.824   7.949
 2709SOL    HW1 8471   0.360   4.907   7.893
 2709SOL    HW2 8472   0.371   4.744   7.889
 2710SOL     OW 8473   1.252   5.072   7.836
 2710SOL    HW1 8474   1.302   5.149   7.876
 2710SOL    HW2 8475   1.157   5.074   7.868
 2711SOL     OW 8476   1.582   4.363   7.920
 2711SOL    HW1 8477   1.551   4.424   7.993
 2711SOL    HW2 8478   1.632   4.415   7.851
 2712SOL     OW 8479   1.209   4.249   7.723
 2712SOL    HW1 8480   1.222   4.165   7.777
 2712SOL    HW2 8481   1.180   4.323   7.783
 2713SOL     OW 8482   1.622   4.091   7.822
 2713SOL    HW1 8483   1.624   4.015   7.886
 2713SOL    HW2 8484   1.574   4.168   7.862
 2714SOL     OW 8485   1.540   3.998   7.573
 2714SOL    HW1 8486   1.479   3.923   7.596
 2714SOL    HW2 8487   1.562   4.050   7.656
 2715SOL     OW 8488   1.303   4.562   7.490
 2715SOL    HW1 8489   1.337   4.469   7.505
 2715SOL    HW2 8490   1.321   4.589   7.395
 2716SOL     OW 8491   0.008   5.050   7.648
 2716SOL    HW1 8492  -0.085   5.071   7.617
 2716SOL    HW2 8493   0.018   4.951   7.661
 2717SOL     OW 8494   0.815   4.296   7.773
 2717SOL    HW1 8495   0.822   4.207   7.727
 2717SOL    HW2 8496   0.721   4.330   7.765
 2718SOL     OW 8497   0.473   4.224   7.639
 2718SOL    HW1 8498   0.534   4.304   7.643
 2718SOL    HW2 8499   0.378   4.255   7.646
 2719SOL     OW 8500   1.302   4.579   7.757
 2719SOL    HW1 8501   1.216   4.548   7.799
 2719SOL    HW2 8502   1.298   4.565   7.658
 2720SOL     OW 8503   1.726   3.859   7.971
 2720SOL    HW1 8504   1.799   3.842   7.904
 2720SOL    HW2 8505   1.695   3.772   8.009
 2721SOL     OW 8506   1.388   5.297   7.925
 2721SOL    HW1 8507   1.455   5.309   7.851
 2721SOL    HW2 8508   1.348   5.386   7.948
 2722SOL     OW 8509   0.672   5.340   7.602
 2722SOL    HW1 8510   0.681   5.350   7.503
 2722SOL    HW2 8511   0.632   5.251   7.623
 2723SOL     OW 8512   1.194   5.336   7.479
 2723SOL    HW1 8513   1.200   5.243   7.516
 2723SOL    HW2 8514   1.135   5.336   7.399
 2724SOL     OW 8515   0.916   4.634   7.739
 2724SOL    HW1 8516   0.979   4.672   7.671
 2724SOL    HW2 8517   0.956   4.551   7.778
 2725SOL     OW 8518   1.504   5.331   7.492
 2725SOL    HW1 8519   1.412   5.368   7.499
 2725SOL    HW2 8520   1.542   5.351   7.402
 2726SOL     OW 8521   0.590   5.211   7.939
 2726SOL    HW1 8522   0.632   5.153   7.869
 2726SOL    HW2 8523   0.546   5.290   7.895
 2727SOL     OW 8524   0.255   5.072   7.738
 2727SOL    HW1 8525   0.159   5.073   7.711
 2727SOL    HW2 8526   0.267   5.125   7.822
 2728SOL     OW 8527   0.075   4.069   7.481
 2728SOL    HW1 8528  -0.017   4.041   7.452
 2728SOL    HW2 8529   0.106   4.146   7.425
 2729SOL     OW 8530   0.072   3.890   7.766
 2729SOL    HW1 8531   0.055   3.973   7.712
 2729SOL    HW2 8532   0.162   3.853   7.744
 2730SOL     OW 8533   1.183   5.059   7.567
 2730SOL    HW1 8534   1.084   5.048   7.569
 2730SOL    HW2 8535   1.217   5.074   7.660
 2731SOL     OW 8536   1.225   4.049   7.897
 2731SOL    HW1 8537   1.290   3.975   7.886
 2731SOL    HW2 8538   1.245   4.099   7.981
 2732SOL     OW 8539   0.859   5.098   7.464
 2732SOL    HW1 8540   0.813   5.113   7.552
 2732SOL    HW2 8541   0.903   5.183   7.434
 2733SOL     OW 8542   1.083   4.708   7.535
 2733SOL    HW1 8543   1.060   4.761   7.453
 2733SOL    HW2 8544   1.164   4.652   7.516
 2734SOL     OW 8545   0.428   4.148   7.968
 2734SOL    HW1 8546   0.458   4.076   7.906
 2734SOL    HW2 8547   0.389   4.108   8.051
 2735SOL     OW 8548   0.770   5.054   7.749
 2735SOL    HW1 8549   0.724   4.967   7.766
 2735SOL    HW2 8550   0.861   5.051   7.790
 2736SOL     OW 8551   1.352   3.776   7.616
 2736SOL    HW1 8552   1.387   3.735   7.532
 2736SOL    HW2 8553   1.262   3.738   7.636
 2737SOL     OW 8554   0.039   4.801   7.748
 2737SOL    HW1 8555   0.138   4.790   7.739
 2737SOL    HW2 8556  -0.001   4.715   7.780
 2738SOL     OW 8557   0.875   5.370   7.785
 2738SOL    HW1 8558   0.798   5.335   7.731
 2738SOL    HW2 8559   0.843   5.441   7.847
 2739SOL     OW 8560   0.230   6.214   0.113
 2739SOL    HW1 8561   0.137   6.212   0.150
 2739SOL    HW2 8562   0.231   6.175   0.021
 2740SOL     OW 8563   0.225   5.861   0.996
 2740SOL    HW1 8564   0.260   5.844   1.088
 2740SOL    HW2 8565   0.137   5.816   0.984
 2741SOL     OW 8566   0.019   5.954   0.647
 2741SOL    HW1 8567  -0.063   5.997   0.686
 2741SOL    HW2 8568  -0.009   5.881   0.584
 2742SOL     OW 8569   0.569   6.861   1.165
 2742SOL    HW1 8570   0.476   6.854   1.128
 2742SOL    HW2 8571   0.580   6.950   1.209
 2743SOL     OW 8572   1.555   7.097   0.703
 2743SOL    HW1 8573   1.498   7.081   0.784
 2743SOL    HW2 8574   1.496   7.107   0.623
 2744SOL     OW 8575   1.135   6.289   0.717
 2744SOL    HW1 8576   1.192   6.367   0.692
 2744SOL    HW2 8577   1.075   6.315   0.793
 2745SOL     OW 8578   1.755   6.193   0.231
 2745SOL    HW1 8579   1.743   6.180   0.132
 2745SOL    HW2 8580   1.725   6.112   0.280
 2746SOL     OW 8581   0.768   6.730   1.023
 2746SOL    HW1 8582   0.690   6.747   1.083
 2746SOL    HW2 8583   0.802   6.817   0.987
 2747SOL     OW 8584   0.850   6.384   1.823
 2747SOL    HW1 8585   0.846   6.460   1.888
 2747SOL    HW2 8586   0.872   6.420   1.732
 2748SOL     OW 8587   0.685   6.598   0.665
 2748SOL    HW1 8588   0.754   6.582   0.735
 2748SOL    HW2 8589   0.612   6.655   0.703
 2749SOL     OW 8590   0.686   6.747   1.803
 2749SOL    HW1 8591   0.746   6.826   1.817
 2749SOL    HW2 8592   0.600   6.778   1.762
 2750SOL     OW 8593   0.335   7.021   1.061
 2750SOL    HW1 8594   0.257   6.990   1.008
 2750SOL    HW2 8595   0.393   7.079   1.004
 2751SOL     OW 8596   1.460   7.091   1.339
 2751SOL    HW1 8597   1.484   7.185   1.365
 2751SOL    HW2 8598   1.444   7.037   1.421
 2752SOL     OW 8599   0.438   5.978   1.499
 2752SOL    HW1 8600   0.520   5.922   1.508
 2752SOL    HW2 8601   0.357   5.920   1.503
 2753SOL     OW 8602   1.603   6.033   0.737
 2753SOL    HW1 8603   1.529   6.079   0.687
 2753SOL    HW2 8604   1.654   6.101   0.790
 2754SOL     OW 8605   0.231   7.299   0.483
 2754SOL    HW1 8606   0.265   7.376   0.537
 2754SOL    HW2 8607   0.275   7.299   0.393
 2755SOL     OW 8608   1.127   6.927   1.690
 2755SOL    HW1 8609   1.174   6.927   1.778
 2755SOL    HW2 8610   1.079   6.840   1.679
 2756SOL     OW 8611   0.230   7.020   0.538
 2756SOL    HW1 8612   0.204   7.116   0.538
 2756SOL    HW2 8613   0.159   6.966   0.583
 2757SOL     OW 8614   0.240   6.677   0.886
 2757SOL    HW1 8615   0.254   6.593   0.938
 2757SOL    HW2 8616   0.185   6.741   0.941
 2758SOL     OW 8617   0.620   7.372   1.439
 2758SOL    HW1 8618   0.528   7.355   1.474
 2758SOL    HW2 8619   0.648   7.464   1.465
 2759SOL     OW 8620   0.606   6.550   0.123
 2759SOL    HW1 8621   0.613   6.634   0.069
 2759SOL    HW2 8622   0.652   6.563   0.211
 2760SOL     OW 8623   1.594   5.700   1.480
 2760SOL    HW1 8624   1.576   5.767   1.408
 2760SOL    HW2 8625   1.591   5.746   1.569
 2761SOL     OW 8626   0.122   6.229   0.563
 2761SOL    HW1 8627   0.077   6.141   0.580
 2761SOL    HW2 8628   0.121   6.283   0.647
 2762SOL     OW 8629   1.842   7.353   0.359
 2762SOL    HW1 8630   1.896   7.324   0.439
 2762SOL    HW2 8631   1.872   7.443   0.330
 2763SOL     OW 8632   0.027   7.182   0.117
 2763SOL    HW1 8633   0.008   7.086   0.138
 2763SOL    HW2 8634  -0.006   7.240   0.192
 2764SOL     OW 8635   1.689   6.508   0.612
 2764SOL    HW1 8636   1.784   6.479   0.620
 2764SOL    HW2 8637   1.681   6.573   0.537
 2765SOL     OW 8638   1.641   6.694   0.432
 2765SOL    HW1 8639   1.727   6.696   0.380
 2765SOL    HW2 8640   1.655   6.741   0.520
 2766SOL     OW 8641   0.113   6.323   1.597
 2766SOL    HW1 8642   0.201   6.310   1.642
 2766SOL    HW2 8643   0.100   6.420   1.575
 2767SOL     OW 8644   0.613   6.951   0.726
 2767SOL    HW1 8645   0.564   6.864   0.735
 2767SOL    HW2 8646   0.590   6.994   0.639
 2768SOL     OW 8647   1.293   6.814   1.423
 2768SOL    HW1 8648   1.330   6.741   1.365
 2768SOL    HW2 8649   1.345   6.819   1.508
 2769SOL     OW 8650   0.809   5.590   0.502
 2769SOL    HW1 8651   0.849   5.681   0.493
 2769SOL    HW2 8652   0.709   5.598   0.508
 2770SOL     OW 8653   0.197   6.562   1.264
 2770SOL    HW1 8654   0.286   6.517   1.250
 2770SOL    HW2 8655   0.124   6.497   1.245
 2771SOL     OW 8656   1.525   6.585   0.190
 2771SOL    HW1 8657   1.462   6.509   0.203
 2771SOL    HW2 8658   1.573   6.603   0.276
 2772SOL     OW 8659   1.187   7.378   1.616
 2772SOL    HW1 8660   1.211   7.438   1.540
 2772SOL    HW2 8661   1.194   7.283   1.586
 2773SOL     OW 8662   0.317   5.837   1.801
 2773SOL    HW1 8663   0.388   5.908   1.807
 2773SOL    HW2 8664   0.229   5.876   1.829
 2774SOL     OW 8665   1.466   7.003   0.953
 2774SOL    HW1 8666   1.407   7.009   1.033
 2774SOL    HW2 8667   1.451   6.915   0.907
 2775SOL     OW 8668   1.667   7.300   0.572
 2775SOL    HW1 8669   1.626   7.277   0.484
 2775SOL    HW2 8670   1.649   7.226   0.637
 2776SOL     OW 8671   0.598   6.315   0.270
 2776SOL    HW1 8672   0.622   6.384   0.202
 2776SOL    HW2 8673   0.520   6.348   0.324
 2777SOL     OW 8674   1.281   5.931   0.944
 2777SOL    HW1 8675   1.195   5.881   0.931
 2777SOL    HW2 8676   1.343   5.877   1.000
 2778SOL     OW 8677   1.576   7.248   0.307
 2778SOL    HW1 8678   1.665   7.294   0.310
 2778SOL    HW2 8679   1.555   7.224   0.212
 2779SOL     OW 8680   0.807   6.191   1.465
 2779SOL    HW1 8681   0.760   6.188   1.554
 2779SOL    HW2 8682   0.756   6.136   1.399
 2780SOL     OW 8683   1.394   6.055   1.674
 2780SOL    HW1 8684   1.374   6.098   1.762
 2780SOL    HW2 8685   1.472   5.993   1.683
 2781SOL     OW 8686   0.973   6.476   1.572
 2781SOL    HW1 8687   1.019   6.392   1.543
 2781SOL    HW2 8688   0.917   6.510   1.497
 2782SOL     OW 8689   0.991   5.996   1.242
 2782SOL    HW1 8690   0.914   6.030   1.296
 2782SOL    HW2 8691   0.957   5.945   1.163
 2783SOL     OW 8692   1.041   6.287   0.429
 2783SOL    HW1 8693   1.067   6.283   0.525
 2783SOL    HW2 8694   0.956   6.236   0.415
 2784SOL     OW 8695   0.076   6.397   0.789
 2784SOL    HW1 8696   0.175   6.385   0.798
 2784SOL    HW2 8697   0.052   6.492   0.810
 2785SOL     OW 8698   0.130   7.407   1.571
 2785SOL    HW1 8699   0.120   7.392   1.670
 2785SOL    HW2 8700   0.044   7.443   1.535
 2786SOL     OW 8701   0.865   5.934   0.195
 2786SOL    HW1 8702   0.924   5.997   0.146
 2786SOL    HW2 8703   0.884   5.840   0.166
 2787SOL     OW 8704   1.719   6.171   1.831
 2787SOL    HW1 8705   1.693   6.260   1.795
 2787SOL    HW2 8706   1.717   6.103   1.758
 2788SOL     OW 8707   1.362   6.730   0.545
 2788SOL    HW1 8708   1.445   6.701   0.497
 2788SOL    HW2 8709   1.313   6.797   0.489
 2789SOL     OW 8710   0.550   5.782   0.885
 2789SOL    HW1 8711   0.545   5.777   0.985
 2789SOL    HW2 8712   0.552   5.878   0.856
 2790SOL     OW 8713   1.008   7.042   0.477
 2790SOL    HW1 8714   0.962   7.114   0.425
 2790SOL    HW2 8715   1.004   7.062   0.575
 2791SOL     OW 8716   0.351   7.387   0.853
 2791SOL    HW1 8717   0.401   7.301   0.859
 2791SOL    HW2 8718   0.416   7.464   0.850
 2792SOL     OW 8719   1.795   6.652   0.873
 2792SOL    HW1 8720   1.733   6.637   0.797
 2792SOL    HW2 8721   1.743   6.663   0.958
 2793SOL     OW 8722   1.227   7.136   1.506
 2793SOL    HW1 8723   1.233   7.059   1.570
 2793SOL    HW2 8724   1.175   7.110   1.426
 2794SOL     OW 8725   0.321   6.529   0.242
 2794SOL    HW1 8726   0.403   6.568   0.200
 2794SOL    HW2 8727   0.294   6.447   0.193
 2795SOL     OW 8728   1.458   6.321   0.728
 2795SOL    HW1 8729   1.453   6.256   0.803
 2795SOL    HW2 8730   1.538   6.380   0.741
 2796SOL     OW 8731   0.461   6.852   1.727
 2796SOL    HW1 8732   0.411   6.853   1.641
 2796SOL    HW2 8733   0.398   6.834   1.803
 2797SOL     OW 8734   1.111   7.362   0.237
 2797SOL    HW1 8735   1.051   7.300   0.287
 2797SOL    HW2 8736   1.142   7.318   0.152
 2798SOL     OW 8737   0.202   5.871   1.498
 2798SOL    HW1 8738   0.122   5.931   1.485
 2798SOL    HW2 8739   0.192   5.822   1.584
 2799SOL     OW 8740   1.632   6.963   0.081
 2799SOL    HW1 8741   1.600   7.057   0.071
 2799SOL    HW2 8742   1.556   6.900   0.069
 2800SOL     OW 8743   0.464   7.329   0.323
 2800SOL    HW1 8744   0.497   7.368   0.409
 2800SOL    HW2 8745   0.540   7.322   0.258
 2801SOL     OW 8746   1.400   5.693   0.426
 2801SOL    HW1 8747   1.376   5.656   0.336
 2801SOL    HW2 8748   1.499   5.709   0.430
 2802SOL     OW 8749   0.249   7.371   1.241
 2802SOL    HW1 8750   0.306   7.306   1.291
 2802SOL    HW2 8751   0.233   7.338   1.148
 2803SOL     OW 8752   0.940   7.284   0.904
 2803SOL    HW1 8753   1.020   7.227   0.925
 2803SOL    HW2 8754   0.891   7.244   0.827
 2804SOL     OW 8755   0.382   6.286   0.480
 2804SOL    HW1 8756   0.427   6.196   0.477
 2804SOL    HW2 8757   0.288   6.275   0.513
 2805SOL     OW 8758   1.547   5.808   1.729
 2805SOL    HW1 8759   1.542   5.845   1.821
 2805SOL    HW2 8760   1.475   5.739   1.717
 2806SOL     OW 8761   0.614   5.708   0.117
 2806SOL    HW1 8762   0.712   5.686   0.124
 2806SOL    HW2 8763   0.583   5.691   0.024
 2807SOL     OW 8764   0.781   5.850   1.749
 2807SOL    HW1 8765   0.848   5.789   1.792
 2807SOL    HW2 8766   0.708   5.869   1.814
 2808SOL     OW 8767   0.888   7.100   1.195
 2808SOL    HW1 8768   0.865   7.075   1.101
 2808SOL    HW2 8769   0.949   7.031   1.234
 2809SOL     OW 8770   1.351   6.176   1.433
 2809SOL    HW1 8771   1.379   6.133   1.518
 2809SOL    HW2 8772   1.376   6.272   1.434
 2810SOL     OW 8773   0.803   6.988   0.924
 2810SOL    HW1 8774   0.893   7.002   0.882
 2810SOL    HW2 8775   0.732   6.990   0.853
 2811SOL     OW 8776   0.922   6.089   0.899
 2811SOL    HW1 8777   0.897   6.080   0.803
 2811SOL    HW2 8778   0.970   6.007   0.930
 2812SOL     OW 8779   0.539   5.650   0.512
 2812SOL    HW1 8780   0.458   5.651   0.570
 2812SOL    HW2 8781   0.542   5.733   0.457
 2813SOL     OW 8782   1.434   6.774   0.041
 2813SOL    HW1 8783   1.466   6.698   0.098
 2813SOL    HW2 8784   1.342   6.801   0.071
 2814SOL     OW 8785   0.297   5.621   0.171
 2814SOL    HW1 8786   0.346   5.705   0.150
 2814SOL    HW2 8787   0.359   5.556   0.216
 2815SOL     OW 8788   0.935   5.822   0.480
 2815SOL    HW1 8789   0.887   5.863   0.402
 2815SOL    HW2 8790   1.034   5.820   0.461
 2816SOL     OW 8791   1.076   6.269   1.464
 2816SOL    HW1 8792   0.996   6.208   1.467
 2816SOL    HW2 8793   1.157   6.216   1.440
 2817SOL     OW 8794   1.227   7.156   0.793
 2817SOL    HW1 8795   1.248   7.230   0.728
 2817SOL    HW2 8796   1.295   7.156   0.866
 2818SOL     OW 8797   0.459   6.738   0.741
 2818SOL    HW1 8798   0.388   6.711   0.806
 2818SOL    HW2 8799   0.433   6.710   0.648
 2819SOL     OW 8800   1.271   7.383   0.591
 2819SOL    HW1 8801   1.315   7.447   0.527
 2819SOL    HW2 8802   1.221   7.435   0.661
 2820SOL     OW 8803   1.032   6.135   0.016
 2820SOL    HW1 8804   0.991   6.217  -0.023
 2820SOL    HW2 8805   1.096   6.161   0.089
 2821SOL     OW 8806   0.078   6.142   1.386
 2821SOL    HW1 8807   0.170   6.141   1.345
 2821SOL    HW2 8808   0.072   6.216   1.453
 2822SOL     OW 8809   0.561   5.808   1.147
 2822SOL    HW1 8810   0.599   5.724   1.184
 2822SOL    HW2 8811   0.473   5.827   1.191
 2823SOL     OW 8812   0.866   6.040   0.642
 2823SOL    HW1 8813   0.834   6.112   0.580
 2823SOL    HW2 8814   0.890   5.959   0.589
 2824SOL     OW 8815   1.017   5.625   0.753
 2824SOL    HW1 8816   0.945   5.630   0.684
 2824SOL    HW2 8817   0.993   5.556   0.822
 2825SOL     OW 8818   1.429   6.759   0.867
 2825SOL    HW1 8819   1.374   6.675   0.860
 2825SOL    HW2 8820   1.455   6.788   0.775
 2826SOL     OW 8821   1.466   6.176   0.992
 2826SOL    HW1 8822   1.436   6.081   0.999
 2826SOL    HW2 8823   1.539   6.192   1.058
 2827SOL     OW 8824   1.857   6.419   0.377
 2827SOL    HW1 8825   1.899   6.355   0.441
 2827SOL    HW2 8826   1.819   6.368   0.299
 2828SOL     OW 8827   0.488   6.971   0.174
 2828SOL    HW1 8828   0.401   6.956   0.221
 2828SOL    HW2 8829   0.471   6.997   0.079
 2829SOL     OW 8830   1.664   6.866   0.657
 2829SOL    HW1 8831   1.763   6.874   0.671
 2829SOL    HW2 8832   1.619   6.950   0.688
 2830SOL     OW 8833   1.390   6.161   0.078
 2830SOL    HW1 8834   1.336   6.140   0.159
 2830SOL    HW2 8835   1.481   6.120   0.087
 2831SOL     OW 8836   0.527   5.842   0.328
 2831SOL    HW1 8837   0.554   5.783   0.253
 2831SOL    HW2 8838   0.527   5.937   0.297
 2832SOL     OW 8839   1.754   6.809   1.588
 2832SOL    HW1 8840   1.845   6.770   1.575
 2832SOL    HW2 8841   1.762   6.905   1.612
 2833SOL     OW 8842   1.064   6.933   1.340
 2833SOL    HW1 8843   0.984   6.910   1.395
 2833SOL    HW2 8844   1.147   6.907   1.389
 2834SOL     OW 8845   1.592   7.215   1.625
 2834SOL    HW1 8846   1.619   7.249   1.535
 2834SOL    HW2 8847   1.671   7.177   1.671
 2835SOL     OW 8848   1.111   6.781   1.100
 2835SOL    HW1 8849   1.071   6.825   1.181
 2835SOL    HW2 8850   1.070   6.818   1.017
 2836SOL     OW 8851   1.638   6.685   1.079
 2836SOL    HW1 8852   1.643   6.766   1.138
 2836SOL    HW2 8853   1.552   6.687   1.028
 2837SOL     OW 8854   0.915   5.675   1.402
 2837SOL    HW1 8855   0.940   5.655   1.307
 2837SOL    HW2 8856   0.987   5.731   1.444
 2838SOL     OW 8857   0.980   6.702   1.719
 2838SOL    HW1 8858   0.881   6.708   1.729
 2838SOL    HW2 8859   1.003   6.622   1.663
 2839SOL     OW 8860   0.705   6.636   0.368
 2839SOL    HW1 8861   0.691   6.643   0.467
 2839SOL    HW2 8862   0.789   6.585   0.350
 2840SOL     OW 8863   0.410   6.399   1.251
 2840SOL    HW1 8864   0.496   6.411   1.301
 2840SOL    HW2 8865   0.368   6.312   1.278
 2841SOL     OW 8866   1.274   5.972   1.262
 2841SOL    HW1 8867   1.295   6.046   1.326
 2841SOL    HW2 8868   1.185   5.989   1.219
 2842SOL     OW 8869   0.064   7.150   1.331
 2842SOL    HW1 8870   0.018   7.232   1.297
 2842SOL    HW2 8871   0.162   7.169   1.340
 2843SOL     OW 8872   0.367   6.686   0.501
 2843SOL    HW1 8873   0.360   6.769   0.445
 2843SOL    HW2 8874   0.371   6.606   0.441
 2844SOL     OW 8875   0.566   6.123   0.865
 2844SOL    HW1 8876   0.578   6.189   0.791
 2844SOL    HW2 8877   0.612   6.157   0.948
 2845SOL     OW 8878   1.252   6.934   0.388
 2845SOL    HW1 8879   1.302   7.011   0.428
 2845SOL    HW2 8880   1.157   6.936   0.420
 2846SOL     OW 8881   1.272   7.031   1.142
 2846SOL    HW1 8882   1.319   7.044   1.229
 2846SOL    HW2 8883   1.206   6.957   1.151
 2847SOL     OW 8884   1.582   6.225   0.472
 2847SOL    HW1 8885   1.551   6.286   0.545
 2847SOL    HW2 8886   1.632   6.277   0.403
 2848SOL     OW 8887   0.354   7.096   1.329
 2848SOL    HW1 8888   0.333   7.052   1.242
 2848SOL    HW2 8889   0.451   7.122   1.332
 2849SOL     OW 8890   0.402   6.337   1.598
 2849SOL    HW1 8891   0.470   6.392   1.551
 2849SOL    HW2 8892   0.442   6.249   1.625
 2850SOL     OW 8893   1.587   6.365   1.670
 2850SOL    HW1 8894   1.495   6.403   1.665
 2850SOL    HW2 8895   1.647   6.412   1.605
 2851SOL     OW 8896   1.013   5.691   1.770
 2851SOL    HW1 8897   1.019   5.776   1.718
 2851SOL    HW2 8898   1.045   5.615   1.713
 2852SOL     OW 8899   0.504   5.636   1.740
 2852SOL    HW1 8900   0.462   5.579   1.670
 2852SOL    HW2 8901   0.438   5.705   1.772
 2853SOL     OW 8902   0.573   6.456   1.029
 2853SOL    HW1 8903   0.617   6.545   1.020
 2853SOL    HW2 8904   0.510   6.456   1.106
 2854SOL     OW 8905   1.360   6.448   1.045
 2854SOL    HW1 8906   1.285   6.448   0.979
 2854SOL    HW2 8907   1.397   6.356   1.054
 2855SOL     OW 8908   1.209   6.111   0.275
 2855SOL    HW1 8909   1.222   6.027   0.329
 2855SOL    HW2 8910   1.180   6.185   0.335
 2856SOL     OW 8911   0.307   5.799   1.231
 2856SOL    HW1 8912   0.284   5.836   1.321
 2856SOL    HW2 8913   0.277   5.704   1.225
 2857SOL     OW 8914   0.037   6.896   1.282
 2857SOL    HW1 8915   0.090   6.847   1.350
 2857SOL    HW2 8916   0.059   6.994   1.287
 2858SOL     OW 8917   0.732   6.220   1.064
 2858SOL    HW1 8918   0.791   6.194   0.988
 2858SOL    HW2 8919   0.704   6.316   1.053
 2859SOL     OW 8920   1.728   6.521   1.854
 2859SOL    HW1 8921   1.682   6.514   1.765
 2859SOL    HW2 8922   1.666   6.565   1.920
 2860SOL     OW 8923   0.307   5.649   0.618
 2860SOL    HW1 8924   0.296   5.743   0.651
 2860SOL    HW2 8925   0.302   5.586   0.695
 2861SOL     OW 8926   1.622   5.953   0.374
 2861SOL    HW1 8927   1.624   5.877   0.438
 2861SOL    HW2 8928   1.574   6.030   0.414
 2862SOL     OW 8929   1.023   6.352   0.966
 2862SOL    HW1 8930   1.038   6.373   1.062
 2862SOL    HW2 8931   0.993   6.257   0.957
 2863SOL     OW 8932   0.980   7.159   1.700
 2863SOL    HW1 8933   0.960   7.203   1.612
 2863SOL    HW2 8934   1.019   7.068   1.684
 2864SOL     OW 8935   1.859   7.104   1.605
 2864SOL    HW1 8936   1.873   7.131   1.510
 2864SOL    HW2 8937   1.942   7.126   1.658
 2865SOL     OW 8938   0.350   6.484   1.804
 2865SOL    HW1 8939   0.426   6.528   1.852
 2865SOL    HW2 8940   0.385   6.437   1.722
 2866SOL     OW 8941   1.540   5.860   0.125
 2866SOL    HW1 8942   1.479   5.785   0.148
 2866SOL    HW2 8943   1.562   5.912   0.208
 2867SOL     OW 8944   1.303   6.424   0.042
 2867SOL    HW1 8945   1.337   6.331   0.057
 2867SOL    HW2 8946   1.321   6.451  -0.053
 2868SOL     OW 8947   1.068   6.919   0.849
 2868SOL    HW1 8948   1.075   6.835   0.794
 2868SOL    HW2 8949   1.130   6.988   0.813
 2869SOL     OW 8950   0.319   6.396   0.949
 2869SOL    HW1 8951   0.412   6.432   0.954
 2869SOL    HW2 8952   0.313   6.311   1.001
 2870SOL     OW 8953   0.339   6.095   1.006
 2870SOL    HW1 8954   0.287   6.012   0.989
 2870SOL    HW2 8955   0.416   6.100   0.942
 2871SOL     OW 8956   1.138   5.966   1.678
 2871SOL    HW1 8957   1.093   6.029   1.742
 2871SOL    HW2 8958   1.231   5.997   1.661
 2872SOL     OW 8959   1.160   5.793   1.477
 2872SOL    HW1 8960   1.160   5.857   1.554
 2872SOL    HW2 8961   1.188   5.841   1.394
 2873SOL     OW 8962   0.008   6.912   0.200
 2873SOL    HW1 8963  -0.085   6.933   0.169
 2873SOL    HW2 8964   0.018   6.813   0.213
 2874SOL     OW 8965   0.088   7.387   0.927
 2874SOL    HW1 8966   0.046   7.301   0.900
 2874SOL    HW2 8967   0.182   7.390   0.893
 2875SOL     OW 8968   0.504   7.154   0.910
 2875SOL    HW1 8969   0.570   7.228   0.919
 2875SOL    HW2 8970   0.548   7.075   0.868
 2876SOL     OW 8971   1.002   6.382   1.238
 2876SOL    HW1 8972   1.043   6.350   1.324
 2876SOL    HW2 8973   0.906   6.355   1.235
 2877SOL     OW 8974   0.040   6.130   1.114
 2877SOL    HW1 8975   0.125   6.097   1.073
 2877SOL    HW2 8976   0.053   6.145   1.212
 2878SOL     OW 8977   0.189   6.106   1.722
 2878SOL    HW1 8978   0.248   6.066   1.652
 2878SOL    HW2 8979   0.131   6.177   1.681
 2879SOL     OW 8980   1.369   6.536   1.660
 2879SOL    HW1 8981   1.408   6.625   1.680
 2879SOL    HW2 8982   1.379   6.516   1.563
 2880SOL     OW 8983   0.815   6.158   0.325
 2880SOL    HW1 8984   0.822   6.069   0.279
 2880SOL    HW2 8985   0.721   6.192   0.317
 2881SOL     OW 8986   1.657   6.190   1.206
 2881SOL    HW1 8987   1.619   6.121   1.268
 2881SOL    HW2 8988   1.739   6.154   1.162
 2882SOL     OW 8989   0.252   7.150   1.744
 2882SOL    HW1 8990   0.222   7.207   1.820
 2882SOL    HW2 8991   0.245   7.053   1.770
 2883SOL     OW 8992   0.671   6.050   1.269
 2883SOL    HW1 8993   0.637   5.961   1.239
 2883SOL    HW2 8994   0.697   6.104   1.189
 2884SOL     OW 8995   0.930   7.264   1.465
 2884SOL    HW1 8996   0.906   7.246   1.370
 2884SOL    HW2 8997   0.960   7.358   1.475
 2885SOL     OW 8998   0.473   6.086   0.191
 2885SOL    HW1 8999   0.534   6.166   0.195
 2885SOL    HW2 9000   0.378   6.117   0.198
 2886SOL     OW 9001   0.159   6.723   1.466
 2886SOL    HW1 9002   0.181   6.662   1.542
 2886SOL    HW2 9003   0.169   6.674   1.380
 2887SOL     OW 9004   1.347   6.645   1.234
 2887SOL    HW1 9005   1.371   6.582   1.160
 2887SOL    HW2 9006   1.257   6.685   1.216
 2888SOL     OW 9007   1.302   6.441   0.309
 2888SOL    HW1 9008   1.216   6.410   0.351
 2888SOL    HW2 9009   1.298   6.427   0.210
 2889SOL     OW 9010   1.759   7.333   1.154
 2889SOL    HW1 9011   1.820   7.363   1.081
 2889SOL    HW2 9012   1.721   7.244   1.132
 2890SOL     OW 9013   1.252   7.317   1.128
 2890SOL    HW1 9014   1.336   7.322   1.074
 2890SOL    HW2 9015   1.229   7.221   1.146
 2891SOL     OW 9016   0.083   6.844   1.022
 2891SOL    HW1 9017   0.078   6.843   1.122
 2891SOL    HW2 9018   0.000   6.803   0.984
 2892SOL     OW 9019   0.688   7.248   1.716
 2892SOL    HW1 9020   0.632   7.329   1.725
 2892SOL    HW2 9021   0.740   7.252   1.630
 2893SOL     OW 9022   0.903   5.672   0.133
 2893SOL    HW1 9023   0.954   5.673   0.047
 2893SOL    HW2 9024   0.959   5.630   0.204
 2894SOL     OW 9025   1.726   5.721   0.523
 2894SOL    HW1 9026   1.799   5.704   0.456
 2894SOL    HW2 9027   1.695   5.634   0.561
 2895SOL     OW 9028   1.388   7.159   0.477
 2895SOL    HW1 9029   1.455   7.171   0.403
 2895SOL    HW2 9030   1.348   7.248   0.500
 2896SOL     OW 9031   0.130   7.380   1.851
 2896SOL    HW1 9032   0.089   7.306   1.904
 2896SOL    HW2 9033   0.194   7.431   1.909
 2897SOL     OW 9034   1.280   6.513   0.672
 2897SOL    HW1 9035   1.340   6.432   0.674
 2897SOL    HW2 9036   1.320   6.582   0.612
 2898SOL     OW 9037   0.830   6.859   1.422
 2898SOL    HW1 9038   0.825   6.892   1.517
 2898SOL    HW2 9039   0.744   6.878   1.376
 2899SOL     OW 9040   0.672   7.202   0.154
 2899SOL    HW1 9041   0.681   7.212   0.055
 2899SOL    HW2 9042   0.632   7.113   0.175
 2900SOL     OW 9043   1.650   7.306   1.394
 2900SOL    HW1 9044   1.703   7.316   1.310
 2900SOL    HW2 9045   1.623   7.396   1.428
 2901SOL     OW 9046   1.841   5.761   0.963
 2901SOL    HW1 9047   1.880   5.676   0.927
 2901SOL    HW2 9048   1.743   5.763   0.944
 2902SOL     OW 9049   0.263   5.912   0.720
 2902SOL    HW1 9050   0.184   5.963   0.686
 2902SOL    HW2 9051   0.254   5.897   0.818
 2903SOL     OW 9052   1.194   7.198   0.031
 2903SOL    HW1 9053   1.200   7.105   0.068
 2903SOL    HW2 9054   1.135   7.198  -0.049
 2904SOL     OW 9055   0.822   6.588   1.372
 2904SOL    HW1 9056   0.862   6.587   1.280
 2904SOL    HW2 9057   0.832   6.680   1.412
 2905SOL     OW 9058   0.916   6.496   0.291
 2905SOL    HW1 9059   0.979   6.534   0.223
 2905SOL    HW2 9060   0.956   6.413   0.330
 2906SOL     OW 9061   1.504   7.193   0.044
 2906SOL    HW1 9062   1.412   7.230   0.051
 2906SOL    HW2 9063   1.542   7.213  -0.046
 2907SOL     OW 9064   0.372   6.874   1.490
 2907SOL    HW1 9065   0.359   6.967   1.456
 2907SOL    HW2 9066   0.288   6.822   1.477
 2908SOL     OW 9067   1.614   6.878   1.289
 2908SOL    HW1 9068   1.674   6.881   1.369
 2908SOL    HW2 9069   1.539   6.942   1.302
 2909SOL     OW 9070   1.039   6.684   0.696
 2909SOL    HW1 9071   0.969   6.637   0.750
 2909SOL    HW2 9072   1.098   6.616   0.653
 2910SOL     OW 9073   1.014   5.822   0.971
 2910SOL    HW1 9074   1.006   5.786   0.878
 2910SOL    HW2 9075   1.012   5.746   1.036
 2911SOL     OW 9076   0.590   7.073   0.491
 2911SOL    HW1 9077   0.632   7.015   0.421
 2911SOL    HW2 9078   0.546   7.152   0.447
 2912SOL     OW 9079   1.709   5.971   1.381
 2912SOL    HW1 9080   1.782   6.040   1.385
 2912SOL    HW2 9081   1.737   5.896   1.322
 2913SOL     OW 9082   0.255   6.934   0.290
 2913SOL    HW1 9083   0.159   6.935   0.263
 2913SOL    HW2 9084   0.267   6.987   0.374
 2914SOL     OW 9085   0.105   6.599   1.726
 2914SOL    HW1 9086   0.028   6.566   1.780
 2914SOL    HW2 9087   0.190   6.569   1.768
 2915SOL     OW 9088   0.672   5.789   1.489
 2915SOL    HW1 9089   0.762   5.773   1.449
 2915SOL    HW2 9090   0.680   5.794   1.588
 2916SOL     OW 9091   0.075   5.931   0.033
 2916SOL    HW1 9092  -0.017   5.903   0.004
 2916SOL    HW2 9093   0.106   6.008  -0.023
 2917SOL     OW 9094   1.440   6.442   1.398
 2917SOL    HW1 9095   1.383   6.494   1.335
 2917SOL    HW2 9096   1.536   6.454   1.374
 2918SOL     OW 9097   0.072   5.752   0.318
 2918SOL    HW1 9098   0.055   5.835   0.264
 2918SOL    HW2 9099   0.162   5.715   0.296
 2919SOL     OW 9100   1.183   6.921   0.119
 2919SOL    HW1 9101   1.084   6.910   0.121
 2919SOL    HW2 9102   1.217   6.936   0.212
 2920SOL     OW 9103   0.613   6.428   1.431
 2920SOL    HW1 9104   0.669   6.509   1.414
 2920SOL    HW2 9105   0.672   6.348   1.434
 2921SOL     OW 9106   1.493   7.353   0.959
 2921SOL    HW1 9107   1.526   7.417   0.890
 2921SOL    HW2 9108   1.559   7.347   1.034
 2922SOL     OW 9109   0.716   6.151   1.708
 2922SOL    HW1 9110   0.735   6.216   1.782
 2922SOL    HW2 9111   0.776   6.071   1.717
 2923SOL     OW 9112   1.450   6.806   1.633
 2923SOL    HW1 9113   1.441   6.796   1.732
 2923SOL    HW2 9114   1.546   6.799   1.607
 2924SOL     OW 9115   0.390   7.327   1.560
 2924SOL    HW1 9116   0.299   7.368   1.558
 2924SOL    HW2 9117   0.383   7.233   1.592
 2925SOL     OW 9118   1.674   6.469   1.254
 2925SOL    HW1 9119   1.647   6.380   1.217
 2925SOL    HW2 9120   1.675   6.537   1.181
 2926SOL     OW 9121   1.225   5.911   0.449
 2926SOL    HW1 9122   1.290   5.837   0.438
 2926SOL    HW2 9123   1.245   5.961   0.533
 2927SOL     OW 9124   0.594   6.331   0.652
 2927SOL    HW1 9125   0.644   6.416   0.633
 2927SOL    HW2 9126   0.506   6.333   0.604
 2928SOL     OW 9127   1.777   5.928   1.642
 2928SOL    HW1 9128   1.760   5.959   1.548
 2928SOL    HW2 9129   1.693   5.891   1.680
 2929SOL     OW 9130   1.730   6.520   1.517
 2929SOL    HW1 9131   1.768   6.611   1.532
 2929SOL    HW2 9132   1.722   6.503   1.418
 2930SOL     OW 9133   0.859   6.960   0.016
 2930SOL    HW1 9134   0.813   6.975   0.104
 2930SOL    HW2 9135   0.903   7.045  -0.014
 2931SOL     OW 9136   0.661   7.376   0.953
 2931SOL    HW1 9137   0.615   7.464   0.940
 2931SOL    HW2 9138   0.760   7.388   0.946
 2932SOL     OW 9139   0.859   6.542   0.861
 2932SOL    HW1 9140   0.913   6.473   0.909
 2932SOL    HW2 9141   0.827   6.611   0.927
 2933SOL     OW 9142   1.083   6.570   0.087
 2933SOL    HW1 9143   1.060   6.623   0.005
 2933SOL    HW2 9144   1.164   6.514   0.068
 2934SOL     OW 9145   1.861   7.155   0.851
 2934SOL    HW1 9146   1.790   7.143   0.781
 2934SOL    HW2 9147   1.862   7.076   0.911
 2935SOL     OW 9148   0.221   6.900   1.844
 2935SOL    HW1 9149   0.156   6.827   1.823
 2935SOL    HW2 9150   0.225   6.914   1.942
 2936SOL     OW 9151   0.079   6.826   0.653
 2936SOL    HW1 9152   0.078   6.779   0.741
 2936SOL    HW2 9153   0.161   6.798   0.602
 2937SOL     OW 9154   0.672   6.977   1.624
 2937SOL    HW1 9155   0.594   6.927   1.662
 2937SOL    HW2 9156   0.669   7.072   1.655
 2938SOL     OW 9157   1.824   5.778   1.227
 2938SOL    HW1 9158   1.820   5.688   1.271
 2938SOL    HW2 9159   1.827   5.767   1.128
 2939SOL     OW 9160   0.428   6.010   0.520
 2939SOL    HW1 9161   0.458   5.938   0.458
 2939SOL    HW2 9162   0.389   5.970   0.603
 2940SOL     OW 9163   1.705   7.073   1.104
 2940SOL    HW1 9164   1.612   7.048   1.077
 2940SOL    HW2 9165   1.731   7.023   1.186
 2941SOL     OW 9166   0.317   6.133   1.280
 2941SOL    HW1 9167   0.355   6.074   1.352
 2941SOL    HW2 9168   0.357   6.107   1.192
 2942SOL     OW 9169   0.812   7.172   0.687
 2942SOL    HW1 9170   0.844   7.182   0.593
 2942SOL    HW2 9171   0.733   7.110   0.689
 2943SOL     OW 9172   1.001   5.620   1.154
 2943SOL    HW1 9173   0.938   5.548   1.123
 2943SOL    HW2 9174   1.094   5.584   1.154
 2944SOL     OW 9175   0.770   6.916   0.301
 2944SOL    HW1 9176   0.724   6.829   0.318
 2944SOL    HW2 9177   0.861   6.913   0.342
 2945SOL     OW 9178   0.618   7.153   1.284
 2945SOL    HW1 9179   0.613   7.235   1.341
 2945SOL    HW2 9180   0.707   7.150   1.239
 2946SOL     OW 9181   1.352   5.638   0.168
 2946SOL    HW1 9182   1.387   5.597   0.084
 2946SOL    HW2 9183   1.262   5.600   0.188
 2947SOL     OW 9184   1.300   6.039   0.691
 2947SOL    HW1 9185   1.241   6.119   0.695
 2947SOL    HW2 9186   1.315   6.004   0.784
 2948SOL     OW 9187   1.593   5.807   0.882
 2948SOL    HW1 9188   1.509   5.806   0.936
 2948SOL    HW2 9189   1.595   5.890   0.826
 2949SOL     OW 9190   0.039   6.663   0.300
 2949SOL    HW1 9191   0.138   6.652   0.291
 2949SOL    HW2 9192  -0.001   6.577   0.332
 2950SOL     OW 9193   0.875   7.232   0.337
 2950SOL    HW1 9194   0.798   7.197   0.283
 2950SOL    HW2 9195   0.843   7.303   0.399
 2951SOL     OW 9196   0.230   6.214   1.975
 2951SOL    HW1 9197   0.137   6.212   2.012
 2951SOL    HW2 9198   0.231   6.175   1.883
 2952SOL     OW 9199   0.225   5.861   2.858
 2952SOL    HW1 9200   0.260   5.844   2.950
 2952SOL    HW2 9201   0.137   5.816   2.846
 2953SOL     OW 9202   0.019   5.954   2.509
 2953SOL    HW1 9203  -0.063   5.997   2.548
 2953SOL    HW2 9204  -0.009   5.881   2.446
 2954SOL     OW 9205   0.569   6.861   3.027
 2954SOL    HW1 9206   0.476   6.854   2.990
 2954SOL    HW2 9207   0.580   6.950   3.071
 2955SOL     OW 9208   1.555   7.097   2.565
 2955SOL    HW1 9209   1.498   7.081   2.646
 2955SOL    HW2 9210   1.496   7.107   2.485
 2956SOL     OW 9211   1.135   6.289   2.579
 2956SOL    HW1 9212   1.192   6.367   2.554
 2956SOL    HW2 9213   1.075   6.315   2.655
 2957SOL     OW 9214   1.755   6.193   2.093
 2957SOL    HW1 9215   1.743   6.180   1.994
 2957SOL    HW2 9216   1.725   6.112   2.142
 2958SOL     OW 9217   0.768   6.730   2.885
 2958SOL    HW1 9218   0.690   6.747   2.945
 2958SOL    HW2 9219   0.802   6.817   2.849
 2959SOL     OW 9220   0.850   6.384   3.685
 2959SOL    HW1 9221   0.846   6.460   3.750
 2959SOL    HW2 9222   0.872   6.420   3.594
 2960SOL     OW 9223   0.685   6.598   2.527
 2960SOL    HW1 9224   0.754   6.582   2.597
 2960SOL    HW2 9225   0.612   6.655   2.565
 2961SOL     OW 9226   0.686   6.747   3.665
 2961SOL    HW1 9227   0.746   6.826   3.679
 2961SOL    HW2 9228   0.600   6.778   3.624
 2962SOL     OW 9229   0.335   7.021   2.923
 2962SOL    HW1 9230   0.257   6.990   2.870
 2962SOL    HW2 9231   0.393   7.079   2.866
 2963SOL     OW 9232   1.460   7.091   3.201
 2963SOL    HW1 9233   1.484   7.185   3.227
 2963SOL    HW2 9234   1.444   7.037   3.283
 2964SOL     OW 9235   0.438   5.978   3.361
 2964SOL    HW1 9236   0.520   5.922   3.370
 2964SOL    HW2 9237   0.357   5.920   3.365
 2965SOL     OW 9238   1.603   6.033   2.599
 2965SOL    HW1 9239   1.529   6.079   2.549
 2965SOL    HW2 9240   1.654   6.101   2.652
 2966SOL     OW 9241   0.231   7.299   2.345
 2966SOL    HW1 9242   0.265   7.376   2.399
 2966SOL    HW2 9243   0.275   7.299   2.255
 2967SOL     OW 9244   1.127   6.927   3.552
 2967SOL    HW1 9245   1.174   6.927   3.640
 2967SOL    HW2 9246   1.079   6.840   3.541
 2968SOL     OW 9247   0.230   7.020   2.400
 2968SOL    HW1 9248   0.204   7.116   2.400
 2968SOL    HW2 9249   0.159   6.966   2.445
 2969SOL     OW 9250   0.240   6.677   2.748
 2969SOL    HW1 9251   0.254   6.593   2.800
 2969SOL    HW2 9252   0.185   6.741   2.803
 2970SOL     OW 9253   0.620   7.372   3.301
 2970SOL    HW1 9254   0.528   7.355   3.336
 2970SOL    HW2 9255   0.648   7.464   3.327
 2971SOL     OW 9256   0.606   6.550   1.985
 2971SOL    HW1 9257   0.613   6.634   1.931
 2971SOL    HW2 9258   0.652   6.563   2.073
 2972SOL     OW 9259   1.594   5.700   3.342
 2972SOL    HW1 9260   1.576   5.767   3.270
 2972SOL    HW2 9261   1.591   5.746   3.431
 2973SOL     OW 9262   0.122   6.229   2.425
 2973SOL    HW1 9263   0.077   6.141   2.442
 2973SOL    HW2 9264   0.121   6.283   2.509
 2974SOL     OW 9265   1.842   7.353   2.221
 2974SOL    HW1 9266   1.896   7.324   2.301
 2974SOL    HW2 9267   1.872   7.443   2.192
 2975SOL     OW 9268   0.027   7.182   1.979
 2975SOL    HW1 9269   0.008   7.086   2.000
 2975SOL    HW2 9270  -0.006   7.240   2.054
 2976SOL     OW 9271   1.689   6.508   2.474
 2976SOL    HW1 9272   1.784   6.479   2.482
 2976SOL    HW2 9273   1.681   6.573   2.399
 2977SOL     OW 9274   1.641   6.694   2.294
 2977SOL    HW1 9275   1.727   6.696   2.242
 2977SOL    HW2 9276   1.655   6.741   2.382
 2978SOL     OW 9277   0.113   6.323   3.459
 2978SOL    HW1 9278   0.201   6.310   3.504
 2978SOL    HW2 9279   0.100   6.420   3.437
 2979SOL     OW 9280   0.613   6.951   2.588
 2979SOL    HW1 9281   0.564   6.864   2.597
 2979SOL    HW2 9282   0.590   6.994   2.501
 2980SOL     OW 9283   1.293   6.814   3.285
 2980SOL    HW1 9284   1.330   6.741   3.227
 2980SOL    HW2 9285   1.345   6.819   3.370
 2981SOL     OW 9286   0.809   5.590   2.364
 2981SOL    HW1 9287   0.849   5.681   2.355
 2981SOL    HW2 9288   0.709   5.598   2.370
 2982SOL     OW 9289   0.197   6.562   3.126
 2982SOL    HW1 9290   0.286   6.517   3.112
 2982SOL    HW2 9291   0.124   6.497   3.107
 2983SOL     OW 9292   1.525   6.585   2.052
 2983SOL    HW1 9293   1.462   6.509   2.065
 2983SOL    HW2 9294   1.573   6.603   2.138
 2984SOL     OW 9295   1.187   7.378   3.478
 2984SOL    HW1 9296   1.211   7.438   3.402
 2984SOL    HW2 9297   1.194   7.283   3.448
 2985SOL     OW 9298   0.317   5.837   3.663
 2985SOL    HW1 9299   0.388   5.908   3.669
 2985SOL    HW2 9300   0.229   5.876   3.691
 2986SOL     OW 9301   1.466   7.003   2.815
 2986SOL    HW1 9302   1.407   7.009   2.895
 2986SOL    HW2 9303   1.451   6.915   2.769
 2987SOL     OW 9304   1.667   7.300   2.434
 2987SOL    HW1 9305   1.626   7.277   2.346
 2987SOL    HW2 9306   1.649   7.226   2.499
 2988SOL     OW 9307   0.598   6.315   2.132
 2988SOL    HW1 9308   0.622   6.384   2.064
 2988SOL    HW2 9309   0.520   6.348   2.186
 2989SOL     OW 9310   1.281   5.931   2.806
 2989SOL    HW1 9311   1.195   5.881   2.793
 2989SOL    HW2 9312   1.343   5.877   2.862
 2990SOL     OW 9313   1.576   7.248   2.169
 2990SOL    HW1 9314   1.665   7.294   2.172
 2990SOL    HW2 9315   1.555   7.224   2.074
 2991SOL     OW 9316   0.807   6.191   3.327
 2991SOL    HW1 9317   0.760   6.188   3.416
 2991SOL    HW2 9318   0.756   6.136   3.261
 2992SOL     OW 9319   1.394   6.055   3.536
 2992SOL    HW1 9320   1.374   6.098   3.624
 2992SOL    HW2 9321   1.472   5.993   3.545
 2993SOL     OW 9322   0.973   6.476   3.434
 2993SOL    HW1 9323   1.019   6.392   3.405
 2993SOL    HW2 9324   0.917   6.510   3.359
 2994SOL     OW 9325   0.991   5.996   3.104
 2994SOL    HW1 9326   0.914   6.030   3.158
 2994SOL    HW2 9327   0.957   5.945   3.025
 2995SOL     OW 9328   1.041   6.287   2.291
 2995SOL    HW1 9329   1.067   6.283   2.387
 2995SOL    HW2 9330   0.956   6.236   2.277
 2996SOL     OW 9331   0.076   6.397   2.651
 2996SOL    HW1 9332   0.175   6.385   2.660
 2996SOL    HW2 9333   0.052   6.492   2.672
 2997SOL     OW 9334   0.130   7.407   3.433
 2997SOL    HW1 9335   0.120   7.392   3.532
 2997SOL    HW2 9336   0.044   7.443   3.397
 2998SOL     OW 9337   0.865   5.934   2.057
 2998SOL    HW1 9338   0.924   5.997   2.008
 2998SOL    HW2 9339   0.884   5.840   2.028
 2999SOL     OW 9340   1.719   6.171   3.693
 2999SOL    HW1 9341   1.693   6.260   3.657
 2999SOL    HW2 9342   1.717   6.103   3.620
 3000SOL     OW 9343   1.362   6.730   2.407
 3000SOL    HW1 9344   1.445   6.701   2.359
 3000SOL    HW2 9345   1.313   6.797   2.351
 3001SOL     OW 9346   0.550   5.782   2.747
 3001SOL    HW1 9347   0.545   5.777   2.847
 3001SOL    HW2 9348   0.552   5.878   2.718
 3002SOL     OW 9349   1.008   7.042   2.339
 3002SOL    HW1 9350   0.962   7.114   2.287
 3002SOL    HW2 9351   1.004   7.062   2.437
 3003SOL     OW 9352   0.351   7.387   2.715
 3003SOL    HW1 9353   0.401   7.301   2.721
 3003SOL    HW2 9354   0.416   7.464   2.712
 3004SOL     OW 9355   1.795   6.652   2.735
 3004SOL    HW1 9356   1.733   6.637   2.659
 3004SOL    HW2 9357   1.743   6.663   2.820
 3005SOL     OW 9358   1.227   7.136   3.368
 3005SOL    HW1 9359   1.233   7.059   3.432
 3005SOL    HW2 9360   1.175   7.110   3.288
 3006SOL     OW 9361   0.321   6.529   2.104
 3006SOL    HW1 9362   0.403   6.568   2.062
 3006SOL    HW2 9363   0.294   6.447   2.055
 3007SOL     OW 9364   1.458   6.321   2.590
 3007SOL    HW1 9365   1.453   6.256   2.665
 3007SOL    HW2 9366   1.538   6.380   2.603
 3008SOL     OW 9367   0.461   6.852   3.589
 3008SOL    HW1 9368   0.411   6.853   3.503
 3008SOL    HW2 9369   0.398   6.834   3.665
 3009SOL     OW 9370   1.111   7.362   2.099
 3009SOL    HW1 9371   1.051   7.300   2.149
 3009SOL    HW2 9372   1.142   7.318   2.014
 3010SOL     OW 9373   0.202   5.871   3.360
 3010SOL    HW1 9374   0.122   5.931   3.347
 3010SOL    HW2 9375   0.192   5.822   3.446
 3011SOL     OW 9376   1.632   6.963   1.943
 3011SOL    HW1 9377   1.600   7.057   1.933
 3011SOL    HW2 9378   1.556   6.900   1.931
 3012SOL     OW 9379   0.464   7.329   2.185
 3012SOL    HW1 9380   0.497   7.368   2.271
 3012SOL    HW2 9381   0.540   7.322   2.120
 3013SOL     OW 9382   1.400   5.693   2.288
 3013SOL    HW1 9383   1.376   5.656   2.198
 3013SOL    HW2 9384   1.499   5.709   2.292
 3014SOL     OW 9385   0.249   7.371   3.103
 3014SOL    HW1 9386   0.306   7.306   3.153
 3014SOL    HW2 9387   0.233   7.338   3.010
 3015SOL     OW 9388   0.940   7.284   2.766
 3015SOL    HW1 9389   1.020   7.227   2.787
 3015SOL    HW2 9390   0.891   7.244   2.689
 3016SOL     OW 9391   0.382   6.286   2.342
 3016SOL    HW1 9392   0.427   6.196   2.339
 3016SOL    HW2 9393   0.288   6.275   2.375
 3017SOL     OW 9394   1.547   5.808   3.591
 3017SOL    HW1 9395   1.542   5.845   3.683
 3017SOL    HW2 9396   1.475   5.739   3.579
 3018SOL     OW 9397   0.614   5.708   1.979
 3018SOL    HW1 9398   0.712   5.686   1.986
 3018SOL    HW2 9399   0.583   5.691   1.886
 3019SOL     OW 9400   0.781   5.850   3.611
 3019SOL    HW1 9401   0.848   5.789   3.654
 3019SOL    HW2 9402   0.708   5.869   3.676
 3020SOL     OW 9403   0.888   7.100   3.057
 3020SOL    HW1 9404   0.865   7.075   2.963
 3020SOL    HW2 9405   0.949   7.031   3.096
 3021SOL     OW 9406   1.351   6.176   3.295
 3021SOL    HW1 9407   1.379   6.133   3.380
 3021SOL    HW2 9408   1.376   6.272   3.296
 3022SOL     OW 9409   0.803   6.988   2.786
 3022SOL    HW1 9410   0.893   7.002   2.744
 3022SOL    HW2 9411   0.732   6.990   2.715
 3023SOL     OW 9412   0.922   6.089   2.761
 3023SOL    HW1 9413   0.897   6.080   2.665
 3023SOL    HW2 9414   0.970   6.007   2.792
 3024SOL     OW 9415   0.539   5.650   2.374
 3024SOL    HW1 9416   0.458   5.651   2.432
 3024SOL    HW2 9417   0.542   5.733   2.319
 3025SOL     OW 9418   1.434   6.774   1.903
 3025SOL    HW1 9419   1.466   6.698   1.960
 3025SOL    HW2 9420   1.342   6.801   1.933
 3026SOL     OW 9421   0.297   5.621   2.033
 3026SOL    HW1 9422   0.346   5.705   2.012
 3026SOL    HW2 9423   0.359   5.556   2.078
 3027SOL     OW 9424   0.935   5.822   2.342
 3027SOL    HW1 9425   0.887   5.863   2.264
 3027SOL    HW2 9426   1.034   5.820   2.323
 3028SOL     OW 9427   1.076   6.269   3.326
 3028SOL    HW1 9428   0.996   6.208   3.329
 3028SOL    HW2 9429   1.157   6.216   3.302
 3029SOL     OW 9430   1.227   7.156   2.655
 3029SOL    HW1 9431   1.248   7.230   2.590
 3029SOL    HW2 9432   1.295   7.156   2.728
 3030SOL     OW 9433   0.459   6.738   2.603
 3030SOL    HW1 9434   0.388   6.711   2.668
 3030SOL    HW2 9435   0.433   6.710   2.510
 3031SOL     OW 9436   1.271   7.383   2.453
 3031SOL    HW1 9437   1.315   7.447   2.389
 3031SOL    HW2 9438   1.221   7.435   2.523
 3032SOL     OW 9439   1.032   6.135   1.878
 3032SOL    HW1 9440   0.991   6.217   1.839
 3032SOL    HW2 9441   1.096   6.161   1.951
 3033SOL     OW 9442   0.078   6.142   3.248
 3033SOL    HW1 9443   0.170   6.141   3.207
 3033SOL    HW2 9444   0.072   6.216   3.315
 3034SOL     OW 9445   0.561   5.808   3.009
 3034SOL    HW1 9446   0.599   5.724   3.046
 3034SOL    HW2 9447   0.473   5.827   3.053
 3035SOL     OW 9448   0.866   6.040   2.504
 3035SOL    HW1 9449   0.834   6.112   2.442
 3035SOL    HW2 9450   0.890   5.959   2.451
 3036SOL     OW 9451   1.017   5.625   2.615
 3036SOL    HW1 9452   0.945   5.630   2.546
 3036SOL    HW2 9453   0.993   5.556   2.684
 3037SOL     OW 9454   1.429   6.759   2.729
 3037SOL    HW1 9455   1.374   6.675   2.722
 3037SOL    HW2 9456   1.455   6.788   2.637
 3038SOL     OW 9457   1.466   6.176   2.854
 3038SOL    HW1 9458   1.436   6.081   2.861
 3038SOL    HW2 9459   1.539   6.192   2.920
 3039SOL     OW 9460   1.857   6.419   2.239
 3039SOL    HW1 9461   1.899   6.355   2.303
 3039SOL    HW2 9462   1.819   6.368   2.161
 3040SOL     OW 9463   0.488   6.971   2.036
 3040SOL    HW1 9464   0.401   6.956   2.083
 3040SOL    HW2 9465   0.471   6.997   1.941
 3041SOL     OW 9466   1.390   6.161   1.940
 3041SOL    HW1 9467   1.336   6.140   2.021
 3041SOL    HW2 9468   1.481   6.120   1.949
 3042SOL     OW 9469   0.527   5.842   2.190
 3042SOL    HW1 9470   0.554   5.783   2.115
 3042SOL    HW2 9471   0.527   5.937   2.159
 3043SOL     OW 9472   1.754   6.809   3.450
 3043SOL    HW1 9473   1.845   6.770   3.437
 3043SOL    HW2 9474   1.762   6.905   3.474
 3044SOL     OW 9475   1.064   6.933   3.202
 3044SOL    HW1 9476   0.984   6.910   3.257
 3044SOL    HW2 9477   1.147   6.907   3.251
 3045SOL     OW 9478   1.592   7.215   3.487
 3045SOL    HW1 9479   1.619   7.249   3.397
 3045SOL    HW2 9480   1.671   7.177   3.533
 3046SOL     OW 9481   1.111   6.781   2.962
 3046SOL    HW1 9482   1.071   6.825   3.043
 3046SOL    HW2 9483   1.070   6.818   2.879
 3047SOL     OW 9484   1.638   6.685   2.941
 3047SOL    HW1 9485   1.643   6.766   3.000
 3047SOL    HW2 9486   1.552   6.687   2.890
 3048SOL     OW 9487   0.915   5.675   3.264
 3048SOL    HW1 9488   0.940   5.655   3.169
 3048SOL    HW2 9489   0.987   5.731   3.306
 3049SOL     OW 9490   0.980   6.702   3.581
 3049SOL    HW1 9491   0.881   6.708   3.591
 3049SOL    HW2 9492   1.003   6.622   3.525
 3050SOL     OW 9493   0.705   6.636   2.230
 3050SOL    HW1 9494   0.691   6.643   2.329
 3050SOL    HW2 9495   0.789   6.585   2.212
 3051SOL     OW 9496   0.410   6.399   3.113
 3051SOL    HW1 9497   0.496   6.411   3.163
 3051SOL    HW2 9498   0.368   6.312   3.140
 3052SOL     OW 9499   1.274   5.972   3.124
 3052SOL    HW1 9500   1.295   6.046   3.188
 3052SOL    HW2 9501   1.185   5.989   3.081
 3053SOL     OW 9502   0.064   7.150   3.193
 3053SOL    HW1 9503   0.018   7.232   3.159
 3053SOL    HW2 9504   0.162   7.169   3.202
 3054SOL     OW 9505   0.367   6.686   2.363
 3054SOL    HW1 9506   0.360   6.769   2.307
 3054SOL    HW2 9507   0.371   6.606   2.303
 3055SOL     OW 9508   0.566   6.123   2.727
 3055SOL    HW1 9509   0.578   6.189   2.653
 3055SOL    HW2 9510   0.612   6.157   2.810
 3056SOL     OW 9511   1.252   6.934   2.250
 3056SOL    HW1 9512   1.302   7.011   2.290
 3056SOL    HW2 9513   1.157   6.936   2.282
 3057SOL     OW 9514   1.272   7.031   3.004
 3057SOL    HW1 9515   1.319   7.044   3.091
 3057SOL    HW2 9516   1.206   6.957   3.013
 3058SOL     OW 9517   1.582   6.225   2.334
 3058SOL    HW1 9518   1.551   6.286   2.407
 3058SOL    HW2 9519   1.632   6.277   2.265
 3059SOL     OW 9520   0.354   7.096   3.191
 3059SOL    HW1 9521   0.333   7.052   3.104
 3059SOL    HW2 9522   0.451   7.122   3.194
 3060SOL     OW 9523   0.402   6.337   3.460
 3060SOL    HW1 9524   0.470   6.392   3.413
 3060SOL    HW2 9525   0.442   6.249   3.487
 3061SOL     OW 9526   1.587   6.365   3.532
 3061SOL    HW1 9527   1.495   6.403   3.527
 3061SOL    HW2 9528   1.647   6.412   3.467
 3062SOL     OW 9529   1.013   5.691   3.632
 3062SOL    HW1 9530   1.019   5.776   3.580
 3062SOL    HW2 9531   1.045   5.615   3.575
 3063SOL     OW 9532   0.504   5.636   3.602
 3063SOL    HW1 9533   0.462   5.579   3.532
 3063SOL    HW2 9534   0.438   5.705   3.634
 3064SOL     OW 9535   0.573   6.456   2.891
 3064SOL    HW1 9536   0.617   6.545   2.882
 3064SOL    HW2 9537   0.510   6.456   2.968
 3065SOL     OW 9538   1.360   6.448   2.907
 3065SOL    HW1 9539   1.285   6.448   2.841
 3065SOL    HW2 9540   1.397   6.356   2.916
 3066SOL     OW 9541   1.209   6.111   2.137
 3066SOL    HW1 9542   1.222   6.027   2.191
 3066SOL    HW2 9543   1.180   6.185   2.197
 3067SOL     OW 9544   0.307   5.799   3.093
 3067SOL    HW1 9545   0.284   5.836   3.183
 3067SOL    HW2 9546   0.277   5.704   3.087
 3068SOL     OW 9547   0.037   6.896   3.144
 3068SOL    HW1 9548   0.090   6.847   3.212
 3068SOL    HW2 9549   0.059   6.994   3.149
 3069SOL     OW 9550   0.732   6.220   2.926
 3069SOL    HW1 9551   0.791   6.194   2.850
 3069SOL    HW2 9552   0.704   6.316   2.915
 3070SOL     OW 9553   1.728   6.521   3.716
 3070SOL    HW1 9554   1.682   6.514   3.627
 3070SOL    HW2 9555   1.666   6.565   3.782
 3071SOL     OW 9556   0.307   5.649   2.480
 3071SOL    HW1 9557   0.296   5.743   2.513
 3071SOL    HW2 9558   0.302   5.586   2.557
 3072SOL     OW 9559   1.622   5.953   2.236
 3072SOL    HW1 9560   1.624   5.877   2.300
 3072SOL    HW2 9561   1.574   6.030   2.276
 3073SOL     OW 9562   1.023   6.352   2.828
 3073SOL    HW1 9563   1.038   6.373   2.924
 3073SOL    HW2 9564   0.993   6.257   2.819
 3074SOL     OW 9565   0.980   7.159   3.562
 3074SOL    HW1 9566   0.960   7.203   3.474
 3074SOL    HW2 9567   1.019   7.068   3.546
 3075SOL     OW 9568   1.859   7.104   3.467
 3075SOL    HW1 9569   1.873   7.131   3.372
 3075SOL    HW2 9570   1.942   7.126   3.520
 3076SOL     OW 9571   0.350   6.484   3.666
 3076SOL    HW1 9572   0.426   6.528   3.714
 3076SOL    HW2 9573   0.385   6.437   3.584
 3077SOL     OW 9574   1.540   5.860   1.987
 3077SOL    HW1 9575   1.479   5.785   2.010
 3077SOL    HW2 9576   1.562   5.912   2.070
 3078SOL     OW 9577   1.303   6.424   1.904
 3078SOL    HW1 9578   1.337   6.331   1.919
 3078SOL    HW2 9579   1.321   6.451   1.809
 3079SOL     OW 9580   1.068   6.919   2.711
 3079SOL    HW1 9581   1.075   6.835   2.656
 3079SOL    HW2 9582   1.130   6.988   2.675
 3080SOL     OW 9583   0.319   6.396   2.811
 3080SOL    HW1 9584   0.412   6.432   2.816
 3080SOL    HW2 9585   0.313   6.311   2.863
 3081SOL     OW 9586   0.339   6.095   2.868
 3081SOL    HW1 9587   0.287   6.012   2.851
 3081SOL    HW2 9588   0.416   6.100   2.804
 3082SOL     OW 9589   1.138   5.966   3.540
 3082SOL    HW1 9590   1.093   6.029   3.604
 3082SOL    HW2 9591   1.231   5.997   3.523
 3083SOL     OW 9592   1.160   5.793   3.339
 3083SOL    HW1 9593   1.160   5.857   3.416
 3083SOL    HW2 9594   1.188   5.841   3.256
 3084SOL     OW 9595   0.008   6.912   2.062
 3084SOL    HW1 9596  -0.085   6.933   2.031
 3084SOL    HW2 9597   0.018   6.813   2.075
 3085SOL     OW 9598   0.088   7.387   2.789
 3085SOL    HW1 9599   0.046   7.301   2.762
 3085SOL    HW2 9600   0.182   7.390   2.755
 3086SOL     OW 9601   0.504   7.154   2.772
 3086SOL    HW1 9602   0.570   7.228   2.781
 3086SOL    HW2 9603   0.548   7.075   2.730
 3087SOL     OW 9604   1.002   6.382   3.100
 3087SOL    HW1 9605   1.043   6.350   3.186
 3087SOL    HW2 9606   0.906   6.355   3.097
 3088SOL     OW 9607   0.040   6.130   2.976
 3088SOL    HW1 9608   0.125   6.097   2.935
 3088SOL    HW2 9609   0.053   6.145   3.074
 3089SOL     OW 9610   0.189   6.106   3.584
 3089SOL    HW1 9611   0.248   6.066   3.514
 3089SOL    HW2 9612   0.131   6.177   3.543
 3090SOL     OW 9613   1.369   6.536   3.522
 3090SOL    HW1 9614   1.408   6.625   3.542
 3090SOL    HW2 9615   1.379   6.516   3.425
 3091SOL     OW 9616   0.815   6.158   2.187
 3091SOL    HW1 9617   0.822   6.069   2.141
 3091SOL    HW2 9618   0.721   6.192   2.179
 3092SOL     OW 9619   1.657   6.190   3.068
 3092SOL    HW1 9620   1.619   6.121   3.130
 3092SOL    HW2 9621   1.739   6.154   3.024
 3093SOL     OW 9622   0.252   7.150   3.606
 3093SOL    HW1 9623   0.222   7.207   3.682
 3093SOL    HW2 9624   0.245   7.053   3.632
 3094SOL     OW 9625   0.671   6.050   3.131
 3094SOL    HW1 9626   0.637   5.961   3.101
 3094SOL    HW2 9627   0.697   6.104   3.051
 3095SOL     OW 9628   0.930   7.264   3.327
 3095SOL    HW1 9629   0.906   7.246   3.232
 3095SOL    HW2 9630   0.960   7.358   3.337
 3096SOL     OW 9631   0.473   6.086   2.053
 3096SOL    HW1 9632   0.534   6.166   2.057
 3096SOL    HW2 9633   0.378   6.117   2.060
 3097SOL     OW 9634   0.159   6.723   3.328
 3097SOL    HW1 9635   0.181   6.662   3.404
 3097SOL    HW2 9636   0.169   6.674   3.242
 3098SOL     OW 9637   1.347   6.645   3.096
 3098SOL    HW1 9638   1.371   6.582   3.022
 3098SOL    HW2 9639   1.257   6.685   3.078
 3099SOL     OW 9640   1.302   6.441   2.171
 3099SOL    HW1 9641   1.216   6.410   2.213
 3099SOL    HW2 9642   1.298   6.427   2.072
 3100SOL     OW 9643   1.759   7.333   3.016
 3100SOL    HW1 9644   1.820   7.363   2.943
 3100SOL    HW2 9645   1.721   7.244   2.994
 3101SOL     OW 9646   1.252   7.317   2.990
 3101SOL    HW1 9647   1.336   7.322   2.936
 3101SOL    HW2 9648   1.229   7.221   3.008
 3102SOL     OW 9649   0.083   6.844   2.884
 3102SOL    HW1 9650   0.078   6.843   2.984
 3102SOL    HW2 9651   0.000   6.803   2.846
 3103SOL     OW 9652   0.688   7.248   3.578
 3103SOL    HW1 9653   0.632   7.329   3.587
 3103SOL    HW2 9654   0.740   7.252   3.492
 3104SOL     OW 9655   1.726   5.721   2.385
 3104SOL    HW1 9656   1.799   5.704   2.318
 3104SOL    HW2 9657   1.695   5.634   2.423
 3105SOL     OW 9658   1.388   7.159   2.339
 3105SOL    HW1 9659   1.455   7.171   2.265
 3105SOL    HW2 9660   1.348   7.248   2.362
 3106SOL     OW 9661   0.130   7.380   3.713
 3106SOL    HW1 9662   0.089   7.306   3.766
 3106SOL    HW2 9663   0.194   7.431   3.771
 3107SOL     OW 9664   1.280   6.513   2.534
 3107SOL    HW1 9665   1.340   6.432   2.536
 3107SOL    HW2 9666   1.320   6.582   2.474
 3108SOL     OW 9667   0.830   6.859   3.284
 3108SOL    HW1 9668   0.825   6.892   3.379
 3108SOL    HW2 9669   0.744   6.878   3.238
 3109SOL     OW 9670   0.672   7.202   2.016
 3109SOL    HW1 9671   0.681   7.212   1.917
 3109SOL    HW2 9672   0.632   7.113   2.037
 3110SOL     OW 9673   1.650   7.306   3.256
 3110SOL    HW1 9674   1.703   7.316   3.172
 3110SOL    HW2 9675   1.623   7.396   3.290
 3111SOL     OW 9676   1.841   5.761   2.825
 3111SOL    HW1 9677   1.880   5.676   2.789
 3111SOL    HW2 9678   1.743   5.763   2.806
 3112SOL     OW 9679   0.263   5.912   2.582
 3112SOL    HW1 9680   0.184   5.963   2.548
 3112SOL    HW2 9681   0.254   5.897   2.680
 3113SOL     OW 9682   1.194   7.198   1.893
 3113SOL    HW1 9683   1.200   7.105   1.930
 3113SOL    HW2 9684   1.135   7.198   1.813
 3114SOL     OW 9685   0.822   6.588   3.234
 3114SOL    HW1 9686   0.862   6.587   3.142
 3114SOL    HW2 9687   0.832   6.680   3.274
 3115SOL     OW 9688   0.916   6.496   2.153
 3115SOL    HW1 9689   0.979   6.534   2.085
 3115SOL    HW2 9690   0.956   6.413   2.192
 3116SOL     OW 9691   1.504   7.193   1.906
 3116SOL    HW1 9692   1.412   7.230   1.913
 3116SOL    HW2 9693   1.542   7.213   1.816
 3117SOL     OW 9694   0.372   6.874   3.352
 3117SOL    HW1 9695   0.359   6.967   3.318
 3117SOL    HW2 9696   0.288   6.822   3.339
 3118SOL     OW 9697   1.614   6.878   3.151
 3118SOL    HW1 9698   1.674   6.881   3.231
 3118SOL    HW2 9699   1.539   6.942   3.164
 3119SOL     OW 9700   1.039   6.684   2.558
 3119SOL    HW1 9701   0.969   6.637   2.612
 3119SOL    HW2 9702   1.098   6.616   2.515
 3120SOL     OW 9703   1.014   5.822   2.833
 3120SOL    HW1 9704   1.006   5.786   2.740
 3120SOL    HW2 9705   1.012   5.746   2.898
 3121SOL     OW 9706   0.590   7.073   2.353
 3121SOL    HW1 9707   0.632   7.015   2.283
 3121SOL    HW2 9708   0.546   7.152   2.309
 3122SOL     OW 9709   1.709   5.971   3.243
 3122SOL    HW1 9710   1.782   6.040   3.247
 3122SOL    HW2 9711   1.737   5.896   3.184
 3123SOL     OW 9712   0.255   6.934   2.152
 3123SOL    HW1 9713   0.159   6.935   2.125
 3123SOL    HW2 9714   0.267   6.987   2.236
 3124SOL     OW 9715   0.105   6.599   3.588
 3124SOL    HW1 9716   0.028   6.566   3.642
 3124SOL    HW2 9717   0.190   6.569   3.630
 3125SOL     OW 9718   0.672   5.789   3.351
 3125SOL    HW1 9719   0.762   5.773   3.311
 3125SOL    HW2 9720   0.680   5.794   3.450
 3126SOL     OW 9721   0.075   5.931   1.895
 3126SOL    HW1 9722  -0.017   5.903   1.866
 3126SOL    HW2 9723   0.106   6.008   1.839
 3127SOL     OW 9724   1.440   6.442   3.260
 3127SOL    HW1 9725   1.383   6.494   3.197
 3127SOL    HW2 9726   1.536   6.454   3.236
 3128SOL     OW 9727   0.072   5.752   2.180
 3128SOL    HW1 9728   0.055   5.835   2.126
 3128SOL    HW2 9729   0.162   5.715   2.158
 3129SOL     OW 9730   1.183   6.921   1.981
 3129SOL    HW1 9731   1.084   6.910   1.983
 3129SOL    HW2 9732   1.217   6.936   2.074
 3130SOL     OW 9733   0.613   6.428   3.293
 3130SOL    HW1 9734   0.669   6.509   3.276
 3130SOL    HW2 9735   0.672   6.348   3.296
 3131SOL     OW 9736   1.493   7.353   2.821
 3131SOL    HW1 9737   1.526   7.417   2.752
 3131SOL    HW2 9738   1.559   7.347   2.896
 3132SOL     OW 9739   0.716   6.151   3.570
 3132SOL    HW1 9740   0.735   6.216   3.644
 3132SOL    HW2 9741   0.776   6.071   3.579
 3133SOL     OW 9742   1.450   6.806   3.495
 3133SOL    HW1 9743   1.441   6.796   3.594
 3133SOL    HW2 9744   1.546   6.799   3.469
 3134SOL     OW 9745   0.390   7.327   3.422
 3134SOL    HW1 9746   0.299   7.368   3.420
 3134SOL    HW2 9747   0.383   7.233   3.454
 3135SOL     OW 9748   1.674   6.469   3.116
 3135SOL    HW1 9749   1.647   6.380   3.079
 3135SOL    HW2 9750   1.675   6.537   3.043
 3136SOL     OW 9751   1.225   5.911   2.311
 3136SOL    HW1 9752   1.290   5.837   2.300
 3136SOL    HW2 9753   1.245   5.961   2.395
 3137SOL     OW 9754   0.594   6.331   2.514
 3137SOL    HW1 9755   0.644   6.416   2.495
 3137SOL    HW2 9756   0.506   6.333   2.466
 3138SOL     OW 9757   1.777   5.928   3.504
 3138SOL    HW1 9758   1.760   5.959   3.410
 3138SOL    HW2 9759   1.693   5.891   3.542
 3139SOL     OW 9760   1.730   6.520   3.379
 3139SOL    HW1 9761   1.768   6.611   3.394
 3139SOL    HW2 9762   1.722   6.503   3.280
 3140SOL     OW 9763   0.859   6.960   1.878
 3140SOL    HW1 9764   0.813   6.975   1.966
 3140SOL    HW2 9765   0.903   7.045   1.848
 3141SOL     OW 9766   0.661   7.376   2.815
 3141SOL    HW1 9767   0.615   7.464   2.802
 3141SOL    HW2 9768   0.760   7.388   2.808
 3142SOL     OW 9769   0.859   6.542   2.723
 3142SOL    HW1 9770   0.913   6.473   2.771
 3142SOL    HW2 9771   0.827   6.611   2.789
 3143SOL     OW 9772   1.083   6.570   1.949
 3143SOL    HW1 9773   1.060   6.623   1.867
 3143SOL    HW2 9774   1.164   6.514   1.930
 3144SOL     OW 9775   1.861   7.155   2.713
 3144SOL    HW1 9776   1.790   7.143   2.643
 3144SOL    HW2 9777   1.862   7.076   2.773
 3145SOL     OW 9778   0.221   6.900   3.706
 3145SOL    HW1 9779   0.156   6.827   3.685
 3145SOL    HW2 9780   0.225   6.914   3.804
 3146SOL     OW 9781   0.079   6.826   2.515
 3146SOL    HW1 9782   0.078   6.779   2.603
 3146SOL    HW2 9783   0.161   6.798   2.464
 3147SOL     OW 9784   0.672   6.977   3.486
 3147SOL    HW1 9785   0.594   6.927   3.524
 3147SOL    HW2 9786   0.669   7.072   3.517
 3148SOL     OW 9787   1.824   5.778   3.089
 3148SOL    HW1 9788   1.820   5.688   3.133
 3148SOL    HW2 9789   1.827   5.767   2.990
 3149SOL     OW 9790   0.428   6.010   2.382
 3149SOL    HW1 9791   0.458   5.938   2.320
 3149SOL    HW2 9792   0.389   5.970   2.465
 3150SOL     OW 9793   1.705   7.073   2.966
 3150SOL    HW1 9794   1.612   7.048   2.939
 3150SOL    HW2 9795   1.731   7.023   3.048
 3151SOL     OW 9796   0.317   6.133   3.142
 3151SOL    HW1 9797   0.355   6.074   3.214
 3151SOL    HW2 9798   0.357   6.107   3.054
 3152SOL     OW 9799   0.812   7.172   2.549
 3152SOL    HW1 9800   0.844   7.182   2.455
 3152SOL    HW2 9801   0.733   7.110   2.551
 3153SOL     OW 9802   1.424   5.800   2.974
 3153SOL    HW1 9803   1.476   5.735   3.029
 3153SOL    HW2 9804   1.375   5.863   3.035
 3154SOL     OW 9805   1.001   5.620   3.016
 3154SOL    HW1 9806   0.938   5.548   2.985
 3154SOL    HW2 9807   1.094   5.584   3.016
 3155SOL     OW 9808   0.770   6.916   2.163
 3155SOL    HW1 9809   0.724   6.829   2.180
 3155SOL    HW2 9810   0.861   6.913   2.204
 3156SOL     OW 9811   0.618   7.153   3.146
 3156SOL    HW1 9812   0.613   7.235   3.203
 3156SOL    HW2 9813   0.707   7.150   3.101
 3157SOL     OW 9814   1.352   5.638   2.030
 3157SOL    HW1 9815   1.387   5.597   1.946
 3157SOL    HW2 9816   1.262   5.600   2.050
 3158SOL     OW 9817   1.300   6.039   2.553
 3158SOL    HW1 9818   1.241   6.119   2.557
 3158SOL    HW2 9819   1.315   6.004   2.646
 3159SOL     OW 9820   1.593   5.807   2.744
 3159SOL    HW1 9821   1.509   5.806   2.798
 3159SOL    HW2 9822   1.595   5.890   2.688
 3160SOL     OW 9823   0.039   6.663   2.162
 3160SOL    HW1 9824   0.138   6.652   2.153
 3160SOL    HW2 9825  -0.001   6.577   2.194
 3161SOL     OW 9826   0.875   7.232   2.199
 3161SOL    HW1 9827   0.798   7.197   2.145
 3161SOL    HW2 9828   0.843   7.303   2.261
 3162SOL     OW 9829   0.230   6.214   3.837
 3162SOL    HW1 9830   0.137   6.212   3.874
 3162SOL    HW2 9831   0.231   6.175   3.745
 3163SOL     OW 9832   0.225   5.861   4.720
 3163SOL    HW1 9833   0.260   5.844   4.812
 3163SOL    HW2 9834   0.137   5.816   4.708
 3164SOL     OW 9835   0.019   5.954   4.371
 3164SOL    HW1 9836  -0.063   5.997   4.410
 3164SOL    HW2 9837  -0.009   5.881   4.308
 3165SOL     OW 9838   0.569   6.861   4.889
 3165SOL    HW1 9839   0.476   6.854   4.852
 3165SOL    HW2 9840   0.580   6.950   4.933
 3166SOL     OW 9841   1.555   7.097   4.427
 3166SOL    HW1 9842   1.498   7.081   4.508
 3166SOL    HW2 9843   1.496   7.107   4.347
 3167SOL     OW 9844   1.135   6.289   4.441
 3167SOL    HW1 9845   1.192   6.367   4.416
 3167SOL    HW2 9846   1.075   6.315   4.517
 3168SOL     OW 9847   1.755   6.193   3.955
 3168SOL    HW1 9848   1.743   6.180   3.856
 3168SOL    HW2 9849   1.725   6.112   4.004
 3169SOL     OW 9850   0.768   6.730   4.747
 3169SOL    HW1 9851   0.690   6.747   4.807
 3169SOL    HW2 9852   0.802   6.817   4.711
 3170SOL     OW 9853   0.850   6.384   5.547
 3170SOL    HW1 9854   0.846   6.460   5.612
 3170SOL    HW2 9855   0.872   6.420   5.456
 3171SOL     OW 9856   0.685   6.598   4.389
 3171SOL    HW1 9857   0.754   6.582   4.459
 3171SOL    HW2 9858   0.612   6.655   4.427
 3172SOL     OW 9859   0.686   6.747   5.527
 3172SOL    HW1 9860   0.746   6.826   5.541
 3172SOL    HW2 9861   0.600   6.778   5.486
 3173SOL     OW 9862   0.335   7.021   4.785
 3173SOL    HW1 9863   0.257   6.990   4.732
 3173SOL    HW2 9864   0.393   7.079   4.728
 3174SOL     OW 9865   1.460   7.091   5.063
 3174SOL    HW1 9866   1.484   7.185   5.089
 3174SOL    HW2 9867   1.444   7.037   5.145
 3175SOL     OW 9868   0.438   5.978   5.223
 3175SOL    HW1 9869   0.520   5.922   5.232
 3175SOL    HW2 9870   0.357   5.920   5.227
 3176SOL     OW 9871   1.603   6.033   4.461
 3176SOL    HW1 9872   1.529   6.079   4.411
 3176SOL    HW2 9873   1.654   6.101   4.514
 3177SOL     OW 9874   0.231   7.299   4.207
 3177SOL    HW1 9875   0.265   7.376   4.261
 3177SOL    HW2 9876   0.275   7.299   4.117
 3178SOL     OW 9877   1.127   6.927   5.414
 3178SOL    HW1 9878   1.174   6.927   5.502
 3178SOL    HW2 9879   1.079   6.840   5.403
 3179SOL     OW 9880   0.230   7.020   4.262
 3179SOL    HW1 9881   0.204   7.116   4.262
 3179SOL    HW2 9882   0.159   6.966   4.307
 3180SOL     OW 9883   0.240   6.677   4.610
 3180SOL    HW1 9884   0.254   6.593   4.662
 3180SOL    HW2 9885   0.185   6.741   4.665
 3181SOL     OW 9886   0.620   7.372   5.163
 3181SOL    HW1 9887   0.528   7.355   5.198
 3181SOL    HW2 9888   0.648   7.464   5.189
 3182SOL     OW 9889   0.606   6.550   3.847
 3182SOL    HW1 9890   0.613   6.634   3.793
 3182SOL    HW2 9891   0.652   6.563   3.935
 3183SOL     OW 9892   0.122   6.229   4.287
 3183SOL    HW1 9893   0.077   6.141   4.304
 3183SOL    HW2 9894   0.121   6.283   4.371
 3184SOL     OW 9895   1.842   7.353   4.083
 3184SOL    HW1 9896   1.896   7.324   4.163
 3184SOL    HW2 9897   1.872   7.443   4.054
 3185SOL     OW 9898   0.027   7.182   3.841
 3185SOL    HW1 9899   0.008   7.086   3.862
 3185SOL    HW2 9900  -0.006   7.240   3.916
 3186SOL     OW 9901   1.689   6.508   4.336
 3186SOL    HW1 9902   1.784   6.479   4.344
 3186SOL    HW2 9903   1.681   6.573   4.261
 3187SOL     OW 9904   1.641   6.694   4.156
 3187SOL    HW1 9905   1.727   6.696   4.104
 3187SOL    HW2 9906   1.655   6.741   4.244
 3188SOL     OW 9907   0.113   6.323   5.321
 3188SOL    HW1 9908   0.201   6.310   5.366
 3188SOL    HW2 9909   0.100   6.420   5.299
 3189SOL     OW 9910   0.613   6.951   4.450
 3189SOL    HW1 9911   0.564   6.864   4.459
 3189SOL    HW2 9912   0.590   6.994   4.363
 3190SOL     OW 9913   1.293   6.814   5.147
 3190SOL    HW1 9914   1.330   6.741   5.089
 3190SOL    HW2 9915   1.345   6.819   5.232
 3191SOL     OW 9916   0.809   5.590   4.226
 3191SOL    HW1 9917   0.849   5.681   4.217
 3191SOL    HW2 9918   0.709   5.598   4.232
 3192SOL     OW 9919   0.197   6.562   4.988
 3192SOL    HW1 9920   0.286   6.517   4.974
 3192SOL    HW2 9921   0.124   6.497   4.969
 3193SOL     OW 9922   1.525   6.585   3.914
 3193SOL    HW1 9923   1.462   6.509   3.927
 3193SOL    HW2 9924   1.573   6.603   4.000
 3194SOL     OW 9925   1.187   7.378   5.340
 3194SOL    HW1 9926   1.211   7.438   5.264
 3194SOL    HW2 9927   1.194   7.283   5.310
 3195SOL     OW 9928   0.317   5.837   5.525
 3195SOL    HW1 9929   0.388   5.908   5.531
 3195SOL    HW2 9930   0.229   5.876   5.553
 3196SOL     OW 9931   1.466   7.003   4.677
 3196SOL    HW1 9932   1.407   7.009   4.757
 3196SOL    HW2 9933   1.451   6.915   4.631
 3197SOL     OW 9934   1.667   7.300   4.296
 3197SOL    HW1 9935   1.626   7.277   4.208
 3197SOL    HW2 9936   1.649   7.226   4.361
 3198SOL     OW 9937   0.598   6.315   3.994
 3198SOL    HW1 9938   0.622   6.384   3.926
 3198SOL    HW2 9939   0.520   6.348   4.048
 3199SOL     OW 9940   1.281   5.931   4.668
 3199SOL    HW1 9941   1.195   5.881   4.655
 3199SOL    HW2 9942   1.343   5.877   4.724
 3200SOL     OW 9943   1.576   7.248   4.031
 3200SOL    HW1 9944   1.665   7.294   4.034
 3200SOL    HW2 9945   1.555   7.224   3.936
 3201SOL     OW 9946   0.807   6.191   5.189
 3201SOL    HW1 9947   0.760   6.188   5.278
 3201SOL    HW2 9948   0.756   6.136   5.123
 3202SOL     OW 9949   1.394   6.055   5.398
 3202SOL    HW1 9950   1.374   6.098   5.486
 3202SOL    HW2 9951   1.472   5.993   5.407
 3203SOL     OW 9952   0.973   6.476   5.296
 3203SOL    HW1 9953   1.019   6.392   5.267
 3203SOL    HW2 9954   0.917   6.510   5.221
 3204SOL     OW 9955   0.991   5.996   4.966
 3204SOL    HW1 9956   0.914   6.030   5.020
 3204SOL    HW2 9957   0.957   5.945   4.887
 3205SOL     OW 9958   1.041   6.287   4.153
 3205SOL    HW1 9959   1.067   6.283   4.249
 3205SOL    HW2 9960   0.956   6.236   4.139
 3206SOL     OW 9961   0.076   6.397   4.513
 3206SOL    HW1 9962   0.175   6.385   4.522
 3206SOL    HW2 9963   0.052   6.492   4.534
 3207SOL     OW 9964   0.130   7.407   5.295
 3207SOL    HW1 9965   0.120   7.392   5.394
 3207SOL    HW2 9966   0.044   7.443   5.259
 3208SOL     OW 9967   0.865   5.934   3.919
 3208SOL    HW1 9968   0.924   5.997   3.870
 3208SOL    HW2 9969   0.884   5.840   3.890
 3209SOL     OW 9970   1.719   6.171   5.555
 3209SOL    HW1 9971   1.693   6.260   5.519
 3209SOL    HW2 9972   1.717   6.103   5.482
 3210SOL     OW 9973   1.362   6.730   4.269
 3210SOL    HW1 9974   1.445   6.701   4.221
 3210SOL    HW2 9975   1.313   6.797   4.213
 3211SOL     OW 9976   0.550   5.782   4.609
 3211SOL    HW1 9977   0.545   5.777   4.709
 3211SOL    HW2 9978   0.552   5.878   4.580
 3212SOL     OW 9979   1.008   7.042   4.201
 3212SOL    HW1 9980   0.962   7.114   4.149
 3212SOL    HW2 9981   1.004   7.062   4.299
 3213SOL     OW 9982   0.351   7.387   4.577
 3213SOL    HW1 9983   0.401   7.301   4.583
 3213SOL    HW2 9984   0.416   7.464   4.574
 3214SOL     OW 9985   1.795   6.652   4.597
 3214SOL    HW1 9986   1.733   6.637   4.521
 3214SOL    HW2 9987   1.743   6.663   4.682
 3215SOL     OW 9988   1.227   7.136   5.230
 3215SOL    HW1 9989   1.233   7.059   5.294
 3215SOL    HW2 9990   1.175   7.110   5.150
 3216SOL     OW 9991   0.321   6.529   3.966
 3216SOL    HW1 9992   0.403   6.568   3.924
 3216SOL    HW2 9993   0.294   6.447   3.917
 3217SOL     OW 9994   0.461   6.852   5.451
 3217SOL    HW1 9995   0.411   6.853   5.365
 3217SOL    HW2 9996   0.398   6.834   5.527
 3218SOL     OW 9997   1.111   7.362   3.961
 3218SOL    HW1 9998   1.051   7.300   4.011
 3218SOL    HW2 9999   1.142   7.318   3.876
 3219SOL     OW10000   0.202   5.871   5.222
 3219SOL    HW110001   0.122   5.931   5.209
 3219SOL    HW210002   0.192   5.822   5.308
 3220SOL     OW10003   1.632   6.963   3.805
 3220SOL    HW110004   1.600   7.057   3.795
 3220SOL    HW210005   1.556   6.900   3.793
 3221SOL     OW10006   0.464   7.329   4.047
 3221SOL    HW110007   0.497   7.368   4.133
 3221SOL    HW210008   0.540   7.322   3.982
 3222SOL     OW10009   1.400   5.693   4.150
 3222SOL    HW110010   1.376   5.656   4.060
 3222SOL    HW210011   1.499   5.709   4.154
 3223SOL     OW10012   0.249   7.371   4.965
 3223SOL    HW110013   0.306   7.306   5.015
 3223SOL    HW210014   0.233   7.338   4.872
 3224SOL     OW10015   0.940   7.284   4.628
 3224SOL    HW110016   1.020   7.227   4.649
 3224SOL    HW210017   0.891   7.244   4.551
 3225SOL     OW10018   0.382   6.286   4.204
 3225SOL    HW110019   0.427   6.196   4.201
 3225SOL    HW210020   0.288   6.275   4.237
 3226SOL     OW10021   1.547   5.808   5.453
 3226SOL    HW110022   1.542   5.845   5.545
 3226SOL    HW210023   1.475   5.739   5.441
 3227SOL     OW10024   0.614   5.708   3.841
 3227SOL    HW110025   0.712   5.686   3.848
 3227SOL    HW210026   0.583   5.691   3.748
 3228SOL     OW10027   0.781   5.850   5.473
 3228SOL    HW110028   0.848   5.789   5.516
 3228SOL    HW210029   0.708   5.869   5.538
 3229SOL     OW10030   0.888   7.100   4.919
 3229SOL    HW110031   0.865   7.075   4.825
 3229SOL    HW210032   0.949   7.031   4.958
 3230SOL     OW10033   1.351   6.176   5.157
 3230SOL    HW110034   1.379   6.133   5.242
 3230SOL    HW210035   1.376   6.272   5.158
 3231SOL     OW10036   0.803   6.988   4.648
 3231SOL    HW110037   0.893   7.002   4.606
 3231SOL    HW210038   0.732   6.990   4.577
 3232SOL     OW10039   0.922   6.089   4.623
 3232SOL    HW110040   0.897   6.080   4.527
 3232SOL    HW210041   0.970   6.007   4.654
 3233SOL     OW10042   0.539   5.650   4.236
 3233SOL    HW110043   0.458   5.651   4.294
 3233SOL    HW210044   0.542   5.733   4.181
 3234SOL     OW10045   1.434   6.774   3.765
 3234SOL    HW110046   1.466   6.698   3.822
 3234SOL    HW210047   1.342   6.801   3.795
 3235SOL     OW10048   0.297   5.621   3.895
 3235SOL    HW110049   0.346   5.705   3.874
 3235SOL    HW210050   0.359   5.556   3.940
 3236SOL     OW10051   0.935   5.822   4.204
 3236SOL    HW110052   0.887   5.863   4.126
 3236SOL    HW210053   1.034   5.820   4.185
 3237SOL     OW10054   1.076   6.269   5.188
 3237SOL    HW110055   0.996   6.208   5.191
 3237SOL    HW210056   1.157   6.216   5.164
 3238SOL     OW10057   1.227   7.156   4.517
 3238SOL    HW110058   1.248   7.230   4.452
 3238SOL    HW210059   1.295   7.156   4.590
 3239SOL     OW10060   0.459   6.738   4.465
 3239SOL    HW110061   0.388   6.711   4.530
 3239SOL    HW210062   0.433   6.710   4.372
 3240SOL     OW10063   1.271   7.383   4.315
 3240SOL    HW110064   1.315   7.447   4.251
 3240SOL    HW210065   1.221   7.435   4.385
 3241SOL     OW10066   1.032   6.135   3.740
 3241SOL    HW110067   0.991   6.217   3.701
 3241SOL    HW210068   1.096   6.161   3.813
 3242SOL     OW10069   0.078   6.142   5.110
 3242SOL    HW110070   0.170   6.141   5.069
 3242SOL    HW210071   0.072   6.216   5.177
 3243SOL     OW10072   0.561   5.808   4.871
 3243SOL    HW110073   0.599   5.724   4.908
 3243SOL    HW210074   0.473   5.827   4.915
 3244SOL     OW10075   0.866   6.040   4.366
 3244SOL    HW110076   0.834   6.112   4.304
 3244SOL    HW210077   0.890   5.959   4.313
 3245SOL     OW10078   1.017   5.625   4.477
 3245SOL    HW110079   0.945   5.630   4.408
 3245SOL    HW210080   0.993   5.556   4.546
 3246SOL     OW10081   1.429   6.759   4.591
 3246SOL    HW110082   1.374   6.675   4.584
 3246SOL    HW210083   1.455   6.788   4.499
 3247SOL     OW10084   1.466   6.176   4.716
 3247SOL    HW110085   1.436   6.081   4.723
 3247SOL    HW210086   1.539   6.192   4.782
 3248SOL     OW10087   1.857   6.419   4.101
 3248SOL    HW110088   1.899   6.355   4.165
 3248SOL    HW210089   1.819   6.368   4.023
 3249SOL     OW10090   0.488   6.971   3.898
 3249SOL    HW110091   0.401   6.956   3.945
 3249SOL    HW210092   0.471   6.997   3.803
 3250SOL     OW10093   1.664   6.866   4.381
 3250SOL    HW110094   1.763   6.874   4.395
 3250SOL    HW210095   1.619   6.950   4.412
 3251SOL     OW10096   1.390   6.161   3.802
 3251SOL    HW110097   1.336   6.140   3.883
 3251SOL    HW210098   1.481   6.120   3.811
 3252SOL     OW10099   0.527   5.842   4.052
 3252SOL    HW110100   0.554   5.783   3.977
 3252SOL    HW210101   0.527   5.937   4.021
 3253SOL     OW10102   1.754   6.809   5.312
 3253SOL    HW110103   1.845   6.770   5.299
 3253SOL    HW210104   1.762   6.905   5.336
 3254SOL     OW10105   1.064   6.933   5.064
 3254SOL    HW110106   0.984   6.910   5.119
 3254SOL    HW210107   1.147   6.907   5.113
 3255SOL     OW10108   1.592   7.215   5.349
 3255SOL    HW110109   1.619   7.249   5.259
 3255SOL    HW210110   1.671   7.177   5.395
 3256SOL     OW10111   1.111   6.781   4.824
 3256SOL    HW110112   1.071   6.825   4.905
 3256SOL    HW210113   1.070   6.818   4.741
 3257SOL     OW10114   1.638   6.685   4.803
 3257SOL    HW110115   1.643   6.766   4.862
 3257SOL    HW210116   1.552   6.687   4.752
 3258SOL     OW10117   0.915   5.675   5.126
 3258SOL    HW110118   0.940   5.655   5.031
 3258SOL    HW210119   0.987   5.731   5.168
 3259SOL     OW10120   0.980   6.702   5.443
 3259SOL    HW110121   0.881   6.708   5.453
 3259SOL    HW210122   1.003   6.622   5.387
 3260SOL     OW10123   0.705   6.636   4.092
 3260SOL    HW110124   0.691   6.643   4.191
 3260SOL    HW210125   0.789   6.585   4.074
 3261SOL     OW10126   0.410   6.399   4.975
 3261SOL    HW110127   0.496   6.411   5.025
 3261SOL    HW210128   0.368   6.312   5.002
 3262SOL     OW10129   1.274   5.972   4.986
 3262SOL    HW110130   1.295   6.046   5.050
 3262SOL    HW210131   1.185   5.989   4.943
 3263SOL     OW10132   0.064   7.150   5.055
 3263SOL    HW110133   0.018   7.232   5.021
 3263SOL    HW210134   0.162   7.169   5.064
 3264SOL     OW10135   0.367   6.686   4.225
 3264SOL    HW110136   0.360   6.769   4.169
 3264SOL    HW210137   0.371   6.606   4.165
 3265SOL     OW10138   0.566   6.123   4.589
 3265SOL    HW110139   0.578   6.189   4.515
 3265SOL    HW210140   0.612   6.157   4.672
 3266SOL     OW10141   1.252   6.934   4.112
 3266SOL    HW110142   1.302   7.011   4.152
 3266SOL    HW210143   1.157   6.936   4.144
 3267SOL     OW10144   1.272   7.031   4.866
 3267SOL    HW110145   1.319   7.044   4.953
 3267SOL    HW210146   1.206   6.957   4.875
 3268SOL     OW10147   1.582   6.225   4.196
 3268SOL    HW110148   1.551   6.286   4.269
 3268SOL    HW210149   1.632   6.277   4.127
 3269SOL     OW10150   0.354   7.096   5.053
 3269SOL    HW110151   0.333   7.052   4.966
 3269SOL    HW210152   0.451   7.122   5.056
 3270SOL     OW10153   0.402   6.337   5.322
 3270SOL    HW110154   0.470   6.392   5.275
 3270SOL    HW210155   0.442   6.249   5.349
 3271SOL     OW10156   1.587   6.365   5.394
 3271SOL    HW110157   1.495   6.403   5.389
 3271SOL    HW210158   1.647   6.412   5.329
 3272SOL     OW10159   1.013   5.691   5.494
 3272SOL    HW110160   1.019   5.776   5.442
 3272SOL    HW210161   1.045   5.615   5.437
 3273SOL     OW10162   0.504   5.636   5.464
 3273SOL    HW110163   0.462   5.579   5.394
 3273SOL    HW210164   0.438   5.705   5.496
 3274SOL     OW10165   0.573   6.456   4.753
 3274SOL    HW110166   0.617   6.545   4.744
 3274SOL    HW210167   0.510   6.456   4.830
 3275SOL     OW10168   1.360   6.448   4.769
 3275SOL    HW110169   1.285   6.448   4.703
 3275SOL    HW210170   1.397   6.356   4.778
 3276SOL     OW10171   1.209   6.111   3.999
 3276SOL    HW110172   1.222   6.027   4.053
 3276SOL    HW210173   1.180   6.185   4.059
 3277SOL     OW10174   0.307   5.799   4.955
 3277SOL    HW110175   0.284   5.836   5.045
 3277SOL    HW210176   0.277   5.704   4.949
 3278SOL     OW10177   0.037   6.896   5.006
 3278SOL    HW110178   0.090   6.847   5.074
 3278SOL    HW210179   0.059   6.994   5.011
 3279SOL     OW10180   0.732   6.220   4.788
 3279SOL    HW110181   0.791   6.194   4.712
 3279SOL    HW210182   0.704   6.316   4.777
 3280SOL     OW10183   1.728   6.521   5.578
 3280SOL    HW110184   1.682   6.514   5.489
 3280SOL    HW210185   1.666   6.565   5.644
 3281SOL     OW10186   0.307   5.649   4.342
 3281SOL    HW110187   0.296   5.743   4.375
 3281SOL    HW210188   0.302   5.586   4.419
 3282SOL     OW10189   1.622   5.953   4.098
 3282SOL    HW110190   1.624   5.877   4.162
 3282SOL    HW210191   1.574   6.030   4.138
 3283SOL     OW10192   1.023   6.352   4.690
 3283SOL    HW110193   1.038   6.373   4.786
 3283SOL    HW210194   0.993   6.257   4.681
 3284SOL     OW10195   0.980   7.159   5.424
 3284SOL    HW110196   0.960   7.203   5.336
 3284SOL    HW210197   1.019   7.068   5.408
 3285SOL     OW10198   1.859   7.104   5.329
 3285SOL    HW110199   1.873   7.131   5.234
 3285SOL    HW210200   1.942   7.126   5.382
 3286SOL     OW10201   0.350   6.484   5.528
 3286SOL    HW110202   0.426   6.528   5.576
 3286SOL    HW210203   0.385   6.437   5.446
 3287SOL     OW10204   1.540   5.860   3.849
 3287SOL    HW110205   1.479   5.785   3.872
 3287SOL    HW210206   1.562   5.912   3.932
 3288SOL     OW10207   1.303   6.424   3.766
 3288SOL    HW110208   1.337   6.331   3.781
 3288SOL    HW210209   1.321   6.451   3.671
 3289SOL     OW10210   1.068   6.919   4.573
 3289SOL    HW110211   1.075   6.835   4.518
 3289SOL    HW210212   1.130   6.988   4.537
 3290SOL     OW10213   0.319   6.396   4.673
 3290SOL    HW110214   0.412   6.432   4.678
 3290SOL    HW210215   0.313   6.311   4.725
 3291SOL     OW10216   0.339   6.095   4.730
 3291SOL    HW110217   0.287   6.012   4.713
 3291SOL    HW210218   0.416   6.100   4.666
 3292SOL     OW10219   1.138   5.966   5.402
 3292SOL    HW110220   1.093   6.029   5.466
 3292SOL    HW210221   1.231   5.997   5.385
 3293SOL     OW10222   1.160   5.793   5.201
 3293SOL    HW110223   1.160   5.857   5.278
 3293SOL    HW210224   1.188   5.841   5.118
 3294SOL     OW10225   0.008   6.912   3.924
 3294SOL    HW110226  -0.085   6.933   3.893
 3294SOL    HW210227   0.018   6.813   3.937
 3295SOL     OW10228   0.088   7.387   4.651
 3295SOL    HW110229   0.046   7.301   4.624
 3295SOL    HW210230   0.182   7.390   4.617
 3296SOL     OW10231   0.504   7.154   4.634
 3296SOL    HW110232   0.570   7.228   4.643
 3296SOL    HW210233   0.548   7.075   4.592
 3297SOL     OW10234   1.002   6.382   4.962
 3297SOL    HW110235   1.043   6.350   5.048
 3297SOL    HW210236   0.906   6.355   4.959
 3298SOL     OW10237   0.040   6.130   4.838
 3298SOL    HW110238   0.125   6.097   4.797
 3298SOL    HW210239   0.053   6.145   4.936
 3299SOL     OW10240   0.189   6.106   5.446
 3299SOL    HW110241   0.248   6.066   5.376
 3299SOL    HW210242   0.131   6.177   5.405
 3300SOL     OW10243   1.369   6.536   5.384
 3300SOL    HW110244   1.408   6.625   5.404
 3300SOL    HW210245   1.379   6.516   5.287
 3301SOL     OW10246   0.815   6.158   4.049
 3301SOL    HW110247   0.822   6.069   4.003
 3301SOL    HW210248   0.721   6.192   4.041
 3302SOL     OW10249   1.657   6.190   4.930
 3302SOL    HW110250   1.619   6.121   4.992
 3302SOL    HW210251   1.739   6.154   4.886
 3303SOL     OW10252   0.252   7.150   5.468
 3303SOL    HW110253   0.222   7.207   5.544
 3303SOL    HW210254   0.245   7.053   5.494
 3304SOL     OW10255   0.671   6.050   4.993
 3304SOL    HW110256   0.637   5.961   4.963
 3304SOL    HW210257   0.697   6.104   4.913
 3305SOL     OW10258   0.930   7.264   5.189
 3305SOL    HW110259   0.906   7.246   5.094
 3305SOL    HW210260   0.960   7.358   5.199
 3306SOL     OW10261   0.473   6.086   3.915
 3306SOL    HW110262   0.534   6.166   3.919
 3306SOL    HW210263   0.378   6.117   3.922
 3307SOL     OW10264   0.159   6.723   5.190
 3307SOL    HW110265   0.181   6.662   5.266
 3307SOL    HW210266   0.169   6.674   5.104
 3308SOL     OW10267   1.347   6.645   4.958
 3308SOL    HW110268   1.371   6.582   4.884
 3308SOL    HW210269   1.257   6.685   4.940
 3309SOL     OW10270   1.302   6.441   4.033
 3309SOL    HW110271   1.216   6.410   4.075
 3309SOL    HW210272   1.298   6.427   3.934
 3310SOL     OW10273   1.759   7.333   4.878
 3310SOL    HW110274   1.820   7.363   4.805
 3310SOL    HW210275   1.721   7.244   4.856
 3311SOL     OW10276   1.252   7.317   4.852
 3311SOL    HW110277   1.336   7.322   4.798
 3311SOL    HW210278   1.229   7.221   4.870
 3312SOL     OW10279   0.083   6.844   4.746
 3312SOL    HW110280   0.078   6.843   4.846
 3312SOL    HW210281   0.000   6.803   4.708
 3313SOL     OW10282   0.688   7.248   5.440
 3313SOL    HW110283   0.632   7.329   5.449
 3313SOL    HW210284   0.740   7.252   5.354
 3314SOL     OW10285   1.726   5.721   4.247
 3314SOL    HW110286   1.799   5.704   4.180
 3314SOL    HW210287   1.695   5.634   4.285
 3315SOL     OW10288   1.388   7.159   4.201
 3315SOL    HW110289   1.455   7.171   4.127
 3315SOL    HW210290   1.348   7.248   4.224
 3316SOL     OW10291   0.130   7.380   5.575
 3316SOL    HW110292   0.089   7.306   5.628
 3316SOL    HW210293   0.194   7.431   5.633
 3317SOL     OW10294   1.280   6.513   4.396
 3317SOL    HW110295   1.340   6.432   4.398
 3317SOL    HW210296   1.320   6.582   4.336
 3318SOL     OW10297   0.830   6.859   5.146
 3318SOL    HW110298   0.825   6.892   5.241
 3318SOL    HW210299   0.744   6.878   5.100
 3319SOL     OW10300   0.672   7.202   3.878
 3319SOL    HW110301   0.681   7.212   3.779
 3319SOL    HW210302   0.632   7.113   3.899
 3320SOL     OW10303   1.650   7.306   5.118
 3320SOL    HW110304   1.703   7.316   5.034
 3320SOL    HW210305   1.623   7.396   5.152
 3321SOL     OW10306   1.841   5.761   4.687
 3321SOL    HW110307   1.880   5.676   4.651
 3321SOL    HW210308   1.743   5.763   4.668
 3322SOL     OW10309   0.263   5.912   4.444
 3322SOL    HW110310   0.184   5.963   4.410
 3322SOL    HW210311   0.254   5.897   4.542
 3323SOL     OW10312   1.194   7.198   3.755
 3323SOL    HW110313   1.200   7.105   3.792
 3323SOL    HW210314   1.135   7.198   3.675
 3324SOL     OW10315   0.822   6.588   5.096
 3324SOL    HW110316   0.862   6.587   5.004
 3324SOL    HW210317   0.832   6.680   5.136
 3325SOL     OW10318   0.916   6.496   4.015
 3325SOL    HW110319   0.979   6.534   3.947
 3325SOL    HW210320   0.956   6.413   4.054
 3326SOL     OW10321   1.504   7.193   3.768
 3326SOL    HW110322   1.412   7.230   3.775
 3326SOL    HW210323   1.542   7.213   3.678
 3327SOL     OW10324   0.372   6.874   5.214
 3327SOL    HW110325   0.359   6.967   5.180
 3327SOL    HW210326   0.288   6.822   5.201
 3328SOL     OW10327   1.614   6.878   5.013
 3328SOL    HW110328   1.674   6.881   5.093
 3328SOL    HW210329   1.539   6.942   5.026
 3329SOL     OW10330   1.039   6.684   4.420
 3329SOL    HW110331   0.969   6.637   4.474
 3329SOL    HW210332   1.098   6.616   4.377
 3330SOL     OW10333   1.014   5.822   4.695
 3330SOL    HW110334   1.006   5.786   4.602
 3330SOL    HW210335   1.012   5.746   4.760
 3331SOL     OW10336   0.590   7.073   4.215
 3331SOL    HW110337   0.632   7.015   4.145
 3331SOL    HW210338   0.546   7.152   4.171
 3332SOL     OW10339   1.709   5.971   5.105
 3332SOL    HW110340   1.782   6.040   5.109
 3332SOL    HW210341   1.737   5.896   5.046
 3333SOL     OW10342   0.255   6.934   4.014
 3333SOL    HW110343   0.159   6.935   3.987
 3333SOL    HW210344   0.267   6.987   4.098
 3334SOL     OW10345   0.105   6.599   5.450
 3334SOL    HW110346   0.028   6.566   5.504
 3334SOL    HW210347   0.190   6.569   5.492
 3335SOL     OW10348   0.672   5.789   5.213
 3335SOL    HW110349   0.762   5.773   5.173
 3335SOL    HW210350   0.680   5.794   5.312
 3336SOL     OW10351   0.075   5.931   3.757
 3336SOL    HW110352  -0.017   5.903   3.728
 3336SOL    HW210353   0.106   6.008   3.701
 3337SOL     OW10354   1.440   6.442   5.122
 3337SOL    HW110355   1.383   6.494   5.059
 3337SOL    HW210356   1.536   6.454   5.098
 3338SOL     OW10357   0.072   5.752   4.042
 3338SOL    HW110358   0.055   5.835   3.988
 3338SOL    HW210359   0.162   5.715   4.020
 3339SOL     OW10360   1.183   6.921   3.843
 3339SOL    HW110361   1.084   6.910   3.845
 3339SOL    HW210362   1.217   6.936   3.936
 3340SOL     OW10363   0.613   6.428   5.155
 3340SOL    HW110364   0.669   6.509   5.138
 3340SOL    HW210365   0.672   6.348   5.158
 3341SOL     OW10366   1.493   7.353   4.683
 3341SOL    HW110367   1.526   7.417   4.614
 3341SOL    HW210368   1.559   7.347   4.758
 3342SOL     OW10369   1.450   6.806   5.357
 3342SOL    HW110370   1.441   6.796   5.456
 3342SOL    HW210371   1.546   6.799   5.331
 3343SOL     OW10372   0.390   7.327   5.284
 3343SOL    HW110373   0.299   7.368   5.282
 3343SOL    HW210374   0.383   7.233   5.316
 3344SOL     OW10375   1.674   6.469   4.978
 3344SOL    HW110376   1.647   6.380   4.941
 3344SOL    HW210377   1.675   6.537   4.905
 3345SOL     OW10378   1.225   5.911   4.173
 3345SOL    HW110379   1.290   5.837   4.162
 3345SOL    HW210380   1.245   5.961   4.257
 3346SOL     OW10381   0.594   6.331   4.376
 3346SOL    HW110382   0.644   6.416   4.357
 3346SOL    HW210383   0.506   6.333   4.328
 3347SOL     OW10384   1.777   5.928   5.366
 3347SOL    HW110385   1.760   5.959   5.272
 3347SOL    HW210386   1.693   5.891   5.404
 3348SOL     OW10387   1.730   6.520   5.241
 3348SOL    HW110388   1.768   6.611   5.256
 3348SOL    HW210389   1.722   6.503   5.142
 3349SOL     OW10390   0.859   6.960   3.740
 3349SOL    HW110391   0.813   6.975   3.828
 3349SOL    HW210392   0.903   7.045   3.710
 3350SOL     OW10393   0.661   7.376   4.677
 3350SOL    HW110394   0.615   7.464   4.664
 3350SOL    HW210395   0.760   7.388   4.670
 3351SOL     OW10396   0.859   6.542   4.585
 3351SOL    HW110397   0.913   6.473   4.633
 3351SOL    HW210398   0.827   6.611   4.651
 3352SOL     OW10399   1.083   6.570   3.811
 3352SOL    HW110400   1.060   6.623   3.729
 3352SOL    HW210401   1.164   6.514   3.792
 3353SOL     OW10402   1.861   7.155   4.575
 3353SOL    HW110403   1.790   7.143   4.505
 3353SOL    HW210404   1.862   7.076   4.635
 3354SOL     OW10405   0.221   6.900   5.568
 3354SOL    HW110406   0.156   6.827   5.547
 3354SOL    HW210407   0.225   6.914   5.666
 3355SOL     OW10408   0.079   6.826   4.377
 3355SOL    HW110409   0.078   6.779   4.465
 3355SOL    HW210410   0.161   6.798   4.326
 3356SOL     OW10411   0.672   6.977   5.348
 3356SOL    HW110412   0.594   6.927   5.386
 3356SOL    HW210413   0.669   7.072   5.379
 3357SOL     OW10414   1.824   5.778   4.951
 3357SOL    HW110415   1.820   5.688   4.995
 3357SOL    HW210416   1.827   5.767   4.852
 3358SOL     OW10417   0.428   6.010   4.244
 3358SOL    HW110418   0.458   5.938   4.182
 3358SOL    HW210419   0.389   5.970   4.327
 3359SOL     OW10420   1.705   7.073   4.828
 3359SOL    HW110421   1.612   7.048   4.801
 3359SOL    HW210422   1.731   7.023   4.910
 3360SOL     OW10423   0.317   6.133   5.004
 3360SOL    HW110424   0.355   6.074   5.076
 3360SOL    HW210425   0.357   6.107   4.916
 3361SOL     OW10426   0.812   7.172   4.411
 3361SOL    HW110427   0.844   7.182   4.317
 3361SOL    HW210428   0.733   7.110   4.413
 3362SOL     OW10429   1.424   5.800   4.836
 3362SOL    HW110430   1.476   5.735   4.891
 3362SOL    HW210431   1.375   5.863   4.897
 3363SOL     OW10432   1.001   5.620   4.878
 3363SOL    HW110433   0.938   5.548   4.847
 3363SOL    HW210434   1.094   5.584   4.878
 3364SOL     OW10435   0.770   6.916   4.025
 3364SOL    HW110436   0.724   6.829   4.042
 3364SOL    HW210437   0.861   6.913   4.066
 3365SOL     OW10438   0.618   7.153   5.008
 3365SOL    HW110439   0.613   7.235   5.065
 3365SOL    HW210440   0.707   7.150   4.963
 3366SOL     OW10441   1.352   5.638   3.892
 3366SOL    HW110442   1.387   5.597   3.808
 3366SOL    HW210443   1.262   5.600   3.912
 3367SOL     OW10444   1.300   6.039   4.415
 3367SOL    HW110445   1.241   6.119   4.419
 3367SOL    HW210446   1.315   6.004   4.508
 3368SOL     OW10447   1.593   5.807   4.606
 3368SOL    HW110448   1.509   5.806   4.660
 3368SOL    HW210449   1.595   5.890   4.550
 3369SOL     OW10450   0.039   6.663   4.024
 3369SOL    HW110451   0.138   6.652   4.015
 3369SOL    HW210452  -0.001   6.577   4.056
 3370SOL     OW10453   0.875   7.232   4.061
 3370SOL    HW110454   0.798   7.197   4.007
 3370SOL    HW210455   0.843   7.303   4.123
 3371SOL     OW10456   0.230   6.214   5.699
 3371SOL    HW110457   0.137   6.212   5.736
 3371SOL    HW210458   0.231   6.175   5.607
 3372SOL     OW10459   0.225   5.861   6.582
 3372SOL    HW110460   0.260   5.844   6.674
 3372SOL    HW210461   0.137   5.816   6.570
 3373SOL     OW10462   0.019   5.954   6.233
 3373SOL    HW110463  -0.063   5.997   6.272
 3373SOL    HW210464  -0.009   5.881   6.170
 3374SOL     OW10465   0.569   6.861   6.751
 3374SOL    HW110466   0.476   6.854   6.714
 3374SOL    HW210467   0.580   6.950   6.795
 3375SOL     OW10468   1.555   7.097   6.289
 3375SOL    HW110469   1.498   7.081   6.370
 3375SOL    HW210470   1.496   7.107   6.209
 3376SOL     OW10471   1.135   6.289   6.303
 3376SOL    HW110472   1.192   6.367   6.278
 3376SOL    HW210473   1.075   6.315   6.379
 3377SOL     OW10474   1.755   6.193   5.817
 3377SOL    HW110475   1.743   6.180   5.718
 3377SOL    HW210476   1.725   6.112   5.866
 3378SOL     OW10477   0.768   6.730   6.609
 3378SOL    HW110478   0.690   6.747   6.669
 3378SOL    HW210479   0.802   6.817   6.573
 3379SOL     OW10480   0.850   6.384   7.409
 3379SOL    HW110481   0.846   6.460   7.474
 3379SOL    HW210482   0.872   6.420   7.318
 3380SOL     OW10483   0.685   6.598   6.251
 3380SOL    HW110484   0.754   6.582   6.321
 3380SOL    HW210485   0.612   6.655   6.289
 3381SOL     OW10486   0.686   6.747   7.389
 3381SOL    HW110487   0.746   6.826   7.403
 3381SOL    HW210488   0.600   6.778   7.348
 3382SOL     OW10489   0.335   7.021   6.647
 3382SOL    HW110490   0.257   6.990   6.594
 3382SOL    HW210491   0.393   7.079   6.590
 3383SOL     OW10492   1.460   7.091   6.925
 3383SOL    HW110493   1.484   7.185   6.951
 3383SOL    HW210494   1.444   7.037   7.007
 3384SOL     OW10495   0.438   5.978   7.085
 3384SOL    HW110496   0.520   5.922   7.094
 3384SOL    HW210497   0.357   5.920   7.089
 3385SOL     OW10498   1.603   6.033   6.323
 3385SOL    HW110499   1.529   6.079   6.273
 3385SOL    HW210500   1.654   6.101   6.376
 3386SOL     OW10501   0.231   7.299   6.069
 3386SOL    HW110502   0.265   7.376   6.123
 3386SOL    HW210503   0.275   7.299   5.979
 3387SOL     OW10504   1.127   6.927   7.276
 3387SOL    HW110505   1.174   6.927   7.364
 3387SOL    HW210506   1.079   6.840   7.265
 3388SOL     OW10507   0.230   7.020   6.124
 3388SOL    HW110508   0.204   7.116   6.124
 3388SOL    HW210509   0.159   6.966   6.169
 3389SOL     OW10510   0.240   6.677   6.472
 3389SOL    HW110511   0.254   6.593   6.524
 3389SOL    HW210512   0.185   6.741   6.527
 3390SOL     OW10513   0.620   7.372   7.025
 3390SOL    HW110514   0.528   7.355   7.060
 3390SOL    HW210515   0.648   7.464   7.051
 3391SOL     OW10516   0.606   6.550   5.709
 3391SOL    HW110517   0.613   6.634   5.655
 3391SOL    HW210518   0.652   6.563   5.797
 3392SOL     OW10519   1.594   5.700   7.066
 3392SOL    HW110520   1.576   5.767   6.994
 3392SOL    HW210521   1.591   5.746   7.155
 3393SOL     OW10522   0.122   6.229   6.149
 3393SOL    HW110523   0.077   6.141   6.166
 3393SOL    HW210524   0.121   6.283   6.233
 3394SOL     OW10525   1.842   7.353   5.945
 3394SOL    HW110526   1.896   7.324   6.025
 3394SOL    HW210527   1.872   7.443   5.916
 3395SOL     OW10528   0.027   7.182   5.703
 3395SOL    HW110529   0.008   7.086   5.724
 3395SOL    HW210530  -0.006   7.240   5.778
 3396SOL     OW10531   1.689   6.508   6.198
 3396SOL    HW110532   1.784   6.479   6.206
 3396SOL    HW210533   1.681   6.573   6.123
 3397SOL     OW10534   1.641   6.694   6.018
 3397SOL    HW110535   1.727   6.696   5.966
 3397SOL    HW210536   1.655   6.741   6.106
 3398SOL     OW10537   0.113   6.323   7.183
 3398SOL    HW110538   0.201   6.310   7.228
 3398SOL    HW210539   0.100   6.420   7.161
 3399SOL     OW10540   0.613   6.951   6.312
 3399SOL    HW110541   0.564   6.864   6.321
 3399SOL    HW210542   0.590   6.994   6.225
 3400SOL     OW10543   1.293   6.814   7.009
 3400SOL    HW110544   1.330   6.741   6.951
 3400SOL    HW210545   1.345   6.819   7.094
 3401SOL     OW10546   0.197   6.562   6.850
 3401SOL    HW110547   0.286   6.517   6.836
 3401SOL    HW210548   0.124   6.497   6.831
 3402SOL     OW10549   1.525   6.585   5.776
 3402SOL    HW110550   1.462   6.509   5.789
 3402SOL    HW210551   1.573   6.603   5.862
 3403SOL     OW10552   1.187   7.378   7.202
 3403SOL    HW110553   1.211   7.438   7.126
 3403SOL    HW210554   1.194   7.283   7.172
 3404SOL     OW10555   0.317   5.837   7.387
 3404SOL    HW110556   0.388   5.908   7.393
 3404SOL    HW210557   0.229   5.876   7.415
 3405SOL     OW10558   1.466   7.003   6.539
 3405SOL    HW110559   1.407   7.009   6.619
 3405SOL    HW210560   1.451   6.915   6.493
 3406SOL     OW10561   1.667   7.300   6.158
 3406SOL    HW110562   1.626   7.277   6.070
 3406SOL    HW210563   1.649   7.226   6.223
 3407SOL     OW10564   0.598   6.315   5.856
 3407SOL    HW110565   0.622   6.384   5.788
 3407SOL    HW210566   0.520   6.348   5.910
 3408SOL     OW10567   1.281   5.931   6.530
 3408SOL    HW110568   1.195   5.881   6.517
 3408SOL    HW210569   1.343   5.877   6.586
 3409SOL     OW10570   1.576   7.248   5.893
 3409SOL    HW110571   1.665   7.294   5.896
 3409SOL    HW210572   1.555   7.224   5.798
 3410SOL     OW10573   0.807   6.191   7.051
 3410SOL    HW110574   0.760   6.188   7.140
 3410SOL    HW210575   0.756   6.136   6.985
 3411SOL     OW10576   1.394   6.055   7.260
 3411SOL    HW110577   1.374   6.098   7.348
 3411SOL    HW210578   1.472   5.993   7.269
 3412SOL     OW10579   0.973   6.476   7.158
 3412SOL    HW110580   1.019   6.392   7.129
 3412SOL    HW210581   0.917   6.510   7.083
 3413SOL     OW10582   0.991   5.996   6.828
 3413SOL    HW110583   0.914   6.030   6.882
 3413SOL    HW210584   0.957   5.945   6.749
 3414SOL     OW10585   1.041   6.287   6.015
 3414SOL    HW110586   1.067   6.283   6.111
 3414SOL    HW210587   0.956   6.236   6.001
 3415SOL     OW10588   0.076   6.397   6.375
 3415SOL    HW110589   0.175   6.385   6.384
 3415SOL    HW210590   0.052   6.492   6.396
 3416SOL     OW10591   0.130   7.407   7.157
 3416SOL    HW110592   0.120   7.392   7.256
 3416SOL    HW210593   0.044   7.443   7.121
 3417SOL     OW10594   0.865   5.934   5.781
 3417SOL    HW110595   0.924   5.997   5.732
 3417SOL    HW210596   0.884   5.840   5.752
 3418SOL     OW10597   1.719   6.171   7.417
 3418SOL    HW110598   1.693   6.260   7.381
 3418SOL    HW210599   1.717   6.103   7.344
 3419SOL     OW10600   1.362   6.730   6.131
 3419SOL    HW110601   1.445   6.701   6.083
 3419SOL    HW210602   1.313   6.797   6.075
 3420SOL     OW10603   0.550   5.782   6.471
 3420SOL    HW110604   0.545   5.777   6.571
 3420SOL    HW210605   0.552   5.878   6.442
 3421SOL     OW10606   1.008   7.042   6.063
 3421SOL    HW110607   0.962   7.114   6.011
 3421SOL    HW210608   1.004   7.062   6.161
 3422SOL     OW10609   0.351   7.387   6.439
 3422SOL    HW110610   0.401   7.301   6.445
 3422SOL    HW210611   0.416   7.464   6.436
 3423SOL     OW10612   1.795   6.652   6.459
 3423SOL    HW110613   1.733   6.637   6.383
 3423SOL    HW210614   1.743   6.663   6.544
 3424SOL     OW10615   1.227   7.136   7.092
 3424SOL    HW110616   1.233   7.059   7.156
 3424SOL    HW210617   1.175   7.110   7.012
 3425SOL     OW10618   0.321   6.529   5.828
 3425SOL    HW110619   0.403   6.568   5.786
 3425SOL    HW210620   0.294   6.447   5.779
 3426SOL     OW10621   1.458   6.321   6.314
 3426SOL    HW110622   1.453   6.256   6.389
 3426SOL    HW210623   1.538   6.380   6.327
 3427SOL     OW10624   0.461   6.852   7.313
 3427SOL    HW110625   0.411   6.853   7.227
 3427SOL    HW210626   0.398   6.834   7.389
 3428SOL     OW10627   1.111   7.362   5.823
 3428SOL    HW110628   1.051   7.300   5.873
 3428SOL    HW210629   1.142   7.318   5.738
 3429SOL     OW10630   0.202   5.871   7.084
 3429SOL    HW110631   0.122   5.931   7.071
 3429SOL    HW210632   0.192   5.822   7.170
 3430SOL     OW10633   1.632   6.963   5.667
 3430SOL    HW110634   1.600   7.057   5.657
 3430SOL    HW210635   1.556   6.900   5.655
 3431SOL     OW10636   0.464   7.329   5.909
 3431SOL    HW110637   0.497   7.368   5.995
 3431SOL    HW210638   0.540   7.322   5.844
 3432SOL     OW10639   1.400   5.693   6.012
 3432SOL    HW110640   1.376   5.656   5.922
 3432SOL    HW210641   1.499   5.709   6.016
 3433SOL     OW10642   0.249   7.371   6.827
 3433SOL    HW110643   0.306   7.306   6.877
 3433SOL    HW210644   0.233   7.338   6.734
 3434SOL     OW10645   0.940   7.284   6.490
 3434SOL    HW110646   1.020   7.227   6.511
 3434SOL    HW210647   0.891   7.244   6.413
 3435SOL     OW10648   0.382   6.286   6.066
 3435SOL    HW110649   0.427   6.196   6.063
 3435SOL    HW210650   0.288   6.275   6.099
 3436SOL     OW10651   1.547   5.808   7.315
 3436SOL    HW110652   1.542   5.845   7.407
 3436SOL    HW210653   1.475   5.739   7.303
 3437SOL     OW10654   0.614   5.708   5.703
 3437SOL    HW110655   0.712   5.686   5.710
 3437SOL    HW210656   0.583   5.691   5.610
 3438SOL     OW10657   0.781   5.850   7.335
 3438SOL    HW110658   0.848   5.789   7.378
 3438SOL    HW210659   0.708   5.869   7.400
 3439SOL     OW10660   0.888   7.100   6.781
 3439SOL    HW110661   0.865   7.075   6.687
 3439SOL    HW210662   0.949   7.031   6.820
 3440SOL     OW10663   1.351   6.176   7.019
 3440SOL    HW110664   1.379   6.133   7.104
 3440SOL    HW210665   1.376   6.272   7.020
 3441SOL     OW10666   0.803   6.988   6.510
 3441SOL    HW110667   0.893   7.002   6.468
 3441SOL    HW210668   0.732   6.990   6.439
 3442SOL     OW10669   0.922   6.089   6.485
 3442SOL    HW110670   0.897   6.080   6.389
 3442SOL    HW210671   0.970   6.007   6.516
 3443SOL     OW10672   0.539   5.650   6.098
 3443SOL    HW110673   0.458   5.651   6.156
 3443SOL    HW210674   0.542   5.733   6.043
 3444SOL     OW10675   1.434   6.774   5.627
 3444SOL    HW110676   1.466   6.698   5.684
 3444SOL    HW210677   1.342   6.801   5.657
 3445SOL     OW10678   0.297   5.621   5.757
 3445SOL    HW110679   0.346   5.705   5.736
 3445SOL    HW210680   0.359   5.556   5.802
 3446SOL     OW10681   0.935   5.822   6.066
 3446SOL    HW110682   0.887   5.863   5.988
 3446SOL    HW210683   1.034   5.820   6.047
 3447SOL     OW10684   1.076   6.269   7.050
 3447SOL    HW110685   0.996   6.208   7.053
 3447SOL    HW210686   1.157   6.216   7.026
 3448SOL     OW10687   1.227   7.156   6.379
 3448SOL    HW110688   1.248   7.230   6.314
 3448SOL    HW210689   1.295   7.156   6.452
 3449SOL     OW10690   0.459   6.738   6.327
 3449SOL    HW110691   0.388   6.711   6.392
 3449SOL    HW210692   0.433   6.710   6.234
 3450SOL     OW10693   1.271   7.383   6.177
 3450SOL    HW110694   1.315   7.447   6.113
 3450SOL    HW210695   1.221   7.435   6.247
 3451SOL     OW10696   1.032   6.135   5.602
 3451SOL    HW110697   0.991   6.217   5.563
 3451SOL    HW210698   1.096   6.161   5.675
 3452SOL     OW10699   0.078   6.142   6.972
 3452SOL    HW110700   0.170   6.141   6.931
 3452SOL    HW210701   0.072   6.216   7.039
 3453SOL     OW10702   0.561   5.808   6.733
 3453SOL    HW110703   0.599   5.724   6.770
 3453SOL    HW210704   0.473   5.827   6.777
 3454SOL     OW10705   0.866   6.040   6.228
 3454SOL    HW110706   0.834   6.112   6.166
 3454SOL    HW210707   0.890   5.959   6.175
 3455SOL     OW10708   1.017   5.625   6.339
 3455SOL    HW110709   0.945   5.630   6.270
 3455SOL    HW210710   0.993   5.556   6.408
 3456SOL     OW10711   1.429   6.759   6.453
 3456SOL    HW110712   1.374   6.675   6.446
 3456SOL    HW210713   1.455   6.788   6.361
 3457SOL     OW10714   1.466   6.176   6.578
 3457SOL    HW110715   1.436   6.081   6.585
 3457SOL    HW210716   1.539   6.192   6.644
 3458SOL     OW10717   1.857   6.419   5.963
 3458SOL    HW110718   1.899   6.355   6.027
 3458SOL    HW210719   1.819   6.368   5.885
 3459SOL     OW10720   0.488   6.971   5.760
 3459SOL    HW110721   0.401   6.956   5.807
 3459SOL    HW210722   0.471   6.997   5.665
 3460SOL     OW10723   1.664   6.866   6.243
 3460SOL    HW110724   1.763   6.874   6.257
 3460SOL    HW210725   1.619   6.950   6.274
 3461SOL     OW10726   1.390   6.161   5.664
 3461SOL    HW110727   1.336   6.140   5.745
 3461SOL    HW210728   1.481   6.120   5.673
 3462SOL     OW10729   0.527   5.842   5.914
 3462SOL    HW110730   0.554   5.783   5.839
 3462SOL    HW210731   0.527   5.937   5.883
 3463SOL     OW10732   1.754   6.809   7.174
 3463SOL    HW110733   1.845   6.770   7.161
 3463SOL    HW210734   1.762   6.905   7.198
 3464SOL     OW10735   1.064   6.933   6.926
 3464SOL    HW110736   0.984   6.910   6.981
 3464SOL    HW210737   1.147   6.907   6.975
 3465SOL     OW10738   1.592   7.215   7.211
 3465SOL    HW110739   1.619   7.249   7.121
 3465SOL    HW210740   1.671   7.177   7.257
 3466SOL     OW10741   1.111   6.781   6.686
 3466SOL    HW110742   1.071   6.825   6.767
 3466SOL    HW210743   1.070   6.818   6.603
 3467SOL     OW10744   1.638   6.685   6.665
 3467SOL    HW110745   1.643   6.766   6.724
 3467SOL    HW210746   1.552   6.687   6.614
 3468SOL     OW10747   0.915   5.675   6.988
 3468SOL    HW110748   0.940   5.655   6.893
 3468SOL    HW210749   0.987   5.731   7.030
 3469SOL     OW10750   0.980   6.702   7.305
 3469SOL    HW110751   0.881   6.708   7.315
 3469SOL    HW210752   1.003   6.622   7.249
 3470SOL     OW10753   0.705   6.636   5.954
 3470SOL    HW110754   0.691   6.643   6.053
 3470SOL    HW210755   0.789   6.585   5.936
 3471SOL     OW10756   0.410   6.399   6.837
 3471SOL    HW110757   0.496   6.411   6.887
 3471SOL    HW210758   0.368   6.312   6.864
 3472SOL     OW10759   0.064   7.150   6.917
 3472SOL    HW110760   0.018   7.232   6.883
 3472SOL    HW210761   0.162   7.169   6.926
 3473SOL     OW10762   0.367   6.686   6.087
 3473SOL    HW110763   0.360   6.769   6.031
 3473SOL    HW210764   0.371   6.606   6.027
 3474SOL     OW10765   0.566   6.123   6.451
 3474SOL    HW110766   0.578   6.189   6.377
 3474SOL    HW210767   0.612   6.157   6.534
 3475SOL     OW10768   1.252   6.934   5.974
 3475SOL    HW110769   1.302   7.011   6.014
 3475SOL    HW210770   1.157   6.936   6.006
 3476SOL     OW10771   1.272   7.031   6.728
 3476SOL    HW110772   1.319   7.044   6.815
 3476SOL    HW210773   1.206   6.957   6.737
 3477SOL     OW10774   1.582   6.225   6.058
 3477SOL    HW110775   1.551   6.286   6.131
 3477SOL    HW210776   1.632   6.277   5.989
 3478SOL     OW10777   0.354   7.096   6.915
 3478SOL    HW110778   0.333   7.052   6.828
 3478SOL    HW210779   0.451   7.122   6.918
 3479SOL     OW10780   0.402   6.337   7.184
 3479SOL    HW110781   0.470   6.392   7.137
 3479SOL    HW210782   0.442   6.249   7.211
 3480SOL     OW10783   1.587   6.365   7.256
 3480SOL    HW110784   1.495   6.403   7.251
 3480SOL    HW210785   1.647   6.412   7.191
 3481SOL     OW10786   1.013   5.691   7.356
 3481SOL    HW110787   1.019   5.776   7.304
 3481SOL    HW210788   1.045   5.615   7.299
 3482SOL     OW10789   0.504   5.636   7.326
 3482SOL    HW110790   0.462   5.579   7.256
 3482SOL    HW210791   0.438   5.705   7.358
 3483SOL     OW10792   0.573   6.456   6.615
 3483SOL    HW110793   0.617   6.545   6.606
 3483SOL    HW210794   0.510   6.456   6.692
 3484SOL     OW10795   1.360   6.448   6.631
 3484SOL    HW110796   1.285   6.448   6.565
 3484SOL    HW210797   1.397   6.356   6.640
 3485SOL     OW10798   1.209   6.111   5.861
 3485SOL    HW110799   1.222   6.027   5.915
 3485SOL    HW210800   1.180   6.185   5.921
 3486SOL     OW10801   0.307   5.799   6.817
 3486SOL    HW110802   0.284   5.836   6.907
 3486SOL    HW210803   0.277   5.704   6.811
 3487SOL     OW10804   0.037   6.896   6.868
 3487SOL    HW110805   0.090   6.847   6.936
 3487SOL    HW210806   0.059   6.994   6.873
 3488SOL     OW10807   0.732   6.220   6.650
 3488SOL    HW110808   0.791   6.194   6.574
 3488SOL    HW210809   0.704   6.316   6.639
 3489SOL     OW10810   1.728   6.521   7.440
 3489SOL    HW110811   1.682   6.514   7.351
 3489SOL    HW210812   1.666   6.565   7.506
 3490SOL     OW10813   0.307   5.649   6.204
 3490SOL    HW110814   0.296   5.743   6.237
 3490SOL    HW210815   0.302   5.586   6.281
 3491SOL     OW10816   1.622   5.953   5.960
 3491SOL    HW110817   1.624   5.877   6.024
 3491SOL    HW210818   1.574   6.030   6.000
 3492SOL     OW10819   1.023   6.352   6.552
 3492SOL    HW110820   1.038   6.373   6.648
 3492SOL    HW210821   0.993   6.257   6.543
 3493SOL     OW10822   0.980   7.159   7.286
 3493SOL    HW110823   0.960   7.203   7.198
 3493SOL    HW210824   1.019   7.068   7.270
 3494SOL     OW10825   1.859   7.104   7.191
 3494SOL    HW110826   1.873   7.131   7.096
 3494SOL    HW210827   1.942   7.126   7.244
 3495SOL     OW10828   0.350   6.484   7.390
 3495SOL    HW110829   0.426   6.528   7.438
 3495SOL    HW210830   0.385   6.437   7.308
 3496SOL     OW10831   1.540   5.860   5.711
 3496SOL    HW110832   1.479   5.785   5.734
 3496SOL    HW210833   1.562   5.912   5.794
 3497SOL     OW10834   1.303   6.424   5.628
 3497SOL    HW110835   1.337   6.331   5.643
 3497SOL    HW210836   1.321   6.451   5.533
 3498SOL     OW10837   1.068   6.919   6.435
 3498SOL    HW110838   1.075   6.835   6.380
 3498SOL    HW210839   1.130   6.988   6.399
 3499SOL     OW10840   0.319   6.396   6.535
 3499SOL    HW110841   0.412   6.432   6.540
 3499SOL    HW210842   0.313   6.311   6.587
 3500SOL     OW10843   0.339   6.095   6.592
 3500SOL    HW110844   0.287   6.012   6.575
 3500SOL    HW210845   0.416   6.100   6.528
 3501SOL     OW10846   1.138   5.966   7.264
 3501SOL    HW110847   1.093   6.029   7.328
 3501SOL    HW210848   1.231   5.997   7.247
 3502SOL     OW10849   1.160   5.793   7.063
 3502SOL    HW110850   1.160   5.857   7.140
 3502SOL    HW210851   1.188   5.841   6.980
 3503SOL     OW10852   0.008   6.912   5.786
 3503SOL    HW110853  -0.085   6.933   5.755
 3503SOL    HW210854   0.018   6.813   5.799
 3504SOL     OW10855   0.088   7.387   6.513
 3504SOL    HW110856   0.046   7.301   6.486
 3504SOL    HW210857   0.182   7.390   6.479
 3505SOL     OW10858   0.504   7.154   6.496
 3505SOL    HW110859   0.570   7.228   6.505
 3505SOL    HW210860   0.548   7.075   6.454
 3506SOL     OW10861   1.002   6.382   6.824
 3506SOL    HW110862   1.043   6.350   6.910
 3506SOL    HW210863   0.906   6.355   6.821
 3507SOL     OW10864   0.040   6.130   6.700
 3507SOL    HW110865   0.125   6.097   6.659
 3507SOL    HW210866   0.053   6.145   6.798
 3508SOL     OW10867   0.189   6.106   7.308
 3508SOL    HW110868   0.248   6.066   7.238
 3508SOL    HW210869   0.131   6.177   7.267
 3509SOL     OW10870   1.369   6.536   7.246
 3509SOL    HW110871   1.408   6.625   7.266
 3509SOL    HW210872   1.379   6.516   7.149
 3510SOL     OW10873   0.815   6.158   5.911
 3510SOL    HW110874   0.822   6.069   5.865
 3510SOL    HW210875   0.721   6.192   5.903
 3511SOL     OW10876   1.657   6.190   6.792
 3511SOL    HW110877   1.619   6.121   6.854
 3511SOL    HW210878   1.739   6.154   6.748
 3512SOL     OW10879   0.252   7.150   7.330
 3512SOL    HW110880   0.222   7.207   7.406
 3512SOL    HW210881   0.245   7.053   7.356
 3513SOL     OW10882   0.671   6.050   6.855
 3513SOL    HW110883   0.637   5.961   6.825
 3513SOL    HW210884   0.697   6.104   6.775
 3514SOL     OW10885   0.930   7.264   7.051
 3514SOL    HW110886   0.906   7.246   6.956
 3514SOL    HW210887   0.960   7.358   7.061
 3515SOL     OW10888   0.473   6.086   5.777
 3515SOL    HW110889   0.534   6.166   5.781
 3515SOL    HW210890   0.378   6.117   5.784
 3516SOL     OW10891   0.159   6.723   7.052
 3516SOL    HW110892   0.181   6.662   7.128
 3516SOL    HW210893   0.169   6.674   6.966
 3517SOL     OW10894   1.347   6.645   6.820
 3517SOL    HW110895   1.371   6.582   6.746
 3517SOL    HW210896   1.257   6.685   6.802
 3518SOL     OW10897   1.302   6.441   5.895
 3518SOL    HW110898   1.216   6.410   5.937
 3518SOL    HW210899   1.298   6.427   5.796
 3519SOL     OW10900   1.759   7.333   6.740
 3519SOL    HW110901   1.820   7.363   6.667
 3519SOL    HW210902   1.721   7.244   6.718
 3520SOL     OW10903   1.252   7.317   6.714
 3520SOL    HW110904   1.336   7.322   6.660
 3520SOL    HW210905   1.229   7.221   6.732
 3521SOL     OW10906   0.083   6.844   6.608
 3521SOL    HW110907   0.078   6.843   6.708
 3521SOL    HW210908   0.000   6.803   6.570
 3522SOL     OW10909   0.688   7.248   7.302
 3522SOL    HW110910   0.632   7.329   7.311
 3522SOL    HW210911   0.740   7.252   7.216
 3523SOL     OW10912   1.726   5.721   6.109
 3523SOL    HW110913   1.799   5.704   6.042
 3523SOL    HW210914   1.695   5.634   6.147
 3524SOL     OW10915   1.388   7.159   6.063
 3524SOL    HW110916   1.455   7.171   5.989
 3524SOL    HW210917   1.348   7.248   6.086
 3525SOL     OW10918   0.130   7.380   7.437
 3525SOL    HW110919   0.089   7.306   7.490
 3525SOL    HW210920   0.194   7.431   7.495
 3526SOL     OW10921   1.280   6.513   6.258
 3526SOL    HW110922   1.340   6.432   6.260
 3526SOL    HW210923   1.320   6.582   6.198
 3527SOL     OW10924   0.830   6.859   7.008
 3527SOL    HW110925   0.825   6.892   7.103
 3527SOL    HW210926   0.744   6.878   6.962
 3528SOL     OW10927   0.672   7.202   5.740
 3528SOL    HW110928   0.681   7.212   5.641
 3528SOL    HW210929   0.632   7.113   5.761
 3529SOL     OW10930   1.650   7.306   6.980
 3529SOL    HW110931   1.703   7.316   6.896
 3529SOL    HW210932   1.623   7.396   7.014
 3530SOL     OW10933   1.841   5.761   6.549
 3530SOL    HW110934   1.880   5.676   6.513
 3530SOL    HW210935   1.743   5.763   6.530
 3531SOL     OW10936   0.263   5.912   6.306
 3531SOL    HW110937   0.184   5.963   6.272
 3531SOL    HW210938   0.254   5.897   6.404
 3532SOL     OW10939   1.194   7.198   5.617
 3532SOL    HW110940   1.200   7.105   5.654
 3532SOL    HW210941   1.135   7.198   5.537
 3533SOL     OW10942   0.822   6.588   6.958
 3533SOL    HW110943   0.862   6.587   6.866
 3533SOL    HW210944   0.832   6.680   6.998
 3534SOL     OW10945   0.916   6.496   5.877
 3534SOL    HW110946   0.979   6.534   5.809
 3534SOL    HW210947   0.956   6.413   5.916
 3535SOL     OW10948   0.372   6.874   7.076
 3535SOL    HW110949   0.359   6.967   7.042
 3535SOL    HW210950   0.288   6.822   7.063
 3536SOL     OW10951   1.614   6.878   6.875
 3536SOL    HW110952   1.674   6.881   6.955
 3536SOL    HW210953   1.539   6.942   6.888
 3537SOL     OW10954   1.039   6.684   6.282
 3537SOL    HW110955   0.969   6.637   6.336
 3537SOL    HW210956   1.098   6.616   6.239
 3538SOL     OW10957   1.014   5.822   6.557
 3538SOL    HW110958   1.006   5.786   6.464
 3538SOL    HW210959   1.012   5.746   6.622
 3539SOL     OW10960   0.590   7.073   6.077
 3539SOL    HW110961   0.632   7.015   6.007
 3539SOL    HW210962   0.546   7.152   6.033
 3540SOL     OW10963   1.709   5.971   6.967
 3540SOL    HW110964   1.782   6.040   6.971
 3540SOL    HW210965   1.737   5.896   6.908
 3541SOL     OW10966   0.255   6.934   5.876
 3541SOL    HW110967   0.159   6.935   5.849
 3541SOL    HW210968   0.267   6.987   5.960
 3542SOL     OW10969   0.105   6.599   7.312
 3542SOL    HW110970   0.028   6.566   7.366
 3542SOL    HW210971   0.190   6.569   7.354
 3543SOL     OW10972   0.672   5.789   7.075
 3543SOL    HW110973   0.762   5.773   7.035
 3543SOL    HW210974   0.680   5.794   7.174
 3544SOL     OW10975   0.075   5.931   5.619
 3544SOL    HW110976  -0.017   5.903   5.590
 3544SOL    HW210977   0.106   6.008   5.563
 3545SOL     OW10978   1.440   6.442   6.984
 3545SOL    HW110979   1.383   6.494   6.921
 3545SOL    HW210980   1.536   6.454   6.960
 3546SOL     OW10981   0.072   5.752   5.904
 3546SOL    HW110982   0.055   5.835   5.850
 3546SOL    HW210983   0.162   5.715   5.882
 3547SOL     OW10984   1.183   6.921   5.705
 3547SOL    HW110985   1.084   6.910   5.707
 3547SOL    HW210986   1.217   6.936   5.798
 3548SOL     OW10987   0.613   6.428   7.017
 3548SOL    HW110988   0.669   6.509   7.000
 3548SOL    HW210989   0.672   6.348   7.020
 3549SOL     OW10990   1.493   7.353   6.545
 3549SOL    HW110991   1.526   7.417   6.476
 3549SOL    HW210992   1.559   7.347   6.620
 3550SOL     OW10993   0.716   6.151   7.294
 3550SOL    HW110994   0.735   6.216   7.368
 3550SOL    HW210995   0.776   6.071   7.303
 3551SOL     OW10996   1.450   6.806   7.219
 3551SOL    HW110997   1.441   6.796   7.318
 3551SOL    HW210998   1.546   6.799   7.193
 3552SOL     OW10999   0.390   7.327   7.146
 3552SOL    HW111000   0.299   7.368   7.144
 3552SOL    HW211001   0.383   7.233   7.178
 3553SOL     OW11002   1.674   6.469   6.840
 3553SOL    HW111003   1.647   6.380   6.803
 3553SOL    HW211004   1.675   6.537   6.767
 3554SOL     OW11005   1.225   5.911   6.035
 3554SOL    HW111006   1.290   5.837   6.024
 3554SOL    HW211007   1.245   5.961   6.119
 3555SOL     OW11008   0.594   6.331   6.238
 3555SOL    HW111009   0.644   6.416   6.219
 3555SOL    HW211010   0.506   6.333   6.190
 3556SOL     OW11011   1.777   5.928   7.228
 3556SOL    HW111012   1.760   5.959   7.134
 3556SOL    HW211013   1.693   5.891   7.266
 3557SOL     OW11014   1.730   6.520   7.103
 3557SOL    HW111015   1.768   6.611   7.118
 3557SOL    HW211016   1.722   6.503   7.004
 3558SOL     OW11017   0.859   6.960   5.602
 3558SOL    HW111018   0.813   6.975   5.690
 3558SOL    HW211019   0.903   7.045   5.572
 3559SOL     OW11020   0.661   7.376   6.539
 3559SOL    HW111021   0.615   7.464   6.526
 3559SOL    HW211022   0.760   7.388   6.532
 3560SOL     OW11023   0.859   6.542   6.447
 3560SOL    HW111024   0.913   6.473   6.495
 3560SOL    HW211025   0.827   6.611   6.513
 3561SOL     OW11026   1.083   6.570   5.673
 3561SOL    HW111027   1.060   6.623   5.591
 3561SOL    HW211028   1.164   6.514   5.654
 3562SOL     OW11029   1.861   7.155   6.437
 3562SOL    HW111030   1.790   7.143   6.367
 3562SOL    HW211031   1.862   7.076   6.497
 3563SOL     OW11032   0.221   6.900   7.430
 3563SOL    HW111033   0.156   6.827   7.409
 3563SOL    HW211034   0.225   6.914   7.528
 3564SOL     OW11035   0.079   6.826   6.239
 3564SOL    HW111036   0.078   6.779   6.327
 3564SOL    HW211037   0.161   6.798   6.188
 3565SOL     OW11038   0.672   6.977   7.210
 3565SOL    HW111039   0.594   6.927   7.248
 3565SOL    HW211040   0.669   7.072   7.241
 3566SOL     OW11041   1.824   5.778   6.813
 3566SOL    HW111042   1.820   5.688   6.857
 3566SOL    HW211043   1.827   5.767   6.714
 3567SOL     OW11044   0.428   6.010   6.106
 3567SOL    HW111045   0.458   5.938   6.044
 3567SOL    HW211046   0.389   5.970   6.189
 3568SOL     OW11047   1.705   7.073   6.690
 3568SOL    HW111048   1.612   7.048   6.663
 3568SOL    HW211049   1.731   7.023   6.772
 3569SOL     OW11050   0.317   6.133   6.866
 3569SOL    HW111051   0.355   6.074   6.938
 3569SOL    HW211052   0.357   6.107   6.778
 3570SOL     OW11053   0.812   7.172   6.273
 3570SOL    HW111054   0.844   7.182   6.179
 3570SOL    HW211055   0.733   7.110   6.275
 3571SOL     OW11056   1.424   5.800   6.698
 3571SOL    HW111057   1.476   5.735   6.753
 3571SOL    HW211058   1.375   5.863   6.759
 3572SOL     OW11059   1.001   5.620   6.740
 3572SOL    HW111060   0.938   5.548   6.709
 3572SOL    HW211061   1.094   5.584   6.740
 3573SOL     OW11062   0.770   6.916   5.887
 3573SOL    HW111063   0.724   6.829   5.904
 3573SOL    HW211064   0.861   6.913   5.928
 3574SOL     OW11065   0.618   7.153   6.870
 3574SOL    HW111066   0.613   7.235   6.927
 3574SOL    HW211067   0.707   7.150   6.825
 3575SOL     OW11068   1.352   5.638   5.754
 3575SOL    HW111069   1.387   5.597   5.670
 3575SOL    HW211070   1.262   5.600   5.774
 3576SOL     OW11071   1.300   6.039   6.277
 3576SOL    HW111072   1.241   6.119   6.281
 3576SOL    HW211073   1.315   6.004   6.370
 3577SOL     OW11074   1.593   5.807   6.468
 3577SOL    HW111075   1.509   5.806   6.522
 3577SOL    HW211076   1.595   5.890   6.412
 3578SOL     OW11077   0.039   6.663   5.886
 3578SOL    HW111078   0.138   6.652   5.877
 3578SOL    HW211079  -0.001   6.577   5.918
 3579SOL     OW11080   0.875   7.232   5.923
 3579SOL    HW111081   0.798   7.197   5.869
 3579SOL    HW211082   0.843   7.303   5.985
 3580SOL     OW11083   0.230   6.214   7.561
 3580SOL    HW111084   0.137   6.212   7.598
 3580SOL    HW211085   0.231   6.175   7.469
 3581SOL     OW11086   1.755   6.193   7.679
 3581SOL    HW111087   1.743   6.180   7.580
 3581SOL    HW211088   1.725   6.112   7.728
 3582SOL     OW11089   0.231   7.299   7.931
 3582SOL    HW111090   0.265   7.376   7.985
 3582SOL    HW211091   0.275   7.299   7.841
 3583SOL     OW11092   0.606   6.550   7.571
 3583SOL    HW111093   0.613   6.634   7.517
 3583SOL    HW211094   0.652   6.563   7.659
 3584SOL     OW11095   1.842   7.353   7.807
 3584SOL    HW111096   1.896   7.324   7.887
 3584SOL    HW211097   1.872   7.443   7.778
 3585SOL     OW11098   0.027   7.182   7.565
 3585SOL    HW111099   0.008   7.086   7.586
 3585SOL    HW211100  -0.006   7.240   7.640
 3586SOL     OW11101   1.641   6.694   7.880
 3586SOL    HW111102   1.727   6.696   7.828
 3586SOL    HW211103   1.655   6.741   7.968
 3587SOL     OW11104   0.809   5.590   7.950
 3587SOL    HW111105   0.849   5.681   7.941
 3587SOL    HW211106   0.709   5.598   7.956
 3588SOL     OW11107   1.525   6.585   7.638
 3588SOL    HW111108   1.462   6.509   7.651
 3588SOL    HW211109   1.573   6.603   7.724
 3589SOL     OW11110   1.667   7.300   8.020
 3589SOL    HW111111   1.626   7.277   7.932
 3589SOL    HW211112   1.649   7.226   8.085
 3590SOL     OW11113   0.598   6.315   7.718
 3590SOL    HW111114   0.622   6.384   7.650
 3590SOL    HW211115   0.520   6.348   7.772
 3591SOL     OW11116   1.576   7.248   7.755
 3591SOL    HW111117   1.665   7.294   7.758
 3591SOL    HW211118   1.555   7.224   7.660
 3592SOL     OW11119   1.041   6.287   7.877
 3592SOL    HW111120   1.067   6.283   7.973
 3592SOL    HW211121   0.956   6.236   7.863
 3593SOL     OW11122   0.865   5.934   7.643
 3593SOL    HW111123   0.924   5.997   7.594
 3593SOL    HW211124   0.884   5.840   7.614
 3594SOL     OW11125   1.362   6.730   7.993
 3594SOL    HW111126   1.445   6.701   7.945
 3594SOL    HW211127   1.313   6.797   7.937
 3595SOL     OW11128   1.008   7.042   7.925
 3595SOL    HW111129   0.962   7.114   7.873
 3595SOL    HW211130   1.004   7.062   8.023
 3596SOL     OW11131   0.321   6.529   7.690
 3596SOL    HW111132   0.403   6.568   7.648
 3596SOL    HW211133   0.294   6.447   7.641
 3597SOL     OW11134   1.111   7.362   7.685
 3597SOL    HW111135   1.051   7.300   7.735
 3597SOL    HW211136   1.142   7.318   7.600
 3598SOL     OW11137   1.632   6.963   7.529
 3598SOL    HW111138   1.600   7.057   7.519
 3598SOL    HW211139   1.556   6.900   7.517
 3599SOL     OW11140   0.464   7.329   7.771
 3599SOL    HW111141   0.497   7.368   7.857
 3599SOL    HW211142   0.540   7.322   7.706
 3600SOL     OW11143   1.400   5.693   7.874
 3600SOL    HW111144   1.376   5.656   7.784
 3600SOL    HW211145   1.499   5.709   7.878
 3601SOL     OW11146   0.382   6.286   7.928
 3601SOL    HW111147   0.427   6.196   7.925
 3601SOL    HW211148   0.288   6.275   7.961
 3602SOL     OW11149   0.614   5.708   7.565
 3602SOL    HW111150   0.712   5.686   7.572
 3602SOL    HW211151   0.583   5.691   7.472
 3603SOL     OW11152   0.539   5.650   7.960
 3603SOL    HW111153   0.458   5.651   8.018
 3603SOL    HW211154   0.542   5.733   7.905
 3604SOL     OW11155   1.434   6.774   7.489
 3604SOL    HW111156   1.466   6.698   7.546
 3604SOL    HW211157   1.342   6.801   7.519
 3605SOL     OW11158   0.297   5.621   7.619
 3605SOL    HW111159   0.346   5.705   7.598
 3605SOL    HW211160   0.359   5.556   7.664
 3606SOL     OW11161   0.935   5.822   7.928
 3606SOL    HW111162   0.887   5.863   7.850
 3606SOL    HW211163   1.034   5.820   7.909
 3607SOL     OW11164   1.032   6.135   7.464
 3607SOL    HW111165   0.991   6.217   7.425
 3607SOL    HW211166   1.096   6.161   7.537
 3608SOL     OW11167   1.857   6.419   7.825
 3608SOL    HW111168   1.899   6.355   7.889
 3608SOL    HW211169   1.819   6.368   7.747
 3609SOL     OW11170   0.488   6.971   7.622
 3609SOL    HW111171   0.401   6.956   7.669
 3609SOL    HW211172   0.471   6.997   7.527
 3610SOL     OW11173   1.390   6.161   7.526
 3610SOL    HW111174   1.336   6.140   7.607
 3610SOL    HW211175   1.481   6.120   7.535
 3611SOL     OW11176   0.527   5.842   7.776
 3611SOL    HW111177   0.554   5.783   7.701
 3611SOL    HW211178   0.527   5.937   7.745
 3612SOL     OW11179   0.705   6.636   7.816
 3612SOL    HW111180   0.691   6.643   7.915
 3612SOL    HW211181   0.789   6.585   7.798
 3613SOL     OW11182   0.367   6.686   7.949
 3613SOL    HW111183   0.360   6.769   7.893
 3613SOL    HW211184   0.371   6.606   7.889
 3614SOL     OW11185   1.252   6.934   7.836
 3614SOL    HW111186   1.302   7.011   7.876
 3614SOL    HW211187   1.157   6.936   7.868
 3615SOL     OW11188   1.582   6.225   7.920
 3615SOL    HW111189   1.551   6.286   7.993
 3615SOL    HW211190   1.632   6.277   7.851
 3616SOL     OW11191   1.209   6.111   7.723
 3616SOL    HW111192   1.222   6.027   7.777
 3616SOL    HW211193   1.180   6.185   7.783
 3617SOL     OW11194   1.622   5.953   7.822
 3617SOL    HW111195   1.624   5.877   7.886
 3617SOL    HW211196   1.574   6.030   7.862
 3618SOL     OW11197   1.540   5.860   7.573
 3618SOL    HW111198   1.479   5.785   7.596
 3618SOL    HW211199   1.562   5.912   7.656
 3619SOL     OW11200   1.303   6.424   7.490
 3619SOL    HW111201   1.337   6.331   7.505
 3619SOL    HW211202   1.321   6.451   7.395
 3620SOL     OW11203   0.008   6.912   7.648
 3620SOL    HW111204  -0.085   6.933   7.617
 3620SOL    HW211205   0.018   6.813   7.661
 3621SOL     OW11206   0.815   6.158   7.773
 3621SOL    HW111207   0.822   6.069   7.727
 3621SOL    HW211208   0.721   6.192   7.765
 3622SOL     OW11209   0.473   6.086   7.639
 3622SOL    HW111210   0.534   6.166   7.643
 3622SOL    HW211211   0.378   6.117   7.646
 3623SOL     OW11212   1.302   6.441   7.757
 3623SOL    HW111213   1.216   6.410   7.799
 3623SOL    HW211214   1.298   6.427   7.658
 3624SOL     OW11215   1.726   5.721   7.971
 3624SOL    HW111216   1.799   5.704   7.904
 3624SOL    HW211217   1.695   5.634   8.009
 3625SOL     OW11218   1.388   7.159   7.925
 3625SOL    HW111219   1.455   7.171   7.851
 3625SOL    HW211220   1.348   7.248   7.948
 3626SOL     OW11221   0.672   7.202   7.602
 3626SOL    HW111222   0.681   7.212   7.503
 3626SOL    HW211223   0.632   7.113   7.623
 3627SOL     OW11224   1.194   7.198   7.479
 3627SOL    HW111225   1.200   7.105   7.516
 3627SOL    HW211226   1.135   7.198   7.399
 3628SOL     OW11227   0.916   6.496   7.739
 3628SOL    HW111228   0.979   6.534   7.671
 3628SOL    HW211229   0.956   6.413   7.778
 3629SOL     OW11230   1.504   7.193   7.492
 3629SOL    HW111231   1.412   7.230   7.499
 3629SOL    HW211232   1.542   7.213   7.402
 3630SOL     OW11233   0.590   7.073   7.939
 3630SOL    HW111234   0.632   7.015   7.869
 3630SOL    HW211235   0.546   7.152   7.895
 3631SOL     OW11236   0.255   6.934   7.738
 3631SOL    HW111237   0.159   6.935   7.711
 3631SOL    HW211238   0.267   6.987   7.822
 3632SOL     OW11239   0.075   5.931   7.481
 3632SOL    HW111240  -0.017   5.903   7.452
 3632SOL    HW211241   0.106   6.008   7.425
 3633SOL     OW11242   0.072   5.752   7.766
 3633SOL    HW111243   0.055   5.835   7.712
 3633SOL    HW211244   0.162   5.715   7.744
 3634SOL     OW11245   1.183   6.921   7.567
 3634SOL    HW111246   1.084   6.910   7.569
 3634SOL    HW211247   1.217   6.936   7.660
 3635SOL     OW11248   1.225   5.911   7.897
 3635SOL    HW111249   1.290   5.837   7.886
 3635SOL    HW211250   1.245   5.961   7.981
 3636SOL     OW11251   0.859   6.960   7.464
 3636SOL    HW111252   0.813   6.975   7.552
 3636SOL    HW211253   0.903   7.045   7.434
 3637SOL     OW11254   1.083   6.570   7.535
 3637SOL    HW111255   1.060   6.623   7.453
 3637SOL    HW211256   1.164   6.514   7.516
 3638SOL     OW11257   0.428   6.010   7.968
 3638SOL    HW111258   0.458   5.938   7.906
 3638SOL    HW211259   0.389   5.970   8.051
 3639SOL     OW11260   0.770   6.916   7.749
 3639SOL    HW111261   0.724   6.829   7.766
 3639SOL    HW211262   0.861   6.913   7.790
 3640SOL     OW11263   1.352   5.638   7.616
 3640SOL    HW111264   1.387   5.597   7.532
 3640SOL    HW211265   1.262   5.600   7.636
 3641SOL     OW11266   0.039   6.663   7.748
 3641SOL    HW111267   0.138   6.652   7.739
 3641SOL    HW211268  -0.001   6.577   7.780
 3642SOL     OW11269   0.875   7.232   7.785
 3642SOL    HW111270   0.798   7.197   7.731
 3642SOL    HW211271   0.843   7.303   7.847
 3643SOL     OW11272   0.230   8.076   0.113
 3643SOL    HW111273   0.137   8.074   0.150
 3643SOL    HW211274   0.231   8.037   0.021
 3644SOL     OW11275   0.225   7.723   0.996
 3644SOL    HW111276   0.260   7.706   1.088
 3644SOL    HW211277   0.137   7.678   0.984
 3645SOL     OW11278   0.019   7.816   0.647
 3645SOL    HW111279  -0.063   7.859   0.686
 3645SOL    HW211280  -0.009   7.743   0.584
 3646SOL     OW11281   0.569   8.723   1.165
 3646SOL    HW111282   0.476   8.716   1.128
 3646SOL    HW211283   0.580   8.812   1.209
 3647SOL     OW11284   1.555   8.959   0.703
 3647SOL    HW111285   1.498   8.943   0.784
 3647SOL    HW211286   1.496   8.969   0.623
 3648SOL     OW11287   1.135   8.151   0.717
 3648SOL    HW111288   1.192   8.229   0.692
 3648SOL    HW211289   1.075   8.177   0.793
 3649SOL     OW11290   1.755   8.055   0.231
 3649SOL    HW111291   1.743   8.042   0.132
 3649SOL    HW211292   1.725   7.974   0.280
 3650SOL     OW11293   0.768   8.592   1.023
 3650SOL    HW111294   0.690   8.609   1.083
 3650SOL    HW211295   0.802   8.679   0.987
 3651SOL     OW11296   0.850   8.246   1.823
 3651SOL    HW111297   0.846   8.322   1.888
 3651SOL    HW211298   0.872   8.282   1.732
 3652SOL     OW11299   0.685   8.460   0.665
 3652SOL    HW111300   0.754   8.444   0.735
 3652SOL    HW211301   0.612   8.517   0.703
 3653SOL     OW11302   0.686   8.609   1.803
 3653SOL    HW111303   0.746   8.688   1.817
 3653SOL    HW211304   0.600   8.640   1.762
 3654SOL     OW11305   0.335   8.883   1.061
 3654SOL    HW111306   0.257   8.852   1.008
 3654SOL    HW211307   0.393   8.941   1.004
 3655SOL     OW11308   1.460   8.953   1.339
 3655SOL    HW111309   1.484   9.047   1.365
 3655SOL    HW211310   1.444   8.899   1.421
 3656SOL     OW11311   0.438   7.840   1.499
 3656SOL    HW111312   0.520   7.784   1.508
 3656SOL    HW211313   0.357   7.782   1.503
 3657SOL     OW11314   1.603   7.895   0.737
 3657SOL    HW111315   1.529   7.941   0.687
 3657SOL    HW211316   1.654   7.963   0.790
 3658SOL     OW11317   1.127   8.789   1.690
 3658SOL    HW111318   1.174   8.789   1.778
 3658SOL    HW211319   1.079   8.702   1.679
 3659SOL     OW11320   0.230   8.882   0.538
 3659SOL    HW111321   0.204   8.978   0.538
 3659SOL    HW211322   0.159   8.828   0.583
 3660SOL     OW11323   0.240   8.539   0.886
 3660SOL    HW111324   0.254   8.455   0.938
 3660SOL    HW211325   0.185   8.603   0.941
 3661SOL     OW11326   0.606   8.412   0.123
 3661SOL    HW111327   0.613   8.496   0.069
 3661SOL    HW211328   0.652   8.425   0.211
 3662SOL     OW11329   1.594   7.562   1.480
 3662SOL    HW111330   1.576   7.629   1.408
 3662SOL    HW211331   1.591   7.608   1.569
 3663SOL     OW11332   0.122   8.091   0.563
 3663SOL    HW111333   0.077   8.003   0.580
 3663SOL    HW211334   0.121   8.145   0.647
 3664SOL     OW11335   0.027   9.044   0.117
 3664SOL    HW111336   0.008   8.948   0.138
 3664SOL    HW211337  -0.006   9.102   0.192
 3665SOL     OW11338   1.689   8.370   0.612
 3665SOL    HW111339   1.784   8.341   0.620
 3665SOL    HW211340   1.681   8.435   0.537
 3666SOL     OW11341   1.641   8.556   0.432
 3666SOL    HW111342   1.727   8.558   0.380
 3666SOL    HW211343   1.655   8.603   0.520
 3667SOL     OW11344   0.113   8.185   1.597
 3667SOL    HW111345   0.201   8.172   1.642
 3667SOL    HW211346   0.100   8.282   1.575
 3668SOL     OW11347   0.613   8.813   0.726
 3668SOL    HW111348   0.564   8.726   0.735
 3668SOL    HW211349   0.590   8.856   0.639
 3669SOL     OW11350   0.809   7.452   0.502
 3669SOL    HW111351   0.849   7.543   0.493
 3669SOL    HW211352   0.709   7.460   0.508
 3670SOL     OW11353   0.197   8.424   1.264
 3670SOL    HW111354   0.286   8.379   1.250
 3670SOL    HW211355   0.124   8.359   1.245
 3671SOL     OW11356   1.525   8.447   0.190
 3671SOL    HW111357   1.462   8.371   0.203
 3671SOL    HW211358   1.573   8.465   0.276
 3672SOL     OW11359   1.187   9.240   1.616
 3672SOL    HW111360   1.211   9.300   1.540
 3672SOL    HW211361   1.194   9.145   1.586
 3673SOL     OW11362   0.317   7.699   1.801
 3673SOL    HW111363   0.388   7.770   1.807
 3673SOL    HW211364   0.229   7.738   1.829
 3674SOL     OW11365   1.466   8.865   0.953
 3674SOL    HW111366   1.407   8.871   1.033
 3674SOL    HW211367   1.451   8.777   0.907
 3675SOL     OW11368   1.667   9.162   0.572
 3675SOL    HW111369   1.626   9.139   0.484
 3675SOL    HW211370   1.649   9.088   0.637
 3676SOL     OW11371   0.598   8.177   0.270
 3676SOL    HW111372   0.622   8.246   0.202
 3676SOL    HW211373   0.520   8.210   0.324
 3677SOL     OW11374   1.576   9.110   0.307
 3677SOL    HW111375   1.665   9.156   0.310
 3677SOL    HW211376   1.555   9.086   0.212
 3678SOL     OW11377   0.807   8.053   1.465
 3678SOL    HW111378   0.760   8.050   1.554
 3678SOL    HW211379   0.756   7.998   1.399
 3679SOL     OW11380   1.394   7.917   1.674
 3679SOL    HW111381   1.374   7.960   1.762
 3679SOL    HW211382   1.472   7.855   1.683
 3680SOL     OW11383   0.973   8.338   1.572
 3680SOL    HW111384   1.019   8.254   1.543
 3680SOL    HW211385   0.917   8.372   1.497
 3681SOL     OW11386   0.991   7.858   1.242
 3681SOL    HW111387   0.914   7.892   1.296
 3681SOL    HW211388   0.957   7.807   1.163
 3682SOL     OW11389   1.041   8.149   0.429
 3682SOL    HW111390   1.067   8.145   0.525
 3682SOL    HW211391   0.956   8.098   0.415
 3683SOL     OW11392   0.076   8.259   0.789
 3683SOL    HW111393   0.175   8.247   0.798
 3683SOL    HW211394   0.052   8.354   0.810
 3684SOL     OW11395   0.865   7.796   0.195
 3684SOL    HW111396   0.924   7.859   0.146
 3684SOL    HW211397   0.884   7.702   0.166
 3685SOL     OW11398   1.719   8.033   1.831
 3685SOL    HW111399   1.693   8.122   1.795
 3685SOL    HW211400   1.717   7.965   1.758
 3686SOL     OW11401   1.362   8.592   0.545
 3686SOL    HW111402   1.445   8.563   0.497
 3686SOL    HW211403   1.313   8.659   0.489
 3687SOL     OW11404   0.550   7.644   0.885
 3687SOL    HW111405   0.545   7.639   0.985
 3687SOL    HW211406   0.552   7.740   0.856
 3688SOL     OW11407   1.008   8.904   0.477
 3688SOL    HW111408   0.962   8.976   0.425
 3688SOL    HW211409   1.004   8.924   0.575
 3689SOL     OW11410   1.795   8.514   0.873
 3689SOL    HW111411   1.733   8.499   0.797
 3689SOL    HW211412   1.743   8.525   0.958
 3690SOL     OW11413   1.227   8.998   1.506
 3690SOL    HW111414   1.233   8.921   1.570
 3690SOL    HW211415   1.175   8.972   1.426
 3691SOL     OW11416   0.321   8.391   0.242
 3691SOL    HW111417   0.403   8.430   0.200
 3691SOL    HW211418   0.294   8.309   0.193
 3692SOL     OW11419   1.458   8.183   0.728
 3692SOL    HW111420   1.453   8.118   0.803
 3692SOL    HW211421   1.538   8.242   0.741
 3693SOL     OW11422   0.461   8.714   1.727
 3693SOL    HW111423   0.411   8.715   1.641
 3693SOL    HW211424   0.398   8.696   1.803
 3694SOL     OW11425   0.202   7.733   1.498
 3694SOL    HW111426   0.122   7.793   1.485
 3694SOL    HW211427   0.192   7.684   1.584
 3695SOL     OW11428   1.632   8.825   0.081
 3695SOL    HW111429   1.600   8.919   0.071
 3695SOL    HW211430   1.556   8.762   0.069
 3696SOL     OW11431   1.400   7.555   0.426
 3696SOL    HW111432   1.376   7.518   0.336
 3696SOL    HW211433   1.499   7.571   0.430
 3697SOL     OW11434   0.940   9.146   0.904
 3697SOL    HW111435   1.020   9.089   0.925
 3697SOL    HW211436   0.891   9.106   0.827
 3698SOL     OW11437   0.382   8.148   0.480
 3698SOL    HW111438   0.427   8.058   0.477
 3698SOL    HW211439   0.288   8.137   0.513
 3699SOL     OW11440   1.547   7.670   1.729
 3699SOL    HW111441   1.542   7.707   1.821
 3699SOL    HW211442   1.475   7.601   1.717
 3700SOL     OW11443   0.614   7.570   0.117
 3700SOL    HW111444   0.712   7.548   0.124
 3700SOL    HW211445   0.583   7.553   0.024
 3701SOL     OW11446   0.781   7.712   1.749
 3701SOL    HW111447   0.848   7.651   1.792
 3701SOL    HW211448   0.708   7.731   1.814
 3702SOL     OW11449   0.888   8.962   1.195
 3702SOL    HW111450   0.865   8.937   1.101
 3702SOL    HW211451   0.949   8.893   1.234
 3703SOL     OW11452   1.351   8.038   1.433
 3703SOL    HW111453   1.379   7.995   1.518
 3703SOL    HW211454   1.376   8.134   1.434
 3704SOL     OW11455   0.803   8.850   0.924
 3704SOL    HW111456   0.893   8.864   0.882
 3704SOL    HW211457   0.732   8.852   0.853
 3705SOL     OW11458   0.922   7.951   0.899
 3705SOL    HW111459   0.897   7.942   0.803
 3705SOL    HW211460   0.970   7.869   0.930
 3706SOL     OW11461   1.434   8.636   0.041
 3706SOL    HW111462   1.466   8.560   0.098
 3706SOL    HW211463   1.342   8.663   0.071
 3707SOL     OW11464   0.297   7.483   0.171
 3707SOL    HW111465   0.346   7.567   0.150
 3707SOL    HW211466   0.359   7.418   0.216
 3708SOL     OW11467   0.935   7.684   0.480
 3708SOL    HW111468   0.887   7.725   0.402
 3708SOL    HW211469   1.034   7.682   0.461
 3709SOL     OW11470   1.076   8.131   1.464
 3709SOL    HW111471   0.996   8.070   1.467
 3709SOL    HW211472   1.157   8.078   1.440
 3710SOL     OW11473   1.227   9.018   0.793
 3710SOL    HW111474   1.248   9.092   0.728
 3710SOL    HW211475   1.295   9.018   0.866
 3711SOL     OW11476   0.459   8.600   0.741
 3711SOL    HW111477   0.388   8.573   0.806
 3711SOL    HW211478   0.433   8.572   0.648
 3712SOL     OW11479   1.032   7.997   0.016
 3712SOL    HW111480   0.991   8.079  -0.023
 3712SOL    HW211481   1.096   8.023   0.089
 3713SOL     OW11482   0.078   8.004   1.386
 3713SOL    HW111483   0.170   8.003   1.345
 3713SOL    HW211484   0.072   8.078   1.453
 3714SOL     OW11485   0.561   7.670   1.147
 3714SOL    HW111486   0.599   7.586   1.184
 3714SOL    HW211487   0.473   7.689   1.191
 3715SOL     OW11488   0.866   7.902   0.642
 3715SOL    HW111489   0.834   7.974   0.580
 3715SOL    HW211490   0.890   7.821   0.589
 3716SOL     OW11491   1.017   7.487   0.753
 3716SOL    HW111492   0.945   7.492   0.684
 3716SOL    HW211493   0.993   7.418   0.822
 3717SOL     OW11494   1.429   8.621   0.867
 3717SOL    HW111495   1.374   8.537   0.860
 3717SOL    HW211496   1.455   8.650   0.775
 3718SOL     OW11497   1.466   8.038   0.992
 3718SOL    HW111498   1.436   7.943   0.999
 3718SOL    HW211499   1.539   8.054   1.058
 3719SOL     OW11500   1.857   8.281   0.377
 3719SOL    HW111501   1.899   8.217   0.441
 3719SOL    HW211502   1.819   8.230   0.299
 3720SOL     OW11503   0.488   8.833   0.174
 3720SOL    HW111504   0.401   8.818   0.221
 3720SOL    HW211505   0.471   8.859   0.079
 3721SOL     OW11506   1.664   8.728   0.657
 3721SOL    HW111507   1.763   8.736   0.671
 3721SOL    HW211508   1.619   8.812   0.688
 3722SOL     OW11509   1.390   8.023   0.078
 3722SOL    HW111510   1.336   8.002   0.159
 3722SOL    HW211511   1.481   7.982   0.087
 3723SOL     OW11512   0.527   7.704   0.328
 3723SOL    HW111513   0.554   7.645   0.253
 3723SOL    HW211514   0.527   7.799   0.297
 3724SOL     OW11515   1.754   8.671   1.588
 3724SOL    HW111516   1.845   8.632   1.575
 3724SOL    HW211517   1.762   8.767   1.612
 3725SOL     OW11518   1.064   8.795   1.340
 3725SOL    HW111519   0.984   8.772   1.395
 3725SOL    HW211520   1.147   8.769   1.389
 3726SOL     OW11521   1.592   9.077   1.625
 3726SOL    HW111522   1.619   9.111   1.535
 3726SOL    HW211523   1.671   9.039   1.671
 3727SOL     OW11524   1.111   8.643   1.100
 3727SOL    HW111525   1.071   8.687   1.181
 3727SOL    HW211526   1.070   8.680   1.017
 3728SOL     OW11527   1.638   8.547   1.079
 3728SOL    HW111528   1.643   8.628   1.138
 3728SOL    HW211529   1.552   8.549   1.028
 3729SOL     OW11530   0.915   7.537   1.402
 3729SOL    HW111531   0.940   7.517   1.307
 3729SOL    HW211532   0.987   7.593   1.444
 3730SOL     OW11533   0.980   8.564   1.719
 3730SOL    HW111534   0.881   8.570   1.729
 3730SOL    HW211535   1.003   8.484   1.663
 3731SOL     OW11536   0.705   8.498   0.368
 3731SOL    HW111537   0.691   8.505   0.467
 3731SOL    HW211538   0.789   8.447   0.350
 3732SOL     OW11539   0.410   8.261   1.251
 3732SOL    HW111540   0.496   8.273   1.301
 3732SOL    HW211541   0.368   8.174   1.278
 3733SOL     OW11542   1.274   7.834   1.262
 3733SOL    HW111543   1.295   7.908   1.326
 3733SOL    HW211544   1.185   7.851   1.219
 3734SOL     OW11545   0.064   9.012   1.331
 3734SOL    HW111546   0.018   9.094   1.297
 3734SOL    HW211547   0.162   9.031   1.340
 3735SOL     OW11548   0.367   8.548   0.501
 3735SOL    HW111549   0.360   8.631   0.445
 3735SOL    HW211550   0.371   8.468   0.441
 3736SOL     OW11551   0.566   7.985   0.865
 3736SOL    HW111552   0.578   8.051   0.791
 3736SOL    HW211553   0.612   8.019   0.948
 3737SOL     OW11554   1.252   8.796   0.388
 3737SOL    HW111555   1.302   8.873   0.428
 3737SOL    HW211556   1.157   8.798   0.420
 3738SOL     OW11557   1.272   8.893   1.142
 3738SOL    HW111558   1.319   8.906   1.229
 3738SOL    HW211559   1.206   8.819   1.151
 3739SOL     OW11560   1.582   8.087   0.472
 3739SOL    HW111561   1.551   8.148   0.545
 3739SOL    HW211562   1.632   8.139   0.403
 3740SOL     OW11563   0.354   8.958   1.329
 3740SOL    HW111564   0.333   8.914   1.242
 3740SOL    HW211565   0.451   8.984   1.332
 3741SOL     OW11566   0.402   8.199   1.598
 3741SOL    HW111567   0.470   8.254   1.551
 3741SOL    HW211568   0.442   8.111   1.625
 3742SOL     OW11569   1.587   8.227   1.670
 3742SOL    HW111570   1.495   8.265   1.665
 3742SOL    HW211571   1.647   8.274   1.605
 3743SOL     OW11572   1.013   7.553   1.770
 3743SOL    HW111573   1.019   7.638   1.718
 3743SOL    HW211574   1.045   7.477   1.713
 3744SOL     OW11575   0.504   7.498   1.740
 3744SOL    HW111576   0.462   7.441   1.670
 3744SOL    HW211577   0.438   7.567   1.772
 3745SOL     OW11578   0.573   8.318   1.029
 3745SOL    HW111579   0.617   8.407   1.020
 3745SOL    HW211580   0.510   8.318   1.106
 3746SOL     OW11581   1.360   8.310   1.045
 3746SOL    HW111582   1.285   8.310   0.979
 3746SOL    HW211583   1.397   8.218   1.054
 3747SOL     OW11584   1.209   7.973   0.275
 3747SOL    HW111585   1.222   7.889   0.329
 3747SOL    HW211586   1.180   8.047   0.335
 3748SOL     OW11587   0.307   7.661   1.231
 3748SOL    HW111588   0.284   7.698   1.321
 3748SOL    HW211589   0.277   7.566   1.225
 3749SOL     OW11590   0.037   8.758   1.282
 3749SOL    HW111591   0.090   8.709   1.350
 3749SOL    HW211592   0.059   8.856   1.287
 3750SOL     OW11593   0.732   8.082   1.064
 3750SOL    HW111594   0.791   8.056   0.988
 3750SOL    HW211595   0.704   8.178   1.053
 3751SOL     OW11596   1.728   8.383   1.854
 3751SOL    HW111597   1.682   8.376   1.765
 3751SOL    HW211598   1.666   8.427   1.920
 3752SOL     OW11599   0.307   7.511   0.618
 3752SOL    HW111600   0.296   7.605   0.651
 3752SOL    HW211601   0.302   7.448   0.695
 3753SOL     OW11602   1.622   7.815   0.374
 3753SOL    HW111603   1.624   7.739   0.438
 3753SOL    HW211604   1.574   7.892   0.414
 3754SOL     OW11605   1.023   8.214   0.966
 3754SOL    HW111606   1.038   8.235   1.062
 3754SOL    HW211607   0.993   8.119   0.957
 3755SOL     OW11608   0.980   9.021   1.700
 3755SOL    HW111609   0.960   9.065   1.612
 3755SOL    HW211610   1.019   8.930   1.684
 3756SOL     OW11611   1.859   8.966   1.605
 3756SOL    HW111612   1.873   8.993   1.510
 3756SOL    HW211613   1.942   8.988   1.658
 3757SOL     OW11614   1.540   7.722   0.125
 3757SOL    HW111615   1.479   7.647   0.148
 3757SOL    HW211616   1.562   7.774   0.208
 3758SOL     OW11617   1.303   8.286   0.042
 3758SOL    HW111618   1.337   8.193   0.057
 3758SOL    HW211619   1.321   8.313  -0.053
 3759SOL     OW11620   1.068   8.781   0.849
 3759SOL    HW111621   1.075   8.697   0.794
 3759SOL    HW211622   1.130   8.850   0.813
 3760SOL     OW11623   0.319   8.258   0.949
 3760SOL    HW111624   0.412   8.294   0.954
 3760SOL    HW211625   0.313   8.173   1.001
 3761SOL     OW11626   0.339   7.957   1.006
 3761SOL    HW111627   0.287   7.874   0.989
 3761SOL    HW211628   0.416   7.962   0.942
 3762SOL     OW11629   1.138   7.828   1.678
 3762SOL    HW111630   1.093   7.891   1.742
 3762SOL    HW211631   1.231   7.859   1.661
 3763SOL     OW11632   1.160   7.655   1.477
 3763SOL    HW111633   1.160   7.719   1.554
 3763SOL    HW211634   1.188   7.703   1.394
 3764SOL     OW11635   0.008   8.774   0.200
 3764SOL    HW111636  -0.085   8.795   0.169
 3764SOL    HW211637   0.018   8.675   0.213
 3765SOL     OW11638   0.504   9.016   0.910
 3765SOL    HW111639   0.570   9.090   0.919
 3765SOL    HW211640   0.548   8.937   0.868
 3766SOL     OW11641   1.002   8.244   1.238
 3766SOL    HW111642   1.043   8.212   1.324
 3766SOL    HW211643   0.906   8.217   1.235
 3767SOL     OW11644   0.040   7.992   1.114
 3767SOL    HW111645   0.125   7.959   1.073
 3767SOL    HW211646   0.053   8.007   1.212
 3768SOL     OW11647   0.189   7.968   1.722
 3768SOL    HW111648   0.248   7.928   1.652
 3768SOL    HW211649   0.131   8.039   1.681
 3769SOL     OW11650   1.369   8.398   1.660
 3769SOL    HW111651   1.408   8.487   1.680
 3769SOL    HW211652   1.379   8.378   1.563
 3770SOL     OW11653   0.815   8.020   0.325
 3770SOL    HW111654   0.822   7.931   0.279
 3770SOL    HW211655   0.721   8.054   0.317
 3771SOL     OW11656   1.657   8.052   1.206
 3771SOL    HW111657   1.619   7.983   1.268
 3771SOL    HW211658   1.739   8.016   1.162
 3772SOL     OW11659   0.252   9.012   1.744
 3772SOL    HW111660   0.222   9.069   1.820
 3772SOL    HW211661   0.245   8.915   1.770
 3773SOL     OW11662   0.671   7.912   1.269
 3773SOL    HW111663   0.637   7.823   1.239
 3773SOL    HW211664   0.697   7.966   1.189
 3774SOL     OW11665   0.930   9.126   1.465
 3774SOL    HW111666   0.906   9.108   1.370
 3774SOL    HW211667   0.960   9.220   1.475
 3775SOL     OW11668   0.473   7.948   0.191
 3775SOL    HW111669   0.534   8.028   0.195
 3775SOL    HW211670   0.378   7.979   0.198
 3776SOL     OW11671   0.159   8.585   1.466
 3776SOL    HW111672   0.181   8.524   1.542
 3776SOL    HW211673   0.169   8.536   1.380
 3777SOL     OW11674   1.347   8.507   1.234
 3777SOL    HW111675   1.371   8.444   1.160
 3777SOL    HW211676   1.257   8.547   1.216
 3778SOL     OW11677   1.302   8.303   0.309
 3778SOL    HW111678   1.216   8.272   0.351
 3778SOL    HW211679   1.298   8.289   0.210
 3779SOL     OW11680   1.759   9.195   1.154
 3779SOL    HW111681   1.820   9.225   1.081
 3779SOL    HW211682   1.721   9.106   1.132
 3780SOL     OW11683   1.252   9.179   1.128
 3780SOL    HW111684   1.336   9.184   1.074
 3780SOL    HW211685   1.229   9.083   1.146
 3781SOL     OW11686   0.083   8.706   1.022
 3781SOL    HW111687   0.078   8.705   1.122
 3781SOL    HW211688   0.000   8.665   0.984
 3782SOL     OW11689   0.688   9.110   1.716
 3782SOL    HW111690   0.632   9.191   1.725
 3782SOL    HW211691   0.740   9.114   1.630
 3783SOL     OW11692   0.903   7.534   0.133
 3783SOL    HW111693   0.954   7.535   0.047
 3783SOL    HW211694   0.959   7.492   0.204
 3784SOL     OW11695   1.726   7.583   0.523
 3784SOL    HW111696   1.799   7.566   0.456
 3784SOL    HW211697   1.695   7.496   0.561
 3785SOL     OW11698   1.388   9.021   0.477
 3785SOL    HW111699   1.455   9.033   0.403
 3785SOL    HW211700   1.348   9.110   0.500
 3786SOL     OW11701   1.280   8.375   0.672
 3786SOL    HW111702   1.340   8.294   0.674
 3786SOL    HW211703   1.320   8.444   0.612
 3787SOL     OW11704   0.830   8.721   1.422
 3787SOL    HW111705   0.825   8.754   1.517
 3787SOL    HW211706   0.744   8.740   1.376
 3788SOL     OW11707   0.672   9.064   0.154
 3788SOL    HW111708   0.681   9.074   0.055
 3788SOL    HW211709   0.632   8.975   0.175
 3789SOL     OW11710   1.841   7.623   0.963
 3789SOL    HW111711   1.880   7.538   0.927
 3789SOL    HW211712   1.743   7.625   0.944
 3790SOL     OW11713   0.263   7.774   0.720
 3790SOL    HW111714   0.184   7.825   0.686
 3790SOL    HW211715   0.254   7.759   0.818
 3791SOL     OW11716   1.194   9.060   0.031
 3791SOL    HW111717   1.200   8.967   0.068
 3791SOL    HW211718   1.135   9.060  -0.049
 3792SOL     OW11719   0.822   8.450   1.372
 3792SOL    HW111720   0.862   8.449   1.280
 3792SOL    HW211721   0.832   8.542   1.412
 3793SOL     OW11722   0.916   8.358   0.291
 3793SOL    HW111723   0.979   8.396   0.223
 3793SOL    HW211724   0.956   8.275   0.330
 3794SOL     OW11725   1.504   9.055   0.044
 3794SOL    HW111726   1.412   9.092   0.051
 3794SOL    HW211727   1.542   9.075  -0.046
 3795SOL     OW11728   0.372   8.736   1.490
 3795SOL    HW111729   0.359   8.829   1.456
 3795SOL    HW211730   0.288   8.684   1.477
 3796SOL     OW11731   1.614   8.740   1.289
 3796SOL    HW111732   1.674   8.743   1.369
 3796SOL    HW211733   1.539   8.804   1.302
 3797SOL     OW11734   1.039   8.546   0.696
 3797SOL    HW111735   0.969   8.499   0.750
 3797SOL    HW211736   1.098   8.478   0.653
 3798SOL     OW11737   1.014   7.684   0.971
 3798SOL    HW111738   1.006   7.648   0.878
 3798SOL    HW211739   1.012   7.608   1.036
 3799SOL     OW11740   0.590   8.935   0.491
 3799SOL    HW111741   0.632   8.877   0.421
 3799SOL    HW211742   0.546   9.014   0.447
 3800SOL     OW11743   1.709   7.833   1.381
 3800SOL    HW111744   1.782   7.902   1.385
 3800SOL    HW211745   1.737   7.758   1.322
 3801SOL     OW11746   0.255   8.796   0.290
 3801SOL    HW111747   0.159   8.797   0.263
 3801SOL    HW211748   0.267   8.849   0.374
 3802SOL     OW11749   0.105   8.461   1.726
 3802SOL    HW111750   0.028   8.428   1.780
 3802SOL    HW211751   0.190   8.431   1.768
 3803SOL     OW11752   0.672   7.651   1.489
 3803SOL    HW111753   0.762   7.635   1.449
 3803SOL    HW211754   0.680   7.656   1.588
 3804SOL     OW11755   0.075   7.793   0.033
 3804SOL    HW111756  -0.017   7.765   0.004
 3804SOL    HW211757   0.106   7.870  -0.023
 3805SOL     OW11758   1.440   8.304   1.398
 3805SOL    HW111759   1.383   8.356   1.335
 3805SOL    HW211760   1.536   8.316   1.374
 3806SOL     OW11761   0.072   7.614   0.318
 3806SOL    HW111762   0.055   7.697   0.264
 3806SOL    HW211763   0.162   7.577   0.296
 3807SOL     OW11764   1.183   8.783   0.119
 3807SOL    HW111765   1.084   8.772   0.121
 3807SOL    HW211766   1.217   8.798   0.212
 3808SOL     OW11767   0.613   8.290   1.431
 3808SOL    HW111768   0.669   8.371   1.414
 3808SOL    HW211769   0.672   8.210   1.434
 3809SOL     OW11770   0.716   8.013   1.708
 3809SOL    HW111771   0.735   8.078   1.782
 3809SOL    HW211772   0.776   7.933   1.717
 3810SOL     OW11773   1.450   8.668   1.633
 3810SOL    HW111774   1.441   8.658   1.732
 3810SOL    HW211775   1.546   8.661   1.607
 3811SOL     OW11776   0.390   9.189   1.560
 3811SOL    HW111777   0.299   9.230   1.558
 3811SOL    HW211778   0.383   9.095   1.592
 3812SOL     OW11779   1.674   8.331   1.254
 3812SOL    HW111780   1.647   8.242   1.217
 3812SOL    HW211781   1.675   8.399   1.181
 3813SOL     OW11782   1.225   7.773   0.449
 3813SOL    HW111783   1.290   7.699   0.438
 3813SOL    HW211784   1.245   7.823   0.533
 3814SOL     OW11785   0.594   8.193   0.652
 3814SOL    HW111786   0.644   8.278   0.633
 3814SOL    HW211787   0.506   8.195   0.604
 3815SOL     OW11788   1.777   7.790   1.642
 3815SOL    HW111789   1.760   7.821   1.548
 3815SOL    HW211790   1.693   7.753   1.680
 3816SOL     OW11791   1.730   8.382   1.517
 3816SOL    HW111792   1.768   8.473   1.532
 3816SOL    HW211793   1.722   8.365   1.418
 3817SOL     OW11794   0.859   8.822   0.016
 3817SOL    HW111795   0.813   8.837   0.104
 3817SOL    HW211796   0.903   8.907  -0.014
 3818SOL     OW11797   0.859   8.404   0.861
 3818SOL    HW111798   0.913   8.335   0.909
 3818SOL    HW211799   0.827   8.473   0.927
 3819SOL     OW11800   1.083   8.432   0.087
 3819SOL    HW111801   1.060   8.485   0.005
 3819SOL    HW211802   1.164   8.376   0.068
 3820SOL     OW11803   1.861   9.017   0.851
 3820SOL    HW111804   1.790   9.005   0.781
 3820SOL    HW211805   1.862   8.938   0.911
 3821SOL     OW11806   0.221   8.762   1.844
 3821SOL    HW111807   0.156   8.689   1.823
 3821SOL    HW211808   0.225   8.776   1.942
 3822SOL     OW11809   0.079   8.688   0.653
 3822SOL    HW111810   0.078   8.641   0.741
 3822SOL    HW211811   0.161   8.660   0.602
 3823SOL     OW11812   0.672   8.839   1.624
 3823SOL    HW111813   0.594   8.789   1.662
 3823SOL    HW211814   0.669   8.934   1.655
 3824SOL     OW11815   1.824   7.640   1.227
 3824SOL    HW111816   1.820   7.550   1.271
 3824SOL    HW211817   1.827   7.629   1.128
 3825SOL     OW11818   0.428   7.872   0.520
 3825SOL    HW111819   0.458   7.800   0.458
 3825SOL    HW211820   0.389   7.832   0.603
 3826SOL     OW11821   1.705   8.935   1.104
 3826SOL    HW111822   1.612   8.910   1.077
 3826SOL    HW211823   1.731   8.885   1.186
 3827SOL     OW11824   0.317   7.995   1.280
 3827SOL    HW111825   0.355   7.936   1.352
 3827SOL    HW211826   0.357   7.969   1.192
 3828SOL     OW11827   0.812   9.034   0.687
 3828SOL    HW111828   0.844   9.044   0.593
 3828SOL    HW211829   0.733   8.972   0.689
 3829SOL     OW11830   1.424   7.662   1.112
 3829SOL    HW111831   1.476   7.597   1.167
 3829SOL    HW211832   1.375   7.725   1.173
 3830SOL     OW11833   1.001   7.482   1.154
 3830SOL    HW111834   0.938   7.410   1.123
 3830SOL    HW211835   1.094   7.446   1.154
 3831SOL     OW11836   0.770   8.778   0.301
 3831SOL    HW111837   0.724   8.691   0.318
 3831SOL    HW211838   0.861   8.775   0.342
 3832SOL     OW11839   0.618   9.015   1.284
 3832SOL    HW111840   0.613   9.097   1.341
 3832SOL    HW211841   0.707   9.012   1.239
 3833SOL     OW11842   1.352   7.500   0.168
 3833SOL    HW111843   1.387   7.459   0.084
 3833SOL    HW211844   1.262   7.462   0.188
 3834SOL     OW11845   1.300   7.901   0.691
 3834SOL    HW111846   1.241   7.981   0.695
 3834SOL    HW211847   1.315   7.866   0.784
 3835SOL     OW11848   1.593   7.669   0.882
 3835SOL    HW111849   1.509   7.668   0.936
 3835SOL    HW211850   1.595   7.752   0.826
 3836SOL     OW11851   0.039   8.525   0.300
 3836SOL    HW111852   0.138   8.514   0.291
 3836SOL    HW211853  -0.001   8.439   0.332
 3837SOL     OW11854   0.875   9.094   0.337
 3837SOL    HW111855   0.798   9.059   0.283
 3837SOL    HW211856   0.843   9.165   0.399
 3838SOL     OW11857   0.230   8.076   1.975
 3838SOL    HW111858   0.137   8.074   2.012
 3838SOL    HW211859   0.231   8.037   1.883
 3839SOL     OW11860   0.225   7.723   2.858
 3839SOL    HW111861   0.260   7.706   2.950
 3839SOL    HW211862   0.137   7.678   2.846
 3840SOL     OW11863   0.019   7.816   2.509
 3840SOL    HW111864  -0.063   7.859   2.548
 3840SOL    HW211865  -0.009   7.743   2.446
 3841SOL     OW11866   0.569   8.723   3.027
 3841SOL    HW111867   0.476   8.716   2.990
 3841SOL    HW211868   0.580   8.812   3.071
 3842SOL     OW11869   1.555   8.959   2.565
 3842SOL    HW111870   1.498   8.943   2.646
 3842SOL    HW211871   1.496   8.969   2.485
 3843SOL     OW11872   1.135   8.151   2.579
 3843SOL    HW111873   1.192   8.229   2.554
 3843SOL    HW211874   1.075   8.177   2.655
 3844SOL     OW11875   1.755   8.055   2.093
 3844SOL    HW111876   1.743   8.042   1.994
 3844SOL    HW211877   1.725   7.974   2.142
 3845SOL     OW11878   0.768   8.592   2.885
 3845SOL    HW111879   0.690   8.609   2.945
 3845SOL    HW211880   0.802   8.679   2.849
 3846SOL     OW11881   0.850   8.246   3.685
 3846SOL    HW111882   0.846   8.322   3.750
 3846SOL    HW211883   0.872   8.282   3.594
 3847SOL     OW11884   0.685   8.460   2.527
 3847SOL    HW111885   0.754   8.444   2.597
 3847SOL    HW211886   0.612   8.517   2.565
 3848SOL     OW11887   0.686   8.609   3.665
 3848SOL    HW111888   0.746   8.688   3.679
 3848SOL    HW211889   0.600   8.640   3.624
 3849SOL     OW11890   0.335   8.883   2.923
 3849SOL    HW111891   0.257   8.852   2.870
 3849SOL    HW211892   0.393   8.941   2.866
 3850SOL     OW11893   1.460   8.953   3.201
 3850SOL    HW111894   1.484   9.047   3.227
 3850SOL    HW211895   1.444   8.899   3.283
 3851SOL     OW11896   0.438   7.840   3.361
 3851SOL    HW111897   0.520   7.784   3.370
 3851SOL    HW211898   0.357   7.782   3.365
 3852SOL     OW11899   1.603   7.895   2.599
 3852SOL    HW111900   1.529   7.941   2.549
 3852SOL    HW211901   1.654   7.963   2.652
 3853SOL     OW11902   1.127   8.789   3.552
 3853SOL    HW111903   1.174   8.789   3.640
 3853SOL    HW211904   1.079   8.702   3.541
 3854SOL     OW11905   0.230   8.882   2.400
 3854SOL    HW111906   0.204   8.978   2.400
 3854SOL    HW211907   0.159   8.828   2.445
 3855SOL     OW11908   0.240   8.539   2.748
 3855SOL    HW111909   0.254   8.455   2.800
 3855SOL    HW211910   0.185   8.603   2.803
 3856SOL     OW11911   0.606   8.412   1.985
 3856SOL    HW111912   0.613   8.496   1.931
 3856SOL    HW211913   0.652   8.425   2.073
 3857SOL     OW11914   1.594   7.562   3.342
 3857SOL    HW111915   1.576   7.629   3.270
 3857SOL    HW211916   1.591   7.608   3.431
 3858SOL     OW11917   0.122   8.091   2.425
 3858SOL    HW111918   0.077   8.003   2.442
 3858SOL    HW211919   0.121   8.145   2.509
 3859SOL     OW11920   0.027   9.044   1.979
 3859SOL    HW111921   0.008   8.948   2.000
 3859SOL    HW211922  -0.006   9.102   2.054
 3860SOL     OW11923   1.689   8.370   2.474
 3860SOL    HW111924   1.784   8.341   2.482
 3860SOL    HW211925   1.681   8.435   2.399
 3861SOL     OW11926   1.641   8.556   2.294
 3861SOL    HW111927   1.727   8.558   2.242
 3861SOL    HW211928   1.655   8.603   2.382
 3862SOL     OW11929   0.113   8.185   3.459
 3862SOL    HW111930   0.201   8.172   3.504
 3862SOL    HW211931   0.100   8.282   3.437
 3863SOL     OW11932   0.613   8.813   2.588
 3863SOL    HW111933   0.564   8.726   2.597
 3863SOL    HW211934   0.590   8.856   2.501
 3864SOL     OW11935   1.293   8.676   3.285
 3864SOL    HW111936   1.330   8.603   3.227
 3864SOL    HW211937   1.345   8.681   3.370
 3865SOL     OW11938   0.809   7.452   2.364
 3865SOL    HW111939   0.849   7.543   2.355
 3865SOL    HW211940   0.709   7.460   2.370
 3866SOL     OW11941   0.197   8.424   3.126
 3866SOL    HW111942   0.286   8.379   3.112
 3866SOL    HW211943   0.124   8.359   3.107
 3867SOL     OW11944   1.525   8.447   2.052
 3867SOL    HW111945   1.462   8.371   2.065
 3867SOL    HW211946   1.573   8.465   2.138
 3868SOL     OW11947   1.187   9.240   3.478
 3868SOL    HW111948   1.211   9.300   3.402
 3868SOL    HW211949   1.194   9.145   3.448
 3869SOL     OW11950   0.317   7.699   3.663
 3869SOL    HW111951   0.388   7.770   3.669
 3869SOL    HW211952   0.229   7.738   3.691
 3870SOL     OW11953   1.466   8.865   2.815
 3870SOL    HW111954   1.407   8.871   2.895
 3870SOL    HW211955   1.451   8.777   2.769
 3871SOL     OW11956   1.667   9.162   2.434
 3871SOL    HW111957   1.626   9.139   2.346
 3871SOL    HW211958   1.649   9.088   2.499
 3872SOL     OW11959   0.598   8.177   2.132
 3872SOL    HW111960   0.622   8.246   2.064
 3872SOL    HW211961   0.520   8.210   2.186
 3873SOL     OW11962   1.281   7.793   2.806
 3873SOL    HW111963   1.195   7.743   2.793
 3873SOL    HW211964   1.343   7.739   2.862
 3874SOL     OW11965   1.576   9.110   2.169
 3874SOL    HW111966   1.665   9.156   2.172
 3874SOL    HW211967   1.555   9.086   2.074
 3875SOL     OW11968   0.807   8.053   3.327
 3875SOL    HW111969   0.760   8.050   3.416
 3875SOL    HW211970   0.756   7.998   3.261
 3876SOL     OW11971   1.394   7.917   3.536
 3876SOL    HW111972   1.374   7.960   3.624
 3876SOL    HW211973   1.472   7.855   3.545
 3877SOL     OW11974   0.973   8.338   3.434
 3877SOL    HW111975   1.019   8.254   3.405
 3877SOL    HW211976   0.917   8.372   3.359
 3878SOL     OW11977   0.991   7.858   3.104
 3878SOL    HW111978   0.914   7.892   3.158
 3878SOL    HW211979   0.957   7.807   3.025
 3879SOL     OW11980   1.041   8.149   2.291
 3879SOL    HW111981   1.067   8.145   2.387
 3879SOL    HW211982   0.956   8.098   2.277
 3880SOL     OW11983   0.076   8.259   2.651
 3880SOL    HW111984   0.175   8.247   2.660
 3880SOL    HW211985   0.052   8.354   2.672
 3881SOL     OW11986   0.865   7.796   2.057
 3881SOL    HW111987   0.924   7.859   2.008
 3881SOL    HW211988   0.884   7.702   2.028
 3882SOL     OW11989   1.719   8.033   3.693
 3882SOL    HW111990   1.693   8.122   3.657
 3882SOL    HW211991   1.717   7.965   3.620
 3883SOL     OW11992   1.362   8.592   2.407
 3883SOL    HW111993   1.445   8.563   2.359
 3883SOL    HW211994   1.313   8.659   2.351
 3884SOL     OW11995   0.550   7.644   2.747
 3884SOL    HW111996   0.545   7.639   2.847
 3884SOL    HW211997   0.552   7.740   2.718
 3885SOL     OW11998   1.008   8.904   2.339
 3885SOL    HW111999   0.962   8.976   2.287
 3885SOL    HW212000   1.004   8.924   2.437
 3886SOL     OW12001   1.795   8.514   2.735
 3886SOL    HW112002   1.733   8.499   2.659
 3886SOL    HW212003   1.743   8.525   2.820
 3887SOL     OW12004   1.227   8.998   3.368
 3887SOL    HW112005   1.233   8.921   3.432
 3887SOL    HW212006   1.175   8.972   3.288
 3888SOL     OW12007   0.321   8.391   2.104
 3888SOL    HW112008   0.403   8.430   2.062
 3888SOL    HW212009   0.294   8.309   2.055
 3889SOL     OW12010   1.458   8.183   2.590
 3889SOL    HW112011   1.453   8.118   2.665
 3889SOL    HW212012   1.538   8.242   2.603
 3890SOL     OW12013   0.461   8.714   3.589
 3890SOL    HW112014   0.411   8.715   3.503
 3890SOL    HW212015   0.398   8.696   3.665
 3891SOL     OW12016   0.202   7.733   3.360
 3891SOL    HW112017   0.122   7.793   3.347
 3891SOL    HW212018   0.192   7.684   3.446
 3892SOL     OW12019   1.632   8.825   1.943
 3892SOL    HW112020   1.600   8.919   1.933
 3892SOL    HW212021   1.556   8.762   1.931
 3893SOL     OW12022   1.400   7.555   2.288
 3893SOL    HW112023   1.376   7.518   2.198
 3893SOL    HW212024   1.499   7.571   2.292
 3894SOL     OW12025   0.940   9.146   2.766
 3894SOL    HW112026   1.020   9.089   2.787
 3894SOL    HW212027   0.891   9.106   2.689
 3895SOL     OW12028   0.382   8.148   2.342
 3895SOL    HW112029   0.427   8.058   2.339
 3895SOL    HW212030   0.288   8.137   2.375
 3896SOL     OW12031   1.547   7.670   3.591
 3896SOL    HW112032   1.542   7.707   3.683
 3896SOL    HW212033   1.475   7.601   3.579
 3897SOL     OW12034   0.614   7.570   1.979
 3897SOL    HW112035   0.712   7.548   1.986
 3897SOL    HW212036   0.583   7.553   1.886
 3898SOL     OW12037   0.781   7.712   3.611
 3898SOL    HW112038   0.848   7.651   3.654
 3898SOL    HW212039   0.708   7.731   3.676
 3899SOL     OW12040   0.888   8.962   3.057
 3899SOL    HW112041   0.865   8.937   2.963
 3899SOL    HW212042   0.949   8.893   3.096
 3900SOL     OW12043   1.351   8.038   3.295
 3900SOL    HW112044   1.379   7.995   3.380
 3900SOL    HW212045   1.376   8.134   3.296
 3901SOL     OW12046   0.803   8.850   2.786
 3901SOL    HW112047   0.893   8.864   2.744
 3901SOL    HW212048   0.732   8.852   2.715
 3902SOL     OW12049   0.922   7.951   2.761
 3902SOL    HW112050   0.897   7.942   2.665
 3902SOL    HW212051   0.970   7.869   2.792
 3903SOL     OW12052   0.539   7.512   2.374
 3903SOL    HW112053   0.458   7.513   2.432
 3903SOL    HW212054   0.542   7.595   2.319
 3904SOL     OW12055   1.434   8.636   1.903
 3904SOL    HW112056   1.466   8.560   1.960
 3904SOL    HW212057   1.342   8.663   1.933
 3905SOL     OW12058   0.297   7.483   2.033
 3905SOL    HW112059   0.346   7.567   2.012
 3905SOL    HW212060   0.359   7.418   2.078
 3906SOL     OW12061   0.935   7.684   2.342
 3906SOL    HW112062   0.887   7.725   2.264
 3906SOL    HW212063   1.034   7.682   2.323
 3907SOL     OW12064   1.076   8.131   3.326
 3907SOL    HW112065   0.996   8.070   3.329
 3907SOL    HW212066   1.157   8.078   3.302
 3908SOL     OW12067   1.227   9.018   2.655
 3908SOL    HW112068   1.248   9.092   2.590
 3908SOL    HW212069   1.295   9.018   2.728
 3909SOL     OW12070   0.459   8.600   2.603
 3909SOL    HW112071   0.388   8.573   2.668
 3909SOL    HW212072   0.433   8.572   2.510
 3910SOL     OW12073   1.032   7.997   1.878
 3910SOL    HW112074   0.991   8.079   1.839
 3910SOL    HW212075   1.096   8.023   1.951
 3911SOL     OW12076   0.078   8.004   3.248
 3911SOL    HW112077   0.170   8.003   3.207
 3911SOL    HW212078   0.072   8.078   3.315
 3912SOL     OW12079   0.561   7.670   3.009
 3912SOL    HW112080   0.599   7.586   3.046
 3912SOL    HW212081   0.473   7.689   3.053
 3913SOL     OW12082   0.866   7.902   2.504
 3913SOL    HW112083   0.834   7.974   2.442
 3913SOL    HW212084   0.890   7.821   2.451
 3914SOL     OW12085   1.017   7.487   2.615
 3914SOL    HW112086   0.945   7.492   2.546
 3914SOL    HW212087   0.993   7.418   2.684
 3915SOL     OW12088   1.429   8.621   2.729
 3915SOL    HW112089   1.374   8.537   2.722
 3915SOL    HW212090   1.455   8.650   2.637
 3916SOL     OW12091   1.466   8.038   2.854
 3916SOL    HW112092   1.436   7.943   2.861
 3916SOL    HW212093   1.539   8.054   2.920
 3917SOL     OW12094   1.857   8.281   2.239
 3917SOL    HW112095   1.899   8.217   2.303
 3917SOL    HW212096   1.819   8.230   2.161
 3918SOL     OW12097   0.488   8.833   2.036
 3918SOL    HW112098   0.401   8.818   2.083
 3918SOL    HW212099   0.471   8.859   1.941
 3919SOL     OW12100   1.664   8.728   2.519
 3919SOL    HW112101   1.763   8.736   2.533
 3919SOL    HW212102   1.619   8.812   2.550
 3920SOL     OW12103   1.390   8.023   1.940
 3920SOL    HW112104   1.336   8.002   2.021
 3920SOL    HW212105   1.481   7.982   1.949
 3921SOL     OW12106   0.527   7.704   2.190
 3921SOL    HW112107   0.554   7.645   2.115
 3921SOL    HW212108   0.527   7.799   2.159
 3922SOL     OW12109   1.754   8.671   3.450
 3922SOL    HW112110   1.845   8.632   3.437
 3922SOL    HW212111   1.762   8.767   3.474
 3923SOL     OW12112   1.064   8.795   3.202
 3923SOL    HW112113   0.984   8.772   3.257
 3923SOL    HW212114   1.147   8.769   3.251
 3924SOL     OW12115   1.592   9.077   3.487
 3924SOL    HW112116   1.619   9.111   3.397
 3924SOL    HW212117   1.671   9.039   3.533
 3925SOL     OW12118   1.111   8.643   2.962
 3925SOL    HW112119   1.071   8.687   3.043
 3925SOL    HW212120   1.070   8.680   2.879
 3926SOL     OW12121   1.638   8.547   2.941
 3926SOL    HW112122   1.643   8.628   3.000
 3926SOL    HW212123   1.552   8.549   2.890
 3927SOL     OW12124   0.915   7.537   3.264
 3927SOL    HW112125   0.940   7.517   3.169
 3927SOL    HW212126   0.987   7.593   3.306
 3928SOL     OW12127   0.980   8.564   3.581
 3928SOL    HW112128   0.881   8.570   3.591
 3928SOL    HW212129   1.003   8.484   3.525
 3929SOL     OW12130   0.705   8.498   2.230
 3929SOL    HW112131   0.691   8.505   2.329
 3929SOL    HW212132   0.789   8.447   2.212
 3930SOL     OW12133   0.410   8.261   3.113
 3930SOL    HW112134   0.496   8.273   3.163
 3930SOL    HW212135   0.368   8.174   3.140
 3931SOL     OW12136   1.274   7.834   3.124
 3931SOL    HW112137   1.295   7.908   3.188
 3931SOL    HW212138   1.185   7.851   3.081
 3932SOL     OW12139   0.064   9.012   3.193
 3932SOL    HW112140   0.018   9.094   3.159
 3932SOL    HW212141   0.162   9.031   3.202
 3933SOL     OW12142   0.367   8.548   2.363
 3933SOL    HW112143   0.360   8.631   2.307
 3933SOL    HW212144   0.371   8.468   2.303
 3934SOL     OW12145   0.566   7.985   2.727
 3934SOL    HW112146   0.578   8.051   2.653
 3934SOL    HW212147   0.612   8.019   2.810
 3935SOL     OW12148   1.252   8.796   2.250
 3935SOL    HW112149   1.302   8.873   2.290
 3935SOL    HW212150   1.157   8.798   2.282
 3936SOL     OW12151   1.272   8.893   3.004
 3936SOL    HW112152   1.319   8.906   3.091
 3936SOL    HW212153   1.206   8.819   3.013
 3937SOL     OW12154   1.582   8.087   2.334
 3937SOL    HW112155   1.551   8.148   2.407
 3937SOL    HW212156   1.632   8.139   2.265
 3938SOL     OW12157   0.354   8.958   3.191
 3938SOL    HW112158   0.333   8.914   3.104
 3938SOL    HW212159   0.451   8.984   3.194
 3939SOL     OW12160   0.402   8.199   3.460
 3939SOL    HW112161   0.470   8.254   3.413
 3939SOL    HW212162   0.442   8.111   3.487
 3940SOL     OW12163   1.587   8.227   3.532
 3940SOL    HW112164   1.495   8.265   3.527
 3940SOL    HW212165   1.647   8.274   3.467
 3941SOL     OW12166   1.013   7.553   3.632
 3941SOL    HW112167   1.019   7.638   3.580
 3941SOL    HW212168   1.045   7.477   3.575
 3942SOL     OW12169   0.504   7.498   3.602
 3942SOL    HW112170   0.462   7.441   3.532
 3942SOL    HW212171   0.438   7.567   3.634
 3943SOL     OW12172   0.573   8.318   2.891
 3943SOL    HW112173   0.617   8.407   2.882
 3943SOL    HW212174   0.510   8.318   2.968
 3944SOL     OW12175   1.360   8.310   2.907
 3944SOL    HW112176   1.285   8.310   2.841
 3944SOL    HW212177   1.397   8.218   2.916
 3945SOL     OW12178   1.209   7.973   2.137
 3945SOL    HW112179   1.222   7.889   2.191
 3945SOL    HW212180   1.180   8.047   2.197
 3946SOL     OW12181   0.307   7.661   3.093
 3946SOL    HW112182   0.284   7.698   3.183
 3946SOL    HW212183   0.277   7.566   3.087
 3947SOL     OW12184   0.037   8.758   3.144
 3947SOL    HW112185   0.090   8.709   3.212
 3947SOL    HW212186   0.059   8.856   3.149
 3948SOL     OW12187   0.732   8.082   2.926
 3948SOL    HW112188   0.791   8.056   2.850
 3948SOL    HW212189   0.704   8.178   2.915
 3949SOL     OW12190   1.728   8.383   3.716
 3949SOL    HW112191   1.682   8.376   3.627
 3949SOL    HW212192   1.666   8.427   3.782
 3950SOL     OW12193   0.307   7.511   2.480
 3950SOL    HW112194   0.296   7.605   2.513
 3950SOL    HW212195   0.302   7.448   2.557
 3951SOL     OW12196   1.622   7.815   2.236
 3951SOL    HW112197   1.624   7.739   2.300
 3951SOL    HW212198   1.574   7.892   2.276
 3952SOL     OW12199   1.023   8.214   2.828
 3952SOL    HW112200   1.038   8.235   2.924
 3952SOL    HW212201   0.993   8.119   2.819
 3953SOL     OW12202   0.980   9.021   3.562
 3953SOL    HW112203   0.960   9.065   3.474
 3953SOL    HW212204   1.019   8.930   3.546
 3954SOL     OW12205   1.859   8.966   3.467
 3954SOL    HW112206   1.873   8.993   3.372
 3954SOL    HW212207   1.942   8.988   3.520
 3955SOL     OW12208   0.350   8.346   3.666
 3955SOL    HW112209   0.426   8.390   3.714
 3955SOL    HW212210   0.385   8.299   3.584
 3956SOL     OW12211   1.540   7.722   1.987
 3956SOL    HW112212   1.479   7.647   2.010
 3956SOL    HW212213   1.562   7.774   2.070
 3957SOL     OW12214   1.303   8.286   1.904
 3957SOL    HW112215   1.337   8.193   1.919
 3957SOL    HW212216   1.321   8.313   1.809
 3958SOL     OW12217   1.068   8.781   2.711
 3958SOL    HW112218   1.075   8.697   2.656
 3958SOL    HW212219   1.130   8.850   2.675
 3959SOL     OW12220   0.319   8.258   2.811
 3959SOL    HW112221   0.412   8.294   2.816
 3959SOL    HW212222   0.313   8.173   2.863
 3960SOL     OW12223   0.339   7.957   2.868
 3960SOL    HW112224   0.287   7.874   2.851
 3960SOL    HW212225   0.416   7.962   2.804
 3961SOL     OW12226   1.138   7.828   3.540
 3961SOL    HW112227   1.093   7.891   3.604
 3961SOL    HW212228   1.231   7.859   3.523
 3962SOL     OW12229   1.160   7.655   3.339
 3962SOL    HW112230   1.160   7.719   3.416
 3962SOL    HW212231   1.188   7.703   3.256
 3963SOL     OW12232   0.008   8.774   2.062
 3963SOL    HW112233  -0.085   8.795   2.031
 3963SOL    HW212234   0.018   8.675   2.075
 3964SOL     OW12235   0.504   9.016   2.772
 3964SOL    HW112236   0.570   9.090   2.781
 3964SOL    HW212237   0.548   8.937   2.730
 3965SOL     OW12238   1.002   8.244   3.100
 3965SOL    HW112239   1.043   8.212   3.186
 3965SOL    HW212240   0.906   8.217   3.097
 3966SOL     OW12241   0.040   7.992   2.976
 3966SOL    HW112242   0.125   7.959   2.935
 3966SOL    HW212243   0.053   8.007   3.074
 3967SOL     OW12244   0.189   7.968   3.584
 3967SOL    HW112245   0.248   7.928   3.514
 3967SOL    HW212246   0.131   8.039   3.543
 3968SOL     OW12247   1.369   8.398   3.522
 3968SOL    HW112248   1.408   8.487   3.542
 3968SOL    HW212249   1.379   8.378   3.425
 3969SOL     OW12250   0.815   8.020   2.187
 3969SOL    HW112251   0.822   7.931   2.141
 3969SOL    HW212252   0.721   8.054   2.179
 3970SOL     OW12253   1.657   8.052   3.068
 3970SOL    HW112254   1.619   7.983   3.130
 3970SOL    HW212255   1.739   8.016   3.024
 3971SOL     OW12256   0.252   9.012   3.606
 3971SOL    HW112257   0.222   9.069   3.682
 3971SOL    HW212258   0.245   8.915   3.632
 3972SOL     OW12259   0.671   7.912   3.131
 3972SOL    HW112260   0.637   7.823   3.101
 3972SOL    HW212261   0.697   7.966   3.051
 3973SOL     OW12262   0.930   9.126   3.327
 3973SOL    HW112263   0.906   9.108   3.232
 3973SOL    HW212264   0.960   9.220   3.337
 3974SOL     OW12265   0.473   7.948   2.053
 3974SOL    HW112266   0.534   8.028   2.057
 3974SOL    HW212267   0.378   7.979   2.060
 3975SOL     OW12268   0.159   8.585   3.328
 3975SOL    HW112269   0.181   8.524   3.404
 3975SOL    HW212270   0.169   8.536   3.242
 3976SOL     OW12271   1.347   8.507   3.096
 3976SOL    HW112272   1.371   8.444   3.022
 3976SOL    HW212273   1.257   8.547   3.078
 3977SOL     OW12274   1.302   8.303   2.171
 3977SOL    HW112275   1.216   8.272   2.213
 3977SOL    HW212276   1.298   8.289   2.072
 3978SOL     OW12277   1.759   9.195   3.016
 3978SOL    HW112278   1.820   9.225   2.943
 3978SOL    HW212279   1.721   9.106   2.994
 3979SOL     OW12280   1.252   9.179   2.990
 3979SOL    HW112281   1.336   9.184   2.936
 3979SOL    HW212282   1.229   9.083   3.008
 3980SOL     OW12283   0.083   8.706   2.884
 3980SOL    HW112284   0.078   8.705   2.984
 3980SOL    HW212285   0.000   8.665   2.846
 3981SOL     OW12286   0.688   9.110   3.578
 3981SOL    HW112287   0.632   9.191   3.587
 3981SOL    HW212288   0.740   9.114   3.492
 3982SOL     OW12289   1.726   7.583   2.385
 3982SOL    HW112290   1.799   7.566   2.318
 3982SOL    HW212291   1.695   7.496   2.423
 3983SOL     OW12292   1.388   9.021   2.339
 3983SOL    HW112293   1.455   9.033   2.265
 3983SOL    HW212294   1.348   9.110   2.362
 3984SOL     OW12295   1.280   8.375   2.534
 3984SOL    HW112296   1.340   8.294   2.536
 3984SOL    HW212297   1.320   8.444   2.474
 3985SOL     OW12298   0.830   8.721   3.284
 3985SOL    HW112299   0.825   8.754   3.379
 3985SOL    HW212300   0.744   8.740   3.238
 3986SOL     OW12301   0.672   9.064   2.016
 3986SOL    HW112302   0.681   9.074   1.917
 3986SOL    HW212303   0.632   8.975   2.037
 3987SOL     OW12304   1.841   7.623   2.825
 3987SOL    HW112305   1.880   7.538   2.789
 3987SOL    HW212306   1.743   7.625   2.806
 3988SOL     OW12307   0.263   7.774   2.582
 3988SOL    HW112308   0.184   7.825   2.548
 3988SOL    HW212309   0.254   7.759   2.680
 3989SOL     OW12310   1.194   9.060   1.893
 3989SOL    HW112311   1.200   8.967   1.930
 3989SOL    HW212312   1.135   9.060   1.813
 3990SOL     OW12313   0.822   8.450   3.234
 3990SOL    HW112314   0.862   8.449   3.142
 3990SOL    HW212315   0.832   8.542   3.274
 3991SOL     OW12316   0.916   8.358   2.153
 3991SOL    HW112317   0.979   8.396   2.085
 3991SOL    HW212318   0.956   8.275   2.192
 3992SOL     OW12319   1.504   9.055   1.906
 3992SOL    HW112320   1.412   9.092   1.913
 3992SOL    HW212321   1.542   9.075   1.816
 3993SOL     OW12322   0.372   8.736   3.352
 3993SOL    HW112323   0.359   8.829   3.318
 3993SOL    HW212324   0.288   8.684   3.339
 3994SOL     OW12325   1.614   8.740   3.151
 3994SOL    HW112326   1.674   8.743   3.231
 3994SOL    HW212327   1.539   8.804   3.164
 3995SOL     OW12328   1.039   8.546   2.558
 3995SOL    HW112329   0.969   8.499   2.612
 3995SOL    HW212330   1.098   8.478   2.515
 3996SOL     OW12331   1.014   7.684   2.833
 3996SOL    HW112332   1.006   7.648   2.740
 3996SOL    HW212333   1.012   7.608   2.898
 3997SOL     OW12334   0.590   8.935   2.353
 3997SOL    HW112335   0.632   8.877   2.283
 3997SOL    HW212336   0.546   9.014   2.309
 3998SOL     OW12337   1.709   7.833   3.243
 3998SOL    HW112338   1.782   7.902   3.247
 3998SOL    HW212339   1.737   7.758   3.184
 3999SOL     OW12340   0.255   8.796   2.152
 3999SOL    HW112341   0.159   8.797   2.125
 3999SOL    HW212342   0.267   8.849   2.236
 4000SOL     OW12343   0.105   8.461   3.588
 4000SOL    HW112344   0.028   8.428   3.642
 4000SOL    HW212345   0.190   8.431   3.630
 4001SOL     OW12346   0.672   7.651   3.351
 4001SOL    HW112347   0.762   7.635   3.311
 4001SOL    HW212348   0.680   7.656   3.450
 4002SOL     OW12349   0.075   7.793   1.895
 4002SOL    HW112350  -0.017   7.765   1.866
 4002SOL    HW212351   0.106   7.870   1.839
 4003SOL     OW12352   1.440   8.304   3.260
 4003SOL    HW112353   1.383   8.356   3.197
 4003SOL    HW212354   1.536   8.316   3.236
 4004SOL     OW12355   0.072   7.614   2.180
 4004SOL    HW112356   0.055   7.697   2.126
 4004SOL    HW212357   0.162   7.577   2.158
 4005SOL     OW12358   1.183   8.783   1.981
 4005SOL    HW112359   1.084   8.772   1.983
 4005SOL    HW212360   1.217   8.798   2.074
 4006SOL     OW12361   0.613   8.290   3.293
 4006SOL    HW112362   0.669   8.371   3.276
 4006SOL    HW212363   0.672   8.210   3.296
 4007SOL     OW12364   0.716   8.013   3.570
 4007SOL    HW112365   0.735   8.078   3.644
 4007SOL    HW212366   0.776   7.933   3.579
 4008SOL     OW12367   1.450   8.668   3.495
 4008SOL    HW112368   1.441   8.658   3.594
 4008SOL    HW212369   1.546   8.661   3.469
 4009SOL     OW12370   0.390   9.189   3.422
 4009SOL    HW112371   0.299   9.230   3.420
 4009SOL    HW212372   0.383   9.095   3.454
 4010SOL     OW12373   1.674   8.331   3.116
 4010SOL    HW112374   1.647   8.242   3.079
 4010SOL    HW212375   1.675   8.399   3.043
 4011SOL     OW12376   1.225   7.773   2.311
 4011SOL    HW112377   1.290   7.699   2.300
 4011SOL    HW212378   1.245   7.823   2.395
 4012SOL     OW12379   0.594   8.193   2.514
 4012SOL    HW112380   0.644   8.278   2.495
 4012SOL    HW212381   0.506   8.195   2.466
 4013SOL     OW12382   1.777   7.790   3.504
 4013SOL    HW112383   1.760   7.821   3.410
 4013SOL    HW212384   1.693   7.753   3.542
 4014SOL     OW12385   1.730   8.382   3.379
 4014SOL    HW112386   1.768   8.473   3.394
 4014SOL    HW212387   1.722   8.365   3.280
 4015SOL     OW12388   0.859   8.822   1.878
 4015SOL    HW112389   0.813   8.837   1.966
 4015SOL    HW212390   0.903   8.907   1.848
 4016SOL     OW12391   0.859   8.404   2.723
 4016SOL    HW112392   0.913   8.335   2.771
 4016SOL    HW212393   0.827   8.473   2.789
 4017SOL     OW12394   1.083   8.432   1.949
 4017SOL    HW112395   1.060   8.485   1.867
 4017SOL    HW212396   1.164   8.376   1.930
 4018SOL     OW12397   1.861   9.017   2.713
 4018SOL    HW112398   1.790   9.005   2.643
 4018SOL    HW212399   1.862   8.938   2.773
 4019SOL     OW12400   0.221   8.762   3.706
 4019SOL    HW112401   0.156   8.689   3.685
 4019SOL    HW212402   0.225   8.776   3.804
 4020SOL     OW12403   0.079   8.688   2.515
 4020SOL    HW112404   0.078   8.641   2.603
 4020SOL    HW212405   0.161   8.660   2.464
 4021SOL     OW12406   0.672   8.839   3.486
 4021SOL    HW112407   0.594   8.789   3.524
 4021SOL    HW212408   0.669   8.934   3.517
 4022SOL     OW12409   1.824   7.640   3.089
 4022SOL    HW112410   1.820   7.550   3.133
 4022SOL    HW212411   1.827   7.629   2.990
 4023SOL     OW12412   0.428   7.872   2.382
 4023SOL    HW112413   0.458   7.800   2.320
 4023SOL    HW212414   0.389   7.832   2.465
 4024SOL     OW12415   1.705   8.935   2.966
 4024SOL    HW112416   1.612   8.910   2.939
 4024SOL    HW212417   1.731   8.885   3.048
 4025SOL     OW12418   0.317   7.995   3.142
 4025SOL    HW112419   0.355   7.936   3.214
 4025SOL    HW212420   0.357   7.969   3.054
 4026SOL     OW12421   0.812   9.034   2.549
 4026SOL    HW112422   0.844   9.044   2.455
 4026SOL    HW212423   0.733   8.972   2.551
 4027SOL     OW12424   1.424   7.662   2.974
 4027SOL    HW112425   1.476   7.597   3.029
 4027SOL    HW212426   1.375   7.725   3.035
 4028SOL     OW12427   1.001   7.482   3.016
 4028SOL    HW112428   0.938   7.410   2.985
 4028SOL    HW212429   1.094   7.446   3.016
 4029SOL     OW12430   0.770   8.778   2.163
 4029SOL    HW112431   0.724   8.691   2.180
 4029SOL    HW212432   0.861   8.775   2.204
 4030SOL     OW12433   0.618   9.015   3.146
 4030SOL    HW112434   0.613   9.097   3.203
 4030SOL    HW212435   0.707   9.012   3.101
 4031SOL     OW12436   1.352   7.500   2.030
 4031SOL    HW112437   1.387   7.459   1.946
 4031SOL    HW212438   1.262   7.462   2.050
 4032SOL     OW12439   1.300   7.901   2.553
 4032SOL    HW112440   1.241   7.981   2.557
 4032SOL    HW212441   1.315   7.866   2.646
 4033SOL     OW12442   1.593   7.669   2.744
 4033SOL    HW112443   1.509   7.668   2.798
 4033SOL    HW212444   1.595   7.752   2.688
 4034SOL     OW12445   0.039   8.525   2.162
 4034SOL    HW112446   0.138   8.514   2.153
 4034SOL    HW212447  -0.001   8.439   2.194
 4035SOL     OW12448   0.875   9.094   2.199
 4035SOL    HW112449   0.798   9.059   2.145
 4035SOL    HW212450   0.843   9.165   2.261
 4036SOL     OW12451   0.230   8.076   3.837
 4036SOL    HW112452   0.137   8.074   3.874
 4036SOL    HW212453   0.231   8.037   3.745
 4037SOL     OW12454   0.225   7.723   4.720
 4037SOL    HW112455   0.260   7.706   4.812
 4037SOL    HW212456   0.137   7.678   4.708
 4038SOL     OW12457   0.019   7.816   4.371
 4038SOL    HW112458  -0.063   7.859   4.410
 4038SOL    HW212459  -0.009   7.743   4.308
 4039SOL     OW12460   0.569   8.723   4.889
 4039SOL    HW112461   0.476   8.716   4.852
 4039SOL    HW212462   0.580   8.812   4.933
 4040SOL     OW12463   1.555   8.959   4.427
 4040SOL    HW112464   1.498   8.943   4.508
 4040SOL    HW212465   1.496   8.969   4.347
 4041SOL     OW12466   1.135   8.151   4.441
 4041SOL    HW112467   1.192   8.229   4.416
 4041SOL    HW212468   1.075   8.177   4.517
 4042SOL     OW12469   1.755   8.055   3.955
 4042SOL    HW112470   1.743   8.042   3.856
 4042SOL    HW212471   1.725   7.974   4.004
 4043SOL     OW12472   0.768   8.592   4.747
 4043SOL    HW112473   0.690   8.609   4.807
 4043SOL    HW212474   0.802   8.679   4.711
 4044SOL     OW12475   0.850   8.246   5.547
 4044SOL    HW112476   0.846   8.322   5.612
 4044SOL    HW212477   0.872   8.282   5.456
 4045SOL     OW12478   0.685   8.460   4.389
 4045SOL    HW112479   0.754   8.444   4.459
 4045SOL    HW212480   0.612   8.517   4.427
 4046SOL     OW12481   0.686   8.609   5.527
 4046SOL    HW112482   0.746   8.688   5.541
 4046SOL    HW212483   0.600   8.640   5.486
 4047SOL     OW12484   0.335   8.883   4.785
 4047SOL    HW112485   0.257   8.852   4.732
 4047SOL    HW212486   0.393   8.941   4.728
 4048SOL     OW12487   1.460   8.953   5.063
 4048SOL    HW112488   1.484   9.047   5.089
 4048SOL    HW212489   1.444   8.899   5.145
 4049SOL     OW12490   0.438   7.840   5.223
 4049SOL    HW112491   0.520   7.784   5.232
 4049SOL    HW212492   0.357   7.782   5.227
 4050SOL     OW12493   1.603   7.895   4.461
 4050SOL    HW112494   1.529   7.941   4.411
 4050SOL    HW212495   1.654   7.963   4.514
 4051SOL     OW12496   1.127   8.789   5.414
 4051SOL    HW112497   1.174   8.789   5.502
 4051SOL    HW212498   1.079   8.702   5.403
 4052SOL     OW12499   0.230   8.882   4.262
 4052SOL    HW112500   0.204   8.978   4.262
 4052SOL    HW212501   0.159   8.828   4.307
 4053SOL     OW12502   0.240   8.539   4.610
 4053SOL    HW112503   0.254   8.455   4.662
 4053SOL    HW212504   0.185   8.603   4.665
 4054SOL     OW12505   0.606   8.412   3.847
 4054SOL    HW112506   0.613   8.496   3.793
 4054SOL    HW212507   0.652   8.425   3.935
 4055SOL     OW12508   1.594   7.562   5.204
 4055SOL    HW112509   1.576   7.629   5.132
 4055SOL    HW212510   1.591   7.608   5.293
 4056SOL     OW12511   0.122   8.091   4.287
 4056SOL    HW112512   0.077   8.003   4.304
 4056SOL    HW212513   0.121   8.145   4.371
 4057SOL     OW12514   0.027   9.044   3.841
 4057SOL    HW112515   0.008   8.948   3.862
 4057SOL    HW212516  -0.006   9.102   3.916
 4058SOL     OW12517   1.689   8.370   4.336
 4058SOL    HW112518   1.784   8.341   4.344
 4058SOL    HW212519   1.681   8.435   4.261
 4059SOL     OW12520   1.641   8.556   4.156
 4059SOL    HW112521   1.727   8.558   4.104
 4059SOL    HW212522   1.655   8.603   4.244
 4060SOL     OW12523   0.113   8.185   5.321
 4060SOL    HW112524   0.201   8.172   5.366
 4060SOL    HW212525   0.100   8.282   5.299
 4061SOL     OW12526   0.613   8.813   4.450
 4061SOL    HW112527   0.564   8.726   4.459
 4061SOL    HW212528   0.590   8.856   4.363
 4062SOL     OW12529   1.293   8.676   5.147
 4062SOL    HW112530   1.330   8.603   5.089
 4062SOL    HW212531   1.345   8.681   5.232
 4063SOL     OW12532   0.809   7.452   4.226
 4063SOL    HW112533   0.849   7.543   4.217
 4063SOL    HW212534   0.709   7.460   4.232
 4064SOL     OW12535   0.197   8.424   4.988
 4064SOL    HW112536   0.286   8.379   4.974
 4064SOL    HW212537   0.124   8.359   4.969
 4065SOL     OW12538   1.525   8.447   3.914
 4065SOL    HW112539   1.462   8.371   3.927
 4065SOL    HW212540   1.573   8.465   4.000
 4066SOL     OW12541   1.187   9.240   5.340
 4066SOL    HW112542   1.211   9.300   5.264
 4066SOL    HW212543   1.194   9.145   5.310
 4067SOL     OW12544   0.317   7.699   5.525
 4067SOL    HW112545   0.388   7.770   5.531
 4067SOL    HW212546   0.229   7.738   5.553
 4068SOL     OW12547   1.466   8.865   4.677
 4068SOL    HW112548   1.407   8.871   4.757
 4068SOL    HW212549   1.451   8.777   4.631
 4069SOL     OW12550   1.667   9.162   4.296
 4069SOL    HW112551   1.626   9.139   4.208
 4069SOL    HW212552   1.649   9.088   4.361
 4070SOL     OW12553   0.598   8.177   3.994
 4070SOL    HW112554   0.622   8.246   3.926
 4070SOL    HW212555   0.520   8.210   4.048
 4071SOL     OW12556   1.281   7.793   4.668
 4071SOL    HW112557   1.195   7.743   4.655
 4071SOL    HW212558   1.343   7.739   4.724
 4072SOL     OW12559   1.576   9.110   4.031
 4072SOL    HW112560   1.665   9.156   4.034
 4072SOL    HW212561   1.555   9.086   3.936
 4073SOL     OW12562   0.807   8.053   5.189
 4073SOL    HW112563   0.760   8.050   5.278
 4073SOL    HW212564   0.756   7.998   5.123
 4074SOL     OW12565   1.394   7.917   5.398
 4074SOL    HW112566   1.374   7.960   5.486
 4074SOL    HW212567   1.472   7.855   5.407
 4075SOL     OW12568   0.973   8.338   5.296
 4075SOL    HW112569   1.019   8.254   5.267
 4075SOL    HW212570   0.917   8.372   5.221
 4076SOL     OW12571   0.991   7.858   4.966
 4076SOL    HW112572   0.914   7.892   5.020
 4076SOL    HW212573   0.957   7.807   4.887
 4077SOL     OW12574   1.041   8.149   4.153
 4077SOL    HW112575   1.067   8.145   4.249
 4077SOL    HW212576   0.956   8.098   4.139
 4078SOL     OW12577   0.076   8.259   4.513
 4078SOL    HW112578   0.175   8.247   4.522
 4078SOL    HW212579   0.052   8.354   4.534
 4079SOL     OW12580   0.865   7.796   3.919
 4079SOL    HW112581   0.924   7.859   3.870
 4079SOL    HW212582   0.884   7.702   3.890
 4080SOL     OW12583   1.719   8.033   5.555
 4080SOL    HW112584   1.693   8.122   5.519
 4080SOL    HW212585   1.717   7.965   5.482
 4081SOL     OW12586   1.362   8.592   4.269
 4081SOL    HW112587   1.445   8.563   4.221
 4081SOL    HW212588   1.313   8.659   4.213
 4082SOL     OW12589   0.550   7.644   4.609
 4082SOL    HW112590   0.545   7.639   4.709
 4082SOL    HW212591   0.552   7.740   4.580
 4083SOL     OW12592   1.008   8.904   4.201
 4083SOL    HW112593   0.962   8.976   4.149
 4083SOL    HW212594   1.004   8.924   4.299
 4084SOL     OW12595   1.227   8.998   5.230
 4084SOL    HW112596   1.233   8.921   5.294
 4084SOL    HW212597   1.175   8.972   5.150
 4085SOL     OW12598   0.321   8.391   3.966
 4085SOL    HW112599   0.403   8.430   3.924
 4085SOL    HW212600   0.294   8.309   3.917
 4086SOL     OW12601   1.458   8.183   4.452
 4086SOL    HW112602   1.453   8.118   4.527
 4086SOL    HW212603   1.538   8.242   4.465
 4087SOL     OW12604   0.461   8.714   5.451
 4087SOL    HW112605   0.411   8.715   5.365
 4087SOL    HW212606   0.398   8.696   5.527
 4088SOL     OW12607   0.202   7.733   5.222
 4088SOL    HW112608   0.122   7.793   5.209
 4088SOL    HW212609   0.192   7.684   5.308
 4089SOL     OW12610   1.632   8.825   3.805
 4089SOL    HW112611   1.600   8.919   3.795
 4089SOL    HW212612   1.556   8.762   3.793
 4090SOL     OW12613   0.940   9.146   4.628
 4090SOL    HW112614   1.020   9.089   4.649
 4090SOL    HW212615   0.891   9.106   4.551
 4091SOL     OW12616   0.382   8.148   4.204
 4091SOL    HW112617   0.427   8.058   4.201
 4091SOL    HW212618   0.288   8.137   4.237
 4092SOL     OW12619   1.547   7.670   5.453
 4092SOL    HW112620   1.542   7.707   5.545
 4092SOL    HW212621   1.475   7.601   5.441
 4093SOL     OW12622   0.614   7.570   3.841
 4093SOL    HW112623   0.712   7.548   3.848
 4093SOL    HW212624   0.583   7.553   3.748
 4094SOL     OW12625   0.781   7.712   5.473
 4094SOL    HW112626   0.848   7.651   5.516
 4094SOL    HW212627   0.708   7.731   5.538
 4095SOL     OW12628   0.888   8.962   4.919
 4095SOL    HW112629   0.865   8.937   4.825
 4095SOL    HW212630   0.949   8.893   4.958
 4096SOL     OW12631   1.351   8.038   5.157
 4096SOL    HW112632   1.379   7.995   5.242
 4096SOL    HW212633   1.376   8.134   5.158
 4097SOL     OW12634   0.803   8.850   4.648
 4097SOL    HW112635   0.893   8.864   4.606
 4097SOL    HW212636   0.732   8.852   4.577
 4098SOL     OW12637   0.922   7.951   4.623
 4098SOL    HW112638   0.897   7.942   4.527
 4098SOL    HW212639   0.970   7.869   4.654
 4099SOL     OW12640   0.539   7.512   4.236
 4099SOL    HW112641   0.458   7.513   4.294
 4099SOL    HW212642   0.542   7.595   4.181
 4100SOL     OW12643   1.434   8.636   3.765
 4100SOL    HW112644   1.466   8.560   3.822
 4100SOL    HW212645   1.342   8.663   3.795
 4101SOL     OW12646   0.297   7.483   3.895
 4101SOL    HW112647   0.346   7.567   3.874
 4101SOL    HW212648   0.359   7.418   3.940
 4102SOL     OW12649   0.935   7.684   4.204
 4102SOL    HW112650   0.887   7.725   4.126
 4102SOL    HW212651   1.034   7.682   4.185
 4103SOL     OW12652   1.076   8.131   5.188
 4103SOL    HW112653   0.996   8.070   5.191
 4103SOL    HW212654   1.157   8.078   5.164
 4104SOL     OW12655   1.227   9.018   4.517
 4104SOL    HW112656   1.248   9.092   4.452
 4104SOL    HW212657   1.295   9.018   4.590
 4105SOL     OW12658   0.459   8.600   4.465
 4105SOL    HW112659   0.388   8.573   4.530
 4105SOL    HW212660   0.433   8.572   4.372
 4106SOL     OW12661   1.032   7.997   3.740
 4106SOL    HW112662   0.991   8.079   3.701
 4106SOL    HW212663   1.096   8.023   3.813
 4107SOL     OW12664   0.078   8.004   5.110
 4107SOL    HW112665   0.170   8.003   5.069
 4107SOL    HW212666   0.072   8.078   5.177
 4108SOL     OW12667   0.561   7.670   4.871
 4108SOL    HW112668   0.599   7.586   4.908
 4108SOL    HW212669   0.473   7.689   4.915
 4109SOL     OW12670   0.866   7.902   4.366
 4109SOL    HW112671   0.834   7.974   4.304
 4109SOL    HW212672   0.890   7.821   4.313
 4110SOL     OW12673   1.017   7.487   4.477
 4110SOL    HW112674   0.945   7.492   4.408
 4110SOL    HW212675   0.993   7.418   4.546
 4111SOL     OW12676   1.429   8.621   4.591
 4111SOL    HW112677   1.374   8.537   4.584
 4111SOL    HW212678   1.455   8.650   4.499
 4112SOL     OW12679   1.466   8.038   4.716
 4112SOL    HW112680   1.436   7.943   4.723
 4112SOL    HW212681   1.539   8.054   4.782
 4113SOL     OW12682   1.857   8.281   4.101
 4113SOL    HW112683   1.899   8.217   4.165
 4113SOL    HW212684   1.819   8.230   4.023
 4114SOL     OW12685   0.488   8.833   3.898
 4114SOL    HW112686   0.401   8.818   3.945
 4114SOL    HW212687   0.471   8.859   3.803
 4115SOL     OW12688   1.664   8.728   4.381
 4115SOL    HW112689   1.763   8.736   4.395
 4115SOL    HW212690   1.619   8.812   4.412
 4116SOL     OW12691   1.390   8.023   3.802
 4116SOL    HW112692   1.336   8.002   3.883
 4116SOL    HW212693   1.481   7.982   3.811
 4117SOL     OW12694   0.527   7.704   4.052
 4117SOL    HW112695   0.554   7.645   3.977
 4117SOL    HW212696   0.527   7.799   4.021
 4118SOL     OW12697   1.754   8.671   5.312
 4118SOL    HW112698   1.845   8.632   5.299
 4118SOL    HW212699   1.762   8.767   5.336
 4119SOL     OW12700   1.064   8.795   5.064
 4119SOL    HW112701   0.984   8.772   5.119
 4119SOL    HW212702   1.147   8.769   5.113
 4120SOL     OW12703   1.592   9.077   5.349
 4120SOL    HW112704   1.619   9.111   5.259
 4120SOL    HW212705   1.671   9.039   5.395
 4121SOL     OW12706   1.111   8.643   4.824
 4121SOL    HW112707   1.071   8.687   4.905
 4121SOL    HW212708   1.070   8.680   4.741
 4122SOL     OW12709   1.638   8.547   4.803
 4122SOL    HW112710   1.643   8.628   4.862
 4122SOL    HW212711   1.552   8.549   4.752
 4123SOL     OW12712   0.915   7.537   5.126
 4123SOL    HW112713   0.940   7.517   5.031
 4123SOL    HW212714   0.987   7.593   5.168
 4124SOL     OW12715   0.980   8.564   5.443
 4124SOL    HW112716   0.881   8.570   5.453
 4124SOL    HW212717   1.003   8.484   5.387
 4125SOL     OW12718   0.705   8.498   4.092
 4125SOL    HW112719   0.691   8.505   4.191
 4125SOL    HW212720   0.789   8.447   4.074
 4126SOL     OW12721   0.410   8.261   4.975
 4126SOL    HW112722   0.496   8.273   5.025
 4126SOL    HW212723   0.368   8.174   5.002
 4127SOL     OW12724   1.274   7.834   4.986
 4127SOL    HW112725   1.295   7.908   5.050
 4127SOL    HW212726   1.185   7.851   4.943
 4128SOL     OW12727   0.064   9.012   5.055
 4128SOL    HW112728   0.018   9.094   5.021
 4128SOL    HW212729   0.162   9.031   5.064
 4129SOL     OW12730   0.367   8.548   4.225
 4129SOL    HW112731   0.360   8.631   4.169
 4129SOL    HW212732   0.371   8.468   4.165
 4130SOL     OW12733   0.566   7.985   4.589
 4130SOL    HW112734   0.578   8.051   4.515
 4130SOL    HW212735   0.612   8.019   4.672
 4131SOL     OW12736   1.252   8.796   4.112
 4131SOL    HW112737   1.302   8.873   4.152
 4131SOL    HW212738   1.157   8.798   4.144
 4132SOL     OW12739   1.272   8.893   4.866
 4132SOL    HW112740   1.319   8.906   4.953
 4132SOL    HW212741   1.206   8.819   4.875
 4133SOL     OW12742   1.582   8.087   4.196
 4133SOL    HW112743   1.551   8.148   4.269
 4133SOL    HW212744   1.632   8.139   4.127
 4134SOL     OW12745   0.354   8.958   5.053
 4134SOL    HW112746   0.333   8.914   4.966
 4134SOL    HW212747   0.451   8.984   5.056
 4135SOL     OW12748   0.402   8.199   5.322
 4135SOL    HW112749   0.470   8.254   5.275
 4135SOL    HW212750   0.442   8.111   5.349
 4136SOL     OW12751   1.587   8.227   5.394
 4136SOL    HW112752   1.495   8.265   5.389
 4136SOL    HW212753   1.647   8.274   5.329
 4137SOL     OW12754   1.013   7.553   5.494
 4137SOL    HW112755   1.019   7.638   5.442
 4137SOL    HW212756   1.045   7.477   5.437
 4138SOL     OW12757   0.504   7.498   5.464
 4138SOL    HW112758   0.462   7.441   5.394
 4138SOL    HW212759   0.438   7.567   5.496
 4139SOL     OW12760   0.573   8.318   4.753
 4139SOL    HW112761   0.617   8.407   4.744
 4139SOL    HW212762   0.510   8.318   4.830
 4140SOL     OW12763   1.360   8.310   4.769
 4140SOL    HW112764   1.285   8.310   4.703
 4140SOL    HW212765   1.397   8.218   4.778
 4141SOL     OW12766   1.209   7.973   3.999
 4141SOL    HW112767   1.222   7.889   4.053
 4141SOL    HW212768   1.180   8.047   4.059
 4142SOL     OW12769   0.307   7.661   4.955
 4142SOL    HW112770   0.284   7.698   5.045
 4142SOL    HW212771   0.277   7.566   4.949
 4143SOL     OW12772   0.037   8.758   5.006
 4143SOL    HW112773   0.090   8.709   5.074
 4143SOL    HW212774   0.059   8.856   5.011
 4144SOL     OW12775   0.732   8.082   4.788
 4144SOL    HW112776   0.791   8.056   4.712
 4144SOL    HW212777   0.704   8.178   4.777
 4145SOL     OW12778   1.728   8.383   5.578
 4145SOL    HW112779   1.682   8.376   5.489
 4145SOL    HW212780   1.666   8.427   5.644
 4146SOL     OW12781   0.307   7.511   4.342
 4146SOL    HW112782   0.296   7.605   4.375
 4146SOL    HW212783   0.302   7.448   4.419
 4147SOL     OW12784   1.622   7.815   4.098
 4147SOL    HW112785   1.624   7.739   4.162
 4147SOL    HW212786   1.574   7.892   4.138
 4148SOL     OW12787   1.023   8.214   4.690
 4148SOL    HW112788   1.038   8.235   4.786
 4148SOL    HW212789   0.993   8.119   4.681
 4149SOL     OW12790   0.980   9.021   5.424
 4149SOL    HW112791   0.960   9.065   5.336
 4149SOL    HW212792   1.019   8.930   5.408
 4150SOL     OW12793   1.859   8.966   5.329
 4150SOL    HW112794   1.873   8.993   5.234
 4150SOL    HW212795   1.942   8.988   5.382
 4151SOL     OW12796   0.350   8.346   5.528
 4151SOL    HW112797   0.426   8.390   5.576
 4151SOL    HW212798   0.385   8.299   5.446
 4152SOL     OW12799   1.540   7.722   3.849
 4152SOL    HW112800   1.479   7.647   3.872
 4152SOL    HW212801   1.562   7.774   3.932
 4153SOL     OW12802   1.303   8.286   3.766
 4153SOL    HW112803   1.337   8.193   3.781
 4153SOL    HW212804   1.321   8.313   3.671
 4154SOL     OW12805   1.068   8.781   4.573
 4154SOL    HW112806   1.075   8.697   4.518
 4154SOL    HW212807   1.130   8.850   4.537
 4155SOL     OW12808   0.319   8.258   4.673
 4155SOL    HW112809   0.412   8.294   4.678
 4155SOL    HW212810   0.313   8.173   4.725
 4156SOL     OW12811   0.339   7.957   4.730
 4156SOL    HW112812   0.287   7.874   4.713
 4156SOL    HW212813   0.416   7.962   4.666
 4157SOL     OW12814   1.138   7.828   5.402
 4157SOL    HW112815   1.093   7.891   5.466
 4157SOL    HW212816   1.231   7.859   5.385
 4158SOL     OW12817   1.160   7.655   5.201
 4158SOL    HW112818   1.160   7.719   5.278
 4158SOL    HW212819   1.188   7.703   5.118
 4159SOL     OW12820   0.008   8.774   3.924
 4159SOL    HW112821  -0.085   8.795   3.893
 4159SOL    HW212822   0.018   8.675   3.937
 4160SOL     OW12823   0.504   9.016   4.634
 4160SOL    HW112824   0.570   9.090   4.643
 4160SOL    HW212825   0.548   8.937   4.592
 4161SOL     OW12826   1.002   8.244   4.962
 4161SOL    HW112827   1.043   8.212   5.048
 4161SOL    HW212828   0.906   8.217   4.959
 4162SOL     OW12829   0.040   7.992   4.838
 4162SOL    HW112830   0.125   7.959   4.797
 4162SOL    HW212831   0.053   8.007   4.936
 4163SOL     OW12832   0.189   7.968   5.446
 4163SOL    HW112833   0.248   7.928   5.376
 4163SOL    HW212834   0.131   8.039   5.405
 4164SOL     OW12835   1.369   8.398   5.384
 4164SOL    HW112836   1.408   8.487   5.404
 4164SOL    HW212837   1.379   8.378   5.287
 4165SOL     OW12838   0.815   8.020   4.049
 4165SOL    HW112839   0.822   7.931   4.003
 4165SOL    HW212840   0.721   8.054   4.041
 4166SOL     OW12841   1.657   8.052   4.930
 4166SOL    HW112842   1.619   7.983   4.992
 4166SOL    HW212843   1.739   8.016   4.886
 4167SOL     OW12844   0.252   9.012   5.468
 4167SOL    HW112845   0.222   9.069   5.544
 4167SOL    HW212846   0.245   8.915   5.494
 4168SOL     OW12847   0.671   7.912   4.993
 4168SOL    HW112848   0.637   7.823   4.963
 4168SOL    HW212849   0.697   7.966   4.913
 4169SOL     OW12850   0.930   9.126   5.189
 4169SOL    HW112851   0.906   9.108   5.094
 4169SOL    HW212852   0.960   9.220   5.199
 4170SOL     OW12853   0.473   7.948   3.915
 4170SOL    HW112854   0.534   8.028   3.919
 4170SOL    HW212855   0.378   7.979   3.922
 4171SOL     OW12856   0.159   8.585   5.190
 4171SOL    HW112857   0.181   8.524   5.266
 4171SOL    HW212858   0.169   8.536   5.104
 4172SOL     OW12859   1.347   8.507   4.958
 4172SOL    HW112860   1.371   8.444   4.884
 4172SOL    HW212861   1.257   8.547   4.940
 4173SOL     OW12862   1.302   8.303   4.033
 4173SOL    HW112863   1.216   8.272   4.075
 4173SOL    HW212864   1.298   8.289   3.934
 4174SOL     OW12865   1.759   9.195   4.878
 4174SOL    HW112866   1.820   9.225   4.805
 4174SOL    HW212867   1.721   9.106   4.856
 4175SOL     OW12868   1.252   9.179   4.852
 4175SOL    HW112869   1.336   9.184   4.798
 4175SOL    HW212870   1.229   9.083   4.870
 4176SOL     OW12871   0.083   8.706   4.746
 4176SOL    HW112872   0.078   8.705   4.846
 4176SOL    HW212873   0.000   8.665   4.708
 4177SOL     OW12874   0.688   9.110   5.440
 4177SOL    HW112875   0.632   9.191   5.449
 4177SOL    HW212876   0.740   9.114   5.354
 4178SOL     OW12877   1.726   7.583   4.247
 4178SOL    HW112878   1.799   7.566   4.180
 4178SOL    HW212879   1.695   7.496   4.285
 4179SOL     OW12880   1.388   9.021   4.201
 4179SOL    HW112881   1.455   9.033   4.127
 4179SOL    HW212882   1.348   9.110   4.224
 4180SOL     OW12883   1.280   8.375   4.396
 4180SOL    HW112884   1.340   8.294   4.398
 4180SOL    HW212885   1.320   8.444   4.336
 4181SOL     OW12886   0.830   8.721   5.146
 4181SOL    HW112887   0.825   8.754   5.241
 4181SOL    HW212888   0.744   8.740   5.100
 4182SOL     OW12889   0.672   9.064   3.878
 4182SOL    HW112890   0.681   9.074   3.779
 4182SOL    HW212891   0.632   8.975   3.899
 4183SOL     OW12892   1.841   7.623   4.687
 4183SOL    HW112893   1.880   7.538   4.651
 4183SOL    HW212894   1.743   7.625   4.668
 4184SOL     OW12895   0.263   7.774   4.444
 4184SOL    HW112896   0.184   7.825   4.410
 4184SOL    HW212897   0.254   7.759   4.542
 4185SOL     OW12898   1.194   9.060   3.755
 4185SOL    HW112899   1.200   8.967   3.792
 4185SOL    HW212900   1.135   9.060   3.675
 4186SOL     OW12901   0.822   8.450   5.096
 4186SOL    HW112902   0.862   8.449   5.004
 4186SOL    HW212903   0.832   8.542   5.136
 4187SOL     OW12904   0.916   8.358   4.015
 4187SOL    HW112905   0.979   8.396   3.947
 4187SOL    HW212906   0.956   8.275   4.054
 4188SOL     OW12907   1.504   9.055   3.768
 4188SOL    HW112908   1.412   9.092   3.775
 4188SOL    HW212909   1.542   9.075   3.678
 4189SOL     OW12910   0.372   8.736   5.214
 4189SOL    HW112911   0.359   8.829   5.180
 4189SOL    HW212912   0.288   8.684   5.201
 4190SOL     OW12913   1.614   8.740   5.013
 4190SOL    HW112914   1.674   8.743   5.093
 4190SOL    HW212915   1.539   8.804   5.026
 4191SOL     OW12916   1.039   8.546   4.420
 4191SOL    HW112917   0.969   8.499   4.474
 4191SOL    HW212918   1.098   8.478   4.377
 4192SOL     OW12919   1.014   7.684   4.695
 4192SOL    HW112920   1.006   7.648   4.602
 4192SOL    HW212921   1.012   7.608   4.760
 4193SOL     OW12922   0.590   8.935   4.215
 4193SOL    HW112923   0.632   8.877   4.145
 4193SOL    HW212924   0.546   9.014   4.171
 4194SOL     OW12925   1.709   7.833   5.105
 4194SOL    HW112926   1.782   7.902   5.109
 4194SOL    HW212927   1.737   7.758   5.046
 4195SOL     OW12928   0.255   8.796   4.014
 4195SOL    HW112929   0.159   8.797   3.987
 4195SOL    HW212930   0.267   8.849   4.098
 4196SOL     OW12931   0.105   8.461   5.450
 4196SOL    HW112932   0.028   8.428   5.504
 4196SOL    HW212933   0.190   8.431   5.492
 4197SOL     OW12934   0.672   7.651   5.213
 4197SOL    HW112935   0.762   7.635   5.173
 4197SOL    HW212936   0.680   7.656   5.312
 4198SOL     OW12937   0.075   7.793   3.757
 4198SOL    HW112938  -0.017   7.765   3.728
 4198SOL    HW212939   0.106   7.870   3.701
 4199SOL     OW12940   1.440   8.304   5.122
 4199SOL    HW112941   1.383   8.356   5.059
 4199SOL    HW212942   1.536   8.316   5.098
 4200SOL     OW12943   0.072   7.614   4.042
 4200SOL    HW112944   0.055   7.697   3.988
 4200SOL    HW212945   0.162   7.577   4.020
 4201SOL     OW12946   1.183   8.783   3.843
 4201SOL    HW112947   1.084   8.772   3.845
 4201SOL    HW212948   1.217   8.798   3.936
 4202SOL     OW12949   0.613   8.290   5.155
 4202SOL    HW112950   0.669   8.371   5.138
 4202SOL    HW212951   0.672   8.210   5.158
 4203SOL     OW12952   0.716   8.013   5.432
 4203SOL    HW112953   0.735   8.078   5.506
 4203SOL    HW212954   0.776   7.933   5.441
 4204SOL     OW12955   1.450   8.668   5.357
 4204SOL    HW112956   1.441   8.658   5.456
 4204SOL    HW212957   1.546   8.661   5.331
 4205SOL     OW12958   0.390   9.189   5.284
 4205SOL    HW112959   0.299   9.230   5.282
 4205SOL    HW212960   0.383   9.095   5.316
 4206SOL     OW12961   1.674   8.331   4.978
 4206SOL    HW112962   1.647   8.242   4.941
 4206SOL    HW212963   1.675   8.399   4.905
 4207SOL     OW12964   1.225   7.773   4.173
 4207SOL    HW112965   1.290   7.699   4.162
 4207SOL    HW212966   1.245   7.823   4.257
 4208SOL     OW12967   0.594   8.193   4.376
 4208SOL    HW112968   0.644   8.278   4.357
 4208SOL    HW212969   0.506   8.195   4.328
 4209SOL     OW12970   1.777   7.790   5.366
 4209SOL    HW112971   1.760   7.821   5.272
 4209SOL    HW212972   1.693   7.753   5.404
 4210SOL     OW12973   1.730   8.382   5.241
 4210SOL    HW112974   1.768   8.473   5.256
 4210SOL    HW212975   1.722   8.365   5.142
 4211SOL     OW12976   0.859   8.822   3.740
 4211SOL    HW112977   0.813   8.837   3.828
 4211SOL    HW212978   0.903   8.907   3.710
 4212SOL     OW12979   0.859   8.404   4.585
 4212SOL    HW112980   0.913   8.335   4.633
 4212SOL    HW212981   0.827   8.473   4.651
 4213SOL     OW12982   1.083   8.432   3.811
 4213SOL    HW112983   1.060   8.485   3.729
 4213SOL    HW212984   1.164   8.376   3.792
 4214SOL     OW12985   1.861   9.017   4.575
 4214SOL    HW112986   1.790   9.005   4.505
 4214SOL    HW212987   1.862   8.938   4.635
 4215SOL     OW12988   0.221   8.762   5.568
 4215SOL    HW112989   0.156   8.689   5.547
 4215SOL    HW212990   0.225   8.776   5.666
 4216SOL     OW12991   0.079   8.688   4.377
 4216SOL    HW112992   0.078   8.641   4.465
 4216SOL    HW212993   0.161   8.660   4.326
 4217SOL     OW12994   0.672   8.839   5.348
 4217SOL    HW112995   0.594   8.789   5.386
 4217SOL    HW212996   0.669   8.934   5.379
 4218SOL     OW12997   1.824   7.640   4.951
 4218SOL    HW112998   1.820   7.550   4.995
 4218SOL    HW212999   1.827   7.629   4.852
 4219SOL     OW13000   0.428   7.872   4.244
 4219SOL    HW113001   0.458   7.800   4.182
 4219SOL    HW213002   0.389   7.832   4.327
 4220SOL     OW13003   1.705   8.935   4.828
 4220SOL    HW113004   1.612   8.910   4.801
 4220SOL    HW213005   1.731   8.885   4.910
 4221SOL     OW13006   0.317   7.995   5.004
 4221SOL    HW113007   0.355   7.936   5.076
 4221SOL    HW213008   0.357   7.969   4.916
 4222SOL     OW13009   0.812   9.034   4.411
 4222SOL    HW113010   0.844   9.044   4.317
 4222SOL    HW213011   0.733   8.972   4.413
 4223SOL     OW13012   1.424   7.662   4.836
 4223SOL    HW113013   1.476   7.597   4.891
 4223SOL    HW213014   1.375   7.725   4.897
 4224SOL     OW13015   1.001   7.482   4.878
 4224SOL    HW113016   0.938   7.410   4.847
 4224SOL    HW213017   1.094   7.446   4.878
 4225SOL     OW13018   0.770   8.778   4.025
 4225SOL    HW113019   0.724   8.691   4.042
 4225SOL    HW213020   0.861   8.775   4.066
 4226SOL     OW13021   0.618   9.015   5.008
 4226SOL    HW113022   0.613   9.097   5.065
 4226SOL    HW213023   0.707   9.012   4.963
 4227SOL     OW13024   1.352   7.500   3.892
 4227SOL    HW113025   1.387   7.459   3.808
 4227SOL    HW213026   1.262   7.462   3.912
 4228SOL     OW13027   1.300   7.901   4.415
 4228SOL    HW113028   1.241   7.981   4.419
 4228SOL    HW213029   1.315   7.866   4.508
 4229SOL     OW13030   1.593   7.669   4.606
 4229SOL    HW113031   1.509   7.668   4.660
 4229SOL    HW213032   1.595   7.752   4.550
 4230SOL     OW13033   0.039   8.525   4.024
 4230SOL    HW113034   0.138   8.514   4.015
 4230SOL    HW213035  -0.001   8.439   4.056
 4231SOL     OW13036   0.875   9.094   4.061
 4231SOL    HW113037   0.798   9.059   4.007
 4231SOL    HW213038   0.843   9.165   4.123
 4232SOL     OW13039   0.230   8.076   5.699
 4232SOL    HW113040   0.137   8.074   5.736
 4232SOL    HW213041   0.231   8.037   5.607
 4233SOL     OW13042   0.225   7.723   6.582
 4233SOL    HW113043   0.260   7.706   6.674
 4233SOL    HW213044   0.137   7.678   6.570
 4234SOL     OW13045   0.019   7.816   6.233
 4234SOL    HW113046  -0.063   7.859   6.272
 4234SOL    HW213047  -0.009   7.743   6.170
 4235SOL     OW13048   0.569   8.723   6.751
 4235SOL    HW113049   0.476   8.716   6.714
 4235SOL    HW213050   0.580   8.812   6.795
 4236SOL     OW13051   1.555   8.959   6.289
 4236SOL    HW113052   1.498   8.943   6.370
 4236SOL    HW213053   1.496   8.969   6.209
 4237SOL     OW13054   1.135   8.151   6.303
 4237SOL    HW113055   1.192   8.229   6.278
 4237SOL    HW213056   1.075   8.177   6.379
 4238SOL     OW13057   1.755   8.055   5.817
 4238SOL    HW113058   1.743   8.042   5.718
 4238SOL    HW213059   1.725   7.974   5.866
 4239SOL     OW13060   0.768   8.592   6.609
 4239SOL    HW113061   0.690   8.609   6.669
 4239SOL    HW213062   0.802   8.679   6.573
 4240SOL     OW13063   0.850   8.246   7.409
 4240SOL    HW113064   0.846   8.322   7.474
 4240SOL    HW213065   0.872   8.282   7.318
 4241SOL     OW13066   0.685   8.460   6.251
 4241SOL    HW113067   0.754   8.444   6.321
 4241SOL    HW213068   0.612   8.517   6.289
 4242SOL     OW13069   0.686   8.609   7.389
 4242SOL    HW113070   0.746   8.688   7.403
 4242SOL    HW213071   0.600   8.640   7.348
 4243SOL     OW13072   0.335   8.883   6.647
 4243SOL    HW113073   0.257   8.852   6.594
 4243SOL    HW213074   0.393   8.941   6.590
 4244SOL     OW13075   1.460   8.953   6.925
 4244SOL    HW113076   1.484   9.047   6.951
 4244SOL    HW213077   1.444   8.899   7.007
 4245SOL     OW13078   0.438   7.840   7.085
 4245SOL    HW113079   0.520   7.784   7.094
 4245SOL    HW213080   0.357   7.782   7.089
 4246SOL     OW13081   1.603   7.895   6.323
 4246SOL    HW113082   1.529   7.941   6.273
 4246SOL    HW213083   1.654   7.963   6.376
 4247SOL     OW13084   1.127   8.789   7.276
 4247SOL    HW113085   1.174   8.789   7.364
 4247SOL    HW213086   1.079   8.702   7.265
 4248SOL     OW13087   0.230   8.882   6.124
 4248SOL    HW113088   0.204   8.978   6.124
 4248SOL    HW213089   0.159   8.828   6.169
 4249SOL     OW13090   0.240   8.539   6.472
 4249SOL    HW113091   0.254   8.455   6.524
 4249SOL    HW213092   0.185   8.603   6.527
 4250SOL     OW13093   0.606   8.412   5.709
 4250SOL    HW113094   0.613   8.496   5.655
 4250SOL    HW213095   0.652   8.425   5.797
 4251SOL     OW13096   1.594   7.562   7.066
 4251SOL    HW113097   1.576   7.629   6.994
 4251SOL    HW213098   1.591   7.608   7.155
 4252SOL     OW13099   0.122   8.091   6.149
 4252SOL    HW113100   0.077   8.003   6.166
 4252SOL    HW213101   0.121   8.145   6.233
 4253SOL     OW13102   0.027   9.044   5.703
 4253SOL    HW113103   0.008   8.948   5.724
 4253SOL    HW213104  -0.006   9.102   5.778
 4254SOL     OW13105   1.689   8.370   6.198
 4254SOL    HW113106   1.784   8.341   6.206
 4254SOL    HW213107   1.681   8.435   6.123
 4255SOL     OW13108   1.641   8.556   6.018
 4255SOL    HW113109   1.727   8.558   5.966
 4255SOL    HW213110   1.655   8.603   6.106
 4256SOL     OW13111   0.113   8.185   7.183
 4256SOL    HW113112   0.201   8.172   7.228
 4256SOL    HW213113   0.100   8.282   7.161
 4257SOL     OW13114   0.613   8.813   6.312
 4257SOL    HW113115   0.564   8.726   6.321
 4257SOL    HW213116   0.590   8.856   6.225
 4258SOL     OW13117   1.293   8.676   7.009
 4258SOL    HW113118   1.330   8.603   6.951
 4258SOL    HW213119   1.345   8.681   7.094
 4259SOL     OW13120   0.809   7.452   6.088
 4259SOL    HW113121   0.849   7.543   6.079
 4259SOL    HW213122   0.709   7.460   6.094
 4260SOL     OW13123   0.197   8.424   6.850
 4260SOL    HW113124   0.286   8.379   6.836
 4260SOL    HW213125   0.124   8.359   6.831
 4261SOL     OW13126   1.525   8.447   5.776
 4261SOL    HW113127   1.462   8.371   5.789
 4261SOL    HW213128   1.573   8.465   5.862
 4262SOL     OW13129   1.187   9.240   7.202
 4262SOL    HW113130   1.211   9.300   7.126
 4262SOL    HW213131   1.194   9.145   7.172
 4263SOL     OW13132   0.317   7.699   7.387
 4263SOL    HW113133   0.388   7.770   7.393
 4263SOL    HW213134   0.229   7.738   7.415
 4264SOL     OW13135   1.466   8.865   6.539
 4264SOL    HW113136   1.407   8.871   6.619
 4264SOL    HW213137   1.451   8.777   6.493
 4265SOL     OW13138   1.667   9.162   6.158
 4265SOL    HW113139   1.626   9.139   6.070
 4265SOL    HW213140   1.649   9.088   6.223
 4266SOL     OW13141   0.598   8.177   5.856
 4266SOL    HW113142   0.622   8.246   5.788
 4266SOL    HW213143   0.520   8.210   5.910
 4267SOL     OW13144   1.281   7.793   6.530
 4267SOL    HW113145   1.195   7.743   6.517
 4267SOL    HW213146   1.343   7.739   6.586
 4268SOL     OW13147   1.576   9.110   5.893
 4268SOL    HW113148   1.665   9.156   5.896
 4268SOL    HW213149   1.555   9.086   5.798
 4269SOL     OW13150   0.807   8.053   7.051
 4269SOL    HW113151   0.760   8.050   7.140
 4269SOL    HW213152   0.756   7.998   6.985
 4270SOL     OW13153   1.394   7.917   7.260
 4270SOL    HW113154   1.374   7.960   7.348
 4270SOL    HW213155   1.472   7.855   7.269
 4271SOL     OW13156   0.973   8.338   7.158
 4271SOL    HW113157   1.019   8.254   7.129
 4271SOL    HW213158   0.917   8.372   7.083
 4272SOL     OW13159   0.991   7.858   6.828
 4272SOL    HW113160   0.914   7.892   6.882
 4272SOL    HW213161   0.957   7.807   6.749
 4273SOL     OW13162   1.041   8.149   6.015
 4273SOL    HW113163   1.067   8.145   6.111
 4273SOL    HW213164   0.956   8.098   6.001
 4274SOL     OW13165   0.076   8.259   6.375
 4274SOL    HW113166   0.175   8.247   6.384
 4274SOL    HW213167   0.052   8.354   6.396
 4275SOL     OW13168   0.865   7.796   5.781
 4275SOL    HW113169   0.924   7.859   5.732
 4275SOL    HW213170   0.884   7.702   5.752
 4276SOL     OW13171   1.719   8.033   7.417
 4276SOL    HW113172   1.693   8.122   7.381
 4276SOL    HW213173   1.717   7.965   7.344
 4277SOL     OW13174   1.362   8.592   6.131
 4277SOL    HW113175   1.445   8.563   6.083
 4277SOL    HW213176   1.313   8.659   6.075
 4278SOL     OW13177   0.550   7.644   6.471
 4278SOL    HW113178   0.545   7.639   6.571
 4278SOL    HW213179   0.552   7.740   6.442
 4279SOL     OW13180   1.008   8.904   6.063
 4279SOL    HW113181   0.962   8.976   6.011
 4279SOL    HW213182   1.004   8.924   6.161
 4280SOL     OW13183   1.795   8.514   6.459
 4280SOL    HW113184   1.733   8.499   6.383
 4280SOL    HW213185   1.743   8.525   6.544
 4281SOL     OW13186   1.227   8.998   7.092
 4281SOL    HW113187   1.233   8.921   7.156
 4281SOL    HW213188   1.175   8.972   7.012
 4282SOL     OW13189   0.321   8.391   5.828
 4282SOL    HW113190   0.403   8.430   5.786
 4282SOL    HW213191   0.294   8.309   5.779
 4283SOL     OW13192   1.458   8.183   6.314
 4283SOL    HW113193   1.453   8.118   6.389
 4283SOL    HW213194   1.538   8.242   6.327
 4284SOL     OW13195   0.461   8.714   7.313
 4284SOL    HW113196   0.411   8.715   7.227
 4284SOL    HW213197   0.398   8.696   7.389
 4285SOL     OW13198   0.202   7.733   7.084
 4285SOL    HW113199   0.122   7.793   7.071
 4285SOL    HW213200   0.192   7.684   7.170
 4286SOL     OW13201   1.632   8.825   5.667
 4286SOL    HW113202   1.600   8.919   5.657
 4286SOL    HW213203   1.556   8.762   5.655
 4287SOL     OW13204   1.400   7.555   6.012
 4287SOL    HW113205   1.376   7.518   5.922
 4287SOL    HW213206   1.499   7.571   6.016
 4288SOL     OW13207   0.940   9.146   6.490
 4288SOL    HW113208   1.020   9.089   6.511
 4288SOL    HW213209   0.891   9.106   6.413
 4289SOL     OW13210   0.382   8.148   6.066
 4289SOL    HW113211   0.427   8.058   6.063
 4289SOL    HW213212   0.288   8.137   6.099
 4290SOL     OW13213   1.547   7.670   7.315
 4290SOL    HW113214   1.542   7.707   7.407
 4290SOL    HW213215   1.475   7.601   7.303
 4291SOL     OW13216   0.614   7.570   5.703
 4291SOL    HW113217   0.712   7.548   5.710
 4291SOL    HW213218   0.583   7.553   5.610
 4292SOL     OW13219   0.781   7.712   7.335
 4292SOL    HW113220   0.848   7.651   7.378
 4292SOL    HW213221   0.708   7.731   7.400
 4293SOL     OW13222   0.888   8.962   6.781
 4293SOL    HW113223   0.865   8.937   6.687
 4293SOL    HW213224   0.949   8.893   6.820
 4294SOL     OW13225   1.351   8.038   7.019
 4294SOL    HW113226   1.379   7.995   7.104
 4294SOL    HW213227   1.376   8.134   7.020
 4295SOL     OW13228   0.803   8.850   6.510
 4295SOL    HW113229   0.893   8.864   6.468
 4295SOL    HW213230   0.732   8.852   6.439
 4296SOL     OW13231   0.922   7.951   6.485
 4296SOL    HW113232   0.897   7.942   6.389
 4296SOL    HW213233   0.970   7.869   6.516
 4297SOL     OW13234   0.539   7.512   6.098
 4297SOL    HW113235   0.458   7.513   6.156
 4297SOL    HW213236   0.542   7.595   6.043
 4298SOL     OW13237   1.434   8.636   5.627
 4298SOL    HW113238   1.466   8.560   5.684
 4298SOL    HW213239   1.342   8.663   5.657
 4299SOL     OW13240   0.297   7.483   5.757
 4299SOL    HW113241   0.346   7.567   5.736
 4299SOL    HW213242   0.359   7.418   5.802
 4300SOL     OW13243   0.935   7.684   6.066
 4300SOL    HW113244   0.887   7.725   5.988
 4300SOL    HW213245   1.034   7.682   6.047
 4301SOL     OW13246   1.076   8.131   7.050
 4301SOL    HW113247   0.996   8.070   7.053
 4301SOL    HW213248   1.157   8.078   7.026
 4302SOL     OW13249   1.227   9.018   6.379
 4302SOL    HW113250   1.248   9.092   6.314
 4302SOL    HW213251   1.295   9.018   6.452
 4303SOL     OW13252   0.459   8.600   6.327
 4303SOL    HW113253   0.388   8.573   6.392
 4303SOL    HW213254   0.433   8.572   6.234
 4304SOL     OW13255   1.032   7.997   5.602
 4304SOL    HW113256   0.991   8.079   5.563
 4304SOL    HW213257   1.096   8.023   5.675
 4305SOL     OW13258   0.078   8.004   6.972
 4305SOL    HW113259   0.170   8.003   6.931
 4305SOL    HW213260   0.072   8.078   7.039
 4306SOL     OW13261   0.561   7.670   6.733
 4306SOL    HW113262   0.599   7.586   6.770
 4306SOL    HW213263   0.473   7.689   6.777
 4307SOL     OW13264   0.866   7.902   6.228
 4307SOL    HW113265   0.834   7.974   6.166
 4307SOL    HW213266   0.890   7.821   6.175
 4308SOL     OW13267   1.017   7.487   6.339
 4308SOL    HW113268   0.945   7.492   6.270
 4308SOL    HW213269   0.993   7.418   6.408
 4309SOL     OW13270   1.429   8.621   6.453
 4309SOL    HW113271   1.374   8.537   6.446
 4309SOL    HW213272   1.455   8.650   6.361
 4310SOL     OW13273   1.466   8.038   6.578
 4310SOL    HW113274   1.436   7.943   6.585
 4310SOL    HW213275   1.539   8.054   6.644
 4311SOL     OW13276   1.857   8.281   5.963
 4311SOL    HW113277   1.899   8.217   6.027
 4311SOL    HW213278   1.819   8.230   5.885
 4312SOL     OW13279   0.488   8.833   5.760
 4312SOL    HW113280   0.401   8.818   5.807
 4312SOL    HW213281   0.471   8.859   5.665
 4313SOL     OW13282   1.664   8.728   6.243
 4313SOL    HW113283   1.763   8.736   6.257
 4313SOL    HW213284   1.619   8.812   6.274
 4314SOL     OW13285   1.390   8.023   5.664
 4314SOL    HW113286   1.336   8.002   5.745
 4314SOL    HW213287   1.481   7.982   5.673
 4315SOL     OW13288   0.527   7.704   5.914
 4315SOL    HW113289   0.554   7.645   5.839
 4315SOL    HW213290   0.527   7.799   5.883
 4316SOL     OW13291   1.754   8.671   7.174
 4316SOL    HW113292   1.845   8.632   7.161
 4316SOL    HW213293   1.762   8.767   7.198
 4317SOL     OW13294   1.064   8.795   6.926
 4317SOL    HW113295   0.984   8.772   6.981
 4317SOL    HW213296   1.147   8.769   6.975
 4318SOL     OW13297   1.592   9.077   7.211
 4318SOL    HW113298   1.619   9.111   7.121
 4318SOL    HW213299   1.671   9.039   7.257
 4319SOL     OW13300   1.111   8.643   6.686
 4319SOL    HW113301   1.071   8.687   6.767
 4319SOL    HW213302   1.070   8.680   6.603
 4320SOL     OW13303   1.638   8.547   6.665
 4320SOL    HW113304   1.643   8.628   6.724
 4320SOL    HW213305   1.552   8.549   6.614
 4321SOL     OW13306   0.915   7.537   6.988
 4321SOL    HW113307   0.940   7.517   6.893
 4321SOL    HW213308   0.987   7.593   7.030
 4322SOL     OW13309   0.980   8.564   7.305
 4322SOL    HW113310   0.881   8.570   7.315
 4322SOL    HW213311   1.003   8.484   7.249
 4323SOL     OW13312   0.705   8.498   5.954
 4323SOL    HW113313   0.691   8.505   6.053
 4323SOL    HW213314   0.789   8.447   5.936
 4324SOL     OW13315   0.410   8.261   6.837
 4324SOL    HW113316   0.496   8.273   6.887
 4324SOL    HW213317   0.368   8.174   6.864
 4325SOL     OW13318   1.274   7.834   6.848
 4325SOL    HW113319   1.295   7.908   6.912
 4325SOL    HW213320   1.185   7.851   6.805
 4326SOL     OW13321   0.064   9.012   6.917
 4326SOL    HW113322   0.018   9.094   6.883
 4326SOL    HW213323   0.162   9.031   6.926
 4327SOL     OW13324   0.367   8.548   6.087
 4327SOL    HW113325   0.360   8.631   6.031
 4327SOL    HW213326   0.371   8.468   6.027
 4328SOL     OW13327   0.566   7.985   6.451
 4328SOL    HW113328   0.578   8.051   6.377
 4328SOL    HW213329   0.612   8.019   6.534
 4329SOL     OW13330   1.252   8.796   5.974
 4329SOL    HW113331   1.302   8.873   6.014
 4329SOL    HW213332   1.157   8.798   6.006
 4330SOL     OW13333   1.272   8.893   6.728
 4330SOL    HW113334   1.319   8.906   6.815
 4330SOL    HW213335   1.206   8.819   6.737
 4331SOL     OW13336   1.582   8.087   6.058
 4331SOL    HW113337   1.551   8.148   6.131
 4331SOL    HW213338   1.632   8.139   5.989
 4332SOL     OW13339   0.354   8.958   6.915
 4332SOL    HW113340   0.333   8.914   6.828
 4332SOL    HW213341   0.451   8.984   6.918
 4333SOL     OW13342   0.402   8.199   7.184
 4333SOL    HW113343   0.470   8.254   7.137
 4333SOL    HW213344   0.442   8.111   7.211
 4334SOL     OW13345   1.587   8.227   7.256
 4334SOL    HW113346   1.495   8.265   7.251
 4334SOL    HW213347   1.647   8.274   7.191
 4335SOL     OW13348   1.013   7.553   7.356
 4335SOL    HW113349   1.019   7.638   7.304
 4335SOL    HW213350   1.045   7.477   7.299
 4336SOL     OW13351   0.504   7.498   7.326
 4336SOL    HW113352   0.462   7.441   7.256
 4336SOL    HW213353   0.438   7.567   7.358
 4337SOL     OW13354   0.573   8.318   6.615
 4337SOL    HW113355   0.617   8.407   6.606
 4337SOL    HW213356   0.510   8.318   6.692
 4338SOL     OW13357   1.360   8.310   6.631
 4338SOL    HW113358   1.285   8.310   6.565
 4338SOL    HW213359   1.397   8.218   6.640
 4339SOL     OW13360   1.209   7.973   5.861
 4339SOL    HW113361   1.222   7.889   5.915
 4339SOL    HW213362   1.180   8.047   5.921
 4340SOL     OW13363   0.307   7.661   6.817
 4340SOL    HW113364   0.284   7.698   6.907
 4340SOL    HW213365   0.277   7.566   6.811
 4341SOL     OW13366   0.037   8.758   6.868
 4341SOL    HW113367   0.090   8.709   6.936
 4341SOL    HW213368   0.059   8.856   6.873
 4342SOL     OW13369   0.732   8.082   6.650
 4342SOL    HW113370   0.791   8.056   6.574
 4342SOL    HW213371   0.704   8.178   6.639
 4343SOL     OW13372   1.728   8.383   7.440
 4343SOL    HW113373   1.682   8.376   7.351
 4343SOL    HW213374   1.666   8.427   7.506
 4344SOL     OW13375   0.307   7.511   6.204
 4344SOL    HW113376   0.296   7.605   6.237
 4344SOL    HW213377   0.302   7.448   6.281
 4345SOL     OW13378   1.622   7.815   5.960
 4345SOL    HW113379   1.624   7.739   6.024
 4345SOL    HW213380   1.574   7.892   6.000
 4346SOL     OW13381   1.023   8.214   6.552
 4346SOL    HW113382   1.038   8.235   6.648
 4346SOL    HW213383   0.993   8.119   6.543
 4347SOL     OW13384   0.980   9.021   7.286
 4347SOL    HW113385   0.960   9.065   7.198
 4347SOL    HW213386   1.019   8.930   7.270
 4348SOL     OW13387   1.859   8.966   7.191
 4348SOL    HW113388   1.873   8.993   7.096
 4348SOL    HW213389   1.942   8.988   7.244
 4349SOL     OW13390   0.350   8.346   7.390
 4349SOL    HW113391   0.426   8.390   7.438
 4349SOL    HW213392   0.385   8.299   7.308
 4350SOL     OW13393   1.540   7.722   5.711
 4350SOL    HW113394   1.479   7.647   5.734
 4350SOL    HW213395   1.562   7.774   5.794
 4351SOL     OW13396   1.303   8.286   5.628
 4351SOL    HW113397   1.337   8.193   5.643
 4351SOL    HW213398   1.321   8.313   5.533
 4352SOL     OW13399   1.068   8.781   6.435
 4352SOL    HW113400   1.075   8.697   6.380
 4352SOL    HW213401   1.130   8.850   6.399
 4353SOL     OW13402   0.319   8.258   6.535
 4353SOL    HW113403   0.412   8.294   6.540
 4353SOL    HW213404   0.313   8.173   6.587
 4354SOL     OW13405   0.339   7.957   6.592
 4354SOL    HW113406   0.287   7.874   6.575
 4354SOL    HW213407   0.416   7.962   6.528
 4355SOL     OW13408   1.138   7.828   7.264
 4355SOL    HW113409   1.093   7.891   7.328
 4355SOL    HW213410   1.231   7.859   7.247
 4356SOL     OW13411   1.160   7.655   7.063
 4356SOL    HW113412   1.160   7.719   7.140
 4356SOL    HW213413   1.188   7.703   6.980
 4357SOL     OW13414   0.008   8.774   5.786
 4357SOL    HW113415  -0.085   8.795   5.755
 4357SOL    HW213416   0.018   8.675   5.799
 4358SOL     OW13417   0.504   9.016   6.496
 4358SOL    HW113418   0.570   9.090   6.505
 4358SOL    HW213419   0.548   8.937   6.454
 4359SOL     OW13420   1.002   8.244   6.824
 4359SOL    HW113421   1.043   8.212   6.910
 4359SOL    HW213422   0.906   8.217   6.821
 4360SOL     OW13423   0.040   7.992   6.700
 4360SOL    HW113424   0.125   7.959   6.659
 4360SOL    HW213425   0.053   8.007   6.798
 4361SOL     OW13426   0.189   7.968   7.308
 4361SOL    HW113427   0.248   7.928   7.238
 4361SOL    HW213428   0.131   8.039   7.267
 4362SOL     OW13429   1.369   8.398   7.246
 4362SOL    HW113430   1.408   8.487   7.266
 4362SOL    HW213431   1.379   8.378   7.149
 4363SOL     OW13432   0.815   8.020   5.911
 4363SOL    HW113433   0.822   7.931   5.865
 4363SOL    HW213434   0.721   8.054   5.903
 4364SOL     OW13435   1.657   8.052   6.792
 4364SOL    HW113436   1.619   7.983   6.854
 4364SOL    HW213437   1.739   8.016   6.748
 4365SOL     OW13438   0.252   9.012   7.330
 4365SOL    HW113439   0.222   9.069   7.406
 4365SOL    HW213440   0.245   8.915   7.356
 4366SOL     OW13441   0.671   7.912   6.855
 4366SOL    HW113442   0.637   7.823   6.825
 4366SOL    HW213443   0.697   7.966   6.775
 4367SOL     OW13444   0.930   9.126   7.051
 4367SOL    HW113445   0.906   9.108   6.956
 4367SOL    HW213446   0.960   9.220   7.061
 4368SOL     OW13447   0.473   7.948   5.777
 4368SOL    HW113448   0.534   8.028   5.781
 4368SOL    HW213449   0.378   7.979   5.784
 4369SOL     OW13450   0.159   8.585   7.052
 4369SOL    HW113451   0.181   8.524   7.128
 4369SOL    HW213452   0.169   8.536   6.966
 4370SOL     OW13453   1.347   8.507   6.820
 4370SOL    HW113454   1.371   8.444   6.746
 4370SOL    HW213455   1.257   8.547   6.802
 4371SOL     OW13456   1.302   8.303   5.895
 4371SOL    HW113457   1.216   8.272   5.937
 4371SOL    HW213458   1.298   8.289   5.796
 4372SOL     OW13459   1.759   9.195   6.740
 4372SOL    HW113460   1.820   9.225   6.667
 4372SOL    HW213461   1.721   9.106   6.718
 4373SOL     OW13462   1.252   9.179   6.714
 4373SOL    HW113463   1.336   9.184   6.660
 4373SOL    HW213464   1.229   9.083   6.732
 4374SOL     OW13465   0.083   8.706   6.608
 4374SOL    HW113466   0.078   8.705   6.708
 4374SOL    HW213467   0.000   8.665   6.570
 4375SOL     OW13468   0.688   9.110   7.302
 4375SOL    HW113469   0.632   9.191   7.311
 4375SOL    HW213470   0.740   9.114   7.216
 4376SOL     OW13471   1.726   7.583   6.109
 4376SOL    HW113472   1.799   7.566   6.042
 4376SOL    HW213473   1.695   7.496   6.147
 4377SOL     OW13474   1.388   9.021   6.063
 4377SOL    HW113475   1.455   9.033   5.989
 4377SOL    HW213476   1.348   9.110   6.086
 4378SOL     OW13477   1.280   8.375   6.258
 4378SOL    HW113478   1.340   8.294   6.260
 4378SOL    HW213479   1.320   8.444   6.198
 4379SOL     OW13480   0.830   8.721   7.008
 4379SOL    HW113481   0.825   8.754   7.103
 4379SOL    HW213482   0.744   8.740   6.962
 4380SOL     OW13483   0.672   9.064   5.740
 4380SOL    HW113484   0.681   9.074   5.641
 4380SOL    HW213485   0.632   8.975   5.761
 4381SOL     OW13486   1.841   7.623   6.549
 4381SOL    HW113487   1.880   7.538   6.513
 4381SOL    HW213488   1.743   7.625   6.530
 4382SOL     OW13489   0.263   7.774   6.306
 4382SOL    HW113490   0.184   7.825   6.272
 4382SOL    HW213491   0.254   7.759   6.404
 4383SOL     OW13492   1.194   9.060   5.617
 4383SOL    HW113493   1.200   8.967   5.654
 4383SOL    HW213494   1.135   9.060   5.537
 4384SOL     OW13495   0.822   8.450   6.958
 4384SOL    HW113496   0.862   8.449   6.866
 4384SOL    HW213497   0.832   8.542   6.998
 4385SOL     OW13498   0.916   8.358   5.877
 4385SOL    HW113499   0.979   8.396   5.809
 4385SOL    HW213500   0.956   8.275   5.916
 4386SOL     OW13501   1.504   9.055   5.630
 4386SOL    HW113502   1.412   9.092   5.637
 4386SOL    HW213503   1.542   9.075   5.540
 4387SOL     OW13504   0.372   8.736   7.076
 4387SOL    HW113505   0.359   8.829   7.042
 4387SOL    HW213506   0.288   8.684   7.063
 4388SOL     OW13507   1.614   8.740   6.875
 4388SOL    HW113508   1.674   8.743   6.955
 4388SOL    HW213509   1.539   8.804   6.888
 4389SOL     OW13510   1.039   8.546   6.282
 4389SOL    HW113511   0.969   8.499   6.336
 4389SOL    HW213512   1.098   8.478   6.239
 4390SOL     OW13513   1.014   7.684   6.557
 4390SOL    HW113514   1.006   7.648   6.464
 4390SOL    HW213515   1.012   7.608   6.622
 4391SOL     OW13516   0.590   8.935   6.077
 4391SOL    HW113517   0.632   8.877   6.007
 4391SOL    HW213518   0.546   9.014   6.033
 4392SOL     OW13519   1.709   7.833   6.967
 4392SOL    HW113520   1.782   7.902   6.971
 4392SOL    HW213521   1.737   7.758   6.908
 4393SOL     OW13522   0.255   8.796   5.876
 4393SOL    HW113523   0.159   8.797   5.849
 4393SOL    HW213524   0.267   8.849   5.960
 4394SOL     OW13525   0.105   8.461   7.312
 4394SOL    HW113526   0.028   8.428   7.366
 4394SOL    HW213527   0.190   8.431   7.354
 4395SOL     OW13528   0.672   7.651   7.075
 4395SOL    HW113529   0.762   7.635   7.035
 4395SOL    HW213530   0.680   7.656   7.174
 4396SOL     OW13531   0.075   7.793   5.619
 4396SOL    HW113532  -0.017   7.765   5.590
 4396SOL    HW213533   0.106   7.870   5.563
 4397SOL     OW13534   1.440   8.304   6.984
 4397SOL    HW113535   1.383   8.356   6.921
 4397SOL    HW213536   1.536   8.316   6.960
 4398SOL     OW13537   0.072   7.614   5.904
 4398SOL    HW113538   0.055   7.697   5.850
 4398SOL    HW213539   0.162   7.577   5.882
 4399SOL     OW13540   1.183   8.783   5.705
 4399SOL    HW113541   1.084   8.772   5.707
 4399SOL    HW213542   1.217   8.798   5.798
 4400SOL     OW13543   0.613   8.290   7.017
 4400SOL    HW113544   0.669   8.371   7.000
 4400SOL    HW213545   0.672   8.210   7.020
 4401SOL     OW13546   0.716   8.013   7.294
 4401SOL    HW113547   0.735   8.078   7.368
 4401SOL    HW213548   0.776   7.933   7.303
 4402SOL     OW13549   1.450   8.668   7.219
 4402SOL    HW113550   1.441   8.658   7.318
 4402SOL    HW213551   1.546   8.661   7.193
 4403SOL     OW13552   0.390   9.189   7.146
 4403SOL    HW113553   0.299   9.230   7.144
 4403SOL    HW213554   0.383   9.095   7.178
 4404SOL     OW13555   1.674   8.331   6.840
 4404SOL    HW113556   1.647   8.242   6.803
 4404SOL    HW213557   1.675   8.399   6.767
 4405SOL     OW13558   1.225   7.773   6.035
 4405SOL    HW113559   1.290   7.699   6.024
 4405SOL    HW213560   1.245   7.823   6.119
 4406SOL     OW13561   0.594   8.193   6.238
 4406SOL    HW113562   0.644   8.278   6.219
 4406SOL    HW213563   0.506   8.195   6.190
 4407SOL     OW13564   1.777   7.790   7.228
 4407SOL    HW113565   1.760   7.821   7.134
 4407SOL    HW213566   1.693   7.753   7.266
 4408SOL     OW13567   1.730   8.382   7.103
 4408SOL    HW113568   1.768   8.473   7.118
 4408SOL    HW213569   1.722   8.365   7.004
 4409SOL     OW13570   0.859   8.822   5.602
 4409SOL    HW113571   0.813   8.837   5.690
 4409SOL    HW213572   0.903   8.907   5.572
 4410SOL     OW13573   0.859   8.404   6.447
 4410SOL    HW113574   0.913   8.335   6.495
 4410SOL    HW213575   0.827   8.473   6.513
 4411SOL     OW13576   1.083   8.432   5.673
 4411SOL    HW113577   1.060   8.485   5.591
 4411SOL    HW213578   1.164   8.376   5.654
 4412SOL     OW13579   1.861   9.017   6.437
 4412SOL    HW113580   1.790   9.005   6.367
 4412SOL    HW213581   1.862   8.938   6.497
 4413SOL     OW13582   0.221   8.762   7.430
 4413SOL    HW113583   0.156   8.689   7.409
 4413SOL    HW213584   0.225   8.776   7.528
 4414SOL     OW13585   0.079   8.688   6.239
 4414SOL    HW113586   0.078   8.641   6.327
 4414SOL    HW213587   0.161   8.660   6.188
 4415SOL     OW13588   0.672   8.839   7.210
 4415SOL    HW113589   0.594   8.789   7.248
 4415SOL    HW213590   0.669   8.934   7.241
 4416SOL     OW13591   1.824   7.640   6.813
 4416SOL    HW113592   1.820   7.550   6.857
 4416SOL    HW213593   1.827   7.629   6.714
 4417SOL     OW13594   0.428   7.872   6.106
 4417SOL    HW113595   0.458   7.800   6.044
 4417SOL    HW213596   0.389   7.832   6.189
 4418SOL     OW13597   1.705   8.935   6.690
 4418SOL    HW113598   1.612   8.910   6.663
 4418SOL    HW213599   1.731   8.885   6.772
 4419SOL     OW13600   0.317   7.995   6.866
 4419SOL    HW113601   0.355   7.936   6.938
 4419SOL    HW213602   0.357   7.969   6.778
 4420SOL     OW13603   0.812   9.034   6.273
 4420SOL    HW113604   0.844   9.044   6.179
 4420SOL    HW213605   0.733   8.972   6.275
 4421SOL     OW13606   1.424   7.662   6.698
 4421SOL    HW113607   1.476   7.597   6.753
 4421SOL    HW213608   1.375   7.725   6.759
 4422SOL     OW13609   1.001   7.482   6.740
 4422SOL    HW113610   0.938   7.410   6.709
 4422SOL    HW213611   1.094   7.446   6.740
 4423SOL     OW13612   0.770   8.778   5.887
 4423SOL    HW113613   0.724   8.691   5.904
 4423SOL    HW213614   0.861   8.775   5.928
 4424SOL     OW13615   0.618   9.015   6.870
 4424SOL    HW113616   0.613   9.097   6.927
 4424SOL    HW213617   0.707   9.012   6.825
 4425SOL     OW13618   1.352   7.500   5.754
 4425SOL    HW113619   1.387   7.459   5.670
 4425SOL    HW213620   1.262   7.462   5.774
 4426SOL     OW13621   1.300   7.901   6.277
 4426SOL    HW113622   1.241   7.981   6.281
 4426SOL    HW213623   1.315   7.866   6.370
 4427SOL     OW13624   1.593   7.669   6.468
 4427SOL    HW113625   1.509   7.668   6.522
 4427SOL    HW213626   1.595   7.752   6.412
 4428SOL     OW13627   0.039   8.525   5.886
 4428SOL    HW113628   0.138   8.514   5.877
 4428SOL    HW213629  -0.001   8.439   5.918
 4429SOL     OW13630   0.875   9.094   5.923
 4429SOL    HW113631   0.798   9.059   5.869
 4429SOL    HW213632   0.843   9.165   5.985
 4430SOL     OW13633   0.230   8.076   7.561
 4430SOL    HW113634   0.137   8.074   7.598
 4430SOL    HW213635   0.231   8.037   7.469
 4431SOL     OW13636   1.755   8.055   7.679
 4431SOL    HW113637   1.743   8.042   7.580
 4431SOL    HW213638   1.725   7.974   7.728
 4432SOL     OW13639   0.606   8.412   7.571
 4432SOL    HW113640   0.613   8.496   7.517
 4432SOL    HW213641   0.652   8.425   7.659
 4433SOL     OW13642   0.027   9.044   7.565
 4433SOL    HW113643   0.008   8.948   7.586
 4433SOL    HW213644  -0.006   9.102   7.640
 4434SOL     OW13645   1.641   8.556   7.880
 4434SOL    HW113646   1.727   8.558   7.828
 4434SOL    HW213647   1.655   8.603   7.968
 4435SOL     OW13648   0.809   7.452   7.950
 4435SOL    HW113649   0.849   7.543   7.941
 4435SOL    HW213650   0.709   7.460   7.956
 4436SOL     OW13651   1.525   8.447   7.638
 4436SOL    HW113652   1.462   8.371   7.651
 4436SOL    HW213653   1.573   8.465   7.724
 4437SOL     OW13654   1.667   9.162   8.020
 4437SOL    HW113655   1.626   9.139   7.932
 4437SOL    HW213656   1.649   9.088   8.085
 4438SOL     OW13657   0.598   8.177   7.718
 4438SOL    HW113658   0.622   8.246   7.650
 4438SOL    HW213659   0.520   8.210   7.772
 4439SOL     OW13660   1.576   9.110   7.755
 4439SOL    HW113661   1.665   9.156   7.758
 4439SOL    HW213662   1.555   9.086   7.660
 4440SOL     OW13663   1.041   8.149   7.877
 4440SOL    HW113664   1.067   8.145   7.973
 4440SOL    HW213665   0.956   8.098   7.863
 4441SOL     OW13666   0.865   7.796   7.643
 4441SOL    HW113667   0.924   7.859   7.594
 4441SOL    HW213668   0.884   7.702   7.614
 4442SOL     OW13669   1.362   8.592   7.993
 4442SOL    HW113670   1.445   8.563   7.945
 4442SOL    HW213671   1.313   8.659   7.937
 4443SOL     OW13672   1.008   8.904   7.925
 4443SOL    HW113673   0.962   8.976   7.873
 4443SOL    HW213674   1.004   8.924   8.023
 4444SOL     OW13675   0.321   8.391   7.690
 4444SOL    HW113676   0.403   8.430   7.648
 4444SOL    HW213677   0.294   8.309   7.641
 4445SOL     OW13678   1.632   8.825   7.529
 4445SOL    HW113679   1.600   8.919   7.519
 4445SOL    HW213680   1.556   8.762   7.517
 4446SOL     OW13681   1.400   7.555   7.874
 4446SOL    HW113682   1.376   7.518   7.784
 4446SOL    HW213683   1.499   7.571   7.878
 4447SOL     OW13684   0.382   8.148   7.928
 4447SOL    HW113685   0.427   8.058   7.925
 4447SOL    HW213686   0.288   8.137   7.961
 4448SOL     OW13687   0.614   7.570   7.565
 4448SOL    HW113688   0.712   7.548   7.572
 4448SOL    HW213689   0.583   7.553   7.472
 4449SOL     OW13690   0.539   7.512   7.960
 4449SOL    HW113691   0.458   7.513   8.018
 4449SOL    HW213692   0.542   7.595   7.905
 4450SOL     OW13693   1.434   8.636   7.489
 4450SOL    HW113694   1.466   8.560   7.546
 4450SOL    HW213695   1.342   8.663   7.519
 4451SOL     OW13696   0.297   7.483   7.619
 4451SOL    HW113697   0.346   7.567   7.598
 4451SOL    HW213698   0.359   7.418   7.664
 4452SOL     OW13699   0.935   7.684   7.928
 4452SOL    HW113700   0.887   7.725   7.850
 4452SOL    HW213701   1.034   7.682   7.909
 4453SOL     OW13702   1.032   7.997   7.464
 4453SOL    HW113703   0.991   8.079   7.425
 4453SOL    HW213704   1.096   8.023   7.537
 4454SOL     OW13705   1.857   8.281   7.825
 4454SOL    HW113706   1.899   8.217   7.889
 4454SOL    HW213707   1.819   8.230   7.747
 4455SOL     OW13708   0.488   8.833   7.622
 4455SOL    HW113709   0.401   8.818   7.669
 4455SOL    HW213710   0.471   8.859   7.527
 4456SOL     OW13711   1.390   8.023   7.526
 4456SOL    HW113712   1.336   8.002   7.607
 4456SOL    HW213713   1.481   7.982   7.535
 4457SOL     OW13714   0.527   7.704   7.776
 4457SOL    HW113715   0.554   7.645   7.701
 4457SOL    HW213716   0.527   7.799   7.745
 4458SOL     OW13717   0.705   8.498   7.816
 4458SOL    HW113718   0.691   8.505   7.915
 4458SOL    HW213719   0.789   8.447   7.798
 4459SOL     OW13720   0.367   8.548   7.949
 4459SOL    HW113721   0.360   8.631   7.893
 4459SOL    HW213722   0.371   8.468   7.889
 4460SOL     OW13723   1.252   8.796   7.836
 4460SOL    HW113724   1.302   8.873   7.876
 4460SOL    HW213725   1.157   8.798   7.868
 4461SOL     OW13726   1.582   8.087   7.920
 4461SOL    HW113727   1.551   8.148   7.993
 4461SOL    HW213728   1.632   8.139   7.851
 4462SOL     OW13729   1.209   7.973   7.723
 4462SOL    HW113730   1.222   7.889   7.777
 4462SOL    HW213731   1.180   8.047   7.783
 4463SOL     OW13732   1.622   7.815   7.822
 4463SOL    HW113733   1.624   7.739   7.886
 4463SOL    HW213734   1.574   7.892   7.862
 4464SOL     OW13735   1.540   7.722   7.573
 4464SOL    HW113736   1.479   7.647   7.596
 4464SOL    HW213737   1.562   7.774   7.656
 4465SOL     OW13738   1.303   8.286   7.490
 4465SOL    HW113739   1.337   8.193   7.505
 4465SOL    HW213740   1.321   8.313   7.395
 4466SOL     OW13741   0.008   8.774   7.648
 4466SOL    HW113742  -0.085   8.795   7.617
 4466SOL    HW213743   0.018   8.675   7.661
 4467SOL     OW13744   0.815   8.020   7.773
 4467SOL    HW113745   0.822   7.931   7.727
 4467SOL    HW213746   0.721   8.054   7.765
 4468SOL     OW13747   0.473   7.948   7.639
 4468SOL    HW113748   0.534   8.028   7.643
 4468SOL    HW213749   0.378   7.979   7.646
 4469SOL     OW13750   1.302   8.303   7.757
 4469SOL    HW113751   1.216   8.272   7.799
 4469SOL    HW213752   1.298   8.289   7.658
 4470SOL     OW13753   1.726   7.583   7.971
 4470SOL    HW113754   1.799   7.566   7.904
 4470SOL    HW213755   1.695   7.496   8.009
 4471SOL     OW13756   1.388   9.021   7.925
 4471SOL    HW113757   1.455   9.033   7.851
 4471SOL    HW213758   1.348   9.110   7.948
 4472SOL     OW13759   0.672   9.064   7.602
 4472SOL    HW113760   0.681   9.074   7.503
 4472SOL    HW213761   0.632   8.975   7.623
 4473SOL     OW13762   1.194   9.060   7.479
 4473SOL    HW113763   1.200   8.967   7.516
 4473SOL    HW213764   1.135   9.060   7.399
 4474SOL     OW13765   0.916   8.358   7.739
 4474SOL    HW113766   0.979   8.396   7.671
 4474SOL    HW213767   0.956   8.275   7.778
 4475SOL     OW13768   1.504   9.055   7.492
 4475SOL    HW113769   1.412   9.092   7.499
 4475SOL    HW213770   1.542   9.075   7.402
 4476SOL     OW13771   0.590   8.935   7.939
 4476SOL    HW113772   0.632   8.877   7.869
 4476SOL    HW213773   0.546   9.014   7.895
 4477SOL     OW13774   0.255   8.796   7.738
 4477SOL    HW113775   0.159   8.797   7.711
 4477SOL    HW213776   0.267   8.849   7.822
 4478SOL     OW13777   0.075   7.793   7.481
 4478SOL    HW113778  -0.017   7.765   7.452
 4478SOL    HW213779   0.106   7.870   7.425
 4479SOL     OW13780   0.072   7.614   7.766
 4479SOL    HW113781   0.055   7.697   7.712
 4479SOL    HW213782   0.162   7.577   7.744
 4480SOL     OW13783   1.183   8.783   7.567
 4480SOL    HW113784   1.084   8.772   7.569
 4480SOL    HW213785   1.217   8.798   7.660
 4481SOL     OW13786   1.225   7.773   7.897
 4481SOL    HW113787   1.290   7.699   7.886
 4481SOL    HW213788   1.245   7.823   7.981
 4482SOL     OW13789   0.859   8.822   7.464
 4482SOL    HW113790   0.813   8.837   7.552
 4482SOL    HW213791   0.903   8.907   7.434
 4483SOL     OW13792   1.083   8.432   7.535
 4483SOL    HW113793   1.060   8.485   7.453
 4483SOL    HW213794   1.164   8.376   7.516
 4484SOL     OW13795   0.428   7.872   7.968
 4484SOL    HW113796   0.458   7.800   7.906
 4484SOL    HW213797   0.389   7.832   8.051
 4485SOL     OW13798   0.770   8.778   7.749
 4485SOL    HW113799   0.724   8.691   7.766
 4485SOL    HW213800   0.861   8.775   7.790
 4486SOL     OW13801   1.352   7.500   7.616
 4486SOL    HW113802   1.387   7.459   7.532
 4486SOL    HW213803   1.262   7.462   7.636
 4487SOL     OW13804   0.039   8.525   7.748
 4487SOL    HW113805   0.138   8.514   7.739
 4487SOL    HW213806  -0.001   8.439   7.780
 4488SOL     OW13807   2.092   0.628   0.113
 4488SOL    HW113808   1.999   0.626   0.150
 4488SOL    HW213809   2.093   0.589   0.021
 4489SOL     OW13810   2.087   0.275   0.996
 4489SOL    HW113811   2.122   0.258   1.088
 4489SOL    HW213812   1.999   0.230   0.984
 4490SOL     OW13813   1.881   0.368   0.647
 4490SOL    HW113814   1.799   0.411   0.686
 4490SOL    HW213815   1.853   0.295   0.584
 4491SOL     OW13816   2.431   1.275   1.165
 4491SOL    HW113817   2.338   1.268   1.128
 4491SOL    HW213818   2.442   1.364   1.209
 4492SOL     OW13819   3.417   1.511   0.703
 4492SOL    HW113820   3.360   1.495   0.784
 4492SOL    HW213821   3.358   1.521   0.623
 4493SOL     OW13822   2.997   0.703   0.717
 4493SOL    HW113823   3.054   0.781   0.692
 4493SOL    HW213824   2.937   0.729   0.793
 4494SOL     OW13825   3.617   0.607   0.231
 4494SOL    HW113826   3.605   0.594   0.132
 4494SOL    HW213827   3.587   0.526   0.280
 4495SOL     OW13828   2.630   1.144   1.023
 4495SOL    HW113829   2.552   1.161   1.083
 4495SOL    HW213830   2.664   1.231   0.987
 4496SOL     OW13831   2.712   0.798   1.823
 4496SOL    HW113832   2.708   0.874   1.888
 4496SOL    HW213833   2.734   0.834   1.732
 4497SOL     OW13834   2.547   1.012   0.665
 4497SOL    HW113835   2.616   0.996   0.735
 4497SOL    HW213836   2.474   1.069   0.703
 4498SOL     OW13837   2.548   1.161   1.803
 4498SOL    HW113838   2.608   1.240   1.817
 4498SOL    HW213839   2.462   1.192   1.762
 4499SOL     OW13840   2.197   1.435   1.061
 4499SOL    HW113841   2.119   1.404   1.008
 4499SOL    HW213842   2.255   1.493   1.004
 4500SOL     OW13843   3.322   1.505   1.339
 4500SOL    HW113844   3.346   1.599   1.365
 4500SOL    HW213845   3.306   1.451   1.421
 4501SOL     OW13846   2.300   0.392   1.499
 4501SOL    HW113847   2.382   0.336   1.508
 4501SOL    HW213848   2.219   0.334   1.503
 4502SOL     OW13849   3.465   0.447   0.737
 4502SOL    HW113850   3.391   0.493   0.687
 4502SOL    HW213851   3.516   0.515   0.790
 4503SOL     OW13852   2.093   1.713   0.483
 4503SOL    HW113853   2.127   1.790   0.537
 4503SOL    HW213854   2.137   1.713   0.393
 4504SOL     OW13855   2.989   1.341   1.690
 4504SOL    HW113856   3.036   1.341   1.778
 4504SOL    HW213857   2.941   1.254   1.679
 4505SOL     OW13858   2.092   1.434   0.538
 4505SOL    HW113859   2.066   1.530   0.538
 4505SOL    HW213860   2.021   1.380   0.583
 4506SOL     OW13861   2.102   1.091   0.886
 4506SOL    HW113862   2.116   1.007   0.938
 4506SOL    HW213863   2.047   1.155   0.941
 4507SOL     OW13864   2.482   1.786   1.439
 4507SOL    HW113865   2.390   1.769   1.474
 4507SOL    HW213866   2.510   1.878   1.465
 4508SOL     OW13867   2.468   0.964   0.123
 4508SOL    HW113868   2.475   1.048   0.069
 4508SOL    HW213869   2.514   0.977   0.211
 4509SOL     OW13870   3.456   0.114   1.480
 4509SOL    HW113871   3.438   0.181   1.408
 4509SOL    HW213872   3.453   0.160   1.569
 4510SOL     OW13873   3.704   1.767   0.359
 4510SOL    HW113874   3.758   1.738   0.439
 4510SOL    HW213875   3.734   1.857   0.330
 4511SOL     OW13876   1.889   1.596   0.117
 4511SOL    HW113877   1.870   1.500   0.138
 4511SOL    HW213878   1.856   1.654   0.192
 4512SOL     OW13879   3.551   0.922   0.612
 4512SOL    HW113880   3.646   0.893   0.620
 4512SOL    HW213881   3.543   0.987   0.537
 4513SOL     OW13882   1.975   0.737   1.597
 4513SOL    HW113883   2.063   0.724   1.642
 4513SOL    HW213884   1.962   0.834   1.575
 4514SOL     OW13885   2.475   1.365   0.726
 4514SOL    HW113886   2.426   1.278   0.735
 4514SOL    HW213887   2.452   1.408   0.639
 4515SOL     OW13888   3.155   1.228   1.423
 4515SOL    HW113889   3.192   1.155   1.365
 4515SOL    HW213890   3.207   1.233   1.508
 4516SOL     OW13891   2.059   0.976   1.264
 4516SOL    HW113892   2.148   0.931   1.250
 4516SOL    HW213893   1.986   0.911   1.245
 4517SOL     OW13894   3.049   1.792   1.616
 4517SOL    HW113895   3.073   1.852   1.540
 4517SOL    HW213896   3.056   1.697   1.586
 4518SOL     OW13897   2.179   0.251   1.801
 4518SOL    HW113898   2.250   0.322   1.807
 4518SOL    HW213899   2.091   0.290   1.829
 4519SOL     OW13900   3.328   1.417   0.953
 4519SOL    HW113901   3.269   1.423   1.033
 4519SOL    HW213902   3.313   1.329   0.907
 4520SOL     OW13903   3.529   1.714   0.572
 4520SOL    HW113904   3.488   1.691   0.484
 4520SOL    HW213905   3.511   1.640   0.637
 4521SOL     OW13906   2.460   0.729   0.270
 4521SOL    HW113907   2.484   0.798   0.202
 4521SOL    HW213908   2.382   0.762   0.324
 4522SOL     OW13909   3.143   0.345   0.944
 4522SOL    HW113910   3.057   0.295   0.931
 4522SOL    HW213911   3.205   0.291   1.000
 4523SOL     OW13912   2.669   0.605   1.465
 4523SOL    HW113913   2.622   0.602   1.554
 4523SOL    HW213914   2.618   0.550   1.399
 4524SOL     OW13915   3.256   0.469   1.674
 4524SOL    HW113916   3.236   0.512   1.762
 4524SOL    HW213917   3.334   0.407   1.683
 4525SOL     OW13918   2.835   0.890   1.572
 4525SOL    HW113919   2.881   0.806   1.543
 4525SOL    HW213920   2.779   0.924   1.497
 4526SOL     OW13921   2.853   0.410   1.242
 4526SOL    HW113922   2.776   0.444   1.296
 4526SOL    HW213923   2.819   0.359   1.163
 4527SOL     OW13924   2.903   0.701   0.429
 4527SOL    HW113925   2.929   0.697   0.525
 4527SOL    HW213926   2.818   0.650   0.415
 4528SOL     OW13927   1.938   0.811   0.789
 4528SOL    HW113928   2.037   0.799   0.798
 4528SOL    HW213929   1.914   0.906   0.810
 4529SOL     OW13930   1.992   1.821   1.571
 4529SOL    HW113931   1.982   1.806   1.670
 4529SOL    HW213932   1.906   1.857   1.535
 4530SOL     OW13933   2.727   0.348   0.195
 4530SOL    HW113934   2.786   0.411   0.146
 4530SOL    HW213935   2.746   0.254   0.166
 4531SOL     OW13936   3.581   0.585   1.831
 4531SOL    HW113937   3.555   0.674   1.795
 4531SOL    HW213938   3.579   0.517   1.758
 4532SOL     OW13939   3.224   1.144   0.545
 4532SOL    HW113940   3.307   1.115   0.497
 4532SOL    HW213941   3.175   1.211   0.489
 4533SOL     OW13942   2.412   0.196   0.885
 4533SOL    HW113943   2.407   0.191   0.985
 4533SOL    HW213944   2.414   0.292   0.856
 4534SOL     OW13945   2.870   1.456   0.477
 4534SOL    HW113946   2.824   1.528   0.425
 4534SOL    HW213947   2.866   1.476   0.575
 4535SOL     OW13948   2.213   1.801   0.853
 4535SOL    HW113949   2.263   1.715   0.859
 4535SOL    HW213950   2.278   1.878   0.850
 4536SOL     OW13951   3.657   1.066   0.873
 4536SOL    HW113952   3.595   1.051   0.797
 4536SOL    HW213953   3.605   1.077   0.958
 4537SOL     OW13954   3.089   1.550   1.506
 4537SOL    HW113955   3.095   1.473   1.570
 4537SOL    HW213956   3.037   1.524   1.426
 4538SOL     OW13957   2.183   0.943   0.242
 4538SOL    HW113958   2.265   0.982   0.200
 4538SOL    HW213959   2.156   0.861   0.193
 4539SOL     OW13960   3.320   0.735   0.728
 4539SOL    HW113961   3.315   0.670   0.803
 4539SOL    HW213962   3.400   0.794   0.741
 4540SOL     OW13963   2.323   1.266   1.727
 4540SOL    HW113964   2.273   1.267   1.641
 4540SOL    HW213965   2.260   1.248   1.803
 4541SOL     OW13966   2.973   1.776   0.237
 4541SOL    HW113967   2.913   1.714   0.287
 4541SOL    HW213968   3.004   1.732   0.152
 4542SOL     OW13969   2.064   0.285   1.498
 4542SOL    HW113970   1.984   0.345   1.485
 4542SOL    HW213971   2.054   0.236   1.584
 4543SOL     OW13972   2.326   1.743   0.323
 4543SOL    HW113973   2.359   1.782   0.409
 4543SOL    HW213974   2.402   1.736   0.258
 4544SOL     OW13975   3.262   0.107   0.426
 4544SOL    HW113976   3.238   0.070   0.336
 4544SOL    HW213977   3.361   0.123   0.430
 4545SOL     OW13978   2.111   1.785   1.241
 4545SOL    HW113979   2.168   1.720   1.291
 4545SOL    HW213980   2.095   1.752   1.148
 4546SOL     OW13981   2.802   1.698   0.904
 4546SOL    HW113982   2.882   1.641   0.925
 4546SOL    HW213983   2.753   1.658   0.827
 4547SOL     OW13984   2.244   0.700   0.480
 4547SOL    HW113985   2.289   0.610   0.477
 4547SOL    HW213986   2.150   0.689   0.513
 4548SOL     OW13987   3.409   0.222   1.729
 4548SOL    HW113988   3.404   0.259   1.821
 4548SOL    HW213989   3.337   0.153   1.717
 4549SOL     OW13990   2.476   0.122   0.117
 4549SOL    HW113991   2.574   0.100   0.124
 4549SOL    HW213992   2.445   0.105   0.024
 4550SOL     OW13993   2.643   0.264   1.749
 4550SOL    HW113994   2.710   0.203   1.792
 4550SOL    HW213995   2.570   0.283   1.814
 4551SOL     OW13996   2.750   1.514   1.195
 4551SOL    HW113997   2.727   1.489   1.101
 4551SOL    HW213998   2.811   1.445   1.234
 4552SOL     OW13999   3.213   0.590   1.433
 4552SOL    HW114000   3.241   0.547   1.518
 4552SOL    HW214001   3.238   0.686   1.434
 4553SOL     OW14002   2.665   1.402   0.924
 4553SOL    HW114003   2.755   1.416   0.882
 4553SOL    HW214004   2.594   1.404   0.853
 4554SOL     OW14005   2.784   0.503   0.899
 4554SOL    HW114006   2.759   0.494   0.803
 4554SOL    HW214007   2.832   0.421   0.930
 4555SOL     OW14008   2.401   0.064   0.512
 4555SOL    HW114009   2.320   0.065   0.570
 4555SOL    HW214010   2.404   0.147   0.457
 4556SOL     OW14011   2.159   0.035   0.171
 4556SOL    HW114012   2.208   0.119   0.150
 4556SOL    HW214013   2.221  -0.030   0.216
 4557SOL     OW14014   2.797   0.236   0.480
 4557SOL    HW114015   2.749   0.277   0.402
 4557SOL    HW214016   2.896   0.234   0.461
 4558SOL     OW14017   2.938   0.683   1.464
 4558SOL    HW114018   2.858   0.622   1.467
 4558SOL    HW214019   3.019   0.630   1.440
 4559SOL     OW14020   3.089   1.570   0.793
 4559SOL    HW114021   3.110   1.644   0.728
 4559SOL    HW214022   3.157   1.570   0.866
 4560SOL     OW14023   2.321   1.152   0.741
 4560SOL    HW114024   2.250   1.125   0.806
 4560SOL    HW214025   2.295   1.124   0.648
 4561SOL     OW14026   3.133   1.797   0.591
 4561SOL    HW114027   3.177   1.861   0.527
 4561SOL    HW214028   3.083   1.849   0.661
 4562SOL     OW14029   2.894   0.549   0.016
 4562SOL    HW114030   2.853   0.631  -0.023
 4562SOL    HW214031   2.958   0.575   0.089
 4563SOL     OW14032   1.940   0.556   1.386
 4563SOL    HW114033   2.032   0.555   1.345
 4563SOL    HW214034   1.934   0.630   1.453
 4564SOL     OW14035   2.423   0.222   1.147
 4564SOL    HW114036   2.461   0.138   1.184
 4564SOL    HW214037   2.335   0.241   1.191
 4565SOL     OW14038   2.728   0.454   0.642
 4565SOL    HW114039   2.696   0.526   0.580
 4565SOL    HW214040   2.752   0.373   0.589
 4566SOL     OW14041   2.879   0.039   0.753
 4566SOL    HW114042   2.807   0.044   0.684
 4566SOL    HW214043   2.855  -0.030   0.822
 4567SOL     OW14044   3.291   1.173   0.867
 4567SOL    HW114045   3.236   1.089   0.860
 4567SOL    HW214046   3.317   1.202   0.775
 4568SOL     OW14047   3.328   0.590   0.992
 4568SOL    HW114048   3.298   0.495   0.999
 4568SOL    HW214049   3.401   0.606   1.058
 4569SOL     OW14050   2.350   1.385   0.174
 4569SOL    HW114051   2.263   1.370   0.221
 4569SOL    HW214052   2.333   1.411   0.079
 4570SOL     OW14053   3.526   1.280   0.657
 4570SOL    HW114054   3.625   1.288   0.671
 4570SOL    HW214055   3.481   1.364   0.688
 4571SOL     OW14056   2.389   0.256   0.328
 4571SOL    HW114057   2.416   0.197   0.253
 4571SOL    HW214058   2.389   0.351   0.297
 4572SOL     OW14059   3.616   1.223   1.588
 4572SOL    HW114060   3.707   1.184   1.575
 4572SOL    HW214061   3.624   1.319   1.612
 4573SOL     OW14062   2.926   1.347   1.340
 4573SOL    HW114063   2.846   1.324   1.395
 4573SOL    HW214064   3.009   1.321   1.389
 4574SOL     OW14065   3.454   1.629   1.625
 4574SOL    HW114066   3.481   1.663   1.535
 4574SOL    HW214067   3.533   1.591   1.671
 4575SOL     OW14068   2.973   1.195   1.100
 4575SOL    HW114069   2.933   1.239   1.181
 4575SOL    HW214070   2.932   1.232   1.017
 4576SOL     OW14071   3.500   1.099   1.079
 4576SOL    HW114072   3.505   1.180   1.138
 4576SOL    HW214073   3.414   1.101   1.028
 4577SOL     OW14074   2.777   0.089   1.402
 4577SOL    HW114075   2.802   0.069   1.307
 4577SOL    HW214076   2.849   0.145   1.444
 4578SOL     OW14077   2.842   1.116   1.719
 4578SOL    HW114078   2.743   1.122   1.729
 4578SOL    HW214079   2.865   1.036   1.663
 4579SOL     OW14080   2.567   1.050   0.368
 4579SOL    HW114081   2.553   1.057   0.467
 4579SOL    HW214082   2.651   0.999   0.350
 4580SOL     OW14083   2.272   0.813   1.251
 4580SOL    HW114084   2.358   0.825   1.301
 4580SOL    HW214085   2.230   0.726   1.278
 4581SOL     OW14086   3.136   0.386   1.262
 4581SOL    HW114087   3.157   0.460   1.326
 4581SOL    HW214088   3.047   0.403   1.219
 4582SOL     OW14089   1.926   1.564   1.331
 4582SOL    HW114090   1.880   1.646   1.297
 4582SOL    HW214091   2.024   1.583   1.340
 4583SOL     OW14092   2.229   1.100   0.501
 4583SOL    HW114093   2.222   1.183   0.445
 4583SOL    HW214094   2.233   1.020   0.441
 4584SOL     OW14095   2.428   0.537   0.865
 4584SOL    HW114096   2.440   0.603   0.791
 4584SOL    HW214097   2.474   0.571   0.948
 4585SOL     OW14098   3.114   1.348   0.388
 4585SOL    HW114099   3.164   1.425   0.428
 4585SOL    HW214100   3.019   1.350   0.420
 4586SOL     OW14101   3.134   1.445   1.142
 4586SOL    HW114102   3.181   1.458   1.229
 4586SOL    HW214103   3.068   1.371   1.151
 4587SOL     OW14104   3.444   0.639   0.472
 4587SOL    HW114105   3.413   0.700   0.545
 4587SOL    HW214106   3.494   0.691   0.403
 4588SOL     OW14107   2.216   1.510   1.329
 4588SOL    HW114108   2.195   1.466   1.242
 4588SOL    HW214109   2.313   1.536   1.332
 4589SOL     OW14110   2.264   0.751   1.598
 4589SOL    HW114111   2.332   0.806   1.551
 4589SOL    HW214112   2.304   0.663   1.625
 4590SOL     OW14113   3.449   0.779   1.670
 4590SOL    HW114114   3.357   0.817   1.665
 4590SOL    HW214115   3.509   0.826   1.605
 4591SOL     OW14116   2.875   0.105   1.770
 4591SOL    HW114117   2.881   0.190   1.718
 4591SOL    HW214118   2.907   0.029   1.713
 4592SOL     OW14119   2.366   0.050   1.740
 4592SOL    HW114120   2.324  -0.007   1.670
 4592SOL    HW214121   2.300   0.119   1.772
 4593SOL     OW14122   2.435   0.870   1.029
 4593SOL    HW114123   2.479   0.959   1.020
 4593SOL    HW214124   2.372   0.870   1.106
 4594SOL     OW14125   3.222   0.862   1.045
 4594SOL    HW114126   3.147   0.862   0.979
 4594SOL    HW214127   3.259   0.770   1.054
 4595SOL     OW14128   3.071   0.525   0.275
 4595SOL    HW114129   3.084   0.441   0.329
 4595SOL    HW214130   3.042   0.599   0.335
 4596SOL     OW14131   2.169   0.213   1.231
 4596SOL    HW114132   2.146   0.250   1.321
 4596SOL    HW214133   2.139   0.118   1.225
 4597SOL     OW14134   1.899   1.310   1.282
 4597SOL    HW114135   1.952   1.261   1.350
 4597SOL    HW214136   1.921   1.408   1.287
 4598SOL     OW14137   2.594   0.634   1.064
 4598SOL    HW114138   2.653   0.608   0.988
 4598SOL    HW214139   2.566   0.730   1.053
 4599SOL     OW14140   3.590   0.935   1.854
 4599SOL    HW114141   3.544   0.928   1.765
 4599SOL    HW214142   3.528   0.979   1.920
 4600SOL     OW14143   2.169   0.063   0.618
 4600SOL    HW114144   2.158   0.157   0.651
 4600SOL    HW214145   2.164   0.000   0.695
 4601SOL     OW14146   2.885   0.766   0.966
 4601SOL    HW114147   2.900   0.787   1.062
 4601SOL    HW214148   2.855   0.671   0.957
 4602SOL     OW14149   2.842   1.573   1.700
 4602SOL    HW114150   2.822   1.617   1.612
 4602SOL    HW214151   2.881   1.482   1.684
 4603SOL     OW14152   3.721   1.518   1.605
 4603SOL    HW114153   3.735   1.545   1.510
 4603SOL    HW214154   3.804   1.540   1.658
 4604SOL     OW14155   2.212   0.898   1.804
 4604SOL    HW114156   2.288   0.942   1.852
 4604SOL    HW214157   2.247   0.851   1.722
 4605SOL     OW14158   2.930   1.333   0.849
 4605SOL    HW114159   2.937   1.249   0.794
 4605SOL    HW214160   2.992   1.402   0.813
 4606SOL     OW14161   2.181   0.810   0.949
 4606SOL    HW114162   2.274   0.846   0.954
 4606SOL    HW214163   2.175   0.725   1.001
 4607SOL     OW14164   2.201   0.509   1.006
 4607SOL    HW114165   2.149   0.426   0.989
 4607SOL    HW214166   2.278   0.514   0.942
 4608SOL     OW14167   3.000   0.380   1.678
 4608SOL    HW114168   2.955   0.443   1.742
 4608SOL    HW214169   3.093   0.411   1.661
 4609SOL     OW14170   3.022   0.207   1.477
 4609SOL    HW114171   3.022   0.271   1.554
 4609SOL    HW214172   3.050   0.255   1.394
 4610SOL     OW14173   1.870   1.326   0.200
 4610SOL    HW114174   1.777   1.347   0.169
 4610SOL    HW214175   1.880   1.227   0.213
 4611SOL     OW14176   1.950   1.801   0.927
 4611SOL    HW114177   1.908   1.715   0.900
 4611SOL    HW214178   2.044   1.804   0.893
 4612SOL     OW14179   2.366   1.568   0.910
 4612SOL    HW114180   2.432   1.642   0.919
 4612SOL    HW214181   2.410   1.489   0.868
 4613SOL     OW14182   2.864   0.796   1.238
 4613SOL    HW114183   2.905   0.764   1.324
 4613SOL    HW214184   2.768   0.769   1.235
 4614SOL     OW14185   1.902   0.544   1.114
 4614SOL    HW114186   1.987   0.511   1.073
 4614SOL    HW214187   1.915   0.559   1.212
 4615SOL     OW14188   2.051   0.520   1.722
 4615SOL    HW114189   2.110   0.480   1.652
 4615SOL    HW214190   1.993   0.591   1.681
 4616SOL     OW14191   3.231   0.950   1.660
 4616SOL    HW114192   3.270   1.039   1.680
 4616SOL    HW214193   3.241   0.930   1.563
 4617SOL     OW14194   2.677   0.572   0.325
 4617SOL    HW114195   2.684   0.483   0.279
 4617SOL    HW214196   2.583   0.606   0.317
 4618SOL     OW14197   3.519   0.604   1.206
 4618SOL    HW114198   3.481   0.535   1.268
 4618SOL    HW214199   3.601   0.568   1.162
 4619SOL     OW14200   2.114   1.564   1.744
 4619SOL    HW114201   2.084   1.621   1.820
 4619SOL    HW214202   2.107   1.467   1.770
 4620SOL     OW14203   2.533   0.464   1.269
 4620SOL    HW114204   2.499   0.375   1.239
 4620SOL    HW214205   2.559   0.518   1.189
 4621SOL     OW14206   2.792   1.678   1.465
 4621SOL    HW114207   2.768   1.660   1.370
 4621SOL    HW214208   2.822   1.772   1.475
 4622SOL     OW14209   2.335   0.500   0.191
 4622SOL    HW114210   2.396   0.580   0.195
 4622SOL    HW214211   2.240   0.531   0.198
 4623SOL     OW14212   3.209   1.059   1.234
 4623SOL    HW114213   3.233   0.996   1.160
 4623SOL    HW214214   3.119   1.099   1.216
 4624SOL     OW14215   3.164   0.855   0.309
 4624SOL    HW114216   3.078   0.824   0.351
 4624SOL    HW214217   3.160   0.841   0.210
 4625SOL     OW14218   3.621   1.747   1.154
 4625SOL    HW114219   3.682   1.777   1.081
 4625SOL    HW214220   3.583   1.658   1.132
 4626SOL     OW14221   3.114   1.731   1.128
 4626SOL    HW114222   3.198   1.736   1.074
 4626SOL    HW214223   3.091   1.635   1.146
 4627SOL     OW14224   1.945   1.258   1.022
 4627SOL    HW114225   1.940   1.257   1.122
 4627SOL    HW214226   1.862   1.217   0.984
 4628SOL     OW14227   2.550   1.662   1.716
 4628SOL    HW114228   2.494   1.743   1.725
 4628SOL    HW214229   2.602   1.666   1.630
 4629SOL     OW14230   2.765   0.086   0.133
 4629SOL    HW114231   2.816   0.087   0.047
 4629SOL    HW214232   2.821   0.044   0.204
 4630SOL     OW14233   3.588   0.135   0.523
 4630SOL    HW114234   3.661   0.118   0.456
 4630SOL    HW214235   3.557   0.048   0.561
 4631SOL     OW14236   3.250   1.573   0.477
 4631SOL    HW114237   3.317   1.585   0.403
 4631SOL    HW214238   3.210   1.662   0.500
 4632SOL     OW14239   1.992   1.794   1.851
 4632SOL    HW114240   1.951   1.720   1.904
 4632SOL    HW214241   2.056   1.845   1.909
 4633SOL     OW14242   3.142   0.927   0.672
 4633SOL    HW114243   3.202   0.846   0.674
 4633SOL    HW214244   3.182   0.996   0.612
 4634SOL     OW14245   2.692   1.273   1.422
 4634SOL    HW114246   2.687   1.306   1.517
 4634SOL    HW214247   2.606   1.292   1.376
 4635SOL     OW14248   2.534   1.616   0.154
 4635SOL    HW114249   2.543   1.626   0.055
 4635SOL    HW214250   2.494   1.527   0.175
 4636SOL     OW14251   3.512   1.720   1.394
 4636SOL    HW114252   3.565   1.730   1.310
 4636SOL    HW214253   3.485   1.810   1.428
 4637SOL     OW14254   3.703   0.175   0.963
 4637SOL    HW114255   3.742   0.090   0.927
 4637SOL    HW214256   3.605   0.177   0.944
 4638SOL     OW14257   2.125   0.326   0.720
 4638SOL    HW114258   2.046   0.377   0.686
 4638SOL    HW214259   2.116   0.311   0.818
 4639SOL     OW14260   3.056   1.612   0.031
 4639SOL    HW114261   3.062   1.519   0.068
 4639SOL    HW214262   2.997   1.612  -0.049
 4640SOL     OW14263   2.684   1.002   1.372
 4640SOL    HW114264   2.724   1.001   1.280
 4640SOL    HW214265   2.694   1.094   1.412
 4641SOL     OW14266   2.778   0.910   0.291
 4641SOL    HW114267   2.841   0.948   0.223
 4641SOL    HW214268   2.818   0.827   0.330
 4642SOL     OW14269   2.234   1.288   1.490
 4642SOL    HW114270   2.221   1.381   1.456
 4642SOL    HW214271   2.150   1.236   1.477
 4643SOL     OW14272   3.476   1.292   1.289
 4643SOL    HW114273   3.536   1.295   1.369
 4643SOL    HW214274   3.401   1.356   1.302
 4644SOL     OW14275   2.901   1.098   0.696
 4644SOL    HW114276   2.831   1.051   0.750
 4644SOL    HW214277   2.960   1.030   0.653
 4645SOL     OW14278   2.876   0.236   0.971
 4645SOL    HW114279   2.868   0.200   0.878
 4645SOL    HW214280   2.874   0.160   1.036
 4646SOL     OW14281   2.452   1.487   0.491
 4646SOL    HW114282   2.494   1.429   0.421
 4646SOL    HW214283   2.408   1.566   0.447
 4647SOL     OW14284   3.571   0.385   1.381
 4647SOL    HW114285   3.644   0.454   1.385
 4647SOL    HW214286   3.599   0.310   1.322
 4648SOL     OW14287   2.117   1.348   0.290
 4648SOL    HW114288   2.021   1.349   0.263
 4648SOL    HW214289   2.129   1.401   0.374
 4649SOL     OW14290   1.967   1.013   1.726
 4649SOL    HW114291   1.890   0.980   1.780
 4649SOL    HW214292   2.052   0.983   1.768
 4650SOL     OW14293   2.534   0.203   1.489
 4650SOL    HW114294   2.624   0.187   1.449
 4650SOL    HW214295   2.542   0.208   1.588
 4651SOL     OW14296   1.937   0.345   0.033
 4651SOL    HW114297   1.845   0.317   0.004
 4651SOL    HW214298   1.968   0.422  -0.023
 4652SOL     OW14299   3.302   0.856   1.398
 4652SOL    HW114300   3.245   0.908   1.335
 4652SOL    HW214301   3.398   0.868   1.374
 4653SOL     OW14302   1.934   0.166   0.318
 4653SOL    HW114303   1.917   0.249   0.264
 4653SOL    HW214304   2.024   0.129   0.296
 4654SOL     OW14305   3.045   1.335   0.119
 4654SOL    HW114306   2.946   1.324   0.121
 4654SOL    HW214307   3.079   1.350   0.212
 4655SOL     OW14308   2.475   0.842   1.431
 4655SOL    HW114309   2.531   0.923   1.414
 4655SOL    HW214310   2.534   0.762   1.434
 4656SOL     OW14311   3.355   1.767   0.959
 4656SOL    HW114312   3.388   1.831   0.890
 4656SOL    HW214313   3.421   1.761   1.034
 4657SOL     OW14314   2.578   0.565   1.708
 4657SOL    HW114315   2.597   0.630   1.782
 4657SOL    HW214316   2.638   0.485   1.717
 4658SOL     OW14317   3.312   1.220   1.633
 4658SOL    HW114318   3.303   1.210   1.732
 4658SOL    HW214319   3.408   1.213   1.607
 4659SOL     OW14320   2.252   1.741   1.560
 4659SOL    HW114321   2.161   1.782   1.558
 4659SOL    HW214322   2.245   1.647   1.592
 4660SOL     OW14323   3.536   0.883   1.254
 4660SOL    HW114324   3.509   0.794   1.217
 4660SOL    HW214325   3.537   0.951   1.181
 4661SOL     OW14326   3.087   0.325   0.449
 4661SOL    HW114327   3.152   0.251   0.438
 4661SOL    HW214328   3.107   0.375   0.533
 4662SOL     OW14329   2.456   0.745   0.652
 4662SOL    HW114330   2.506   0.830   0.633
 4662SOL    HW214331   2.368   0.747   0.604
 4663SOL     OW14332   3.639   0.342   1.642
 4663SOL    HW114333   3.622   0.373   1.548
 4663SOL    HW214334   3.555   0.305   1.680
 4664SOL     OW14335   3.592   0.934   1.517
 4664SOL    HW114336   3.630   1.025   1.532
 4664SOL    HW214337   3.584   0.917   1.418
 4665SOL     OW14338   2.721   1.374   0.016
 4665SOL    HW114339   2.675   1.389   0.104
 4665SOL    HW214340   2.765   1.459  -0.014
 4666SOL     OW14341   2.523   1.790   0.953
 4666SOL    HW114342   2.477   1.878   0.940
 4666SOL    HW214343   2.622   1.802   0.946
 4667SOL     OW14344   2.721   0.956   0.861
 4667SOL    HW114345   2.775   0.887   0.909
 4667SOL    HW214346   2.689   1.025   0.927
 4668SOL     OW14347   2.945   0.984   0.087
 4668SOL    HW114348   2.922   1.037   0.005
 4668SOL    HW214349   3.026   0.928   0.068
 4669SOL     OW14350   3.723   1.569   0.851
 4669SOL    HW114351   3.652   1.557   0.781
 4669SOL    HW214352   3.724   1.490   0.911
 4670SOL     OW14353   2.083   1.314   1.844
 4670SOL    HW114354   2.018   1.241   1.823
 4670SOL    HW214355   2.087   1.328   1.942
 4671SOL     OW14356   1.941   1.240   0.653
 4671SOL    HW114357   1.940   1.193   0.741
 4671SOL    HW214358   2.023   1.212   0.602
 4672SOL     OW14359   2.534   1.391   1.624
 4672SOL    HW114360   2.456   1.341   1.662
 4672SOL    HW214361   2.531   1.486   1.655
 4673SOL     OW14362   3.686   0.192   1.227
 4673SOL    HW114363   3.682   0.102   1.271
 4673SOL    HW214364   3.689   0.181   1.128
 4674SOL     OW14365   2.290   0.424   0.520
 4674SOL    HW114366   2.320   0.352   0.458
 4674SOL    HW214367   2.251   0.384   0.603
 4675SOL     OW14368   3.567   1.487   1.104
 4675SOL    HW114369   3.474   1.462   1.077
 4675SOL    HW214370   3.593   1.437   1.186
 4676SOL     OW14371   2.179   0.547   1.280
 4676SOL    HW114372   2.217   0.488   1.352
 4676SOL    HW214373   2.219   0.521   1.192
 4677SOL     OW14374   2.674   1.586   0.687
 4677SOL    HW114375   2.706   1.596   0.593
 4677SOL    HW214376   2.595   1.524   0.689
 4678SOL     OW14377   3.286   0.214   1.112
 4678SOL    HW114378   3.338   0.149   1.167
 4678SOL    HW214379   3.237   0.277   1.173
 4679SOL     OW14380   2.863   0.034   1.154
 4679SOL    HW114381   2.800  -0.038   1.123
 4679SOL    HW214382   2.956  -0.002   1.154
 4680SOL     OW14383   2.632   1.330   0.301
 4680SOL    HW114384   2.586   1.243   0.318
 4680SOL    HW214385   2.723   1.327   0.342
 4681SOL     OW14386   2.480   1.567   1.284
 4681SOL    HW114387   2.475   1.649   1.341
 4681SOL    HW214388   2.569   1.564   1.239
 4682SOL     OW14389   3.214   0.052   0.168
 4682SOL    HW114390   3.249   0.011   0.084
 4682SOL    HW214391   3.124   0.014   0.188
 4683SOL     OW14392   3.162   0.453   0.691
 4683SOL    HW114393   3.103   0.533   0.695
 4683SOL    HW214394   3.177   0.418   0.784
 4684SOL     OW14395   3.455   0.221   0.882
 4684SOL    HW114396   3.371   0.220   0.936
 4684SOL    HW214397   3.457   0.304   0.826
 4685SOL     OW14398   1.901   1.077   0.300
 4685SOL    HW114399   2.000   1.066   0.291
 4685SOL    HW214400   1.861   0.991   0.332
 4686SOL     OW14401   2.737   1.646   0.337
 4686SOL    HW114402   2.660   1.611   0.283
 4686SOL    HW214403   2.705   1.717   0.399
 4687SOL     OW14404   2.092   0.628   1.975
 4687SOL    HW114405   1.999   0.626   2.012
 4687SOL    HW214406   2.093   0.589   1.883
 4688SOL     OW14407   2.087   0.275   2.858
 4688SOL    HW114408   2.122   0.258   2.950
 4688SOL    HW214409   1.999   0.230   2.846
 4689SOL     OW14410   1.881   0.368   2.509
 4689SOL    HW114411   1.799   0.411   2.548
 4689SOL    HW214412   1.853   0.295   2.446
 4690SOL     OW14413   2.431   1.275   3.027
 4690SOL    HW114414   2.338   1.268   2.990
 4690SOL    HW214415   2.442   1.364   3.071
 4691SOL     OW14416   3.417   1.511   2.565
 4691SOL    HW114417   3.360   1.495   2.646
 4691SOL    HW214418   3.358   1.521   2.485
 4692SOL     OW14419   2.997   0.703   2.579
 4692SOL    HW114420   3.054   0.781   2.554
 4692SOL    HW214421   2.937   0.729   2.655
 4693SOL     OW14422   3.617   0.607   2.093
 4693SOL    HW114423   3.605   0.594   1.994
 4693SOL    HW214424   3.587   0.526   2.142
 4694SOL     OW14425   2.630   1.144   2.885
 4694SOL    HW114426   2.552   1.161   2.945
 4694SOL    HW214427   2.664   1.231   2.849
 4695SOL     OW14428   2.712   0.798   3.685
 4695SOL    HW114429   2.708   0.874   3.750
 4695SOL    HW214430   2.734   0.834   3.594
 4696SOL     OW14431   2.547   1.012   2.527
 4696SOL    HW114432   2.616   0.996   2.597
 4696SOL    HW214433   2.474   1.069   2.565
 4697SOL     OW14434   2.548   1.161   3.665
 4697SOL    HW114435   2.608   1.240   3.679
 4697SOL    HW214436   2.462   1.192   3.624
 4698SOL     OW14437   2.197   1.435   2.923
 4698SOL    HW114438   2.119   1.404   2.870
 4698SOL    HW214439   2.255   1.493   2.866
 4699SOL     OW14440   3.322   1.505   3.201
 4699SOL    HW114441   3.346   1.599   3.227
 4699SOL    HW214442   3.306   1.451   3.283
 4700SOL     OW14443   2.300   0.392   3.361
 4700SOL    HW114444   2.382   0.336   3.370
 4700SOL    HW214445   2.219   0.334   3.365
 4701SOL     OW14446   3.465   0.447   2.599
 4701SOL    HW114447   3.391   0.493   2.549
 4701SOL    HW214448   3.516   0.515   2.652
 4702SOL     OW14449   2.093   1.713   2.345
 4702SOL    HW114450   2.127   1.790   2.399
 4702SOL    HW214451   2.137   1.713   2.255
 4703SOL     OW14452   2.989   1.341   3.552
 4703SOL    HW114453   3.036   1.341   3.640
 4703SOL    HW214454   2.941   1.254   3.541
 4704SOL     OW14455   2.092   1.434   2.400
 4704SOL    HW114456   2.066   1.530   2.400
 4704SOL    HW214457   2.021   1.380   2.445
 4705SOL     OW14458   2.102   1.091   2.748
 4705SOL    HW114459   2.116   1.007   2.800
 4705SOL    HW214460   2.047   1.155   2.803
 4706SOL     OW14461   2.482   1.786   3.301
 4706SOL    HW114462   2.390   1.769   3.336
 4706SOL    HW214463   2.510   1.878   3.327
 4707SOL     OW14464   2.468   0.964   1.985
 4707SOL    HW114465   2.475   1.048   1.931
 4707SOL    HW214466   2.514   0.977   2.073
 4708SOL     OW14467   3.456   0.114   3.342
 4708SOL    HW114468   3.438   0.181   3.270
 4708SOL    HW214469   3.453   0.160   3.431
 4709SOL     OW14470   1.984   0.643   2.425
 4709SOL    HW114471   1.939   0.555   2.442
 4709SOL    HW214472   1.983   0.697   2.509
 4710SOL     OW14473   3.704   1.767   2.221
 4710SOL    HW114474   3.758   1.738   2.301
 4710SOL    HW214475   3.734   1.857   2.192
 4711SOL     OW14476   1.889   1.596   1.979
 4711SOL    HW114477   1.870   1.500   2.000
 4711SOL    HW214478   1.856   1.654   2.054
 4712SOL     OW14479   3.551   0.922   2.474
 4712SOL    HW114480   3.646   0.893   2.482
 4712SOL    HW214481   3.543   0.987   2.399
 4713SOL     OW14482   3.503   1.108   2.294
 4713SOL    HW114483   3.589   1.110   2.242
 4713SOL    HW214484   3.517   1.155   2.382
 4714SOL     OW14485   1.975   0.737   3.459
 4714SOL    HW114486   2.063   0.724   3.504
 4714SOL    HW214487   1.962   0.834   3.437
 4715SOL     OW14488   2.475   1.365   2.588
 4715SOL    HW114489   2.426   1.278   2.597
 4715SOL    HW214490   2.452   1.408   2.501
 4716SOL     OW14491   3.155   1.228   3.285
 4716SOL    HW114492   3.192   1.155   3.227
 4716SOL    HW214493   3.207   1.233   3.370
 4717SOL     OW14494   2.671   0.004   2.364
 4717SOL    HW114495   2.711   0.095   2.355
 4717SOL    HW214496   2.571   0.012   2.370
 4718SOL     OW14497   2.059   0.976   3.126
 4718SOL    HW114498   2.148   0.931   3.112
 4718SOL    HW214499   1.986   0.911   3.107
 4719SOL     OW14500   3.387   0.999   2.052
 4719SOL    HW114501   3.324   0.923   2.065
 4719SOL    HW214502   3.435   1.017   2.138
 4720SOL     OW14503   3.049   1.792   3.478
 4720SOL    HW114504   3.073   1.852   3.402
 4720SOL    HW214505   3.056   1.697   3.448
 4721SOL     OW14506   2.179   0.251   3.663
 4721SOL    HW114507   2.250   0.322   3.669
 4721SOL    HW214508   2.091   0.290   3.691
 4722SOL     OW14509   3.328   1.417   2.815
 4722SOL    HW114510   3.269   1.423   2.895
 4722SOL    HW214511   3.313   1.329   2.769
 4723SOL     OW14512   3.529   1.714   2.434
 4723SOL    HW114513   3.488   1.691   2.346
 4723SOL    HW214514   3.511   1.640   2.499
 4724SOL     OW14515   2.460   0.729   2.132
 4724SOL    HW114516   2.484   0.798   2.064
 4724SOL    HW214517   2.382   0.762   2.186
 4725SOL     OW14518   3.143   0.345   2.806
 4725SOL    HW114519   3.057   0.295   2.793
 4725SOL    HW214520   3.205   0.291   2.862
 4726SOL     OW14521   3.438   1.662   2.169
 4726SOL    HW114522   3.527   1.708   2.172
 4726SOL    HW214523   3.417   1.638   2.074
 4727SOL     OW14524   2.669   0.605   3.327
 4727SOL    HW114525   2.622   0.602   3.416
 4727SOL    HW214526   2.618   0.550   3.261
 4728SOL     OW14527   3.256   0.469   3.536
 4728SOL    HW114528   3.236   0.512   3.624
 4728SOL    HW214529   3.334   0.407   3.545
 4729SOL     OW14530   2.835   0.890   3.434
 4729SOL    HW114531   2.881   0.806   3.405
 4729SOL    HW214532   2.779   0.924   3.359
 4730SOL     OW14533   2.853   0.410   3.104
 4730SOL    HW114534   2.776   0.444   3.158
 4730SOL    HW214535   2.819   0.359   3.025
 4731SOL     OW14536   2.903   0.701   2.291
 4731SOL    HW114537   2.929   0.697   2.387
 4731SOL    HW214538   2.818   0.650   2.277
 4732SOL     OW14539   1.938   0.811   2.651
 4732SOL    HW114540   2.037   0.799   2.660
 4732SOL    HW214541   1.914   0.906   2.672
 4733SOL     OW14542   1.992   1.821   3.433
 4733SOL    HW114543   1.982   1.806   3.532
 4733SOL    HW214544   1.906   1.857   3.397
 4734SOL     OW14545   2.727   0.348   2.057
 4734SOL    HW114546   2.786   0.411   2.008
 4734SOL    HW214547   2.746   0.254   2.028
 4735SOL     OW14548   3.581   0.585   3.693
 4735SOL    HW114549   3.555   0.674   3.657
 4735SOL    HW214550   3.579   0.517   3.620
 4736SOL     OW14551   3.224   1.144   2.407
 4736SOL    HW114552   3.307   1.115   2.359
 4736SOL    HW214553   3.175   1.211   2.351
 4737SOL     OW14554   2.412   0.196   2.747
 4737SOL    HW114555   2.407   0.191   2.847
 4737SOL    HW214556   2.414   0.292   2.718
 4738SOL     OW14557   2.870   1.456   2.339
 4738SOL    HW114558   2.824   1.528   2.287
 4738SOL    HW214559   2.866   1.476   2.437
 4739SOL     OW14560   2.213   1.801   2.715
 4739SOL    HW114561   2.263   1.715   2.721
 4739SOL    HW214562   2.278   1.878   2.712
 4740SOL     OW14563   3.657   1.066   2.735
 4740SOL    HW114564   3.595   1.051   2.659
 4740SOL    HW214565   3.605   1.077   2.820
 4741SOL     OW14566   3.089   1.550   3.368
 4741SOL    HW114567   3.095   1.473   3.432
 4741SOL    HW214568   3.037   1.524   3.288
 4742SOL     OW14569   2.183   0.943   2.104
 4742SOL    HW114570   2.265   0.982   2.062
 4742SOL    HW214571   2.156   0.861   2.055
 4743SOL     OW14572   3.320   0.735   2.590
 4743SOL    HW114573   3.315   0.670   2.665
 4743SOL    HW214574   3.400   0.794   2.603
 4744SOL     OW14575   2.323   1.266   3.589
 4744SOL    HW114576   2.273   1.267   3.503
 4744SOL    HW214577   2.260   1.248   3.665
 4745SOL     OW14578   2.973   1.776   2.099
 4745SOL    HW114579   2.913   1.714   2.149
 4745SOL    HW214580   3.004   1.732   2.014
 4746SOL     OW14581   2.064   0.285   3.360
 4746SOL    HW114582   1.984   0.345   3.347
 4746SOL    HW214583   2.054   0.236   3.446
 4747SOL     OW14584   3.494   1.377   1.943
 4747SOL    HW114585   3.462   1.471   1.933
 4747SOL    HW214586   3.418   1.314   1.931
 4748SOL     OW14587   2.326   1.743   2.185
 4748SOL    HW114588   2.359   1.782   2.271
 4748SOL    HW214589   2.402   1.736   2.120
 4749SOL     OW14590   3.262   0.107   2.288
 4749SOL    HW114591   3.238   0.070   2.198
 4749SOL    HW214592   3.361   0.123   2.292
 4750SOL     OW14593   2.111   1.785   3.103
 4750SOL    HW114594   2.168   1.720   3.153
 4750SOL    HW214595   2.095   1.752   3.010
 4751SOL     OW14596   2.802   1.698   2.766
 4751SOL    HW114597   2.882   1.641   2.787
 4751SOL    HW214598   2.753   1.658   2.689
 4752SOL     OW14599   2.244   0.700   2.342
 4752SOL    HW114600   2.289   0.610   2.339
 4752SOL    HW214601   2.150   0.689   2.375
 4753SOL     OW14602   3.409   0.222   3.591
 4753SOL    HW114603   3.404   0.259   3.683
 4753SOL    HW214604   3.337   0.153   3.579
 4754SOL     OW14605   2.476   0.122   1.979
 4754SOL    HW114606   2.574   0.100   1.986
 4754SOL    HW214607   2.445   0.105   1.886
 4755SOL     OW14608   2.643   0.264   3.611
 4755SOL    HW114609   2.710   0.203   3.654
 4755SOL    HW214610   2.570   0.283   3.676
 4756SOL     OW14611   2.750   1.514   3.057
 4756SOL    HW114612   2.727   1.489   2.963
 4756SOL    HW214613   2.811   1.445   3.096
 4757SOL     OW14614   3.213   0.590   3.295
 4757SOL    HW114615   3.241   0.547   3.380
 4757SOL    HW214616   3.238   0.686   3.296
 4758SOL     OW14617   2.665   1.402   2.786
 4758SOL    HW114618   2.755   1.416   2.744
 4758SOL    HW214619   2.594   1.404   2.715
 4759SOL     OW14620   2.784   0.503   2.761
 4759SOL    HW114621   2.759   0.494   2.665
 4759SOL    HW214622   2.832   0.421   2.792
 4760SOL     OW14623   2.401   0.064   2.374
 4760SOL    HW114624   2.320   0.065   2.432
 4760SOL    HW214625   2.404   0.147   2.319
 4761SOL     OW14626   3.296   1.188   1.903
 4761SOL    HW114627   3.328   1.112   1.960
 4761SOL    HW214628   3.204   1.215   1.933
 4762SOL     OW14629   2.159   0.035   2.033
 4762SOL    HW114630   2.208   0.119   2.012
 4762SOL    HW214631   2.221  -0.030   2.078
 4763SOL     OW14632   2.797   0.236   2.342
 4763SOL    HW114633   2.749   0.277   2.264
 4763SOL    HW214634   2.896   0.234   2.323
 4764SOL     OW14635   2.938   0.683   3.326
 4764SOL    HW114636   2.858   0.622   3.329
 4764SOL    HW214637   3.019   0.630   3.302
 4765SOL     OW14638   3.089   1.570   2.655
 4765SOL    HW114639   3.110   1.644   2.590
 4765SOL    HW214640   3.157   1.570   2.728
 4766SOL     OW14641   2.321   1.152   2.603
 4766SOL    HW114642   2.250   1.125   2.668
 4766SOL    HW214643   2.295   1.124   2.510
 4767SOL     OW14644   3.133   1.797   2.453
 4767SOL    HW114645   3.177   1.861   2.389
 4767SOL    HW214646   3.083   1.849   2.523
 4768SOL     OW14647   2.894   0.549   1.878
 4768SOL    HW114648   2.853   0.631   1.839
 4768SOL    HW214649   2.958   0.575   1.951
 4769SOL     OW14650   1.940   0.556   3.248
 4769SOL    HW114651   2.032   0.555   3.207
 4769SOL    HW214652   1.934   0.630   3.315
 4770SOL     OW14653   2.423   0.222   3.009
 4770SOL    HW114654   2.461   0.138   3.046
 4770SOL    HW214655   2.335   0.241   3.053
 4771SOL     OW14656   2.728   0.454   2.504
 4771SOL    HW114657   2.696   0.526   2.442
 4771SOL    HW214658   2.752   0.373   2.451
 4772SOL     OW14659   2.879   0.039   2.615
 4772SOL    HW114660   2.807   0.044   2.546
 4772SOL    HW214661   2.855  -0.030   2.684
 4773SOL     OW14662   3.291   1.173   2.729
 4773SOL    HW114663   3.236   1.089   2.722
 4773SOL    HW214664   3.317   1.202   2.637
 4774SOL     OW14665   3.328   0.590   2.854
 4774SOL    HW114666   3.298   0.495   2.861
 4774SOL    HW214667   3.401   0.606   2.920
 4775SOL     OW14668   3.719   0.833   2.239
 4775SOL    HW114669   3.761   0.769   2.303
 4775SOL    HW214670   3.681   0.782   2.161
 4776SOL     OW14671   2.350   1.385   2.036
 4776SOL    HW114672   2.263   1.370   2.083
 4776SOL    HW214673   2.333   1.411   1.941
 4777SOL     OW14674   3.526   1.280   2.519
 4777SOL    HW114675   3.625   1.288   2.533
 4777SOL    HW214676   3.481   1.364   2.550
 4778SOL     OW14677   3.252   0.575   1.940
 4778SOL    HW114678   3.198   0.554   2.021
 4778SOL    HW214679   3.343   0.534   1.949
 4779SOL     OW14680   2.389   0.256   2.190
 4779SOL    HW114681   2.416   0.197   2.115
 4779SOL    HW214682   2.389   0.351   2.159
 4780SOL     OW14683   3.616   1.223   3.450
 4780SOL    HW114684   3.707   1.184   3.437
 4780SOL    HW214685   3.624   1.319   3.474
 4781SOL     OW14686   2.926   1.347   3.202
 4781SOL    HW114687   2.846   1.324   3.257
 4781SOL    HW214688   3.009   1.321   3.251
 4782SOL     OW14689   3.454   1.629   3.487
 4782SOL    HW114690   3.481   1.663   3.397
 4782SOL    HW214691   3.533   1.591   3.533
 4783SOL     OW14692   2.973   1.195   2.962
 4783SOL    HW114693   2.933   1.239   3.043
 4783SOL    HW214694   2.932   1.232   2.879
 4784SOL     OW14695   3.500   1.099   2.941
 4784SOL    HW114696   3.505   1.180   3.000
 4784SOL    HW214697   3.414   1.101   2.890
 4785SOL     OW14698   2.777   0.089   3.264
 4785SOL    HW114699   2.802   0.069   3.169
 4785SOL    HW214700   2.849   0.145   3.306
 4786SOL     OW14701   2.842   1.116   3.581
 4786SOL    HW114702   2.743   1.122   3.591
 4786SOL    HW214703   2.865   1.036   3.525
 4787SOL     OW14704   2.567   1.050   2.230
 4787SOL    HW114705   2.553   1.057   2.329
 4787SOL    HW214706   2.651   0.999   2.212
 4788SOL     OW14707   2.272   0.813   3.113
 4788SOL    HW114708   2.358   0.825   3.163
 4788SOL    HW214709   2.230   0.726   3.140
 4789SOL     OW14710   3.136   0.386   3.124
 4789SOL    HW114711   3.157   0.460   3.188
 4789SOL    HW214712   3.047   0.403   3.081
 4790SOL     OW14713   1.926   1.564   3.193
 4790SOL    HW114714   1.880   1.646   3.159
 4790SOL    HW214715   2.024   1.583   3.202
 4791SOL     OW14716   2.229   1.100   2.363
 4791SOL    HW114717   2.222   1.183   2.307
 4791SOL    HW214718   2.233   1.020   2.303
 4792SOL     OW14719   2.428   0.537   2.727
 4792SOL    HW114720   2.440   0.603   2.653
 4792SOL    HW214721   2.474   0.571   2.810
 4793SOL     OW14722   3.114   1.348   2.250
 4793SOL    HW114723   3.164   1.425   2.290
 4793SOL    HW214724   3.019   1.350   2.282
 4794SOL     OW14725   3.134   1.445   3.004
 4794SOL    HW114726   3.181   1.458   3.091
 4794SOL    HW214727   3.068   1.371   3.013
 4795SOL     OW14728   3.444   0.639   2.334
 4795SOL    HW114729   3.413   0.700   2.407
 4795SOL    HW214730   3.494   0.691   2.265
 4796SOL     OW14731   2.216   1.510   3.191
 4796SOL    HW114732   2.195   1.466   3.104
 4796SOL    HW214733   2.313   1.536   3.194
 4797SOL     OW14734   2.264   0.751   3.460
 4797SOL    HW114735   2.332   0.806   3.413
 4797SOL    HW214736   2.304   0.663   3.487
 4798SOL     OW14737   3.449   0.779   3.532
 4798SOL    HW114738   3.357   0.817   3.527
 4798SOL    HW214739   3.509   0.826   3.467
 4799SOL     OW14740   2.875   0.105   3.632
 4799SOL    HW114741   2.881   0.190   3.580
 4799SOL    HW214742   2.907   0.029   3.575
 4800SOL     OW14743   2.366   0.050   3.602
 4800SOL    HW114744   2.324  -0.007   3.532
 4800SOL    HW214745   2.300   0.119   3.634
 4801SOL     OW14746   2.435   0.870   2.891
 4801SOL    HW114747   2.479   0.959   2.882
 4801SOL    HW214748   2.372   0.870   2.968
 4802SOL     OW14749   3.222   0.862   2.907
 4802SOL    HW114750   3.147   0.862   2.841
 4802SOL    HW214751   3.259   0.770   2.916
 4803SOL     OW14752   3.071   0.525   2.137
 4803SOL    HW114753   3.084   0.441   2.191
 4803SOL    HW214754   3.042   0.599   2.197
 4804SOL     OW14755   2.169   0.213   3.093
 4804SOL    HW114756   2.146   0.250   3.183
 4804SOL    HW214757   2.139   0.118   3.087
 4805SOL     OW14758   1.899   1.310   3.144
 4805SOL    HW114759   1.952   1.261   3.212
 4805SOL    HW214760   1.921   1.408   3.149
 4806SOL     OW14761   2.594   0.634   2.926
 4806SOL    HW114762   2.653   0.608   2.850
 4806SOL    HW214763   2.566   0.730   2.915
 4807SOL     OW14764   3.590   0.935   3.716
 4807SOL    HW114765   3.544   0.928   3.627
 4807SOL    HW214766   3.528   0.979   3.782
 4808SOL     OW14767   2.169   0.063   2.480
 4808SOL    HW114768   2.158   0.157   2.513
 4808SOL    HW214769   2.164   0.000   2.557
 4809SOL     OW14770   3.484   0.367   2.236
 4809SOL    HW114771   3.486   0.291   2.300
 4809SOL    HW214772   3.436   0.444   2.276
 4810SOL     OW14773   2.885   0.766   2.828
 4810SOL    HW114774   2.900   0.787   2.924
 4810SOL    HW214775   2.855   0.671   2.819
 4811SOL     OW14776   2.842   1.573   3.562
 4811SOL    HW114777   2.822   1.617   3.474
 4811SOL    HW214778   2.881   1.482   3.546
 4812SOL     OW14779   3.721   1.518   3.467
 4812SOL    HW114780   3.735   1.545   3.372
 4812SOL    HW214781   3.804   1.540   3.520
 4813SOL     OW14782   2.212   0.898   3.666
 4813SOL    HW114783   2.288   0.942   3.714
 4813SOL    HW214784   2.247   0.851   3.584
 4814SOL     OW14785   3.402   0.274   1.987
 4814SOL    HW114786   3.341   0.199   2.010
 4814SOL    HW214787   3.424   0.326   2.070
 4815SOL     OW14788   3.165   0.838   1.904
 4815SOL    HW114789   3.199   0.745   1.919
 4815SOL    HW214790   3.183   0.865   1.809
 4816SOL     OW14791   2.930   1.333   2.711
 4816SOL    HW114792   2.937   1.249   2.656
 4816SOL    HW214793   2.992   1.402   2.675
 4817SOL     OW14794   2.181   0.810   2.811
 4817SOL    HW114795   2.274   0.846   2.816
 4817SOL    HW214796   2.175   0.725   2.863
 4818SOL     OW14797   2.201   0.509   2.868
 4818SOL    HW114798   2.149   0.426   2.851
 4818SOL    HW214799   2.278   0.514   2.804
 4819SOL     OW14800   3.000   0.380   3.540
 4819SOL    HW114801   2.955   0.443   3.604
 4819SOL    HW214802   3.093   0.411   3.523
 4820SOL     OW14803   3.022   0.207   3.339
 4820SOL    HW114804   3.022   0.271   3.416
 4820SOL    HW214805   3.050   0.255   3.256
 4821SOL     OW14806   1.870   1.326   2.062
 4821SOL    HW114807   1.777   1.347   2.031
 4821SOL    HW214808   1.880   1.227   2.075
 4822SOL     OW14809   1.950   1.801   2.789
 4822SOL    HW114810   1.908   1.715   2.762
 4822SOL    HW214811   2.044   1.804   2.755
 4823SOL     OW14812   2.366   1.568   2.772
 4823SOL    HW114813   2.432   1.642   2.781
 4823SOL    HW214814   2.410   1.489   2.730
 4824SOL     OW14815   2.864   0.796   3.100
 4824SOL    HW114816   2.905   0.764   3.186
 4824SOL    HW214817   2.768   0.769   3.097
 4825SOL     OW14818   1.902   0.544   2.976
 4825SOL    HW114819   1.987   0.511   2.935
 4825SOL    HW214820   1.915   0.559   3.074
 4826SOL     OW14821   2.051   0.520   3.584
 4826SOL    HW114822   2.110   0.480   3.514
 4826SOL    HW214823   1.993   0.591   3.543
 4827SOL     OW14824   3.231   0.950   3.522
 4827SOL    HW114825   3.270   1.039   3.542
 4827SOL    HW214826   3.241   0.930   3.425
 4828SOL     OW14827   2.677   0.572   2.187
 4828SOL    HW114828   2.684   0.483   2.141
 4828SOL    HW214829   2.583   0.606   2.179
 4829SOL     OW14830   3.519   0.604   3.068
 4829SOL    HW114831   3.481   0.535   3.130
 4829SOL    HW214832   3.601   0.568   3.024
 4830SOL     OW14833   2.114   1.564   3.606
 4830SOL    HW114834   2.084   1.621   3.682
 4830SOL    HW214835   2.107   1.467   3.632
 4831SOL     OW14836   2.533   0.464   3.131
 4831SOL    HW114837   2.499   0.375   3.101
 4831SOL    HW214838   2.559   0.518   3.051
 4832SOL     OW14839   2.792   1.678   3.327
 4832SOL    HW114840   2.768   1.660   3.232
 4832SOL    HW214841   2.822   1.772   3.337
 4833SOL     OW14842   2.335   0.500   2.053
 4833SOL    HW114843   2.396   0.580   2.057
 4833SOL    HW214844   2.240   0.531   2.060
 4834SOL     OW14845   2.021   1.137   3.328
 4834SOL    HW114846   2.043   1.076   3.404
 4834SOL    HW214847   2.031   1.088   3.242
 4835SOL     OW14848   3.209   1.059   3.096
 4835SOL    HW114849   3.233   0.996   3.022
 4835SOL    HW214850   3.119   1.099   3.078
 4836SOL     OW14851   3.164   0.855   2.171
 4836SOL    HW114852   3.078   0.824   2.213
 4836SOL    HW214853   3.160   0.841   2.072
 4837SOL     OW14854   3.621   1.747   3.016
 4837SOL    HW114855   3.682   1.777   2.943
 4837SOL    HW214856   3.583   1.658   2.994
 4838SOL     OW14857   3.114   1.731   2.990
 4838SOL    HW114858   3.198   1.736   2.936
 4838SOL    HW214859   3.091   1.635   3.008
 4839SOL     OW14860   1.945   1.258   2.884
 4839SOL    HW114861   1.940   1.257   2.984
 4839SOL    HW214862   1.862   1.217   2.846
 4840SOL     OW14863   2.550   1.662   3.578
 4840SOL    HW114864   2.494   1.743   3.587
 4840SOL    HW214865   2.602   1.666   3.492
 4841SOL     OW14866   3.588   0.135   2.385
 4841SOL    HW114867   3.661   0.118   2.318
 4841SOL    HW214868   3.557   0.048   2.423
 4842SOL     OW14869   3.250   1.573   2.339
 4842SOL    HW114870   3.317   1.585   2.265
 4842SOL    HW214871   3.210   1.662   2.362
 4843SOL     OW14872   1.992   1.794   3.713
 4843SOL    HW114873   1.951   1.720   3.766
 4843SOL    HW214874   2.056   1.845   3.771
 4844SOL     OW14875   3.142   0.927   2.534
 4844SOL    HW114876   3.202   0.846   2.536
 4844SOL    HW214877   3.182   0.996   2.474
 4845SOL     OW14878   2.692   1.273   3.284
 4845SOL    HW114879   2.687   1.306   3.379
 4845SOL    HW214880   2.606   1.292   3.238
 4846SOL     OW14881   2.534   1.616   2.016
 4846SOL    HW114882   2.543   1.626   1.917
 4846SOL    HW214883   2.494   1.527   2.037
 4847SOL     OW14884   3.512   1.720   3.256
 4847SOL    HW114885   3.565   1.730   3.172
 4847SOL    HW214886   3.485   1.810   3.290
 4848SOL     OW14887   3.703   0.175   2.825
 4848SOL    HW114888   3.742   0.090   2.789
 4848SOL    HW214889   3.605   0.177   2.806
 4849SOL     OW14890   2.125   0.326   2.582
 4849SOL    HW114891   2.046   0.377   2.548
 4849SOL    HW214892   2.116   0.311   2.680
 4850SOL     OW14893   3.056   1.612   1.893
 4850SOL    HW114894   3.062   1.519   1.930
 4850SOL    HW214895   2.997   1.612   1.813
 4851SOL     OW14896   2.684   1.002   3.234
 4851SOL    HW114897   2.724   1.001   3.142
 4851SOL    HW214898   2.694   1.094   3.274
 4852SOL     OW14899   2.778   0.910   2.153
 4852SOL    HW114900   2.841   0.948   2.085
 4852SOL    HW214901   2.818   0.827   2.192
 4853SOL     OW14902   3.366   1.607   1.906
 4853SOL    HW114903   3.274   1.644   1.913
 4853SOL    HW214904   3.404   1.627   1.816
 4854SOL     OW14905   2.234   1.288   3.352
 4854SOL    HW114906   2.221   1.381   3.318
 4854SOL    HW214907   2.150   1.236   3.339
 4855SOL     OW14908   3.476   1.292   3.151
 4855SOL    HW114909   3.536   1.295   3.231
 4855SOL    HW214910   3.401   1.356   3.164
 4856SOL     OW14911   2.901   1.098   2.558
 4856SOL    HW114912   2.831   1.051   2.612
 4856SOL    HW214913   2.960   1.030   2.515
 4857SOL     OW14914   2.876   0.236   2.833
 4857SOL    HW114915   2.868   0.200   2.740
 4857SOL    HW214916   2.874   0.160   2.898
 4858SOL     OW14917   2.452   1.487   2.353
 4858SOL    HW114918   2.494   1.429   2.283
 4858SOL    HW214919   2.408   1.566   2.309
 4859SOL     OW14920   3.571   0.385   3.243
 4859SOL    HW114921   3.644   0.454   3.247
 4859SOL    HW214922   3.599   0.310   3.184
 4860SOL     OW14923   2.117   1.348   2.152
 4860SOL    HW114924   2.021   1.349   2.125
 4860SOL    HW214925   2.129   1.401   2.236
 4861SOL     OW14926   1.967   1.013   3.588
 4861SOL    HW114927   1.890   0.980   3.642
 4861SOL    HW214928   2.052   0.983   3.630
 4862SOL     OW14929   2.534   0.203   3.351
 4862SOL    HW114930   2.624   0.187   3.311
 4862SOL    HW214931   2.542   0.208   3.450
 4863SOL     OW14932   1.937   0.345   1.895
 4863SOL    HW114933   1.845   0.317   1.866
 4863SOL    HW214934   1.968   0.422   1.839
 4864SOL     OW14935   3.302   0.856   3.260
 4864SOL    HW114936   3.245   0.908   3.197
 4864SOL    HW214937   3.398   0.868   3.236
 4865SOL     OW14938   1.934   0.166   2.180
 4865SOL    HW114939   1.917   0.249   2.126
 4865SOL    HW214940   2.024   0.129   2.158
 4866SOL     OW14941   3.045   1.335   1.981
 4866SOL    HW114942   2.946   1.324   1.983
 4866SOL    HW214943   3.079   1.350   2.074
 4867SOL     OW14944   2.475   0.842   3.293
 4867SOL    HW114945   2.531   0.923   3.276
 4867SOL    HW214946   2.534   0.762   3.296
 4868SOL     OW14947   3.355   1.767   2.821
 4868SOL    HW114948   3.388   1.831   2.752
 4868SOL    HW214949   3.421   1.761   2.896
 4869SOL     OW14950   2.578   0.565   3.570
 4869SOL    HW114951   2.597   0.630   3.644
 4869SOL    HW214952   2.638   0.485   3.579
 4870SOL     OW14953   3.312   1.220   3.495
 4870SOL    HW114954   3.303   1.210   3.594
 4870SOL    HW214955   3.408   1.213   3.469
 4871SOL     OW14956   2.252   1.741   3.422
 4871SOL    HW114957   2.161   1.782   3.420
 4871SOL    HW214958   2.245   1.647   3.454
 4872SOL     OW14959   3.536   0.883   3.116
 4872SOL    HW114960   3.509   0.794   3.079
 4872SOL    HW214961   3.537   0.951   3.043
 4873SOL     OW14962   3.087   0.325   2.311
 4873SOL    HW114963   3.152   0.251   2.300
 4873SOL    HW214964   3.107   0.375   2.395
 4874SOL     OW14965   2.456   0.745   2.514
 4874SOL    HW114966   2.506   0.830   2.495
 4874SOL    HW214967   2.368   0.747   2.466
 4875SOL     OW14968   3.639   0.342   3.504
 4875SOL    HW114969   3.622   0.373   3.410
 4875SOL    HW214970   3.555   0.305   3.542
 4876SOL     OW14971   3.592   0.934   3.379
 4876SOL    HW114972   3.630   1.025   3.394
 4876SOL    HW214973   3.584   0.917   3.280
 4877SOL     OW14974   2.721   1.374   1.878
 4877SOL    HW114975   2.675   1.389   1.966
 4877SOL    HW214976   2.765   1.459   1.848
 4878SOL     OW14977   2.523   1.790   2.815
 4878SOL    HW114978   2.477   1.878   2.802
 4878SOL    HW214979   2.622   1.802   2.808
 4879SOL     OW14980   2.721   0.956   2.723
 4879SOL    HW114981   2.775   0.887   2.771
 4879SOL    HW214982   2.689   1.025   2.789
 4880SOL     OW14983   2.945   0.984   1.949
 4880SOL    HW114984   2.922   1.037   1.867
 4880SOL    HW214985   3.026   0.928   1.930
 4881SOL     OW14986   3.723   1.569   2.713
 4881SOL    HW114987   3.652   1.557   2.643
 4881SOL    HW214988   3.724   1.490   2.773
 4882SOL     OW14989   2.083   1.314   3.706
 4882SOL    HW114990   2.018   1.241   3.685
 4882SOL    HW214991   2.087   1.328   3.804
 4883SOL     OW14992   1.941   1.240   2.515
 4883SOL    HW114993   1.940   1.193   2.603
 4883SOL    HW214994   2.023   1.212   2.464
 4884SOL     OW14995   2.534   1.391   3.486
 4884SOL    HW114996   2.456   1.341   3.524
 4884SOL    HW214997   2.531   1.486   3.517
 4885SOL     OW14998   3.686   0.192   3.089
 4885SOL    HW114999   3.682   0.102   3.133
 4885SOL    HW215000   3.689   0.181   2.990
 4886SOL     OW15001   2.290   0.424   2.382
 4886SOL    HW115002   2.320   0.352   2.320
 4886SOL    HW215003   2.251   0.384   2.465
 4887SOL     OW15004   3.567   1.487   2.966
 4887SOL    HW115005   3.474   1.462   2.939
 4887SOL    HW215006   3.593   1.437   3.048
 4888SOL     OW15007   2.179   0.547   3.142
 4888SOL    HW115008   2.217   0.488   3.214
 4888SOL    HW215009   2.219   0.521   3.054
 4889SOL     OW15010   2.674   1.586   2.549
 4889SOL    HW115011   2.706   1.596   2.455
 4889SOL    HW215012   2.595   1.524   2.551
 4890SOL     OW15013   3.286   0.214   2.974
 4890SOL    HW115014   3.338   0.149   3.029
 4890SOL    HW215015   3.237   0.277   3.035
 4891SOL     OW15016   2.863   0.034   3.016
 4891SOL    HW115017   2.800  -0.038   2.985
 4891SOL    HW215018   2.956  -0.002   3.016
 4892SOL     OW15019   2.632   1.330   2.163
 4892SOL    HW115020   2.586   1.243   2.180
 4892SOL    HW215021   2.723   1.327   2.204
 4893SOL     OW15022   2.480   1.567   3.146
 4893SOL    HW115023   2.475   1.649   3.203
 4893SOL    HW215024   2.569   1.564   3.101
 4894SOL     OW15025   3.214   0.052   2.030
 4894SOL    HW115026   3.249   0.011   1.946
 4894SOL    HW215027   3.124   0.014   2.050
 4895SOL     OW15028   3.162   0.453   2.553
 4895SOL    HW115029   3.103   0.533   2.557
 4895SOL    HW215030   3.177   0.418   2.646
 4896SOL     OW15031   3.455   0.221   2.744
 4896SOL    HW115032   3.371   0.220   2.798
 4896SOL    HW215033   3.457   0.304   2.688
 4897SOL     OW15034   1.901   1.077   2.162
 4897SOL    HW115035   2.000   1.066   2.153
 4897SOL    HW215036   1.861   0.991   2.194
 4898SOL     OW15037   2.737   1.646   2.199
 4898SOL    HW115038   2.660   1.611   2.145
 4898SOL    HW215039   2.705   1.717   2.261
 4899SOL     OW15040   2.092   0.628   3.837
 4899SOL    HW115041   1.999   0.626   3.874
 4899SOL    HW215042   2.093   0.589   3.745
 4900SOL     OW15043   2.087   0.275   4.720
 4900SOL    HW115044   2.122   0.258   4.812
 4900SOL    HW215045   1.999   0.230   4.708
 4901SOL     OW15046   1.881   0.368   4.371
 4901SOL    HW115047   1.799   0.411   4.410
 4901SOL    HW215048   1.853   0.295   4.308
 4902SOL     OW15049   2.431   1.275   4.889
 4902SOL    HW115050   2.338   1.268   4.852
 4902SOL    HW215051   2.442   1.364   4.933
 4903SOL     OW15052   3.417   1.511   4.427
 4903SOL    HW115053   3.360   1.495   4.508
 4903SOL    HW215054   3.358   1.521   4.347
 4904SOL     OW15055   2.997   0.703   4.441
 4904SOL    HW115056   3.054   0.781   4.416
 4904SOL    HW215057   2.937   0.729   4.517
 4905SOL     OW15058   3.617   0.607   3.955
 4905SOL    HW115059   3.605   0.594   3.856
 4905SOL    HW215060   3.587   0.526   4.004
 4906SOL     OW15061   2.630   1.144   4.747
 4906SOL    HW115062   2.552   1.161   4.807
 4906SOL    HW215063   2.664   1.231   4.711
 4907SOL     OW15064   2.712   0.798   5.547
 4907SOL    HW115065   2.708   0.874   5.612
 4907SOL    HW215066   2.734   0.834   5.456
 4908SOL     OW15067   2.547   1.012   4.389
 4908SOL    HW115068   2.616   0.996   4.459
 4908SOL    HW215069   2.474   1.069   4.427
 4909SOL     OW15070   2.548   1.161   5.527
 4909SOL    HW115071   2.608   1.240   5.541
 4909SOL    HW215072   2.462   1.192   5.486
 4910SOL     OW15073   2.197   1.435   4.785
 4910SOL    HW115074   2.119   1.404   4.732
 4910SOL    HW215075   2.255   1.493   4.728
 4911SOL     OW15076   3.322   1.505   5.063
 4911SOL    HW115077   3.346   1.599   5.089
 4911SOL    HW215078   3.306   1.451   5.145
 4912SOL     OW15079   2.300   0.392   5.223
 4912SOL    HW115080   2.382   0.336   5.232
 4912SOL    HW215081   2.219   0.334   5.227
 4913SOL     OW15082   3.465   0.447   4.461
 4913SOL    HW115083   3.391   0.493   4.411
 4913SOL    HW215084   3.516   0.515   4.514
 4914SOL     OW15085   2.093   1.713   4.207
 4914SOL    HW115086   2.127   1.790   4.261
 4914SOL    HW215087   2.137   1.713   4.117
 4915SOL     OW15088   2.989   1.341   5.414
 4915SOL    HW115089   3.036   1.341   5.502
 4915SOL    HW215090   2.941   1.254   5.403
 4916SOL     OW15091   2.092   1.434   4.262
 4916SOL    HW115092   2.066   1.530   4.262
 4916SOL    HW215093   2.021   1.380   4.307
 4917SOL     OW15094   2.102   1.091   4.610
 4917SOL    HW115095   2.116   1.007   4.662
 4917SOL    HW215096   2.047   1.155   4.665
 4918SOL     OW15097   2.482   1.786   5.163
 4918SOL    HW115098   2.390   1.769   5.198
 4918SOL    HW215099   2.510   1.878   5.189
 4919SOL     OW15100   2.468   0.964   3.847
 4919SOL    HW115101   2.475   1.048   3.793
 4919SOL    HW215102   2.514   0.977   3.935
 4920SOL     OW15103   3.456   0.114   5.204
 4920SOL    HW115104   3.438   0.181   5.132
 4920SOL    HW215105   3.453   0.160   5.293
 4921SOL     OW15106   1.984   0.643   4.287
 4921SOL    HW115107   1.939   0.555   4.304
 4921SOL    HW215108   1.983   0.697   4.371
 4922SOL     OW15109   3.704   1.767   4.083
 4922SOL    HW115110   3.758   1.738   4.163
 4922SOL    HW215111   3.734   1.857   4.054
 4923SOL     OW15112   1.889   1.596   3.841
 4923SOL    HW115113   1.870   1.500   3.862
 4923SOL    HW215114   1.856   1.654   3.916
 4924SOL     OW15115   3.551   0.922   4.336
 4924SOL    HW115116   3.646   0.893   4.344
 4924SOL    HW215117   3.543   0.987   4.261
 4925SOL     OW15118   3.503   1.108   4.156
 4925SOL    HW115119   3.589   1.110   4.104
 4925SOL    HW215120   3.517   1.155   4.244
 4926SOL     OW15121   1.975   0.737   5.321
 4926SOL    HW115122   2.063   0.724   5.366
 4926SOL    HW215123   1.962   0.834   5.299
 4927SOL     OW15124   2.475   1.365   4.450
 4927SOL    HW115125   2.426   1.278   4.459
 4927SOL    HW215126   2.452   1.408   4.363
 4928SOL     OW15127   3.155   1.228   5.147
 4928SOL    HW115128   3.192   1.155   5.089
 4928SOL    HW215129   3.207   1.233   5.232
 4929SOL     OW15130   2.671   0.004   4.226
 4929SOL    HW115131   2.711   0.095   4.217
 4929SOL    HW215132   2.571   0.012   4.232
 4930SOL     OW15133   2.059   0.976   4.988
 4930SOL    HW115134   2.148   0.931   4.974
 4930SOL    HW215135   1.986   0.911   4.969
 4931SOL     OW15136   3.387   0.999   3.914
 4931SOL    HW115137   3.324   0.923   3.927
 4931SOL    HW215138   3.435   1.017   4.000
 4932SOL     OW15139   3.049   1.792   5.340
 4932SOL    HW115140   3.073   1.852   5.264
 4932SOL    HW215141   3.056   1.697   5.310
 4933SOL     OW15142   2.179   0.251   5.525
 4933SOL    HW115143   2.250   0.322   5.531
 4933SOL    HW215144   2.091   0.290   5.553
 4934SOL     OW15145   3.328   1.417   4.677
 4934SOL    HW115146   3.269   1.423   4.757
 4934SOL    HW215147   3.313   1.329   4.631
 4935SOL     OW15148   3.529   1.714   4.296
 4935SOL    HW115149   3.488   1.691   4.208
 4935SOL    HW215150   3.511   1.640   4.361
 4936SOL     OW15151   2.460   0.729   3.994
 4936SOL    HW115152   2.484   0.798   3.926
 4936SOL    HW215153   2.382   0.762   4.048
 4937SOL     OW15154   3.143   0.345   4.668
 4937SOL    HW115155   3.057   0.295   4.655
 4937SOL    HW215156   3.205   0.291   4.724
 4938SOL     OW15157   3.438   1.662   4.031
 4938SOL    HW115158   3.527   1.708   4.034
 4938SOL    HW215159   3.417   1.638   3.936
 4939SOL     OW15160   2.669   0.605   5.189
 4939SOL    HW115161   2.622   0.602   5.278
 4939SOL    HW215162   2.618   0.550   5.123
 4940SOL     OW15163   3.256   0.469   5.398
 4940SOL    HW115164   3.236   0.512   5.486
 4940SOL    HW215165   3.334   0.407   5.407
 4941SOL     OW15166   2.835   0.890   5.296
 4941SOL    HW115167   2.881   0.806   5.267
 4941SOL    HW215168   2.779   0.924   5.221
 4942SOL     OW15169   2.853   0.410   4.966
 4942SOL    HW115170   2.776   0.444   5.020
 4942SOL    HW215171   2.819   0.359   4.887
 4943SOL     OW15172   2.903   0.701   4.153
 4943SOL    HW115173   2.929   0.697   4.249
 4943SOL    HW215174   2.818   0.650   4.139
 4944SOL     OW15175   1.938   0.811   4.513
 4944SOL    HW115176   2.037   0.799   4.522
 4944SOL    HW215177   1.914   0.906   4.534
 4945SOL     OW15178   1.992   1.821   5.295
 4945SOL    HW115179   1.982   1.806   5.394
 4945SOL    HW215180   1.906   1.857   5.259
 4946SOL     OW15181   2.727   0.348   3.919
 4946SOL    HW115182   2.786   0.411   3.870
 4946SOL    HW215183   2.746   0.254   3.890
 4947SOL     OW15184   3.581   0.585   5.555
 4947SOL    HW115185   3.555   0.674   5.519
 4947SOL    HW215186   3.579   0.517   5.482
 4948SOL     OW15187   3.224   1.144   4.269
 4948SOL    HW115188   3.307   1.115   4.221
 4948SOL    HW215189   3.175   1.211   4.213
 4949SOL     OW15190   2.412   0.196   4.609
 4949SOL    HW115191   2.407   0.191   4.709
 4949SOL    HW215192   2.414   0.292   4.580
 4950SOL     OW15193   2.870   1.456   4.201
 4950SOL    HW115194   2.824   1.528   4.149
 4950SOL    HW215195   2.866   1.476   4.299
 4951SOL     OW15196   2.213   1.801   4.577
 4951SOL    HW115197   2.263   1.715   4.583
 4951SOL    HW215198   2.278   1.878   4.574
 4952SOL     OW15199   3.657   1.066   4.597
 4952SOL    HW115200   3.595   1.051   4.521
 4952SOL    HW215201   3.605   1.077   4.682
 4953SOL     OW15202   3.089   1.550   5.230
 4953SOL    HW115203   3.095   1.473   5.294
 4953SOL    HW215204   3.037   1.524   5.150
 4954SOL     OW15205   2.183   0.943   3.966
 4954SOL    HW115206   2.265   0.982   3.924
 4954SOL    HW215207   2.156   0.861   3.917
 4955SOL     OW15208   3.320   0.735   4.452
 4955SOL    HW115209   3.315   0.670   4.527
 4955SOL    HW215210   3.400   0.794   4.465
 4956SOL     OW15211   2.323   1.266   5.451
 4956SOL    HW115212   2.273   1.267   5.365
 4956SOL    HW215213   2.260   1.248   5.527
 4957SOL     OW15214   2.973   1.776   3.961
 4957SOL    HW115215   2.913   1.714   4.011
 4957SOL    HW215216   3.004   1.732   3.876
 4958SOL     OW15217   2.064   0.285   5.222
 4958SOL    HW115218   1.984   0.345   5.209
 4958SOL    HW215219   2.054   0.236   5.308
 4959SOL     OW15220   3.494   1.377   3.805
 4959SOL    HW115221   3.462   1.471   3.795
 4959SOL    HW215222   3.418   1.314   3.793
 4960SOL     OW15223   2.326   1.743   4.047
 4960SOL    HW115224   2.359   1.782   4.133
 4960SOL    HW215225   2.402   1.736   3.982
 4961SOL     OW15226   3.262   0.107   4.150
 4961SOL    HW115227   3.238   0.070   4.060
 4961SOL    HW215228   3.361   0.123   4.154
 4962SOL     OW15229   2.111   1.785   4.965
 4962SOL    HW115230   2.168   1.720   5.015
 4962SOL    HW215231   2.095   1.752   4.872
 4963SOL     OW15232   2.802   1.698   4.628
 4963SOL    HW115233   2.882   1.641   4.649
 4963SOL    HW215234   2.753   1.658   4.551
 4964SOL     OW15235   2.244   0.700   4.204
 4964SOL    HW115236   2.289   0.610   4.201
 4964SOL    HW215237   2.150   0.689   4.237
 4965SOL     OW15238   3.409   0.222   5.453
 4965SOL    HW115239   3.404   0.259   5.545
 4965SOL    HW215240   3.337   0.153   5.441
 4966SOL     OW15241   2.476   0.122   3.841
 4966SOL    HW115242   2.574   0.100   3.848
 4966SOL    HW215243   2.445   0.105   3.748
 4967SOL     OW15244   2.643   0.264   5.473
 4967SOL    HW115245   2.710   0.203   5.516
 4967SOL    HW215246   2.570   0.283   5.538
 4968SOL     OW15247   2.750   1.514   4.919
 4968SOL    HW115248   2.727   1.489   4.825
 4968SOL    HW215249   2.811   1.445   4.958
 4969SOL     OW15250   3.213   0.590   5.157
 4969SOL    HW115251   3.241   0.547   5.242
 4969SOL    HW215252   3.238   0.686   5.158
 4970SOL     OW15253   2.665   1.402   4.648
 4970SOL    HW115254   2.755   1.416   4.606
 4970SOL    HW215255   2.594   1.404   4.577
 4971SOL     OW15256   2.784   0.503   4.623
 4971SOL    HW115257   2.759   0.494   4.527
 4971SOL    HW215258   2.832   0.421   4.654
 4972SOL     OW15259   2.401   0.064   4.236
 4972SOL    HW115260   2.320   0.065   4.294
 4972SOL    HW215261   2.404   0.147   4.181
 4973SOL     OW15262   3.296   1.188   3.765
 4973SOL    HW115263   3.328   1.112   3.822
 4973SOL    HW215264   3.204   1.215   3.795
 4974SOL     OW15265   2.159   0.035   3.895
 4974SOL    HW115266   2.208   0.119   3.874
 4974SOL    HW215267   2.221  -0.030   3.940
 4975SOL     OW15268   2.797   0.236   4.204
 4975SOL    HW115269   2.749   0.277   4.126
 4975SOL    HW215270   2.896   0.234   4.185
 4976SOL     OW15271   2.938   0.683   5.188
 4976SOL    HW115272   2.858   0.622   5.191
 4976SOL    HW215273   3.019   0.630   5.164
 4977SOL     OW15274   3.089   1.570   4.517
 4977SOL    HW115275   3.110   1.644   4.452
 4977SOL    HW215276   3.157   1.570   4.590
 4978SOL     OW15277   2.321   1.152   4.465
 4978SOL    HW115278   2.250   1.125   4.530
 4978SOL    HW215279   2.295   1.124   4.372
 4979SOL     OW15280   3.133   1.797   4.315
 4979SOL    HW115281   3.177   1.861   4.251
 4979SOL    HW215282   3.083   1.849   4.385
 4980SOL     OW15283   2.894   0.549   3.740
 4980SOL    HW115284   2.853   0.631   3.701
 4980SOL    HW215285   2.958   0.575   3.813
 4981SOL     OW15286   1.940   0.556   5.110
 4981SOL    HW115287   2.032   0.555   5.069
 4981SOL    HW215288   1.934   0.630   5.177
 4982SOL     OW15289   2.423   0.222   4.871
 4982SOL    HW115290   2.461   0.138   4.908
 4982SOL    HW215291   2.335   0.241   4.915
 4983SOL     OW15292   2.728   0.454   4.366
 4983SOL    HW115293   2.696   0.526   4.304
 4983SOL    HW215294   2.752   0.373   4.313
 4984SOL     OW15295   2.879   0.039   4.477
 4984SOL    HW115296   2.807   0.044   4.408
 4984SOL    HW215297   2.855  -0.030   4.546
 4985SOL     OW15298   3.291   1.173   4.591
 4985SOL    HW115299   3.236   1.089   4.584
 4985SOL    HW215300   3.317   1.202   4.499
 4986SOL     OW15301   3.328   0.590   4.716
 4986SOL    HW115302   3.298   0.495   4.723
 4986SOL    HW215303   3.401   0.606   4.782
 4987SOL     OW15304   3.719   0.833   4.101
 4987SOL    HW115305   3.761   0.769   4.165
 4987SOL    HW215306   3.681   0.782   4.023
 4988SOL     OW15307   2.350   1.385   3.898
 4988SOL    HW115308   2.263   1.370   3.945
 4988SOL    HW215309   2.333   1.411   3.803
 4989SOL     OW15310   3.526   1.280   4.381
 4989SOL    HW115311   3.625   1.288   4.395
 4989SOL    HW215312   3.481   1.364   4.412
 4990SOL     OW15313   3.252   0.575   3.802
 4990SOL    HW115314   3.198   0.554   3.883
 4990SOL    HW215315   3.343   0.534   3.811
 4991SOL     OW15316   2.389   0.256   4.052
 4991SOL    HW115317   2.416   0.197   3.977
 4991SOL    HW215318   2.389   0.351   4.021
 4992SOL     OW15319   3.616   1.223   5.312
 4992SOL    HW115320   3.707   1.184   5.299
 4992SOL    HW215321   3.624   1.319   5.336
 4993SOL     OW15322   2.926   1.347   5.064
 4993SOL    HW115323   2.846   1.324   5.119
 4993SOL    HW215324   3.009   1.321   5.113
 4994SOL     OW15325   3.454   1.629   5.349
 4994SOL    HW115326   3.481   1.663   5.259
 4994SOL    HW215327   3.533   1.591   5.395
 4995SOL     OW15328   2.973   1.195   4.824
 4995SOL    HW115329   2.933   1.239   4.905
 4995SOL    HW215330   2.932   1.232   4.741
 4996SOL     OW15331   3.500   1.099   4.803
 4996SOL    HW115332   3.505   1.180   4.862
 4996SOL    HW215333   3.414   1.101   4.752
 4997SOL     OW15334   2.777   0.089   5.126
 4997SOL    HW115335   2.802   0.069   5.031
 4997SOL    HW215336   2.849   0.145   5.168
 4998SOL     OW15337   2.842   1.116   5.443
 4998SOL    HW115338   2.743   1.122   5.453
 4998SOL    HW215339   2.865   1.036   5.387
 4999SOL     OW15340   2.567   1.050   4.092
 4999SOL    HW115341   2.553   1.057   4.191
 4999SOL    HW215342   2.651   0.999   4.074
 5000SOL     OW15343   2.272   0.813   4.975
 5000SOL    HW115344   2.358   0.825   5.025
 5000SOL    HW215345   2.230   0.726   5.002
 5001SOL     OW15346   3.136   0.386   4.986
 5001SOL    HW115347   3.157   0.460   5.050
 5001SOL    HW215348   3.047   0.403   4.943
 5002SOL     OW15349   1.926   1.564   5.055
 5002SOL    HW115350   1.880   1.646   5.021
 5002SOL    HW215351   2.024   1.583   5.064
 5003SOL     OW15352   2.229   1.100   4.225
 5003SOL    HW115353   2.222   1.183   4.169
 5003SOL    HW215354   2.233   1.020   4.165
 5004SOL     OW15355   2.428   0.537   4.589
 5004SOL    HW115356   2.440   0.603   4.515
 5004SOL    HW215357   2.474   0.571   4.672
 5005SOL     OW15358   3.114   1.348   4.112
 5005SOL    HW115359   3.164   1.425   4.152
 5005SOL    HW215360   3.019   1.350   4.144
 5006SOL     OW15361   3.134   1.445   4.866
 5006SOL    HW115362   3.181   1.458   4.953
 5006SOL    HW215363   3.068   1.371   4.875
 5007SOL     OW15364   3.444   0.639   4.196
 5007SOL    HW115365   3.413   0.700   4.269
 5007SOL    HW215366   3.494   0.691   4.127
 5008SOL     OW15367   2.216   1.510   5.053
 5008SOL    HW115368   2.195   1.466   4.966
 5008SOL    HW215369   2.313   1.536   5.056
 5009SOL     OW15370   2.264   0.751   5.322
 5009SOL    HW115371   2.332   0.806   5.275
 5009SOL    HW215372   2.304   0.663   5.349
 5010SOL     OW15373   3.449   0.779   5.394
 5010SOL    HW115374   3.357   0.817   5.389
 5010SOL    HW215375   3.509   0.826   5.329
 5011SOL     OW15376   2.875   0.105   5.494
 5011SOL    HW115377   2.881   0.190   5.442
 5011SOL    HW215378   2.907   0.029   5.437
 5012SOL     OW15379   2.366   0.050   5.464
 5012SOL    HW115380   2.324  -0.007   5.394
 5012SOL    HW215381   2.300   0.119   5.496
 5013SOL     OW15382   2.435   0.870   4.753
 5013SOL    HW115383   2.479   0.959   4.744
 5013SOL    HW215384   2.372   0.870   4.830
 5014SOL     OW15385   3.222   0.862   4.769
 5014SOL    HW115386   3.147   0.862   4.703
 5014SOL    HW215387   3.259   0.770   4.778
 5015SOL     OW15388   3.071   0.525   3.999
 5015SOL    HW115389   3.084   0.441   4.053
 5015SOL    HW215390   3.042   0.599   4.059
 5016SOL     OW15391   2.169   0.213   4.955
 5016SOL    HW115392   2.146   0.250   5.045
 5016SOL    HW215393   2.139   0.118   4.949
 5017SOL     OW15394   1.899   1.310   5.006
 5017SOL    HW115395   1.952   1.261   5.074
 5017SOL    HW215396   1.921   1.408   5.011
 5018SOL     OW15397   2.594   0.634   4.788
 5018SOL    HW115398   2.653   0.608   4.712
 5018SOL    HW215399   2.566   0.730   4.777
 5019SOL     OW15400   3.590   0.935   5.578
 5019SOL    HW115401   3.544   0.928   5.489
 5019SOL    HW215402   3.528   0.979   5.644
 5020SOL     OW15403   2.169   0.063   4.342
 5020SOL    HW115404   2.158   0.157   4.375
 5020SOL    HW215405   2.164   0.000   4.419
 5021SOL     OW15406   3.484   0.367   4.098
 5021SOL    HW115407   3.486   0.291   4.162
 5021SOL    HW215408   3.436   0.444   4.138
 5022SOL     OW15409   2.885   0.766   4.690
 5022SOL    HW115410   2.900   0.787   4.786
 5022SOL    HW215411   2.855   0.671   4.681
 5023SOL     OW15412   2.842   1.573   5.424
 5023SOL    HW115413   2.822   1.617   5.336
 5023SOL    HW215414   2.881   1.482   5.408
 5024SOL     OW15415   3.721   1.518   5.329
 5024SOL    HW115416   3.735   1.545   5.234
 5024SOL    HW215417   3.804   1.540   5.382
 5025SOL     OW15418   2.212   0.898   5.528
 5025SOL    HW115419   2.288   0.942   5.576
 5025SOL    HW215420   2.247   0.851   5.446
 5026SOL     OW15421   3.402   0.274   3.849
 5026SOL    HW115422   3.341   0.199   3.872
 5026SOL    HW215423   3.424   0.326   3.932
 5027SOL     OW15424   3.165   0.838   3.766
 5027SOL    HW115425   3.199   0.745   3.781
 5027SOL    HW215426   3.183   0.865   3.671
 5028SOL     OW15427   2.930   1.333   4.573
 5028SOL    HW115428   2.937   1.249   4.518
 5028SOL    HW215429   2.992   1.402   4.537
 5029SOL     OW15430   2.181   0.810   4.673
 5029SOL    HW115431   2.274   0.846   4.678
 5029SOL    HW215432   2.175   0.725   4.725
 5030SOL     OW15433   2.201   0.509   4.730
 5030SOL    HW115434   2.149   0.426   4.713
 5030SOL    HW215435   2.278   0.514   4.666
 5031SOL     OW15436   3.000   0.380   5.402
 5031SOL    HW115437   2.955   0.443   5.466
 5031SOL    HW215438   3.093   0.411   5.385
 5032SOL     OW15439   3.022   0.207   5.201
 5032SOL    HW115440   3.022   0.271   5.278
 5032SOL    HW215441   3.050   0.255   5.118
 5033SOL     OW15442   1.870   1.326   3.924
 5033SOL    HW115443   1.777   1.347   3.893
 5033SOL    HW215444   1.880   1.227   3.937
 5034SOL     OW15445   1.950   1.801   4.651
 5034SOL    HW115446   1.908   1.715   4.624
 5034SOL    HW215447   2.044   1.804   4.617
 5035SOL     OW15448   2.366   1.568   4.634
 5035SOL    HW115449   2.432   1.642   4.643
 5035SOL    HW215450   2.410   1.489   4.592
 5036SOL     OW15451   2.864   0.796   4.962
 5036SOL    HW115452   2.905   0.764   5.048
 5036SOL    HW215453   2.768   0.769   4.959
 5037SOL     OW15454   1.902   0.544   4.838
 5037SOL    HW115455   1.987   0.511   4.797
 5037SOL    HW215456   1.915   0.559   4.936
 5038SOL     OW15457   2.051   0.520   5.446
 5038SOL    HW115458   2.110   0.480   5.376
 5038SOL    HW215459   1.993   0.591   5.405
 5039SOL     OW15460   3.231   0.950   5.384
 5039SOL    HW115461   3.270   1.039   5.404
 5039SOL    HW215462   3.241   0.930   5.287
 5040SOL     OW15463   2.677   0.572   4.049
 5040SOL    HW115464   2.684   0.483   4.003
 5040SOL    HW215465   2.583   0.606   4.041
 5041SOL     OW15466   3.519   0.604   4.930
 5041SOL    HW115467   3.481   0.535   4.992
 5041SOL    HW215468   3.601   0.568   4.886
 5042SOL     OW15469   2.114   1.564   5.468
 5042SOL    HW115470   2.084   1.621   5.544
 5042SOL    HW215471   2.107   1.467   5.494
 5043SOL     OW15472   2.533   0.464   4.993
 5043SOL    HW115473   2.499   0.375   4.963
 5043SOL    HW215474   2.559   0.518   4.913
 5044SOL     OW15475   2.792   1.678   5.189
 5044SOL    HW115476   2.768   1.660   5.094
 5044SOL    HW215477   2.822   1.772   5.199
 5045SOL     OW15478   2.335   0.500   3.915
 5045SOL    HW115479   2.396   0.580   3.919
 5045SOL    HW215480   2.240   0.531   3.922
 5046SOL     OW15481   2.021   1.137   5.190
 5046SOL    HW115482   2.043   1.076   5.266
 5046SOL    HW215483   2.031   1.088   5.104
 5047SOL     OW15484   3.209   1.059   4.958
 5047SOL    HW115485   3.233   0.996   4.884
 5047SOL    HW215486   3.119   1.099   4.940
 5048SOL     OW15487   3.164   0.855   4.033
 5048SOL    HW115488   3.078   0.824   4.075
 5048SOL    HW215489   3.160   0.841   3.934
 5049SOL     OW15490   3.621   1.747   4.878
 5049SOL    HW115491   3.682   1.777   4.805
 5049SOL    HW215492   3.583   1.658   4.856
 5050SOL     OW15493   3.114   1.731   4.852
 5050SOL    HW115494   3.198   1.736   4.798
 5050SOL    HW215495   3.091   1.635   4.870
 5051SOL     OW15496   1.945   1.258   4.746
 5051SOL    HW115497   1.940   1.257   4.846
 5051SOL    HW215498   1.862   1.217   4.708
 5052SOL     OW15499   2.550   1.662   5.440
 5052SOL    HW115500   2.494   1.743   5.449
 5052SOL    HW215501   2.602   1.666   5.354
 5053SOL     OW15502   3.588   0.135   4.247
 5053SOL    HW115503   3.661   0.118   4.180
 5053SOL    HW215504   3.557   0.048   4.285
 5054SOL     OW15505   3.250   1.573   4.201
 5054SOL    HW115506   3.317   1.585   4.127
 5054SOL    HW215507   3.210   1.662   4.224
 5055SOL     OW15508   1.992   1.794   5.575
 5055SOL    HW115509   1.951   1.720   5.628
 5055SOL    HW215510   2.056   1.845   5.633
 5056SOL     OW15511   3.142   0.927   4.396
 5056SOL    HW115512   3.202   0.846   4.398
 5056SOL    HW215513   3.182   0.996   4.336
 5057SOL     OW15514   2.692   1.273   5.146
 5057SOL    HW115515   2.687   1.306   5.241
 5057SOL    HW215516   2.606   1.292   5.100
 5058SOL     OW15517   2.534   1.616   3.878
 5058SOL    HW115518   2.543   1.626   3.779
 5058SOL    HW215519   2.494   1.527   3.899
 5059SOL     OW15520   3.512   1.720   5.118
 5059SOL    HW115521   3.565   1.730   5.034
 5059SOL    HW215522   3.485   1.810   5.152
 5060SOL     OW15523   3.703   0.175   4.687
 5060SOL    HW115524   3.742   0.090   4.651
 5060SOL    HW215525   3.605   0.177   4.668
 5061SOL     OW15526   2.125   0.326   4.444
 5061SOL    HW115527   2.046   0.377   4.410
 5061SOL    HW215528   2.116   0.311   4.542
 5062SOL     OW15529   3.056   1.612   3.755
 5062SOL    HW115530   3.062   1.519   3.792
 5062SOL    HW215531   2.997   1.612   3.675
 5063SOL     OW15532   2.684   1.002   5.096
 5063SOL    HW115533   2.724   1.001   5.004
 5063SOL    HW215534   2.694   1.094   5.136
 5064SOL     OW15535   2.778   0.910   4.015
 5064SOL    HW115536   2.841   0.948   3.947
 5064SOL    HW215537   2.818   0.827   4.054
 5065SOL     OW15538   3.366   1.607   3.768
 5065SOL    HW115539   3.274   1.644   3.775
 5065SOL    HW215540   3.404   1.627   3.678
 5066SOL     OW15541   2.234   1.288   5.214
 5066SOL    HW115542   2.221   1.381   5.180
 5066SOL    HW215543   2.150   1.236   5.201
 5067SOL     OW15544   3.476   1.292   5.013
 5067SOL    HW115545   3.536   1.295   5.093
 5067SOL    HW215546   3.401   1.356   5.026
 5068SOL     OW15547   2.901   1.098   4.420
 5068SOL    HW115548   2.831   1.051   4.474
 5068SOL    HW215549   2.960   1.030   4.377
 5069SOL     OW15550   2.876   0.236   4.695
 5069SOL    HW115551   2.868   0.200   4.602
 5069SOL    HW215552   2.874   0.160   4.760
 5070SOL     OW15553   2.452   1.487   4.215
 5070SOL    HW115554   2.494   1.429   4.145
 5070SOL    HW215555   2.408   1.566   4.171
 5071SOL     OW15556   3.571   0.385   5.105
 5071SOL    HW115557   3.644   0.454   5.109
 5071SOL    HW215558   3.599   0.310   5.046
 5072SOL     OW15559   2.117   1.348   4.014
 5072SOL    HW115560   2.021   1.349   3.987
 5072SOL    HW215561   2.129   1.401   4.098
 5073SOL     OW15562   1.967   1.013   5.450
 5073SOL    HW115563   1.890   0.980   5.504
 5073SOL    HW215564   2.052   0.983   5.492
 5074SOL     OW15565   2.534   0.203   5.213
 5074SOL    HW115566   2.624   0.187   5.173
 5074SOL    HW215567   2.542   0.208   5.312
 5075SOL     OW15568   1.937   0.345   3.757
 5075SOL    HW115569   1.845   0.317   3.728
 5075SOL    HW215570   1.968   0.422   3.701
 5076SOL     OW15571   3.302   0.856   5.122
 5076SOL    HW115572   3.245   0.908   5.059
 5076SOL    HW215573   3.398   0.868   5.098
 5077SOL     OW15574   1.934   0.166   4.042
 5077SOL    HW115575   1.917   0.249   3.988
 5077SOL    HW215576   2.024   0.129   4.020
 5078SOL     OW15577   3.045   1.335   3.843
 5078SOL    HW115578   2.946   1.324   3.845
 5078SOL    HW215579   3.079   1.350   3.936
 5079SOL     OW15580   2.475   0.842   5.155
 5079SOL    HW115581   2.531   0.923   5.138
 5079SOL    HW215582   2.534   0.762   5.158
 5080SOL     OW15583   3.355   1.767   4.683
 5080SOL    HW115584   3.388   1.831   4.614
 5080SOL    HW215585   3.421   1.761   4.758
 5081SOL     OW15586   2.578   0.565   5.432
 5081SOL    HW115587   2.597   0.630   5.506
 5081SOL    HW215588   2.638   0.485   5.441
 5082SOL     OW15589   3.312   1.220   5.357
 5082SOL    HW115590   3.303   1.210   5.456
 5082SOL    HW215591   3.408   1.213   5.331
 5083SOL     OW15592   2.252   1.741   5.284
 5083SOL    HW115593   2.161   1.782   5.282
 5083SOL    HW215594   2.245   1.647   5.316
 5084SOL     OW15595   3.536   0.883   4.978
 5084SOL    HW115596   3.509   0.794   4.941
 5084SOL    HW215597   3.537   0.951   4.905
 5085SOL     OW15598   3.087   0.325   4.173
 5085SOL    HW115599   3.152   0.251   4.162
 5085SOL    HW215600   3.107   0.375   4.257
 5086SOL     OW15601   2.456   0.745   4.376
 5086SOL    HW115602   2.506   0.830   4.357
 5086SOL    HW215603   2.368   0.747   4.328
 5087SOL     OW15604   3.639   0.342   5.366
 5087SOL    HW115605   3.622   0.373   5.272
 5087SOL    HW215606   3.555   0.305   5.404
 5088SOL     OW15607   3.592   0.934   5.241
 5088SOL    HW115608   3.630   1.025   5.256
 5088SOL    HW215609   3.584   0.917   5.142
 5089SOL     OW15610   2.721   1.374   3.740
 5089SOL    HW115611   2.675   1.389   3.828
 5089SOL    HW215612   2.765   1.459   3.710
 5090SOL     OW15613   2.523   1.790   4.677
 5090SOL    HW115614   2.477   1.878   4.664
 5090SOL    HW215615   2.622   1.802   4.670
 5091SOL     OW15616   2.721   0.956   4.585
 5091SOL    HW115617   2.775   0.887   4.633
 5091SOL    HW215618   2.689   1.025   4.651
 5092SOL     OW15619   2.945   0.984   3.811
 5092SOL    HW115620   2.922   1.037   3.729
 5092SOL    HW215621   3.026   0.928   3.792
 5093SOL     OW15622   3.723   1.569   4.575
 5093SOL    HW115623   3.652   1.557   4.505
 5093SOL    HW215624   3.724   1.490   4.635
 5094SOL     OW15625   2.083   1.314   5.568
 5094SOL    HW115626   2.018   1.241   5.547
 5094SOL    HW215627   2.087   1.328   5.666
 5095SOL     OW15628   1.941   1.240   4.377
 5095SOL    HW115629   1.940   1.193   4.465
 5095SOL    HW215630   2.023   1.212   4.326
 5096SOL     OW15631   2.534   1.391   5.348
 5096SOL    HW115632   2.456   1.341   5.386
 5096SOL    HW215633   2.531   1.486   5.379
 5097SOL     OW15634   3.686   0.192   4.951
 5097SOL    HW115635   3.682   0.102   4.995
 5097SOL    HW215636   3.689   0.181   4.852
 5098SOL     OW15637   2.290   0.424   4.244
 5098SOL    HW115638   2.320   0.352   4.182
 5098SOL    HW215639   2.251   0.384   4.327
 5099SOL     OW15640   3.567   1.487   4.828
 5099SOL    HW115641   3.474   1.462   4.801
 5099SOL    HW215642   3.593   1.437   4.910
 5100SOL     OW15643   2.179   0.547   5.004
 5100SOL    HW115644   2.217   0.488   5.076
 5100SOL    HW215645   2.219   0.521   4.916
 5101SOL     OW15646   2.674   1.586   4.411
 5101SOL    HW115647   2.706   1.596   4.317
 5101SOL    HW215648   2.595   1.524   4.413
 5102SOL     OW15649   3.286   0.214   4.836
 5102SOL    HW115650   3.338   0.149   4.891
 5102SOL    HW215651   3.237   0.277   4.897
 5103SOL     OW15652   2.863   0.034   4.878
 5103SOL    HW115653   2.800  -0.038   4.847
 5103SOL    HW215654   2.956  -0.002   4.878
 5104SOL     OW15655   2.632   1.330   4.025
 5104SOL    HW115656   2.586   1.243   4.042
 5104SOL    HW215657   2.723   1.327   4.066
 5105SOL     OW15658   2.480   1.567   5.008
 5105SOL    HW115659   2.475   1.649   5.065
 5105SOL    HW215660   2.569   1.564   4.963
 5106SOL     OW15661   3.214   0.052   3.892
 5106SOL    HW115662   3.249   0.011   3.808
 5106SOL    HW215663   3.124   0.014   3.912
 5107SOL     OW15664   3.162   0.453   4.415
 5107SOL    HW115665   3.103   0.533   4.419
 5107SOL    HW215666   3.177   0.418   4.508
 5108SOL     OW15667   3.455   0.221   4.606
 5108SOL    HW115668   3.371   0.220   4.660
 5108SOL    HW215669   3.457   0.304   4.550
 5109SOL     OW15670   1.901   1.077   4.024
 5109SOL    HW115671   2.000   1.066   4.015
 5109SOL    HW215672   1.861   0.991   4.056
 5110SOL     OW15673   2.737   1.646   4.061
 5110SOL    HW115674   2.660   1.611   4.007
 5110SOL    HW215675   2.705   1.717   4.123
 5111SOL     OW15676   2.092   0.628   5.699
 5111SOL    HW115677   1.999   0.626   5.736
 5111SOL    HW215678   2.093   0.589   5.607
 5112SOL     OW15679   2.087   0.275   6.582
 5112SOL    HW115680   2.122   0.258   6.674
 5112SOL    HW215681   1.999   0.230   6.570
 5113SOL     OW15682   1.881   0.368   6.233
 5113SOL    HW115683   1.799   0.411   6.272
 5113SOL    HW215684   1.853   0.295   6.170
 5114SOL     OW15685   2.431   1.275   6.751
 5114SOL    HW115686   2.338   1.268   6.714
 5114SOL    HW215687   2.442   1.364   6.795
 5115SOL     OW15688   3.417   1.511   6.289
 5115SOL    HW115689   3.360   1.495   6.370
 5115SOL    HW215690   3.358   1.521   6.209
 5116SOL     OW15691   2.997   0.703   6.303
 5116SOL    HW115692   3.054   0.781   6.278
 5116SOL    HW215693   2.937   0.729   6.379
 5117SOL     OW15694   3.617   0.607   5.817
 5117SOL    HW115695   3.605   0.594   5.718
 5117SOL    HW215696   3.587   0.526   5.866
 5118SOL     OW15697   2.630   1.144   6.609
 5118SOL    HW115698   2.552   1.161   6.669
 5118SOL    HW215699   2.664   1.231   6.573
 5119SOL     OW15700   2.712   0.798   7.409
 5119SOL    HW115701   2.708   0.874   7.474
 5119SOL    HW215702   2.734   0.834   7.318
 5120SOL     OW15703   2.547   1.012   6.251
 5120SOL    HW115704   2.616   0.996   6.321
 5120SOL    HW215705   2.474   1.069   6.289
 5121SOL     OW15706   2.548   1.161   7.389
 5121SOL    HW115707   2.608   1.240   7.403
 5121SOL    HW215708   2.462   1.192   7.348
 5122SOL     OW15709   2.197   1.435   6.647
 5122SOL    HW115710   2.119   1.404   6.594
 5122SOL    HW215711   2.255   1.493   6.590
 5123SOL     OW15712   3.322   1.505   6.925
 5123SOL    HW115713   3.346   1.599   6.951
 5123SOL    HW215714   3.306   1.451   7.007
 5124SOL     OW15715   2.300   0.392   7.085
 5124SOL    HW115716   2.382   0.336   7.094
 5124SOL    HW215717   2.219   0.334   7.089
 5125SOL     OW15718   3.465   0.447   6.323
 5125SOL    HW115719   3.391   0.493   6.273
 5125SOL    HW215720   3.516   0.515   6.376
 5126SOL     OW15721   2.093   1.713   6.069
 5126SOL    HW115722   2.127   1.790   6.123
 5126SOL    HW215723   2.137   1.713   5.979
 5127SOL     OW15724   2.989   1.341   7.276
 5127SOL    HW115725   3.036   1.341   7.364
 5127SOL    HW215726   2.941   1.254   7.265
 5128SOL     OW15727   2.092   1.434   6.124
 5128SOL    HW115728   2.066   1.530   6.124
 5128SOL    HW215729   2.021   1.380   6.169
 5129SOL     OW15730   2.102   1.091   6.472
 5129SOL    HW115731   2.116   1.007   6.524
 5129SOL    HW215732   2.047   1.155   6.527
 5130SOL     OW15733   2.482   1.786   7.025
 5130SOL    HW115734   2.390   1.769   7.060
 5130SOL    HW215735   2.510   1.878   7.051
 5131SOL     OW15736   2.468   0.964   5.709
 5131SOL    HW115737   2.475   1.048   5.655
 5131SOL    HW215738   2.514   0.977   5.797
 5132SOL     OW15739   3.456   0.114   7.066
 5132SOL    HW115740   3.438   0.181   6.994
 5132SOL    HW215741   3.453   0.160   7.155
 5133SOL     OW15742   1.984   0.643   6.149
 5133SOL    HW115743   1.939   0.555   6.166
 5133SOL    HW215744   1.983   0.697   6.233
 5134SOL     OW15745   3.704   1.767   5.945
 5134SOL    HW115746   3.758   1.738   6.025
 5134SOL    HW215747   3.734   1.857   5.916
 5135SOL     OW15748   1.889   1.596   5.703
 5135SOL    HW115749   1.870   1.500   5.724
 5135SOL    HW215750   1.856   1.654   5.778
 5136SOL     OW15751   3.551   0.922   6.198
 5136SOL    HW115752   3.646   0.893   6.206
 5136SOL    HW215753   3.543   0.987   6.123
 5137SOL     OW15754   3.503   1.108   6.018
 5137SOL    HW115755   3.589   1.110   5.966
 5137SOL    HW215756   3.517   1.155   6.106
 5138SOL     OW15757   1.975   0.737   7.183
 5138SOL    HW115758   2.063   0.724   7.228
 5138SOL    HW215759   1.962   0.834   7.161
 5139SOL     OW15760   2.475   1.365   6.312
 5139SOL    HW115761   2.426   1.278   6.321
 5139SOL    HW215762   2.452   1.408   6.225
 5140SOL     OW15763   3.155   1.228   7.009
 5140SOL    HW115764   3.192   1.155   6.951
 5140SOL    HW215765   3.207   1.233   7.094
 5141SOL     OW15766   2.671   0.004   6.088
 5141SOL    HW115767   2.711   0.095   6.079
 5141SOL    HW215768   2.571   0.012   6.094
 5142SOL     OW15769   2.059   0.976   6.850
 5142SOL    HW115770   2.148   0.931   6.836
 5142SOL    HW215771   1.986   0.911   6.831
 5143SOL     OW15772   3.387   0.999   5.776
 5143SOL    HW115773   3.324   0.923   5.789
 5143SOL    HW215774   3.435   1.017   5.862
 5144SOL     OW15775   3.049   1.792   7.202
 5144SOL    HW115776   3.073   1.852   7.126
 5144SOL    HW215777   3.056   1.697   7.172
 5145SOL     OW15778   2.179   0.251   7.387
 5145SOL    HW115779   2.250   0.322   7.393
 5145SOL    HW215780   2.091   0.290   7.415
 5146SOL     OW15781   3.328   1.417   6.539
 5146SOL    HW115782   3.269   1.423   6.619
 5146SOL    HW215783   3.313   1.329   6.493
 5147SOL     OW15784   3.529   1.714   6.158
 5147SOL    HW115785   3.488   1.691   6.070
 5147SOL    HW215786   3.511   1.640   6.223
 5148SOL     OW15787   2.460   0.729   5.856
 5148SOL    HW115788   2.484   0.798   5.788
 5148SOL    HW215789   2.382   0.762   5.910
 5149SOL     OW15790   3.143   0.345   6.530
 5149SOL    HW115791   3.057   0.295   6.517
 5149SOL    HW215792   3.205   0.291   6.586
 5150SOL     OW15793   3.438   1.662   5.893
 5150SOL    HW115794   3.527   1.708   5.896
 5150SOL    HW215795   3.417   1.638   5.798
 5151SOL     OW15796   2.669   0.605   7.051
 5151SOL    HW115797   2.622   0.602   7.140
 5151SOL    HW215798   2.618   0.550   6.985
 5152SOL     OW15799   3.256   0.469   7.260
 5152SOL    HW115800   3.236   0.512   7.348
 5152SOL    HW215801   3.334   0.407   7.269
 5153SOL     OW15802   2.835   0.890   7.158
 5153SOL    HW115803   2.881   0.806   7.129
 5153SOL    HW215804   2.779   0.924   7.083
 5154SOL     OW15805   2.853   0.410   6.828
 5154SOL    HW115806   2.776   0.444   6.882
 5154SOL    HW215807   2.819   0.359   6.749
 5155SOL     OW15808   2.903   0.701   6.015
 5155SOL    HW115809   2.929   0.697   6.111
 5155SOL    HW215810   2.818   0.650   6.001
 5156SOL     OW15811   1.938   0.811   6.375
 5156SOL    HW115812   2.037   0.799   6.384
 5156SOL    HW215813   1.914   0.906   6.396
 5157SOL     OW15814   1.992   1.821   7.157
 5157SOL    HW115815   1.982   1.806   7.256
 5157SOL    HW215816   1.906   1.857   7.121
 5158SOL     OW15817   2.727   0.348   5.781
 5158SOL    HW115818   2.786   0.411   5.732
 5158SOL    HW215819   2.746   0.254   5.752
 5159SOL     OW15820   3.581   0.585   7.417
 5159SOL    HW115821   3.555   0.674   7.381
 5159SOL    HW215822   3.579   0.517   7.344
 5160SOL     OW15823   3.224   1.144   6.131
 5160SOL    HW115824   3.307   1.115   6.083
 5160SOL    HW215825   3.175   1.211   6.075
 5161SOL     OW15826   2.412   0.196   6.471
 5161SOL    HW115827   2.407   0.191   6.571
 5161SOL    HW215828   2.414   0.292   6.442
 5162SOL     OW15829   2.870   1.456   6.063
 5162SOL    HW115830   2.824   1.528   6.011
 5162SOL    HW215831   2.866   1.476   6.161
 5163SOL     OW15832   2.213   1.801   6.439
 5163SOL    HW115833   2.263   1.715   6.445
 5163SOL    HW215834   2.278   1.878   6.436
 5164SOL     OW15835   3.657   1.066   6.459
 5164SOL    HW115836   3.595   1.051   6.383
 5164SOL    HW215837   3.605   1.077   6.544
 5165SOL     OW15838   3.089   1.550   7.092
 5165SOL    HW115839   3.095   1.473   7.156
 5165SOL    HW215840   3.037   1.524   7.012
 5166SOL     OW15841   2.183   0.943   5.828
 5166SOL    HW115842   2.265   0.982   5.786
 5166SOL    HW215843   2.156   0.861   5.779
 5167SOL     OW15844   3.320   0.735   6.314
 5167SOL    HW115845   3.315   0.670   6.389
 5167SOL    HW215846   3.400   0.794   6.327
 5168SOL     OW15847   2.323   1.266   7.313
 5168SOL    HW115848   2.273   1.267   7.227
 5168SOL    HW215849   2.260   1.248   7.389
 5169SOL     OW15850   2.973   1.776   5.823
 5169SOL    HW115851   2.913   1.714   5.873
 5169SOL    HW215852   3.004   1.732   5.738
 5170SOL     OW15853   2.064   0.285   7.084
 5170SOL    HW115854   1.984   0.345   7.071
 5170SOL    HW215855   2.054   0.236   7.170
 5171SOL     OW15856   3.494   1.377   5.667
 5171SOL    HW115857   3.462   1.471   5.657
 5171SOL    HW215858   3.418   1.314   5.655
 5172SOL     OW15859   2.326   1.743   5.909
 5172SOL    HW115860   2.359   1.782   5.995
 5172SOL    HW215861   2.402   1.736   5.844
 5173SOL     OW15862   3.262   0.107   6.012
 5173SOL    HW115863   3.238   0.070   5.922
 5173SOL    HW215864   3.361   0.123   6.016
 5174SOL     OW15865   2.111   1.785   6.827
 5174SOL    HW115866   2.168   1.720   6.877
 5174SOL    HW215867   2.095   1.752   6.734
 5175SOL     OW15868   2.802   1.698   6.490
 5175SOL    HW115869   2.882   1.641   6.511
 5175SOL    HW215870   2.753   1.658   6.413
 5176SOL     OW15871   2.244   0.700   6.066
 5176SOL    HW115872   2.289   0.610   6.063
 5176SOL    HW215873   2.150   0.689   6.099
 5177SOL     OW15874   3.409   0.222   7.315
 5177SOL    HW115875   3.404   0.259   7.407
 5177SOL    HW215876   3.337   0.153   7.303
 5178SOL     OW15877   2.476   0.122   5.703
 5178SOL    HW115878   2.574   0.100   5.710
 5178SOL    HW215879   2.445   0.105   5.610
 5179SOL     OW15880   2.643   0.264   7.335
 5179SOL    HW115881   2.710   0.203   7.378
 5179SOL    HW215882   2.570   0.283   7.400
 5180SOL     OW15883   2.750   1.514   6.781
 5180SOL    HW115884   2.727   1.489   6.687
 5180SOL    HW215885   2.811   1.445   6.820
 5181SOL     OW15886   3.213   0.590   7.019
 5181SOL    HW115887   3.241   0.547   7.104
 5181SOL    HW215888   3.238   0.686   7.020
 5182SOL     OW15889   2.665   1.402   6.510
 5182SOL    HW115890   2.755   1.416   6.468
 5182SOL    HW215891   2.594   1.404   6.439
 5183SOL     OW15892   2.784   0.503   6.485
 5183SOL    HW115893   2.759   0.494   6.389
 5183SOL    HW215894   2.832   0.421   6.516
 5184SOL     OW15895   2.401   0.064   6.098
 5184SOL    HW115896   2.320   0.065   6.156
 5184SOL    HW215897   2.404   0.147   6.043
 5185SOL     OW15898   3.296   1.188   5.627
 5185SOL    HW115899   3.328   1.112   5.684
 5185SOL    HW215900   3.204   1.215   5.657
 5186SOL     OW15901   2.159   0.035   5.757
 5186SOL    HW115902   2.208   0.119   5.736
 5186SOL    HW215903   2.221  -0.030   5.802
 5187SOL     OW15904   2.797   0.236   6.066
 5187SOL    HW115905   2.749   0.277   5.988
 5187SOL    HW215906   2.896   0.234   6.047
 5188SOL     OW15907   2.938   0.683   7.050
 5188SOL    HW115908   2.858   0.622   7.053
 5188SOL    HW215909   3.019   0.630   7.026
 5189SOL     OW15910   3.089   1.570   6.379
 5189SOL    HW115911   3.110   1.644   6.314
 5189SOL    HW215912   3.157   1.570   6.452
 5190SOL     OW15913   2.321   1.152   6.327
 5190SOL    HW115914   2.250   1.125   6.392
 5190SOL    HW215915   2.295   1.124   6.234
 5191SOL     OW15916   3.133   1.797   6.177
 5191SOL    HW115917   3.177   1.861   6.113
 5191SOL    HW215918   3.083   1.849   6.247
 5192SOL     OW15919   2.894   0.549   5.602
 5192SOL    HW115920   2.853   0.631   5.563
 5192SOL    HW215921   2.958   0.575   5.675
 5193SOL     OW15922   1.940   0.556   6.972
 5193SOL    HW115923   2.032   0.555   6.931
 5193SOL    HW215924   1.934   0.630   7.039
 5194SOL     OW15925   2.423   0.222   6.733
 5194SOL    HW115926   2.461   0.138   6.770
 5194SOL    HW215927   2.335   0.241   6.777
 5195SOL     OW15928   2.728   0.454   6.228
 5195SOL    HW115929   2.696   0.526   6.166
 5195SOL    HW215930   2.752   0.373   6.175
 5196SOL     OW15931   2.879   0.039   6.339
 5196SOL    HW115932   2.807   0.044   6.270
 5196SOL    HW215933   2.855  -0.030   6.408
 5197SOL     OW15934   3.291   1.173   6.453
 5197SOL    HW115935   3.236   1.089   6.446
 5197SOL    HW215936   3.317   1.202   6.361
 5198SOL     OW15937   3.328   0.590   6.578
 5198SOL    HW115938   3.298   0.495   6.585
 5198SOL    HW215939   3.401   0.606   6.644
 5199SOL     OW15940   3.719   0.833   5.963
 5199SOL    HW115941   3.761   0.769   6.027
 5199SOL    HW215942   3.681   0.782   5.885
 5200SOL     OW15943   2.350   1.385   5.760
 5200SOL    HW115944   2.263   1.370   5.807
 5200SOL    HW215945   2.333   1.411   5.665
 5201SOL     OW15946   3.526   1.280   6.243
 5201SOL    HW115947   3.625   1.288   6.257
 5201SOL    HW215948   3.481   1.364   6.274
 5202SOL     OW15949   3.252   0.575   5.664
 5202SOL    HW115950   3.198   0.554   5.745
 5202SOL    HW215951   3.343   0.534   5.673
 5203SOL     OW15952   2.389   0.256   5.914
 5203SOL    HW115953   2.416   0.197   5.839
 5203SOL    HW215954   2.389   0.351   5.883
 5204SOL     OW15955   3.616   1.223   7.174
 5204SOL    HW115956   3.707   1.184   7.161
 5204SOL    HW215957   3.624   1.319   7.198
 5205SOL     OW15958   2.926   1.347   6.926
 5205SOL    HW115959   2.846   1.324   6.981
 5205SOL    HW215960   3.009   1.321   6.975
 5206SOL     OW15961   3.454   1.629   7.211
 5206SOL    HW115962   3.481   1.663   7.121
 5206SOL    HW215963   3.533   1.591   7.257
 5207SOL     OW15964   2.973   1.195   6.686
 5207SOL    HW115965   2.933   1.239   6.767
 5207SOL    HW215966   2.932   1.232   6.603
 5208SOL     OW15967   3.500   1.099   6.665
 5208SOL    HW115968   3.505   1.180   6.724
 5208SOL    HW215969   3.414   1.101   6.614
 5209SOL     OW15970   2.777   0.089   6.988
 5209SOL    HW115971   2.802   0.069   6.893
 5209SOL    HW215972   2.849   0.145   7.030
 5210SOL     OW15973   2.842   1.116   7.305
 5210SOL    HW115974   2.743   1.122   7.315
 5210SOL    HW215975   2.865   1.036   7.249
 5211SOL     OW15976   2.567   1.050   5.954
 5211SOL    HW115977   2.553   1.057   6.053
 5211SOL    HW215978   2.651   0.999   5.936
 5212SOL     OW15979   2.272   0.813   6.837
 5212SOL    HW115980   2.358   0.825   6.887
 5212SOL    HW215981   2.230   0.726   6.864
 5213SOL     OW15982   3.136   0.386   6.848
 5213SOL    HW115983   3.157   0.460   6.912
 5213SOL    HW215984   3.047   0.403   6.805
 5214SOL     OW15985   1.926   1.564   6.917
 5214SOL    HW115986   1.880   1.646   6.883
 5214SOL    HW215987   2.024   1.583   6.926
 5215SOL     OW15988   2.229   1.100   6.087
 5215SOL    HW115989   2.222   1.183   6.031
 5215SOL    HW215990   2.233   1.020   6.027
 5216SOL     OW15991   2.428   0.537   6.451
 5216SOL    HW115992   2.440   0.603   6.377
 5216SOL    HW215993   2.474   0.571   6.534
 5217SOL     OW15994   3.114   1.348   5.974
 5217SOL    HW115995   3.164   1.425   6.014
 5217SOL    HW215996   3.019   1.350   6.006
 5218SOL     OW15997   3.134   1.445   6.728
 5218SOL    HW115998   3.181   1.458   6.815
 5218SOL    HW215999   3.068   1.371   6.737
 5219SOL     OW16000   3.444   0.639   6.058
 5219SOL    HW116001   3.413   0.700   6.131
 5219SOL    HW216002   3.494   0.691   5.989
 5220SOL     OW16003   2.216   1.510   6.915
 5220SOL    HW116004   2.195   1.466   6.828
 5220SOL    HW216005   2.313   1.536   6.918
 5221SOL     OW16006   2.264   0.751   7.184
 5221SOL    HW116007   2.332   0.806   7.137
 5221SOL    HW216008   2.304   0.663   7.211
 5222SOL     OW16009   3.449   0.779   7.256
 5222SOL    HW116010   3.357   0.817   7.251
 5222SOL    HW216011   3.509   0.826   7.191
 5223SOL     OW16012   2.875   0.105   7.356
 5223SOL    HW116013   2.881   0.190   7.304
 5223SOL    HW216014   2.907   0.029   7.299
 5224SOL     OW16015   2.366   0.050   7.326
 5224SOL    HW116016   2.324  -0.007   7.256
 5224SOL    HW216017   2.300   0.119   7.358
 5225SOL     OW16018   2.435   0.870   6.615
 5225SOL    HW116019   2.479   0.959   6.606
 5225SOL    HW216020   2.372   0.870   6.692
 5226SOL     OW16021   3.222   0.862   6.631
 5226SOL    HW116022   3.147   0.862   6.565
 5226SOL    HW216023   3.259   0.770   6.640
 5227SOL     OW16024   3.071   0.525   5.861
 5227SOL    HW116025   3.084   0.441   5.915
 5227SOL    HW216026   3.042   0.599   5.921
 5228SOL     OW16027   2.169   0.213   6.817
 5228SOL    HW116028   2.146   0.250   6.907
 5228SOL    HW216029   2.139   0.118   6.811
 5229SOL     OW16030   1.899   1.310   6.868
 5229SOL    HW116031   1.952   1.261   6.936
 5229SOL    HW216032   1.921   1.408   6.873
 5230SOL     OW16033   2.594   0.634   6.650
 5230SOL    HW116034   2.653   0.608   6.574
 5230SOL    HW216035   2.566   0.730   6.639
 5231SOL     OW16036   3.590   0.935   7.440
 5231SOL    HW116037   3.544   0.928   7.351
 5231SOL    HW216038   3.528   0.979   7.506
 5232SOL     OW16039   2.169   0.063   6.204
 5232SOL    HW116040   2.158   0.157   6.237
 5232SOL    HW216041   2.164   0.000   6.281
 5233SOL     OW16042   3.484   0.367   5.960
 5233SOL    HW116043   3.486   0.291   6.024
 5233SOL    HW216044   3.436   0.444   6.000
 5234SOL     OW16045   2.885   0.766   6.552
 5234SOL    HW116046   2.900   0.787   6.648
 5234SOL    HW216047   2.855   0.671   6.543
 5235SOL     OW16048   2.842   1.573   7.286
 5235SOL    HW116049   2.822   1.617   7.198
 5235SOL    HW216050   2.881   1.482   7.270
 5236SOL     OW16051   3.721   1.518   7.191
 5236SOL    HW116052   3.735   1.545   7.096
 5236SOL    HW216053   3.804   1.540   7.244
 5237SOL     OW16054   2.212   0.898   7.390
 5237SOL    HW116055   2.288   0.942   7.438
 5237SOL    HW216056   2.247   0.851   7.308
 5238SOL     OW16057   3.402   0.274   5.711
 5238SOL    HW116058   3.341   0.199   5.734
 5238SOL    HW216059   3.424   0.326   5.794
 5239SOL     OW16060   3.165   0.838   5.628
 5239SOL    HW116061   3.199   0.745   5.643
 5239SOL    HW216062   3.183   0.865   5.533
 5240SOL     OW16063   2.930   1.333   6.435
 5240SOL    HW116064   2.937   1.249   6.380
 5240SOL    HW216065   2.992   1.402   6.399
 5241SOL     OW16066   2.181   0.810   6.535
 5241SOL    HW116067   2.274   0.846   6.540
 5241SOL    HW216068   2.175   0.725   6.587
 5242SOL     OW16069   2.201   0.509   6.592
 5242SOL    HW116070   2.149   0.426   6.575
 5242SOL    HW216071   2.278   0.514   6.528
 5243SOL     OW16072   3.000   0.380   7.264
 5243SOL    HW116073   2.955   0.443   7.328
 5243SOL    HW216074   3.093   0.411   7.247
 5244SOL     OW16075   3.022   0.207   7.063
 5244SOL    HW116076   3.022   0.271   7.140
 5244SOL    HW216077   3.050   0.255   6.980
 5245SOL     OW16078   1.870   1.326   5.786
 5245SOL    HW116079   1.777   1.347   5.755
 5245SOL    HW216080   1.880   1.227   5.799
 5246SOL     OW16081   1.950   1.801   6.513
 5246SOL    HW116082   1.908   1.715   6.486
 5246SOL    HW216083   2.044   1.804   6.479
 5247SOL     OW16084   2.366   1.568   6.496
 5247SOL    HW116085   2.432   1.642   6.505
 5247SOL    HW216086   2.410   1.489   6.454
 5248SOL     OW16087   2.864   0.796   6.824
 5248SOL    HW116088   2.905   0.764   6.910
 5248SOL    HW216089   2.768   0.769   6.821
 5249SOL     OW16090   1.902   0.544   6.700
 5249SOL    HW116091   1.987   0.511   6.659
 5249SOL    HW216092   1.915   0.559   6.798
 5250SOL     OW16093   2.051   0.520   7.308
 5250SOL    HW116094   2.110   0.480   7.238
 5250SOL    HW216095   1.993   0.591   7.267
 5251SOL     OW16096   3.231   0.950   7.246
 5251SOL    HW116097   3.270   1.039   7.266
 5251SOL    HW216098   3.241   0.930   7.149
 5252SOL     OW16099   2.677   0.572   5.911
 5252SOL    HW116100   2.684   0.483   5.865
 5252SOL    HW216101   2.583   0.606   5.903
 5253SOL     OW16102   3.519   0.604   6.792
 5253SOL    HW116103   3.481   0.535   6.854
 5253SOL    HW216104   3.601   0.568   6.748
 5254SOL     OW16105   2.114   1.564   7.330
 5254SOL    HW116106   2.084   1.621   7.406
 5254SOL    HW216107   2.107   1.467   7.356
 5255SOL     OW16108   2.533   0.464   6.855
 5255SOL    HW116109   2.499   0.375   6.825
 5255SOL    HW216110   2.559   0.518   6.775
 5256SOL     OW16111   2.792   1.678   7.051
 5256SOL    HW116112   2.768   1.660   6.956
 5256SOL    HW216113   2.822   1.772   7.061
 5257SOL     OW16114   2.335   0.500   5.777
 5257SOL    HW116115   2.396   0.580   5.781
 5257SOL    HW216116   2.240   0.531   5.784
 5258SOL     OW16117   2.021   1.137   7.052
 5258SOL    HW116118   2.043   1.076   7.128
 5258SOL    HW216119   2.031   1.088   6.966
 5259SOL     OW16120   3.209   1.059   6.820
 5259SOL    HW116121   3.233   0.996   6.746
 5259SOL    HW216122   3.119   1.099   6.802
 5260SOL     OW16123   3.164   0.855   5.895
 5260SOL    HW116124   3.078   0.824   5.937
 5260SOL    HW216125   3.160   0.841   5.796
 5261SOL     OW16126   3.621   1.747   6.740
 5261SOL    HW116127   3.682   1.777   6.667
 5261SOL    HW216128   3.583   1.658   6.718
 5262SOL     OW16129   3.114   1.731   6.714
 5262SOL    HW116130   3.198   1.736   6.660
 5262SOL    HW216131   3.091   1.635   6.732
 5263SOL     OW16132   1.945   1.258   6.608
 5263SOL    HW116133   1.940   1.257   6.708
 5263SOL    HW216134   1.862   1.217   6.570
 5264SOL     OW16135   2.550   1.662   7.302
 5264SOL    HW116136   2.494   1.743   7.311
 5264SOL    HW216137   2.602   1.666   7.216
 5265SOL     OW16138   3.588   0.135   6.109
 5265SOL    HW116139   3.661   0.118   6.042
 5265SOL    HW216140   3.557   0.048   6.147
 5266SOL     OW16141   3.250   1.573   6.063
 5266SOL    HW116142   3.317   1.585   5.989
 5266SOL    HW216143   3.210   1.662   6.086
 5267SOL     OW16144   1.992   1.794   7.437
 5267SOL    HW116145   1.951   1.720   7.490
 5267SOL    HW216146   2.056   1.845   7.495
 5268SOL     OW16147   2.692   1.273   7.008
 5268SOL    HW116148   2.687   1.306   7.103
 5268SOL    HW216149   2.606   1.292   6.962
 5269SOL     OW16150   2.534   1.616   5.740
 5269SOL    HW116151   2.543   1.626   5.641
 5269SOL    HW216152   2.494   1.527   5.761
 5270SOL     OW16153   3.512   1.720   6.980
 5270SOL    HW116154   3.565   1.730   6.896
 5270SOL    HW216155   3.485   1.810   7.014
 5271SOL     OW16156   3.703   0.175   6.549
 5271SOL    HW116157   3.742   0.090   6.513
 5271SOL    HW216158   3.605   0.177   6.530
 5272SOL     OW16159   3.056   1.612   5.617
 5272SOL    HW116160   3.062   1.519   5.654
 5272SOL    HW216161   2.997   1.612   5.537
 5273SOL     OW16162   2.684   1.002   6.958
 5273SOL    HW116163   2.724   1.001   6.866
 5273SOL    HW216164   2.694   1.094   6.998
 5274SOL     OW16165   2.778   0.910   5.877
 5274SOL    HW116166   2.841   0.948   5.809
 5274SOL    HW216167   2.818   0.827   5.916
 5275SOL     OW16168   3.366   1.607   5.630
 5275SOL    HW116169   3.274   1.644   5.637
 5275SOL    HW216170   3.404   1.627   5.540
 5276SOL     OW16171   2.234   1.288   7.076
 5276SOL    HW116172   2.221   1.381   7.042
 5276SOL    HW216173   2.150   1.236   7.063
 5277SOL     OW16174   3.476   1.292   6.875
 5277SOL    HW116175   3.536   1.295   6.955
 5277SOL    HW216176   3.401   1.356   6.888
 5278SOL     OW16177   2.901   1.098   6.282
 5278SOL    HW116178   2.831   1.051   6.336
 5278SOL    HW216179   2.960   1.030   6.239
 5279SOL     OW16180   2.876   0.236   6.557
 5279SOL    HW116181   2.868   0.200   6.464
 5279SOL    HW216182   2.874   0.160   6.622
 5280SOL     OW16183   2.452   1.487   6.077
 5280SOL    HW116184   2.494   1.429   6.007
 5280SOL    HW216185   2.408   1.566   6.033
 5281SOL     OW16186   3.571   0.385   6.967
 5281SOL    HW116187   3.644   0.454   6.971
 5281SOL    HW216188   3.599   0.310   6.908
 5282SOL     OW16189   2.117   1.348   5.876
 5282SOL    HW116190   2.021   1.349   5.849
 5282SOL    HW216191   2.129   1.401   5.960
 5283SOL     OW16192   1.967   1.013   7.312
 5283SOL    HW116193   1.890   0.980   7.366
 5283SOL    HW216194   2.052   0.983   7.354
 5284SOL     OW16195   2.534   0.203   7.075
 5284SOL    HW116196   2.624   0.187   7.035
 5284SOL    HW216197   2.542   0.208   7.174
 5285SOL     OW16198   1.937   0.345   5.619
 5285SOL    HW116199   1.845   0.317   5.590
 5285SOL    HW216200   1.968   0.422   5.563
 5286SOL     OW16201   3.302   0.856   6.984
 5286SOL    HW116202   3.245   0.908   6.921
 5286SOL    HW216203   3.398   0.868   6.960
 5287SOL     OW16204   1.934   0.166   5.904
 5287SOL    HW116205   1.917   0.249   5.850
 5287SOL    HW216206   2.024   0.129   5.882
 5288SOL     OW16207   3.045   1.335   5.705
 5288SOL    HW116208   2.946   1.324   5.707
 5288SOL    HW216209   3.079   1.350   5.798
 5289SOL     OW16210   2.475   0.842   7.017
 5289SOL    HW116211   2.531   0.923   7.000
 5289SOL    HW216212   2.534   0.762   7.020
 5290SOL     OW16213   3.355   1.767   6.545
 5290SOL    HW116214   3.388   1.831   6.476
 5290SOL    HW216215   3.421   1.761   6.620
 5291SOL     OW16216   2.578   0.565   7.294
 5291SOL    HW116217   2.597   0.630   7.368
 5291SOL    HW216218   2.638   0.485   7.303
 5292SOL     OW16219   3.312   1.220   7.219
 5292SOL    HW116220   3.303   1.210   7.318
 5292SOL    HW216221   3.408   1.213   7.193
 5293SOL     OW16222   2.252   1.741   7.146
 5293SOL    HW116223   2.161   1.782   7.144
 5293SOL    HW216224   2.245   1.647   7.178
 5294SOL     OW16225   3.536   0.883   6.840
 5294SOL    HW116226   3.509   0.794   6.803
 5294SOL    HW216227   3.537   0.951   6.767
 5295SOL     OW16228   3.087   0.325   6.035
 5295SOL    HW116229   3.152   0.251   6.024
 5295SOL    HW216230   3.107   0.375   6.119
 5296SOL     OW16231   2.456   0.745   6.238
 5296SOL    HW116232   2.506   0.830   6.219
 5296SOL    HW216233   2.368   0.747   6.190
 5297SOL     OW16234   3.639   0.342   7.228
 5297SOL    HW116235   3.622   0.373   7.134
 5297SOL    HW216236   3.555   0.305   7.266
 5298SOL     OW16237   3.592   0.934   7.103
 5298SOL    HW116238   3.630   1.025   7.118
 5298SOL    HW216239   3.584   0.917   7.004
 5299SOL     OW16240   2.721   1.374   5.602
 5299SOL    HW116241   2.675   1.389   5.690
 5299SOL    HW216242   2.765   1.459   5.572
 5300SOL     OW16243   2.523   1.790   6.539
 5300SOL    HW116244   2.477   1.878   6.526
 5300SOL    HW216245   2.622   1.802   6.532
 5301SOL     OW16246   2.721   0.956   6.447
 5301SOL    HW116247   2.775   0.887   6.495
 5301SOL    HW216248   2.689   1.025   6.513
 5302SOL     OW16249   2.945   0.984   5.673
 5302SOL    HW116250   2.922   1.037   5.591
 5302SOL    HW216251   3.026   0.928   5.654
 5303SOL     OW16252   3.723   1.569   6.437
 5303SOL    HW116253   3.652   1.557   6.367
 5303SOL    HW216254   3.724   1.490   6.497
 5304SOL     OW16255   2.083   1.314   7.430
 5304SOL    HW116256   2.018   1.241   7.409
 5304SOL    HW216257   2.087   1.328   7.528
 5305SOL     OW16258   1.941   1.240   6.239
 5305SOL    HW116259   1.940   1.193   6.327
 5305SOL    HW216260   2.023   1.212   6.188
 5306SOL     OW16261   2.534   1.391   7.210
 5306SOL    HW116262   2.456   1.341   7.248
 5306SOL    HW216263   2.531   1.486   7.241
 5307SOL     OW16264   3.686   0.192   6.813
 5307SOL    HW116265   3.682   0.102   6.857
 5307SOL    HW216266   3.689   0.181   6.714
 5308SOL     OW16267   2.290   0.424   6.106
 5308SOL    HW116268   2.320   0.352   6.044
 5308SOL    HW216269   2.251   0.384   6.189
 5309SOL     OW16270   3.567   1.487   6.690
 5309SOL    HW116271   3.474   1.462   6.663
 5309SOL    HW216272   3.593   1.437   6.772
 5310SOL     OW16273   2.179   0.547   6.866
 5310SOL    HW116274   2.217   0.488   6.938
 5310SOL    HW216275   2.219   0.521   6.778
 5311SOL     OW16276   2.674   1.586   6.273
 5311SOL    HW116277   2.706   1.596   6.179
 5311SOL    HW216278   2.595   1.524   6.275
 5312SOL     OW16279   3.286   0.214   6.698
 5312SOL    HW116280   3.338   0.149   6.753
 5312SOL    HW216281   3.237   0.277   6.759
 5313SOL     OW16282   2.863   0.034   6.740
 5313SOL    HW116283   2.800  -0.038   6.709
 5313SOL    HW216284   2.956  -0.002   6.740
 5314SOL     OW16285   2.632   1.330   5.887
 5314SOL    HW116286   2.586   1.243   5.904
 5314SOL    HW216287   2.723   1.327   5.928
 5315SOL     OW16288   2.480   1.567   6.870
 5315SOL    HW116289   2.475   1.649   6.927
 5315SOL    HW216290   2.569   1.564   6.825
 5316SOL     OW16291   3.214   0.052   5.754
 5316SOL    HW116292   3.249   0.011   5.670
 5316SOL    HW216293   3.124   0.014   5.774
 5317SOL     OW16294   3.162   0.453   6.277
 5317SOL    HW116295   3.103   0.533   6.281
 5317SOL    HW216296   3.177   0.418   6.370
 5318SOL     OW16297   3.455   0.221   6.468
 5318SOL    HW116298   3.371   0.220   6.522
 5318SOL    HW216299   3.457   0.304   6.412
 5319SOL     OW16300   1.901   1.077   5.886
 5319SOL    HW116301   2.000   1.066   5.877
 5319SOL    HW216302   1.861   0.991   5.918
 5320SOL     OW16303   2.737   1.646   5.923
 5320SOL    HW116304   2.660   1.611   5.869
 5320SOL    HW216305   2.705   1.717   5.985
 5321SOL     OW16306   2.092   0.628   7.561
 5321SOL    HW116307   1.999   0.626   7.598
 5321SOL    HW216308   2.093   0.589   7.469
 5322SOL     OW16309   2.093   1.713   7.931
 5322SOL    HW116310   2.127   1.790   7.985
 5322SOL    HW216311   2.137   1.713   7.841
 5323SOL     OW16312   2.468   0.964   7.571
 5323SOL    HW116313   2.475   1.048   7.517
 5323SOL    HW216314   2.514   0.977   7.659
 5324SOL     OW16315   1.889   1.596   7.565
 5324SOL    HW116316   1.870   1.500   7.586
 5324SOL    HW216317   1.856   1.654   7.640
 5325SOL     OW16318   2.671   0.004   7.950
 5325SOL    HW116319   2.711   0.095   7.941
 5325SOL    HW216320   2.571   0.012   7.956
 5326SOL     OW16321   3.387   0.999   7.638
 5326SOL    HW116322   3.324   0.923   7.651
 5326SOL    HW216323   3.435   1.017   7.724
 5327SOL     OW16324   2.460   0.729   7.718
 5327SOL    HW116325   2.484   0.798   7.650
 5327SOL    HW216326   2.382   0.762   7.772
 5328SOL     OW16327   2.903   0.701   7.877
 5328SOL    HW116328   2.929   0.697   7.973
 5328SOL    HW216329   2.818   0.650   7.863
 5329SOL     OW16330   2.727   0.348   7.643
 5329SOL    HW116331   2.786   0.411   7.594
 5329SOL    HW216332   2.746   0.254   7.614
 5330SOL     OW16333   2.870   1.456   7.925
 5330SOL    HW116334   2.824   1.528   7.873
 5330SOL    HW216335   2.866   1.476   8.023
 5331SOL     OW16336   2.183   0.943   7.690
 5331SOL    HW116337   2.265   0.982   7.648
 5331SOL    HW216338   2.156   0.861   7.641
 5332SOL     OW16339   2.973   1.776   7.685
 5332SOL    HW116340   2.913   1.714   7.735
 5332SOL    HW216341   3.004   1.732   7.600
 5333SOL     OW16342   3.494   1.377   7.529
 5333SOL    HW116343   3.462   1.471   7.519
 5333SOL    HW216344   3.418   1.314   7.517
 5334SOL     OW16345   2.326   1.743   7.771
 5334SOL    HW116346   2.359   1.782   7.857
 5334SOL    HW216347   2.402   1.736   7.706
 5335SOL     OW16348   2.244   0.700   7.928
 5335SOL    HW116349   2.289   0.610   7.925
 5335SOL    HW216350   2.150   0.689   7.961
 5336SOL     OW16351   2.476   0.122   7.565
 5336SOL    HW116352   2.574   0.100   7.572
 5336SOL    HW216353   2.445   0.105   7.472
 5337SOL     OW16354   2.401   0.064   7.960
 5337SOL    HW116355   2.320   0.065   8.018
 5337SOL    HW216356   2.404   0.147   7.905
 5338SOL     OW16357   3.296   1.188   7.489
 5338SOL    HW116358   3.328   1.112   7.546
 5338SOL    HW216359   3.204   1.215   7.519
 5339SOL     OW16360   2.159   0.035   7.619
 5339SOL    HW116361   2.208   0.119   7.598
 5339SOL    HW216362   2.221  -0.030   7.664
 5340SOL     OW16363   2.797   0.236   7.928
 5340SOL    HW116364   2.749   0.277   7.850
 5340SOL    HW216365   2.896   0.234   7.909
 5341SOL     OW16366   2.894   0.549   7.464
 5341SOL    HW116367   2.853   0.631   7.425
 5341SOL    HW216368   2.958   0.575   7.537
 5342SOL     OW16369   2.350   1.385   7.622
 5342SOL    HW116370   2.263   1.370   7.669
 5342SOL    HW216371   2.333   1.411   7.527
 5343SOL     OW16372   3.252   0.575   7.526
 5343SOL    HW116373   3.198   0.554   7.607
 5343SOL    HW216374   3.343   0.534   7.535
 5344SOL     OW16375   2.389   0.256   7.776
 5344SOL    HW116376   2.416   0.197   7.701
 5344SOL    HW216377   2.389   0.351   7.745
 5345SOL     OW16378   2.567   1.050   7.816
 5345SOL    HW116379   2.553   1.057   7.915
 5345SOL    HW216380   2.651   0.999   7.798
 5346SOL     OW16381   2.229   1.100   7.949
 5346SOL    HW116382   2.222   1.183   7.893
 5346SOL    HW216383   2.233   1.020   7.889
 5347SOL     OW16384   3.402   0.274   7.573
 5347SOL    HW116385   3.341   0.199   7.596
 5347SOL    HW216386   3.424   0.326   7.656
 5348SOL     OW16387   3.165   0.838   7.490
 5348SOL    HW116388   3.199   0.745   7.505
 5348SOL    HW216389   3.183   0.865   7.395
 5349SOL     OW16390   1.870   1.326   7.648
 5349SOL    HW116391   1.777   1.347   7.617
 5349SOL    HW216392   1.880   1.227   7.661
 5350SOL     OW16393   2.677   0.572   7.773
 5350SOL    HW116394   2.684   0.483   7.727
 5350SOL    HW216395   2.583   0.606   7.765
 5351SOL     OW16396   2.335   0.500   7.639
 5351SOL    HW116397   2.396   0.580   7.643
 5351SOL    HW216398   2.240   0.531   7.646
 5352SOL     OW16399   3.250   1.573   7.925
 5352SOL    HW116400   3.317   1.585   7.851
 5352SOL    HW216401   3.210   1.662   7.948
 5353SOL     OW16402   2.534   1.616   7.602
 5353SOL    HW116403   2.543   1.626   7.503
 5353SOL    HW216404   2.494   1.527   7.623
 5354SOL     OW16405   3.056   1.612   7.479
 5354SOL    HW116406   3.062   1.519   7.516
 5354SOL    HW216407   2.997   1.612   7.399
 5355SOL     OW16408   2.778   0.910   7.739
 5355SOL    HW116409   2.841   0.948   7.671
 5355SOL    HW216410   2.818   0.827   7.778
 5356SOL     OW16411   3.366   1.607   7.492
 5356SOL    HW116412   3.274   1.644   7.499
 5356SOL    HW216413   3.404   1.627   7.402
 5357SOL     OW16414   2.452   1.487   7.939
 5357SOL    HW116415   2.494   1.429   7.869
 5357SOL    HW216416   2.408   1.566   7.895
 5358SOL     OW16417   2.117   1.348   7.738
 5358SOL    HW116418   2.021   1.349   7.711
 5358SOL    HW216419   2.129   1.401   7.822
 5359SOL     OW16420   1.937   0.345   7.481
 5359SOL    HW116421   1.845   0.317   7.452
 5359SOL    HW216422   1.968   0.422   7.425
 5360SOL     OW16423   1.934   0.166   7.766
 5360SOL    HW116424   1.917   0.249   7.712
 5360SOL    HW216425   2.024   0.129   7.744
 5361SOL     OW16426   2.721   1.374   7.464
 5361SOL    HW116427   2.675   1.389   7.552
 5361SOL    HW216428   2.765   1.459   7.434
 5362SOL     OW16429   2.945   0.984   7.535
 5362SOL    HW116430   2.922   1.037   7.453
 5362SOL    HW216431   3.026   0.928   7.516
 5363SOL     OW16432   2.290   0.424   7.968
 5363SOL    HW116433   2.320   0.352   7.906
 5363SOL    HW216434   2.251   0.384   8.051
 5364SOL     OW16435   2.632   1.330   7.749
 5364SOL    HW116436   2.586   1.243   7.766
 5364SOL    HW216437   2.723   1.327   7.790
 5365SOL     OW16438   3.214   0.052   7.616
 5365SOL    HW116439   3.249   0.011   7.532
 5365SOL    HW216440   3.124   0.014   7.636
 5366SOL     OW16441   1.901   1.077   7.748
 5366SOL    HW116442   2.000   1.066   7.739
 5366SOL    HW216443   1.861   0.991   7.780
 5367SOL     OW16444   2.737   1.646   7.785
 5367SOL    HW116445   2.660   1.611   7.731
 5367SOL    HW216446   2.705   1.717   7.847
 5368SOL     OW16447   2.092   2.490   0.113
 5368SOL    HW116448   1.999   2.488   0.150
 5368SOL    HW216449   2.093   2.451   0.021
 5369SOL     OW16450   2.087   2.137   0.996
 5369SOL    HW116451   2.122   2.120   1.088
 5369SOL    HW216452   1.999   2.092   0.984
 5370SOL     OW16453   1.881   2.230   0.647
 5370SOL    HW116454   1.799   2.273   0.686
 5370SOL    HW216455   1.853   2.157   0.584
 5371SOL     OW16456   2.431   3.137   1.165
 5371SOL    HW116457   2.338   3.130   1.128
 5371SOL    HW216458   2.442   3.226   1.209
 5372SOL     OW16459   3.417   3.373   0.703
 5372SOL    HW116460   3.360   3.357   0.784
 5372SOL    HW216461   3.358   3.383   0.623
 5373SOL     OW16462   2.997   2.565   0.717
 5373SOL    HW116463   3.054   2.643   0.692
 5373SOL    HW216464   2.937   2.591   0.793
 5374SOL     OW16465   3.617   2.469   0.231
 5374SOL    HW116466   3.605   2.456   0.132
 5374SOL    HW216467   3.587   2.388   0.280
 5375SOL     OW16468   2.630   3.006   1.023
 5375SOL    HW116469   2.552   3.023   1.083
 5375SOL    HW216470   2.664   3.093   0.987
 5376SOL     OW16471   2.712   2.660   1.823
 5376SOL    HW116472   2.708   2.736   1.888
 5376SOL    HW216473   2.734   2.696   1.732
 5377SOL     OW16474   2.547   2.874   0.665
 5377SOL    HW116475   2.616   2.858   0.735
 5377SOL    HW216476   2.474   2.931   0.703
 5378SOL     OW16477   2.548   3.023   1.803
 5378SOL    HW116478   2.608   3.102   1.817
 5378SOL    HW216479   2.462   3.054   1.762
 5379SOL     OW16480   2.197   3.297   1.061
 5379SOL    HW116481   2.119   3.266   1.008
 5379SOL    HW216482   2.255   3.355   1.004
 5380SOL     OW16483   3.322   3.367   1.339
 5380SOL    HW116484   3.346   3.461   1.365
 5380SOL    HW216485   3.306   3.313   1.421
 5381SOL     OW16486   2.300   2.254   1.499
 5381SOL    HW116487   2.382   2.198   1.508
 5381SOL    HW216488   2.219   2.196   1.503
 5382SOL     OW16489   3.465   2.309   0.737
 5382SOL    HW116490   3.391   2.355   0.687
 5382SOL    HW216491   3.516   2.377   0.790
 5383SOL     OW16492   2.093   3.575   0.483
 5383SOL    HW116493   2.127   3.652   0.537
 5383SOL    HW216494   2.137   3.575   0.393
 5384SOL     OW16495   2.989   3.203   1.690
 5384SOL    HW116496   3.036   3.203   1.778
 5384SOL    HW216497   2.941   3.116   1.679
 5385SOL     OW16498   2.092   3.296   0.538
 5385SOL    HW116499   2.066   3.392   0.538
 5385SOL    HW216500   2.021   3.242   0.583
 5386SOL     OW16501   2.102   2.953   0.886
 5386SOL    HW116502   2.116   2.869   0.938
 5386SOL    HW216503   2.047   3.017   0.941
 5387SOL     OW16504   2.482   3.648   1.439
 5387SOL    HW116505   2.390   3.631   1.474
 5387SOL    HW216506   2.510   3.740   1.465
 5388SOL     OW16507   2.468   2.826   0.123
 5388SOL    HW116508   2.475   2.910   0.069
 5388SOL    HW216509   2.514   2.839   0.211
 5389SOL     OW16510   3.456   1.976   1.480
 5389SOL    HW116511   3.438   2.043   1.408
 5389SOL    HW216512   3.453   2.022   1.569
 5390SOL     OW16513   1.984   2.505   0.563
 5390SOL    HW116514   1.939   2.417   0.580
 5390SOL    HW216515   1.983   2.559   0.647
 5391SOL     OW16516   3.704   3.629   0.359
 5391SOL    HW116517   3.758   3.600   0.439
 5391SOL    HW216518   3.734   3.719   0.330
 5392SOL     OW16519   1.889   3.458   0.117
 5392SOL    HW116520   1.870   3.362   0.138
 5392SOL    HW216521   1.856   3.516   0.192
 5393SOL     OW16522   3.551   2.784   0.612
 5393SOL    HW116523   3.646   2.755   0.620
 5393SOL    HW216524   3.543   2.849   0.537
 5394SOL     OW16525   1.975   2.599   1.597
 5394SOL    HW116526   2.063   2.586   1.642
 5394SOL    HW216527   1.962   2.696   1.575
 5395SOL     OW16528   2.475   3.227   0.726
 5395SOL    HW116529   2.426   3.140   0.735
 5395SOL    HW216530   2.452   3.270   0.639
 5396SOL     OW16531   3.155   3.090   1.423
 5396SOL    HW116532   3.192   3.017   1.365
 5396SOL    HW216533   3.207   3.095   1.508
 5397SOL     OW16534   2.671   1.866   0.502
 5397SOL    HW116535   2.711   1.957   0.493
 5397SOL    HW216536   2.571   1.874   0.508
 5398SOL     OW16537   2.059   2.838   1.264
 5398SOL    HW116538   2.148   2.793   1.250
 5398SOL    HW216539   1.986   2.773   1.245
 5399SOL     OW16540   3.049   3.654   1.616
 5399SOL    HW116541   3.073   3.714   1.540
 5399SOL    HW216542   3.056   3.559   1.586
 5400SOL     OW16543   2.179   2.113   1.801
 5400SOL    HW116544   2.250   2.184   1.807
 5400SOL    HW216545   2.091   2.152   1.829
 5401SOL     OW16546   3.328   3.279   0.953
 5401SOL    HW116547   3.269   3.285   1.033
 5401SOL    HW216548   3.313   3.191   0.907
 5402SOL     OW16549   3.529   3.576   0.572
 5402SOL    HW116550   3.488   3.553   0.484
 5402SOL    HW216551   3.511   3.502   0.637
 5403SOL     OW16552   2.460   2.591   0.270
 5403SOL    HW116553   2.484   2.660   0.202
 5403SOL    HW216554   2.382   2.624   0.324
 5404SOL     OW16555   3.143   2.207   0.944
 5404SOL    HW116556   3.057   2.157   0.931
 5404SOL    HW216557   3.205   2.153   1.000
 5405SOL     OW16558   2.669   2.467   1.465
 5405SOL    HW116559   2.622   2.464   1.554
 5405SOL    HW216560   2.618   2.412   1.399
 5406SOL     OW16561   3.256   2.331   1.674
 5406SOL    HW116562   3.236   2.374   1.762
 5406SOL    HW216563   3.334   2.269   1.683
 5407SOL     OW16564   2.835   2.752   1.572
 5407SOL    HW116565   2.881   2.668   1.543
 5407SOL    HW216566   2.779   2.786   1.497
 5408SOL     OW16567   2.853   2.272   1.242
 5408SOL    HW116568   2.776   2.306   1.296
 5408SOL    HW216569   2.819   2.221   1.163
 5409SOL     OW16570   2.903   2.563   0.429
 5409SOL    HW116571   2.929   2.559   0.525
 5409SOL    HW216572   2.818   2.512   0.415
 5410SOL     OW16573   1.938   2.673   0.789
 5410SOL    HW116574   2.037   2.661   0.798
 5410SOL    HW216575   1.914   2.768   0.810
 5411SOL     OW16576   1.992   3.683   1.571
 5411SOL    HW116577   1.982   3.668   1.670
 5411SOL    HW216578   1.906   3.719   1.535
 5412SOL     OW16579   2.727   2.210   0.195
 5412SOL    HW116580   2.786   2.273   0.146
 5412SOL    HW216581   2.746   2.116   0.166
 5413SOL     OW16582   3.581   2.447   1.831
 5413SOL    HW116583   3.555   2.536   1.795
 5413SOL    HW216584   3.579   2.379   1.758
 5414SOL     OW16585   3.224   3.006   0.545
 5414SOL    HW116586   3.307   2.977   0.497
 5414SOL    HW216587   3.175   3.073   0.489
 5415SOL     OW16588   2.412   2.058   0.885
 5415SOL    HW116589   2.407   2.053   0.985
 5415SOL    HW216590   2.414   2.154   0.856
 5416SOL     OW16591   2.870   3.318   0.477
 5416SOL    HW116592   2.824   3.390   0.425
 5416SOL    HW216593   2.866   3.338   0.575
 5417SOL     OW16594   2.213   3.663   0.853
 5417SOL    HW116595   2.263   3.577   0.859
 5417SOL    HW216596   2.278   3.740   0.850
 5418SOL     OW16597   3.657   2.928   0.873
 5418SOL    HW116598   3.595   2.913   0.797
 5418SOL    HW216599   3.605   2.939   0.958
 5419SOL     OW16600   3.089   3.412   1.506
 5419SOL    HW116601   3.095   3.335   1.570
 5419SOL    HW216602   3.037   3.386   1.426
 5420SOL     OW16603   2.183   2.805   0.242
 5420SOL    HW116604   2.265   2.844   0.200
 5420SOL    HW216605   2.156   2.723   0.193
 5421SOL     OW16606   3.320   2.597   0.728
 5421SOL    HW116607   3.315   2.532   0.803
 5421SOL    HW216608   3.400   2.656   0.741
 5422SOL     OW16609   2.323   3.128   1.727
 5422SOL    HW116610   2.273   3.129   1.641
 5422SOL    HW216611   2.260   3.110   1.803
 5423SOL     OW16612   2.973   3.638   0.237
 5423SOL    HW116613   2.913   3.576   0.287
 5423SOL    HW216614   3.004   3.594   0.152
 5424SOL     OW16615   2.064   2.147   1.498
 5424SOL    HW116616   1.984   2.207   1.485
 5424SOL    HW216617   2.054   2.098   1.584
 5425SOL     OW16618   2.326   3.605   0.323
 5425SOL    HW116619   2.359   3.644   0.409
 5425SOL    HW216620   2.402   3.598   0.258
 5426SOL     OW16621   3.262   1.969   0.426
 5426SOL    HW116622   3.238   1.932   0.336
 5426SOL    HW216623   3.361   1.985   0.430
 5427SOL     OW16624   2.111   3.647   1.241
 5427SOL    HW116625   2.168   3.582   1.291
 5427SOL    HW216626   2.095   3.614   1.148
 5428SOL     OW16627   2.802   3.560   0.904
 5428SOL    HW116628   2.882   3.503   0.925
 5428SOL    HW216629   2.753   3.520   0.827
 5429SOL     OW16630   2.244   2.562   0.480
 5429SOL    HW116631   2.289   2.472   0.477
 5429SOL    HW216632   2.150   2.551   0.513
 5430SOL     OW16633   3.409   2.084   1.729
 5430SOL    HW116634   3.404   2.121   1.821
 5430SOL    HW216635   3.337   2.015   1.717
 5431SOL     OW16636   2.476   1.984   0.117
 5431SOL    HW116637   2.574   1.962   0.124
 5431SOL    HW216638   2.445   1.967   0.024
 5432SOL     OW16639   2.643   2.126   1.749
 5432SOL    HW116640   2.710   2.065   1.792
 5432SOL    HW216641   2.570   2.145   1.814
 5433SOL     OW16642   2.750   3.376   1.195
 5433SOL    HW116643   2.727   3.351   1.101
 5433SOL    HW216644   2.811   3.307   1.234
 5434SOL     OW16645   3.213   2.452   1.433
 5434SOL    HW116646   3.241   2.409   1.518
 5434SOL    HW216647   3.238   2.548   1.434
 5435SOL     OW16648   2.665   3.264   0.924
 5435SOL    HW116649   2.755   3.278   0.882
 5435SOL    HW216650   2.594   3.266   0.853
 5436SOL     OW16651   2.784   2.365   0.899
 5436SOL    HW116652   2.759   2.356   0.803
 5436SOL    HW216653   2.832   2.283   0.930
 5437SOL     OW16654   2.401   1.926   0.512
 5437SOL    HW116655   2.320   1.927   0.570
 5437SOL    HW216656   2.404   2.009   0.457
 5438SOL     OW16657   2.159   1.897   0.171
 5438SOL    HW116658   2.208   1.981   0.150
 5438SOL    HW216659   2.221   1.832   0.216
 5439SOL     OW16660   2.797   2.098   0.480
 5439SOL    HW116661   2.749   2.139   0.402
 5439SOL    HW216662   2.896   2.096   0.461
 5440SOL     OW16663   2.938   2.545   1.464
 5440SOL    HW116664   2.858   2.484   1.467
 5440SOL    HW216665   3.019   2.492   1.440
 5441SOL     OW16666   3.089   3.432   0.793
 5441SOL    HW116667   3.110   3.506   0.728
 5441SOL    HW216668   3.157   3.432   0.866
 5442SOL     OW16669   2.321   3.014   0.741
 5442SOL    HW116670   2.250   2.987   0.806
 5442SOL    HW216671   2.295   2.986   0.648
 5443SOL     OW16672   3.133   3.659   0.591
 5443SOL    HW116673   3.177   3.723   0.527
 5443SOL    HW216674   3.083   3.711   0.661
 5444SOL     OW16675   2.894   2.411   0.016
 5444SOL    HW116676   2.853   2.493  -0.023
 5444SOL    HW216677   2.958   2.437   0.089
 5445SOL     OW16678   1.940   2.418   1.386
 5445SOL    HW116679   2.032   2.417   1.345
 5445SOL    HW216680   1.934   2.492   1.453
 5446SOL     OW16681   2.423   2.084   1.147
 5446SOL    HW116682   2.461   2.000   1.184
 5446SOL    HW216683   2.335   2.103   1.191
 5447SOL     OW16684   2.728   2.316   0.642
 5447SOL    HW116685   2.696   2.388   0.580
 5447SOL    HW216686   2.752   2.235   0.589
 5448SOL     OW16687   2.879   1.901   0.753
 5448SOL    HW116688   2.807   1.906   0.684
 5448SOL    HW216689   2.855   1.832   0.822
 5449SOL     OW16690   3.291   3.035   0.867
 5449SOL    HW116691   3.236   2.951   0.860
 5449SOL    HW216692   3.317   3.064   0.775
 5450SOL     OW16693   3.328   2.452   0.992
 5450SOL    HW116694   3.298   2.357   0.999
 5450SOL    HW216695   3.401   2.468   1.058
 5451SOL     OW16696   2.350   3.247   0.174
 5451SOL    HW116697   2.263   3.232   0.221
 5451SOL    HW216698   2.333   3.273   0.079
 5452SOL     OW16699   3.526   3.142   0.657
 5452SOL    HW116700   3.625   3.150   0.671
 5452SOL    HW216701   3.481   3.226   0.688
 5453SOL     OW16702   2.389   2.118   0.328
 5453SOL    HW116703   2.416   2.059   0.253
 5453SOL    HW216704   2.389   2.213   0.297
 5454SOL     OW16705   3.616   3.085   1.588
 5454SOL    HW116706   3.707   3.046   1.575
 5454SOL    HW216707   3.624   3.181   1.612
 5455SOL     OW16708   2.926   3.209   1.340
 5455SOL    HW116709   2.846   3.186   1.395
 5455SOL    HW216710   3.009   3.183   1.389
 5456SOL     OW16711   3.454   3.491   1.625
 5456SOL    HW116712   3.481   3.525   1.535
 5456SOL    HW216713   3.533   3.453   1.671
 5457SOL     OW16714   2.973   3.057   1.100
 5457SOL    HW116715   2.933   3.101   1.181
 5457SOL    HW216716   2.932   3.094   1.017
 5458SOL     OW16717   3.500   2.961   1.079
 5458SOL    HW116718   3.505   3.042   1.138
 5458SOL    HW216719   3.414   2.963   1.028
 5459SOL     OW16720   2.777   1.951   1.402
 5459SOL    HW116721   2.802   1.931   1.307
 5459SOL    HW216722   2.849   2.007   1.444
 5460SOL     OW16723   2.842   2.978   1.719
 5460SOL    HW116724   2.743   2.984   1.729
 5460SOL    HW216725   2.865   2.898   1.663
 5461SOL     OW16726   2.567   2.912   0.368
 5461SOL    HW116727   2.553   2.919   0.467
 5461SOL    HW216728   2.651   2.861   0.350
 5462SOL     OW16729   2.272   2.675   1.251
 5462SOL    HW116730   2.358   2.687   1.301
 5462SOL    HW216731   2.230   2.588   1.278
 5463SOL     OW16732   3.136   2.248   1.262
 5463SOL    HW116733   3.157   2.322   1.326
 5463SOL    HW216734   3.047   2.265   1.219
 5464SOL     OW16735   1.926   3.426   1.331
 5464SOL    HW116736   1.880   3.508   1.297
 5464SOL    HW216737   2.024   3.445   1.340
 5465SOL     OW16738   2.229   2.962   0.501
 5465SOL    HW116739   2.222   3.045   0.445
 5465SOL    HW216740   2.233   2.882   0.441
 5466SOL     OW16741   2.428   2.399   0.865
 5466SOL    HW116742   2.440   2.465   0.791
 5466SOL    HW216743   2.474   2.433   0.948
 5467SOL     OW16744   3.114   3.210   0.388
 5467SOL    HW116745   3.164   3.287   0.428
 5467SOL    HW216746   3.019   3.212   0.420
 5468SOL     OW16747   3.134   3.307   1.142
 5468SOL    HW116748   3.181   3.320   1.229
 5468SOL    HW216749   3.068   3.233   1.151
 5469SOL     OW16750   3.444   2.501   0.472
 5469SOL    HW116751   3.413   2.562   0.545
 5469SOL    HW216752   3.494   2.553   0.403
 5470SOL     OW16753   2.216   3.372   1.329
 5470SOL    HW116754   2.195   3.328   1.242
 5470SOL    HW216755   2.313   3.398   1.332
 5471SOL     OW16756   2.264   2.613   1.598
 5471SOL    HW116757   2.332   2.668   1.551
 5471SOL    HW216758   2.304   2.525   1.625
 5472SOL     OW16759   3.449   2.641   1.670
 5472SOL    HW116760   3.357   2.679   1.665
 5472SOL    HW216761   3.509   2.688   1.605
 5473SOL     OW16762   2.875   1.967   1.770
 5473SOL    HW116763   2.881   2.052   1.718
 5473SOL    HW216764   2.907   1.891   1.713
 5474SOL     OW16765   2.366   1.912   1.740
 5474SOL    HW116766   2.324   1.855   1.670
 5474SOL    HW216767   2.300   1.981   1.772
 5475SOL     OW16768   2.435   2.732   1.029
 5475SOL    HW116769   2.479   2.821   1.020
 5475SOL    HW216770   2.372   2.732   1.106
 5476SOL     OW16771   3.222   2.724   1.045
 5476SOL    HW116772   3.147   2.724   0.979
 5476SOL    HW216773   3.259   2.632   1.054
 5477SOL     OW16774   3.071   2.387   0.275
 5477SOL    HW116775   3.084   2.303   0.329
 5477SOL    HW216776   3.042   2.461   0.335
 5478SOL     OW16777   2.169   2.075   1.231
 5478SOL    HW116778   2.146   2.112   1.321
 5478SOL    HW216779   2.139   1.980   1.225
 5479SOL     OW16780   1.899   3.172   1.282
 5479SOL    HW116781   1.952   3.123   1.350
 5479SOL    HW216782   1.921   3.270   1.287
 5480SOL     OW16783   2.594   2.496   1.064
 5480SOL    HW116784   2.653   2.470   0.988
 5480SOL    HW216785   2.566   2.592   1.053
 5481SOL     OW16786   3.590   2.797   1.854
 5481SOL    HW116787   3.544   2.790   1.765
 5481SOL    HW216788   3.528   2.841   1.920
 5482SOL     OW16789   2.169   1.925   0.618
 5482SOL    HW116790   2.158   2.019   0.651
 5482SOL    HW216791   2.164   1.862   0.695
 5483SOL     OW16792   2.885   2.628   0.966
 5483SOL    HW116793   2.900   2.649   1.062
 5483SOL    HW216794   2.855   2.533   0.957
 5484SOL     OW16795   2.842   3.435   1.700
 5484SOL    HW116796   2.822   3.479   1.612
 5484SOL    HW216797   2.881   3.344   1.684
 5485SOL     OW16798   3.721   3.380   1.605
 5485SOL    HW116799   3.735   3.407   1.510
 5485SOL    HW216800   3.804   3.402   1.658
 5486SOL     OW16801   2.212   2.760   1.804
 5486SOL    HW116802   2.288   2.804   1.852
 5486SOL    HW216803   2.247   2.713   1.722
 5487SOL     OW16804   2.930   3.195   0.849
 5487SOL    HW116805   2.937   3.111   0.794
 5487SOL    HW216806   2.992   3.264   0.813
 5488SOL     OW16807   2.181   2.672   0.949
 5488SOL    HW116808   2.274   2.708   0.954
 5488SOL    HW216809   2.175   2.587   1.001
 5489SOL     OW16810   2.201   2.371   1.006
 5489SOL    HW116811   2.149   2.288   0.989
 5489SOL    HW216812   2.278   2.376   0.942
 5490SOL     OW16813   3.000   2.242   1.678
 5490SOL    HW116814   2.955   2.305   1.742
 5490SOL    HW216815   3.093   2.273   1.661
 5491SOL     OW16816   3.022   2.069   1.477
 5491SOL    HW116817   3.022   2.133   1.554
 5491SOL    HW216818   3.050   2.117   1.394
 5492SOL     OW16819   1.870   3.188   0.200
 5492SOL    HW116820   1.777   3.209   0.169
 5492SOL    HW216821   1.880   3.089   0.213
 5493SOL     OW16822   1.950   3.663   0.927
 5493SOL    HW116823   1.908   3.577   0.900
 5493SOL    HW216824   2.044   3.666   0.893
 5494SOL     OW16825   2.366   3.430   0.910
 5494SOL    HW116826   2.432   3.504   0.919
 5494SOL    HW216827   2.410   3.351   0.868
 5495SOL     OW16828   2.864   2.658   1.238
 5495SOL    HW116829   2.905   2.626   1.324
 5495SOL    HW216830   2.768   2.631   1.235
 5496SOL     OW16831   1.902   2.406   1.114
 5496SOL    HW116832   1.987   2.373   1.073
 5496SOL    HW216833   1.915   2.421   1.212
 5497SOL     OW16834   2.051   2.382   1.722
 5497SOL    HW116835   2.110   2.342   1.652
 5497SOL    HW216836   1.993   2.453   1.681
 5498SOL     OW16837   3.231   2.812   1.660
 5498SOL    HW116838   3.270   2.901   1.680
 5498SOL    HW216839   3.241   2.792   1.563
 5499SOL     OW16840   2.677   2.434   0.325
 5499SOL    HW116841   2.684   2.345   0.279
 5499SOL    HW216842   2.583   2.468   0.317
 5500SOL     OW16843   3.519   2.466   1.206
 5500SOL    HW116844   3.481   2.397   1.268
 5500SOL    HW216845   3.601   2.430   1.162
 5501SOL     OW16846   2.114   3.426   1.744
 5501SOL    HW116847   2.084   3.483   1.820
 5501SOL    HW216848   2.107   3.329   1.770
 5502SOL     OW16849   2.533   2.326   1.269
 5502SOL    HW116850   2.499   2.237   1.239
 5502SOL    HW216851   2.559   2.380   1.189
 5503SOL     OW16852   2.792   3.540   1.465
 5503SOL    HW116853   2.768   3.522   1.370
 5503SOL    HW216854   2.822   3.634   1.475
 5504SOL     OW16855   2.335   2.362   0.191
 5504SOL    HW116856   2.396   2.442   0.195
 5504SOL    HW216857   2.240   2.393   0.198
 5505SOL     OW16858   2.021   2.999   1.466
 5505SOL    HW116859   2.043   2.938   1.542
 5505SOL    HW216860   2.031   2.950   1.380
 5506SOL     OW16861   3.209   2.921   1.234
 5506SOL    HW116862   3.233   2.858   1.160
 5506SOL    HW216863   3.119   2.961   1.216
 5507SOL     OW16864   3.164   2.717   0.309
 5507SOL    HW116865   3.078   2.686   0.351
 5507SOL    HW216866   3.160   2.703   0.210
 5508SOL     OW16867   3.621   3.609   1.154
 5508SOL    HW116868   3.682   3.639   1.081
 5508SOL    HW216869   3.583   3.520   1.132
 5509SOL     OW16870   3.114   3.593   1.128
 5509SOL    HW116871   3.198   3.598   1.074
 5509SOL    HW216872   3.091   3.497   1.146
 5510SOL     OW16873   1.945   3.120   1.022
 5510SOL    HW116874   1.940   3.119   1.122
 5510SOL    HW216875   1.862   3.079   0.984
 5511SOL     OW16876   2.550   3.524   1.716
 5511SOL    HW116877   2.494   3.605   1.725
 5511SOL    HW216878   2.602   3.528   1.630
 5512SOL     OW16879   2.765   1.948   0.133
 5512SOL    HW116880   2.816   1.949   0.047
 5512SOL    HW216881   2.821   1.906   0.204
 5513SOL     OW16882   3.588   1.997   0.523
 5513SOL    HW116883   3.661   1.980   0.456
 5513SOL    HW216884   3.557   1.910   0.561
 5514SOL     OW16885   3.250   3.435   0.477
 5514SOL    HW116886   3.317   3.447   0.403
 5514SOL    HW216887   3.210   3.524   0.500
 5515SOL     OW16888   1.992   3.656   1.851
 5515SOL    HW116889   1.951   3.582   1.904
 5515SOL    HW216890   2.056   3.707   1.909
 5516SOL     OW16891   3.142   2.789   0.672
 5516SOL    HW116892   3.202   2.708   0.674
 5516SOL    HW216893   3.182   2.858   0.612
 5517SOL     OW16894   2.692   3.135   1.422
 5517SOL    HW116895   2.687   3.168   1.517
 5517SOL    HW216896   2.606   3.154   1.376
 5518SOL     OW16897   2.534   3.478   0.154
 5518SOL    HW116898   2.543   3.488   0.055
 5518SOL    HW216899   2.494   3.389   0.175
 5519SOL     OW16900   3.512   3.582   1.394
 5519SOL    HW116901   3.565   3.592   1.310
 5519SOL    HW216902   3.485   3.672   1.428
 5520SOL     OW16903   3.703   2.037   0.963
 5520SOL    HW116904   3.742   1.952   0.927
 5520SOL    HW216905   3.605   2.039   0.944
 5521SOL     OW16906   2.125   2.188   0.720
 5521SOL    HW116907   2.046   2.239   0.686
 5521SOL    HW216908   2.116   2.173   0.818
 5522SOL     OW16909   3.056   3.474   0.031
 5522SOL    HW116910   3.062   3.381   0.068
 5522SOL    HW216911   2.997   3.474  -0.049
 5523SOL     OW16912   2.684   2.864   1.372
 5523SOL    HW116913   2.724   2.863   1.280
 5523SOL    HW216914   2.694   2.956   1.412
 5524SOL     OW16915   2.778   2.772   0.291
 5524SOL    HW116916   2.841   2.810   0.223
 5524SOL    HW216917   2.818   2.689   0.330
 5525SOL     OW16918   2.234   3.150   1.490
 5525SOL    HW116919   2.221   3.243   1.456
 5525SOL    HW216920   2.150   3.098   1.477
 5526SOL     OW16921   3.476   3.154   1.289
 5526SOL    HW116922   3.536   3.157   1.369
 5526SOL    HW216923   3.401   3.218   1.302
 5527SOL     OW16924   2.901   2.960   0.696
 5527SOL    HW116925   2.831   2.913   0.750
 5527SOL    HW216926   2.960   2.892   0.653
 5528SOL     OW16927   2.876   2.098   0.971
 5528SOL    HW116928   2.868   2.062   0.878
 5528SOL    HW216929   2.874   2.022   1.036
 5529SOL     OW16930   2.452   3.349   0.491
 5529SOL    HW116931   2.494   3.291   0.421
 5529SOL    HW216932   2.408   3.428   0.447
 5530SOL     OW16933   3.571   2.247   1.381
 5530SOL    HW116934   3.644   2.316   1.385
 5530SOL    HW216935   3.599   2.172   1.322
 5531SOL     OW16936   2.117   3.210   0.290
 5531SOL    HW116937   2.021   3.211   0.263
 5531SOL    HW216938   2.129   3.263   0.374
 5532SOL     OW16939   1.967   2.875   1.726
 5532SOL    HW116940   1.890   2.842   1.780
 5532SOL    HW216941   2.052   2.845   1.768
 5533SOL     OW16942   2.534   2.065   1.489
 5533SOL    HW116943   2.624   2.049   1.449
 5533SOL    HW216944   2.542   2.070   1.588
 5534SOL     OW16945   1.937   2.207   0.033
 5534SOL    HW116946   1.845   2.179   0.004
 5534SOL    HW216947   1.968   2.284  -0.023
 5535SOL     OW16948   3.302   2.718   1.398
 5535SOL    HW116949   3.245   2.770   1.335
 5535SOL    HW216950   3.398   2.730   1.374
 5536SOL     OW16951   1.934   2.028   0.318
 5536SOL    HW116952   1.917   2.111   0.264
 5536SOL    HW216953   2.024   1.991   0.296
 5537SOL     OW16954   3.045   3.197   0.119
 5537SOL    HW116955   2.946   3.186   0.121
 5537SOL    HW216956   3.079   3.212   0.212
 5538SOL     OW16957   2.475   2.704   1.431
 5538SOL    HW116958   2.531   2.785   1.414
 5538SOL    HW216959   2.534   2.624   1.434
 5539SOL     OW16960   3.355   3.629   0.959
 5539SOL    HW116961   3.388   3.693   0.890
 5539SOL    HW216962   3.421   3.623   1.034
 5540SOL     OW16963   2.578   2.427   1.708
 5540SOL    HW116964   2.597   2.492   1.782
 5540SOL    HW216965   2.638   2.347   1.717
 5541SOL     OW16966   3.312   3.082   1.633
 5541SOL    HW116967   3.303   3.072   1.732
 5541SOL    HW216968   3.408   3.075   1.607
 5542SOL     OW16969   2.252   3.603   1.560
 5542SOL    HW116970   2.161   3.644   1.558
 5542SOL    HW216971   2.245   3.509   1.592
 5543SOL     OW16972   3.536   2.745   1.254
 5543SOL    HW116973   3.509   2.656   1.217
 5543SOL    HW216974   3.537   2.813   1.181
 5544SOL     OW16975   3.087   2.187   0.449
 5544SOL    HW116976   3.152   2.113   0.438
 5544SOL    HW216977   3.107   2.237   0.533
 5545SOL     OW16978   2.456   2.607   0.652
 5545SOL    HW116979   2.506   2.692   0.633
 5545SOL    HW216980   2.368   2.609   0.604
 5546SOL     OW16981   3.639   2.204   1.642
 5546SOL    HW116982   3.622   2.235   1.548
 5546SOL    HW216983   3.555   2.167   1.680
 5547SOL     OW16984   3.592   2.796   1.517
 5547SOL    HW116985   3.630   2.887   1.532
 5547SOL    HW216986   3.584   2.779   1.418
 5548SOL     OW16987   2.721   3.236   0.016
 5548SOL    HW116988   2.675   3.251   0.104
 5548SOL    HW216989   2.765   3.321  -0.014
 5549SOL     OW16990   2.523   3.652   0.953
 5549SOL    HW116991   2.477   3.740   0.940
 5549SOL    HW216992   2.622   3.664   0.946
 5550SOL     OW16993   2.721   2.818   0.861
 5550SOL    HW116994   2.775   2.749   0.909
 5550SOL    HW216995   2.689   2.887   0.927
 5551SOL     OW16996   2.945   2.846   0.087
 5551SOL    HW116997   2.922   2.899   0.005
 5551SOL    HW216998   3.026   2.790   0.068
 5552SOL     OW16999   2.083   3.176   1.844
 5552SOL    HW117000   2.018   3.103   1.823
 5552SOL    HW217001   2.087   3.190   1.942
 5553SOL     OW17002   1.941   3.102   0.653
 5553SOL    HW117003   1.940   3.055   0.741
 5553SOL    HW217004   2.023   3.074   0.602
 5554SOL     OW17005   2.534   3.253   1.624
 5554SOL    HW117006   2.456   3.203   1.662
 5554SOL    HW217007   2.531   3.348   1.655
 5555SOL     OW17008   3.686   2.054   1.227
 5555SOL    HW117009   3.682   1.964   1.271
 5555SOL    HW217010   3.689   2.043   1.128
 5556SOL     OW17011   2.290   2.286   0.520
 5556SOL    HW117012   2.320   2.214   0.458
 5556SOL    HW217013   2.251   2.246   0.603
 5557SOL     OW17014   3.567   3.349   1.104
 5557SOL    HW117015   3.474   3.324   1.077
 5557SOL    HW217016   3.593   3.299   1.186
 5558SOL     OW17017   2.179   2.409   1.280
 5558SOL    HW117018   2.217   2.350   1.352
 5558SOL    HW217019   2.219   2.383   1.192
 5559SOL     OW17020   2.674   3.448   0.687
 5559SOL    HW117021   2.706   3.458   0.593
 5559SOL    HW217022   2.595   3.386   0.689
 5560SOL     OW17023   3.286   2.076   1.112
 5560SOL    HW117024   3.338   2.011   1.167
 5560SOL    HW217025   3.237   2.139   1.173
 5561SOL     OW17026   2.863   1.896   1.154
 5561SOL    HW117027   2.800   1.824   1.123
 5561SOL    HW217028   2.956   1.860   1.154
 5562SOL     OW17029   2.632   3.192   0.301
 5562SOL    HW117030   2.586   3.105   0.318
 5562SOL    HW217031   2.723   3.189   0.342
 5563SOL     OW17032   2.480   3.429   1.284
 5563SOL    HW117033   2.475   3.511   1.341
 5563SOL    HW217034   2.569   3.426   1.239
 5564SOL     OW17035   3.214   1.914   0.168
 5564SOL    HW117036   3.249   1.873   0.084
 5564SOL    HW217037   3.124   1.876   0.188
 5565SOL     OW17038   3.162   2.315   0.691
 5565SOL    HW117039   3.103   2.395   0.695
 5565SOL    HW217040   3.177   2.280   0.784
 5566SOL     OW17041   3.455   2.083   0.882
 5566SOL    HW117042   3.371   2.082   0.936
 5566SOL    HW217043   3.457   2.166   0.826
 5567SOL     OW17044   1.901   2.939   0.300
 5567SOL    HW117045   2.000   2.928   0.291
 5567SOL    HW217046   1.861   2.853   0.332
 5568SOL     OW17047   2.737   3.508   0.337
 5568SOL    HW117048   2.660   3.473   0.283
 5568SOL    HW217049   2.705   3.579   0.399
 5569SOL     OW17050   2.092   2.490   1.975
 5569SOL    HW117051   1.999   2.488   2.012
 5569SOL    HW217052   2.093   2.451   1.883
 5570SOL     OW17053   2.087   2.137   2.858
 5570SOL    HW117054   2.122   2.120   2.950
 5570SOL    HW217055   1.999   2.092   2.846
 5571SOL     OW17056   1.881   2.230   2.509
 5571SOL    HW117057   1.799   2.273   2.548
 5571SOL    HW217058   1.853   2.157   2.446
 5572SOL     OW17059   2.431   3.137   3.027
 5572SOL    HW117060   2.338   3.130   2.990
 5572SOL    HW217061   2.442   3.226   3.071
 5573SOL     OW17062   3.417   3.373   2.565
 5573SOL    HW117063   3.360   3.357   2.646
 5573SOL    HW217064   3.358   3.383   2.485
 5574SOL     OW17065   2.997   2.565   2.579
 5574SOL    HW117066   3.054   2.643   2.554
 5574SOL    HW217067   2.937   2.591   2.655
 5575SOL     OW17068   3.617   2.469   2.093
 5575SOL    HW117069   3.605   2.456   1.994
 5575SOL    HW217070   3.587   2.388   2.142
 5576SOL     OW17071   2.630   3.006   2.885
 5576SOL    HW117072   2.552   3.023   2.945
 5576SOL    HW217073   2.664   3.093   2.849
 5577SOL     OW17074   2.712   2.660   3.685
 5577SOL    HW117075   2.708   2.736   3.750
 5577SOL    HW217076   2.734   2.696   3.594
 5578SOL     OW17077   2.547   2.874   2.527
 5578SOL    HW117078   2.616   2.858   2.597
 5578SOL    HW217079   2.474   2.931   2.565
 5579SOL     OW17080   2.548   3.023   3.665
 5579SOL    HW117081   2.608   3.102   3.679
 5579SOL    HW217082   2.462   3.054   3.624
 5580SOL     OW17083   2.197   3.297   2.923
 5580SOL    HW117084   2.119   3.266   2.870
 5580SOL    HW217085   2.255   3.355   2.866
 5581SOL     OW17086   3.322   3.367   3.201
 5581SOL    HW117087   3.346   3.461   3.227
 5581SOL    HW217088   3.306   3.313   3.283
 5582SOL     OW17089   2.300   2.254   3.361
 5582SOL    HW117090   2.382   2.198   3.370
 5582SOL    HW217091   2.219   2.196   3.365
 5583SOL     OW17092   3.465   2.309   2.599
 5583SOL    HW117093   3.391   2.355   2.549
 5583SOL    HW217094   3.516   2.377   2.652
 5584SOL     OW17095   2.093   3.575   2.345
 5584SOL    HW117096   2.127   3.652   2.399
 5584SOL    HW217097   2.137   3.575   2.255
 5585SOL     OW17098   2.989   3.203   3.552
 5585SOL    HW117099   3.036   3.203   3.640
 5585SOL    HW217100   2.941   3.116   3.541
 5586SOL     OW17101   2.092   3.296   2.400
 5586SOL    HW117102   2.066   3.392   2.400
 5586SOL    HW217103   2.021   3.242   2.445
 5587SOL     OW17104   2.102   2.953   2.748
 5587SOL    HW117105   2.116   2.869   2.800
 5587SOL    HW217106   2.047   3.017   2.803
 5588SOL     OW17107   2.482   3.648   3.301
 5588SOL    HW117108   2.390   3.631   3.336
 5588SOL    HW217109   2.510   3.740   3.327
 5589SOL     OW17110   2.468   2.826   1.985
 5589SOL    HW117111   2.475   2.910   1.931
 5589SOL    HW217112   2.514   2.839   2.073
 5590SOL     OW17113   3.456   1.976   3.342
 5590SOL    HW117114   3.438   2.043   3.270
 5590SOL    HW217115   3.453   2.022   3.431
 5591SOL     OW17116   1.984   2.505   2.425
 5591SOL    HW117117   1.939   2.417   2.442
 5591SOL    HW217118   1.983   2.559   2.509
 5592SOL     OW17119   3.704   3.629   2.221
 5592SOL    HW117120   3.758   3.600   2.301
 5592SOL    HW217121   3.734   3.719   2.192
 5593SOL     OW17122   1.889   3.458   1.979
 5593SOL    HW117123   1.870   3.362   2.000
 5593SOL    HW217124   1.856   3.516   2.054
 5594SOL     OW17125   3.551   2.784   2.474
 5594SOL    HW117126   3.646   2.755   2.482
 5594SOL    HW217127   3.543   2.849   2.399
 5595SOL     OW17128   3.503   2.970   2.294
 5595SOL    HW117129   3.589   2.972   2.242
 5595SOL    HW217130   3.517   3.017   2.382
 5596SOL     OW17131   1.975   2.599   3.459
 5596SOL    HW117132   2.063   2.586   3.504
 5596SOL    HW217133   1.962   2.696   3.437
 5597SOL     OW17134   2.475   3.227   2.588
 5597SOL    HW117135   2.426   3.140   2.597
 5597SOL    HW217136   2.452   3.270   2.501
 5598SOL     OW17137   3.155   3.090   3.285
 5598SOL    HW117138   3.192   3.017   3.227
 5598SOL    HW217139   3.207   3.095   3.370
 5599SOL     OW17140   2.671   1.866   2.364
 5599SOL    HW117141   2.711   1.957   2.355
 5599SOL    HW217142   2.571   1.874   2.370
 5600SOL     OW17143   2.059   2.838   3.126
 5600SOL    HW117144   2.148   2.793   3.112
 5600SOL    HW217145   1.986   2.773   3.107
 5601SOL     OW17146   3.387   2.861   2.052
 5601SOL    HW117147   3.324   2.785   2.065
 5601SOL    HW217148   3.435   2.879   2.138
 5602SOL     OW17149   3.049   3.654   3.478
 5602SOL    HW117150   3.073   3.714   3.402
 5602SOL    HW217151   3.056   3.559   3.448
 5603SOL     OW17152   2.179   2.113   3.663
 5603SOL    HW117153   2.250   2.184   3.669
 5603SOL    HW217154   2.091   2.152   3.691
 5604SOL     OW17155   3.328   3.279   2.815
 5604SOL    HW117156   3.269   3.285   2.895
 5604SOL    HW217157   3.313   3.191   2.769
 5605SOL     OW17158   3.529   3.576   2.434
 5605SOL    HW117159   3.488   3.553   2.346
 5605SOL    HW217160   3.511   3.502   2.499
 5606SOL     OW17161   2.460   2.591   2.132
 5606SOL    HW117162   2.484   2.660   2.064
 5606SOL    HW217163   2.382   2.624   2.186
 5607SOL     OW17164   3.143   2.207   2.806
 5607SOL    HW117165   3.057   2.157   2.793
 5607SOL    HW217166   3.205   2.153   2.862
 5608SOL     OW17167   3.438   3.524   2.169
 5608SOL    HW117168   3.527   3.570   2.172
 5608SOL    HW217169   3.417   3.500   2.074
 5609SOL     OW17170   2.669   2.467   3.327
 5609SOL    HW117171   2.622   2.464   3.416
 5609SOL    HW217172   2.618   2.412   3.261
 5610SOL     OW17173   3.256   2.331   3.536
 5610SOL    HW117174   3.236   2.374   3.624
 5610SOL    HW217175   3.334   2.269   3.545
 5611SOL     OW17176   2.835   2.752   3.434
 5611SOL    HW117177   2.881   2.668   3.405
 5611SOL    HW217178   2.779   2.786   3.359
 5612SOL     OW17179   2.853   2.272   3.104
 5612SOL    HW117180   2.776   2.306   3.158
 5612SOL    HW217181   2.819   2.221   3.025
 5613SOL     OW17182   2.903   2.563   2.291
 5613SOL    HW117183   2.929   2.559   2.387
 5613SOL    HW217184   2.818   2.512   2.277
 5614SOL     OW17185   1.938   2.673   2.651
 5614SOL    HW117186   2.037   2.661   2.660
 5614SOL    HW217187   1.914   2.768   2.672
 5615SOL     OW17188   1.992   3.683   3.433
 5615SOL    HW117189   1.982   3.668   3.532
 5615SOL    HW217190   1.906   3.719   3.397
 5616SOL     OW17191   2.727   2.210   2.057
 5616SOL    HW117192   2.786   2.273   2.008
 5616SOL    HW217193   2.746   2.116   2.028
 5617SOL     OW17194   3.581   2.447   3.693
 5617SOL    HW117195   3.555   2.536   3.657
 5617SOL    HW217196   3.579   2.379   3.620
 5618SOL     OW17197   3.224   3.006   2.407
 5618SOL    HW117198   3.307   2.977   2.359
 5618SOL    HW217199   3.175   3.073   2.351
 5619SOL     OW17200   2.412   2.058   2.747
 5619SOL    HW117201   2.407   2.053   2.847
 5619SOL    HW217202   2.414   2.154   2.718
 5620SOL     OW17203   2.870   3.318   2.339
 5620SOL    HW117204   2.824   3.390   2.287
 5620SOL    HW217205   2.866   3.338   2.437
 5621SOL     OW17206   2.213   3.663   2.715
 5621SOL    HW117207   2.263   3.577   2.721
 5621SOL    HW217208   2.278   3.740   2.712
 5622SOL     OW17209   3.657   2.928   2.735
 5622SOL    HW117210   3.595   2.913   2.659
 5622SOL    HW217211   3.605   2.939   2.820
 5623SOL     OW17212   3.089   3.412   3.368
 5623SOL    HW117213   3.095   3.335   3.432
 5623SOL    HW217214   3.037   3.386   3.288
 5624SOL     OW17215   2.183   2.805   2.104
 5624SOL    HW117216   2.265   2.844   2.062
 5624SOL    HW217217   2.156   2.723   2.055
 5625SOL     OW17218   3.320   2.597   2.590
 5625SOL    HW117219   3.315   2.532   2.665
 5625SOL    HW217220   3.400   2.656   2.603
 5626SOL     OW17221   2.323   3.128   3.589
 5626SOL    HW117222   2.273   3.129   3.503
 5626SOL    HW217223   2.260   3.110   3.665
 5627SOL     OW17224   2.973   3.638   2.099
 5627SOL    HW117225   2.913   3.576   2.149
 5627SOL    HW217226   3.004   3.594   2.014
 5628SOL     OW17227   2.064   2.147   3.360
 5628SOL    HW117228   1.984   2.207   3.347
 5628SOL    HW217229   2.054   2.098   3.446
 5629SOL     OW17230   3.494   3.239   1.943
 5629SOL    HW117231   3.462   3.333   1.933
 5629SOL    HW217232   3.418   3.176   1.931
 5630SOL     OW17233   2.326   3.605   2.185
 5630SOL    HW117234   2.359   3.644   2.271
 5630SOL    HW217235   2.402   3.598   2.120
 5631SOL     OW17236   3.262   1.969   2.288
 5631SOL    HW117237   3.238   1.932   2.198
 5631SOL    HW217238   3.361   1.985   2.292
 5632SOL     OW17239   2.111   3.647   3.103
 5632SOL    HW117240   2.168   3.582   3.153
 5632SOL    HW217241   2.095   3.614   3.010
 5633SOL     OW17242   2.802   3.560   2.766
 5633SOL    HW117243   2.882   3.503   2.787
 5633SOL    HW217244   2.753   3.520   2.689
 5634SOL     OW17245   2.244   2.562   2.342
 5634SOL    HW117246   2.289   2.472   2.339
 5634SOL    HW217247   2.150   2.551   2.375
 5635SOL     OW17248   3.409   2.084   3.591
 5635SOL    HW117249   3.404   2.121   3.683
 5635SOL    HW217250   3.337   2.015   3.579
 5636SOL     OW17251   2.476   1.984   1.979
 5636SOL    HW117252   2.574   1.962   1.986
 5636SOL    HW217253   2.445   1.967   1.886
 5637SOL     OW17254   2.643   2.126   3.611
 5637SOL    HW117255   2.710   2.065   3.654
 5637SOL    HW217256   2.570   2.145   3.676
 5638SOL     OW17257   2.750   3.376   3.057
 5638SOL    HW117258   2.727   3.351   2.963
 5638SOL    HW217259   2.811   3.307   3.096
 5639SOL     OW17260   3.213   2.452   3.295
 5639SOL    HW117261   3.241   2.409   3.380
 5639SOL    HW217262   3.238   2.548   3.296
 5640SOL     OW17263   2.665   3.264   2.786
 5640SOL    HW117264   2.755   3.278   2.744
 5640SOL    HW217265   2.594   3.266   2.715
 5641SOL     OW17266   2.784   2.365   2.761
 5641SOL    HW117267   2.759   2.356   2.665
 5641SOL    HW217268   2.832   2.283   2.792
 5642SOL     OW17269   2.401   1.926   2.374
 5642SOL    HW117270   2.320   1.927   2.432
 5642SOL    HW217271   2.404   2.009   2.319
 5643SOL     OW17272   3.296   3.050   1.903
 5643SOL    HW117273   3.328   2.974   1.960
 5643SOL    HW217274   3.204   3.077   1.933
 5644SOL     OW17275   2.159   1.897   2.033
 5644SOL    HW117276   2.208   1.981   2.012
 5644SOL    HW217277   2.221   1.832   2.078
 5645SOL     OW17278   2.797   2.098   2.342
 5645SOL    HW117279   2.749   2.139   2.264
 5645SOL    HW217280   2.896   2.096   2.323
 5646SOL     OW17281   2.938   2.545   3.326
 5646SOL    HW117282   2.858   2.484   3.329
 5646SOL    HW217283   3.019   2.492   3.302
 5647SOL     OW17284   3.089   3.432   2.655
 5647SOL    HW117285   3.110   3.506   2.590
 5647SOL    HW217286   3.157   3.432   2.728
 5648SOL     OW17287   2.321   3.014   2.603
 5648SOL    HW117288   2.250   2.987   2.668
 5648SOL    HW217289   2.295   2.986   2.510
 5649SOL     OW17290   3.133   3.659   2.453
 5649SOL    HW117291   3.177   3.723   2.389
 5649SOL    HW217292   3.083   3.711   2.523
 5650SOL     OW17293   2.894   2.411   1.878
 5650SOL    HW117294   2.853   2.493   1.839
 5650SOL    HW217295   2.958   2.437   1.951
 5651SOL     OW17296   1.940   2.418   3.248
 5651SOL    HW117297   2.032   2.417   3.207
 5651SOL    HW217298   1.934   2.492   3.315
 5652SOL     OW17299   2.423   2.084   3.009
 5652SOL    HW117300   2.461   2.000   3.046
 5652SOL    HW217301   2.335   2.103   3.053
 5653SOL     OW17302   2.728   2.316   2.504
 5653SOL    HW117303   2.696   2.388   2.442
 5653SOL    HW217304   2.752   2.235   2.451
 5654SOL     OW17305   2.879   1.901   2.615
 5654SOL    HW117306   2.807   1.906   2.546
 5654SOL    HW217307   2.855   1.832   2.684
 5655SOL     OW17308   3.291   3.035   2.729
 5655SOL    HW117309   3.236   2.951   2.722
 5655SOL    HW217310   3.317   3.064   2.637
 5656SOL     OW17311   3.328   2.452   2.854
 5656SOL    HW117312   3.298   2.357   2.861
 5656SOL    HW217313   3.401   2.468   2.920
 5657SOL     OW17314   3.719   2.695   2.239
 5657SOL    HW117315   3.761   2.631   2.303
 5657SOL    HW217316   3.681   2.644   2.161
 5658SOL     OW17317   2.350   3.247   2.036
 5658SOL    HW117318   2.263   3.232   2.083
 5658SOL    HW217319   2.333   3.273   1.941
 5659SOL     OW17320   3.526   3.142   2.519
 5659SOL    HW117321   3.625   3.150   2.533
 5659SOL    HW217322   3.481   3.226   2.550
 5660SOL     OW17323   3.252   2.437   1.940
 5660SOL    HW117324   3.198   2.416   2.021
 5660SOL    HW217325   3.343   2.396   1.949
 5661SOL     OW17326   2.389   2.118   2.190
 5661SOL    HW117327   2.416   2.059   2.115
 5661SOL    HW217328   2.389   2.213   2.159
 5662SOL     OW17329   3.616   3.085   3.450
 5662SOL    HW117330   3.707   3.046   3.437
 5662SOL    HW217331   3.624   3.181   3.474
 5663SOL     OW17332   2.926   3.209   3.202
 5663SOL    HW117333   2.846   3.186   3.257
 5663SOL    HW217334   3.009   3.183   3.251
 5664SOL     OW17335   3.454   3.491   3.487
 5664SOL    HW117336   3.481   3.525   3.397
 5664SOL    HW217337   3.533   3.453   3.533
 5665SOL     OW17338   2.973   3.057   2.962
 5665SOL    HW117339   2.933   3.101   3.043
 5665SOL    HW217340   2.932   3.094   2.879
 5666SOL     OW17341   3.500   2.961   2.941
 5666SOL    HW117342   3.505   3.042   3.000
 5666SOL    HW217343   3.414   2.963   2.890
 5667SOL     OW17344   2.777   1.951   3.264
 5667SOL    HW117345   2.802   1.931   3.169
 5667SOL    HW217346   2.849   2.007   3.306
 5668SOL     OW17347   2.842   2.978   3.581
 5668SOL    HW117348   2.743   2.984   3.591
 5668SOL    HW217349   2.865   2.898   3.525
 5669SOL     OW17350   2.567   2.912   2.230
 5669SOL    HW117351   2.553   2.919   2.329
 5669SOL    HW217352   2.651   2.861   2.212
 5670SOL     OW17353   2.272   2.675   3.113
 5670SOL    HW117354   2.358   2.687   3.163
 5670SOL    HW217355   2.230   2.588   3.140
 5671SOL     OW17356   3.136   2.248   3.124
 5671SOL    HW117357   3.157   2.322   3.188
 5671SOL    HW217358   3.047   2.265   3.081
 5672SOL     OW17359   1.926   3.426   3.193
 5672SOL    HW117360   1.880   3.508   3.159
 5672SOL    HW217361   2.024   3.445   3.202
 5673SOL     OW17362   2.229   2.962   2.363
 5673SOL    HW117363   2.222   3.045   2.307
 5673SOL    HW217364   2.233   2.882   2.303
 5674SOL     OW17365   2.428   2.399   2.727
 5674SOL    HW117366   2.440   2.465   2.653
 5674SOL    HW217367   2.474   2.433   2.810
 5675SOL     OW17368   3.114   3.210   2.250
 5675SOL    HW117369   3.164   3.287   2.290
 5675SOL    HW217370   3.019   3.212   2.282
 5676SOL     OW17371   3.134   3.307   3.004
 5676SOL    HW117372   3.181   3.320   3.091
 5676SOL    HW217373   3.068   3.233   3.013
 5677SOL     OW17374   3.444   2.501   2.334
 5677SOL    HW117375   3.413   2.562   2.407
 5677SOL    HW217376   3.494   2.553   2.265
 5678SOL     OW17377   2.216   3.372   3.191
 5678SOL    HW117378   2.195   3.328   3.104
 5678SOL    HW217379   2.313   3.398   3.194
 5679SOL     OW17380   2.264   2.613   3.460
 5679SOL    HW117381   2.332   2.668   3.413
 5679SOL    HW217382   2.304   2.525   3.487
 5680SOL     OW17383   3.449   2.641   3.532
 5680SOL    HW117384   3.357   2.679   3.527
 5680SOL    HW217385   3.509   2.688   3.467
 5681SOL     OW17386   2.875   1.967   3.632
 5681SOL    HW117387   2.881   2.052   3.580
 5681SOL    HW217388   2.907   1.891   3.575
 5682SOL     OW17389   2.366   1.912   3.602
 5682SOL    HW117390   2.324   1.855   3.532
 5682SOL    HW217391   2.300   1.981   3.634
 5683SOL     OW17392   2.435   2.732   2.891
 5683SOL    HW117393   2.479   2.821   2.882
 5683SOL    HW217394   2.372   2.732   2.968
 5684SOL     OW17395   3.222   2.724   2.907
 5684SOL    HW117396   3.147   2.724   2.841
 5684SOL    HW217397   3.259   2.632   2.916
 5685SOL     OW17398   3.071   2.387   2.137
 5685SOL    HW117399   3.084   2.303   2.191
 5685SOL    HW217400   3.042   2.461   2.197
 5686SOL     OW17401   2.169   2.075   3.093
 5686SOL    HW117402   2.146   2.112   3.183
 5686SOL    HW217403   2.139   1.980   3.087
 5687SOL     OW17404   1.899   3.172   3.144
 5687SOL    HW117405   1.952   3.123   3.212
 5687SOL    HW217406   1.921   3.270   3.149
 5688SOL     OW17407   2.594   2.496   2.926
 5688SOL    HW117408   2.653   2.470   2.850
 5688SOL    HW217409   2.566   2.592   2.915
 5689SOL     OW17410   3.590   2.797   3.716
 5689SOL    HW117411   3.544   2.790   3.627
 5689SOL    HW217412   3.528   2.841   3.782
 5690SOL     OW17413   2.169   1.925   2.480
 5690SOL    HW117414   2.158   2.019   2.513
 5690SOL    HW217415   2.164   1.862   2.557
 5691SOL     OW17416   3.484   2.229   2.236
 5691SOL    HW117417   3.486   2.153   2.300
 5691SOL    HW217418   3.436   2.306   2.276
 5692SOL     OW17419   2.885   2.628   2.828
 5692SOL    HW117420   2.900   2.649   2.924
 5692SOL    HW217421   2.855   2.533   2.819
 5693SOL     OW17422   2.842   3.435   3.562
 5693SOL    HW117423   2.822   3.479   3.474
 5693SOL    HW217424   2.881   3.344   3.546
 5694SOL     OW17425   3.721   3.380   3.467
 5694SOL    HW117426   3.735   3.407   3.372
 5694SOL    HW217427   3.804   3.402   3.520
 5695SOL     OW17428   2.212   2.760   3.666
 5695SOL    HW117429   2.288   2.804   3.714
 5695SOL    HW217430   2.247   2.713   3.584
 5696SOL     OW17431   3.402   2.136   1.987
 5696SOL    HW117432   3.341   2.061   2.010
 5696SOL    HW217433   3.424   2.188   2.070
 5697SOL     OW17434   3.165   2.700   1.904
 5697SOL    HW117435   3.199   2.607   1.919
 5697SOL    HW217436   3.183   2.727   1.809
 5698SOL     OW17437   2.930   3.195   2.711
 5698SOL    HW117438   2.937   3.111   2.656
 5698SOL    HW217439   2.992   3.264   2.675
 5699SOL     OW17440   2.181   2.672   2.811
 5699SOL    HW117441   2.274   2.708   2.816
 5699SOL    HW217442   2.175   2.587   2.863
 5700SOL     OW17443   2.201   2.371   2.868
 5700SOL    HW117444   2.149   2.288   2.851
 5700SOL    HW217445   2.278   2.376   2.804
 5701SOL     OW17446   3.000   2.242   3.540
 5701SOL    HW117447   2.955   2.305   3.604
 5701SOL    HW217448   3.093   2.273   3.523
 5702SOL     OW17449   3.022   2.069   3.339
 5702SOL    HW117450   3.022   2.133   3.416
 5702SOL    HW217451   3.050   2.117   3.256
 5703SOL     OW17452   1.870   3.188   2.062
 5703SOL    HW117453   1.777   3.209   2.031
 5703SOL    HW217454   1.880   3.089   2.075
 5704SOL     OW17455   1.950   3.663   2.789
 5704SOL    HW117456   1.908   3.577   2.762
 5704SOL    HW217457   2.044   3.666   2.755
 5705SOL     OW17458   2.366   3.430   2.772
 5705SOL    HW117459   2.432   3.504   2.781
 5705SOL    HW217460   2.410   3.351   2.730
 5706SOL     OW17461   2.864   2.658   3.100
 5706SOL    HW117462   2.905   2.626   3.186
 5706SOL    HW217463   2.768   2.631   3.097
 5707SOL     OW17464   1.902   2.406   2.976
 5707SOL    HW117465   1.987   2.373   2.935
 5707SOL    HW217466   1.915   2.421   3.074
 5708SOL     OW17467   2.051   2.382   3.584
 5708SOL    HW117468   2.110   2.342   3.514
 5708SOL    HW217469   1.993   2.453   3.543
 5709SOL     OW17470   3.231   2.812   3.522
 5709SOL    HW117471   3.270   2.901   3.542
 5709SOL    HW217472   3.241   2.792   3.425
 5710SOL     OW17473   2.677   2.434   2.187
 5710SOL    HW117474   2.684   2.345   2.141
 5710SOL    HW217475   2.583   2.468   2.179
 5711SOL     OW17476   3.519   2.466   3.068
 5711SOL    HW117477   3.481   2.397   3.130
 5711SOL    HW217478   3.601   2.430   3.024
 5712SOL     OW17479   2.114   3.426   3.606
 5712SOL    HW117480   2.084   3.483   3.682
 5712SOL    HW217481   2.107   3.329   3.632
 5713SOL     OW17482   2.533   2.326   3.131
 5713SOL    HW117483   2.499   2.237   3.101
 5713SOL    HW217484   2.559   2.380   3.051
 5714SOL     OW17485   2.792   3.540   3.327
 5714SOL    HW117486   2.768   3.522   3.232
 5714SOL    HW217487   2.822   3.634   3.337
 5715SOL     OW17488   2.335   2.362   2.053
 5715SOL    HW117489   2.396   2.442   2.057
 5715SOL    HW217490   2.240   2.393   2.060
 5716SOL     OW17491   2.021   2.999   3.328
 5716SOL    HW117492   2.043   2.938   3.404
 5716SOL    HW217493   2.031   2.950   3.242
 5717SOL     OW17494   3.209   2.921   3.096
 5717SOL    HW117495   3.233   2.858   3.022
 5717SOL    HW217496   3.119   2.961   3.078
 5718SOL     OW17497   3.164   2.717   2.171
 5718SOL    HW117498   3.078   2.686   2.213
 5718SOL    HW217499   3.160   2.703   2.072
 5719SOL     OW17500   3.621   3.609   3.016
 5719SOL    HW117501   3.682   3.639   2.943
 5719SOL    HW217502   3.583   3.520   2.994
 5720SOL     OW17503   3.114   3.593   2.990
 5720SOL    HW117504   3.198   3.598   2.936
 5720SOL    HW217505   3.091   3.497   3.008
 5721SOL     OW17506   1.945   3.120   2.884
 5721SOL    HW117507   1.940   3.119   2.984
 5721SOL    HW217508   1.862   3.079   2.846
 5722SOL     OW17509   2.550   3.524   3.578
 5722SOL    HW117510   2.494   3.605   3.587
 5722SOL    HW217511   2.602   3.528   3.492
 5723SOL     OW17512   3.588   1.997   2.385
 5723SOL    HW117513   3.661   1.980   2.318
 5723SOL    HW217514   3.557   1.910   2.423
 5724SOL     OW17515   3.250   3.435   2.339
 5724SOL    HW117516   3.317   3.447   2.265
 5724SOL    HW217517   3.210   3.524   2.362
 5725SOL     OW17518   1.992   3.656   3.713
 5725SOL    HW117519   1.951   3.582   3.766
 5725SOL    HW217520   2.056   3.707   3.771
 5726SOL     OW17521   3.142   2.789   2.534
 5726SOL    HW117522   3.202   2.708   2.536
 5726SOL    HW217523   3.182   2.858   2.474
 5727SOL     OW17524   2.692   3.135   3.284
 5727SOL    HW117525   2.687   3.168   3.379
 5727SOL    HW217526   2.606   3.154   3.238
 5728SOL     OW17527   2.534   3.478   2.016
 5728SOL    HW117528   2.543   3.488   1.917
 5728SOL    HW217529   2.494   3.389   2.037
 5729SOL     OW17530   3.512   3.582   3.256
 5729SOL    HW117531   3.565   3.592   3.172
 5729SOL    HW217532   3.485   3.672   3.290
 5730SOL     OW17533   3.703   2.037   2.825
 5730SOL    HW117534   3.742   1.952   2.789
 5730SOL    HW217535   3.605   2.039   2.806
 5731SOL     OW17536   2.125   2.188   2.582
 5731SOL    HW117537   2.046   2.239   2.548
 5731SOL    HW217538   2.116   2.173   2.680
 5732SOL     OW17539   3.056   3.474   1.893
 5732SOL    HW117540   3.062   3.381   1.930
 5732SOL    HW217541   2.997   3.474   1.813
 5733SOL     OW17542   2.684   2.864   3.234
 5733SOL    HW117543   2.724   2.863   3.142
 5733SOL    HW217544   2.694   2.956   3.274
 5734SOL     OW17545   2.778   2.772   2.153
 5734SOL    HW117546   2.841   2.810   2.085
 5734SOL    HW217547   2.818   2.689   2.192
 5735SOL     OW17548   3.366   3.469   1.906
 5735SOL    HW117549   3.274   3.506   1.913
 5735SOL    HW217550   3.404   3.489   1.816
 5736SOL     OW17551   2.234   3.150   3.352
 5736SOL    HW117552   2.221   3.243   3.318
 5736SOL    HW217553   2.150   3.098   3.339
 5737SOL     OW17554   3.476   3.154   3.151
 5737SOL    HW117555   3.536   3.157   3.231
 5737SOL    HW217556   3.401   3.218   3.164
 5738SOL     OW17557   2.901   2.960   2.558
 5738SOL    HW117558   2.831   2.913   2.612
 5738SOL    HW217559   2.960   2.892   2.515
 5739SOL     OW17560   2.876   2.098   2.833
 5739SOL    HW117561   2.868   2.062   2.740
 5739SOL    HW217562   2.874   2.022   2.898
 5740SOL     OW17563   2.452   3.349   2.353
 5740SOL    HW117564   2.494   3.291   2.283
 5740SOL    HW217565   2.408   3.428   2.309
 5741SOL     OW17566   3.571   2.247   3.243
 5741SOL    HW117567   3.644   2.316   3.247
 5741SOL    HW217568   3.599   2.172   3.184
 5742SOL     OW17569   2.117   3.210   2.152
 5742SOL    HW117570   2.021   3.211   2.125
 5742SOL    HW217571   2.129   3.263   2.236
 5743SOL     OW17572   1.967   2.875   3.588
 5743SOL    HW117573   1.890   2.842   3.642
 5743SOL    HW217574   2.052   2.845   3.630
 5744SOL     OW17575   2.534   2.065   3.351
 5744SOL    HW117576   2.624   2.049   3.311
 5744SOL    HW217577   2.542   2.070   3.450
 5745SOL     OW17578   1.937   2.207   1.895
 5745SOL    HW117579   1.845   2.179   1.866
 5745SOL    HW217580   1.968   2.284   1.839
 5746SOL     OW17581   3.302   2.718   3.260
 5746SOL    HW117582   3.245   2.770   3.197
 5746SOL    HW217583   3.398   2.730   3.236
 5747SOL     OW17584   1.934   2.028   2.180
 5747SOL    HW117585   1.917   2.111   2.126
 5747SOL    HW217586   2.024   1.991   2.158
 5748SOL     OW17587   3.045   3.197   1.981
 5748SOL    HW117588   2.946   3.186   1.983
 5748SOL    HW217589   3.079   3.212   2.074
 5749SOL     OW17590   2.475   2.704   3.293
 5749SOL    HW117591   2.531   2.785   3.276
 5749SOL    HW217592   2.534   2.624   3.296
 5750SOL     OW17593   3.355   3.629   2.821
 5750SOL    HW117594   3.388   3.693   2.752
 5750SOL    HW217595   3.421   3.623   2.896
 5751SOL     OW17596   2.578   2.427   3.570
 5751SOL    HW117597   2.597   2.492   3.644
 5751SOL    HW217598   2.638   2.347   3.579
 5752SOL     OW17599   3.312   3.082   3.495
 5752SOL    HW117600   3.303   3.072   3.594
 5752SOL    HW217601   3.408   3.075   3.469
 5753SOL     OW17602   2.252   3.603   3.422
 5753SOL    HW117603   2.161   3.644   3.420
 5753SOL    HW217604   2.245   3.509   3.454
 5754SOL     OW17605   3.536   2.745   3.116
 5754SOL    HW117606   3.509   2.656   3.079
 5754SOL    HW217607   3.537   2.813   3.043
 5755SOL     OW17608   3.087   2.187   2.311
 5755SOL    HW117609   3.152   2.113   2.300
 5755SOL    HW217610   3.107   2.237   2.395
 5756SOL     OW17611   2.456   2.607   2.514
 5756SOL    HW117612   2.506   2.692   2.495
 5756SOL    HW217613   2.368   2.609   2.466
 5757SOL     OW17614   3.639   2.204   3.504
 5757SOL    HW117615   3.622   2.235   3.410
 5757SOL    HW217616   3.555   2.167   3.542
 5758SOL     OW17617   3.592   2.796   3.379
 5758SOL    HW117618   3.630   2.887   3.394
 5758SOL    HW217619   3.584   2.779   3.280
 5759SOL     OW17620   2.721   3.236   1.878
 5759SOL    HW117621   2.675   3.251   1.966
 5759SOL    HW217622   2.765   3.321   1.848
 5760SOL     OW17623   2.523   3.652   2.815
 5760SOL    HW117624   2.477   3.740   2.802
 5760SOL    HW217625   2.622   3.664   2.808
 5761SOL     OW17626   2.721   2.818   2.723
 5761SOL    HW117627   2.775   2.749   2.771
 5761SOL    HW217628   2.689   2.887   2.789
 5762SOL     OW17629   2.945   2.846   1.949
 5762SOL    HW117630   2.922   2.899   1.867
 5762SOL    HW217631   3.026   2.790   1.930
 5763SOL     OW17632   3.723   3.431   2.713
 5763SOL    HW117633   3.652   3.419   2.643
 5763SOL    HW217634   3.724   3.352   2.773
 5764SOL     OW17635   2.083   3.176   3.706
 5764SOL    HW117636   2.018   3.103   3.685
 5764SOL    HW217637   2.087   3.190   3.804
 5765SOL     OW17638   1.941   3.102   2.515
 5765SOL    HW117639   1.940   3.055   2.603
 5765SOL    HW217640   2.023   3.074   2.464
 5766SOL     OW17641   2.534   3.253   3.486
 5766SOL    HW117642   2.456   3.203   3.524
 5766SOL    HW217643   2.531   3.348   3.517
 5767SOL     OW17644   3.686   2.054   3.089
 5767SOL    HW117645   3.682   1.964   3.133
 5767SOL    HW217646   3.689   2.043   2.990
 5768SOL     OW17647   2.290   2.286   2.382
 5768SOL    HW117648   2.320   2.214   2.320
 5768SOL    HW217649   2.251   2.246   2.465
 5769SOL     OW17650   3.567   3.349   2.966
 5769SOL    HW117651   3.474   3.324   2.939
 5769SOL    HW217652   3.593   3.299   3.048
 5770SOL     OW17653   2.179   2.409   3.142
 5770SOL    HW117654   2.217   2.350   3.214
 5770SOL    HW217655   2.219   2.383   3.054
 5771SOL     OW17656   2.674   3.448   2.549
 5771SOL    HW117657   2.706   3.458   2.455
 5771SOL    HW217658   2.595   3.386   2.551
 5772SOL     OW17659   3.286   2.076   2.974
 5772SOL    HW117660   3.338   2.011   3.029
 5772SOL    HW217661   3.237   2.139   3.035
 5773SOL     OW17662   2.863   1.896   3.016
 5773SOL    HW117663   2.800   1.824   2.985
 5773SOL    HW217664   2.956   1.860   3.016
 5774SOL     OW17665   2.632   3.192   2.163
 5774SOL    HW117666   2.586   3.105   2.180
 5774SOL    HW217667   2.723   3.189   2.204
 5775SOL     OW17668   2.480   3.429   3.146
 5775SOL    HW117669   2.475   3.511   3.203
 5775SOL    HW217670   2.569   3.426   3.101
 5776SOL     OW17671   3.214   1.914   2.030
 5776SOL    HW117672   3.249   1.873   1.946
 5776SOL    HW217673   3.124   1.876   2.050
 5777SOL     OW17674   3.162   2.315   2.553
 5777SOL    HW117675   3.103   2.395   2.557
 5777SOL    HW217676   3.177   2.280   2.646
 5778SOL     OW17677   3.455   2.083   2.744
 5778SOL    HW117678   3.371   2.082   2.798
 5778SOL    HW217679   3.457   2.166   2.688
 5779SOL     OW17680   1.901   2.939   2.162
 5779SOL    HW117681   2.000   2.928   2.153
 5779SOL    HW217682   1.861   2.853   2.194
 5780SOL     OW17683   2.737   3.508   2.199
 5780SOL    HW117684   2.660   3.473   2.145
 5780SOL    HW217685   2.705   3.579   2.261
 5781SOL     OW17686   2.092   2.490   3.837
 5781SOL    HW117687   1.999   2.488   3.874
 5781SOL    HW217688   2.093   2.451   3.745
 5782SOL     OW17689   2.087   2.137   4.720
 5782SOL    HW117690   2.122   2.120   4.812
 5782SOL    HW217691   1.999   2.092   4.708
 5783SOL     OW17692   1.881   2.230   4.371
 5783SOL    HW117693   1.799   2.273   4.410
 5783SOL    HW217694   1.853   2.157   4.308
 5784SOL     OW17695   2.431   3.137   4.889
 5784SOL    HW117696   2.338   3.130   4.852
 5784SOL    HW217697   2.442   3.226   4.933
 5785SOL     OW17698   3.417   3.373   4.427
 5785SOL    HW117699   3.360   3.357   4.508
 5785SOL    HW217700   3.358   3.383   4.347
 5786SOL     OW17701   2.997   2.565   4.441
 5786SOL    HW117702   3.054   2.643   4.416
 5786SOL    HW217703   2.937   2.591   4.517
 5787SOL     OW17704   3.617   2.469   3.955
 5787SOL    HW117705   3.605   2.456   3.856
 5787SOL    HW217706   3.587   2.388   4.004
 5788SOL     OW17707   2.630   3.006   4.747
 5788SOL    HW117708   2.552   3.023   4.807
 5788SOL    HW217709   2.664   3.093   4.711
 5789SOL     OW17710   2.712   2.660   5.547
 5789SOL    HW117711   2.708   2.736   5.612
 5789SOL    HW217712   2.734   2.696   5.456
 5790SOL     OW17713   2.547   2.874   4.389
 5790SOL    HW117714   2.616   2.858   4.459
 5790SOL    HW217715   2.474   2.931   4.427
 5791SOL     OW17716   2.548   3.023   5.527
 5791SOL    HW117717   2.608   3.102   5.541
 5791SOL    HW217718   2.462   3.054   5.486
 5792SOL     OW17719   2.197   3.297   4.785
 5792SOL    HW117720   2.119   3.266   4.732
 5792SOL    HW217721   2.255   3.355   4.728
 5793SOL     OW17722   3.322   3.367   5.063
 5793SOL    HW117723   3.346   3.461   5.089
 5793SOL    HW217724   3.306   3.313   5.145
 5794SOL     OW17725   2.300   2.254   5.223
 5794SOL    HW117726   2.382   2.198   5.232
 5794SOL    HW217727   2.219   2.196   5.227
 5795SOL     OW17728   3.465   2.309   4.461
 5795SOL    HW117729   3.391   2.355   4.411
 5795SOL    HW217730   3.516   2.377   4.514
 5796SOL     OW17731   2.093   3.575   4.207
 5796SOL    HW117732   2.127   3.652   4.261
 5796SOL    HW217733   2.137   3.575   4.117
 5797SOL     OW17734   2.989   3.203   5.414
 5797SOL    HW117735   3.036   3.203   5.502
 5797SOL    HW217736   2.941   3.116   5.403
 5798SOL     OW17737   2.092   3.296   4.262
 5798SOL    HW117738   2.066   3.392   4.262
 5798SOL    HW217739   2.021   3.242   4.307
 5799SOL     OW17740   2.102   2.953   4.610
 5799SOL    HW117741   2.116   2.869   4.662
 5799SOL    HW217742   2.047   3.017   4.665
 5800SOL     OW17743   2.482   3.648   5.163
 5800SOL    HW117744   2.390   3.631   5.198
 5800SOL    HW217745   2.510   3.740   5.189
 5801SOL     OW17746   2.468   2.826   3.847
 5801SOL    HW117747   2.475   2.910   3.793
 5801SOL    HW217748   2.514   2.839   3.935
 5802SOL     OW17749   3.456   1.976   5.204
 5802SOL    HW117750   3.438   2.043   5.132
 5802SOL    HW217751   3.453   2.022   5.293
 5803SOL     OW17752   1.984   2.505   4.287
 5803SOL    HW117753   1.939   2.417   4.304
 5803SOL    HW217754   1.983   2.559   4.371
 5804SOL     OW17755   3.704   3.629   4.083
 5804SOL    HW117756   3.758   3.600   4.163
 5804SOL    HW217757   3.734   3.719   4.054
 5805SOL     OW17758   1.889   3.458   3.841
 5805SOL    HW117759   1.870   3.362   3.862
 5805SOL    HW217760   1.856   3.516   3.916
 5806SOL     OW17761   3.551   2.784   4.336
 5806SOL    HW117762   3.646   2.755   4.344
 5806SOL    HW217763   3.543   2.849   4.261
 5807SOL     OW17764   3.503   2.970   4.156
 5807SOL    HW117765   3.589   2.972   4.104
 5807SOL    HW217766   3.517   3.017   4.244
 5808SOL     OW17767   1.975   2.599   5.321
 5808SOL    HW117768   2.063   2.586   5.366
 5808SOL    HW217769   1.962   2.696   5.299
 5809SOL     OW17770   2.475   3.227   4.450
 5809SOL    HW117771   2.426   3.140   4.459
 5809SOL    HW217772   2.452   3.270   4.363
 5810SOL     OW17773   3.155   3.090   5.147
 5810SOL    HW117774   3.192   3.017   5.089
 5810SOL    HW217775   3.207   3.095   5.232
 5811SOL     OW17776   2.671   1.866   4.226
 5811SOL    HW117777   2.711   1.957   4.217
 5811SOL    HW217778   2.571   1.874   4.232
 5812SOL     OW17779   2.059   2.838   4.988
 5812SOL    HW117780   2.148   2.793   4.974
 5812SOL    HW217781   1.986   2.773   4.969
 5813SOL     OW17782   3.387   2.861   3.914
 5813SOL    HW117783   3.324   2.785   3.927
 5813SOL    HW217784   3.435   2.879   4.000
 5814SOL     OW17785   3.049   3.654   5.340
 5814SOL    HW117786   3.073   3.714   5.264
 5814SOL    HW217787   3.056   3.559   5.310
 5815SOL     OW17788   2.179   2.113   5.525
 5815SOL    HW117789   2.250   2.184   5.531
 5815SOL    HW217790   2.091   2.152   5.553
 5816SOL     OW17791   3.328   3.279   4.677
 5816SOL    HW117792   3.269   3.285   4.757
 5816SOL    HW217793   3.313   3.191   4.631
 5817SOL     OW17794   3.529   3.576   4.296
 5817SOL    HW117795   3.488   3.553   4.208
 5817SOL    HW217796   3.511   3.502   4.361
 5818SOL     OW17797   2.460   2.591   3.994
 5818SOL    HW117798   2.484   2.660   3.926
 5818SOL    HW217799   2.382   2.624   4.048
 5819SOL     OW17800   3.143   2.207   4.668
 5819SOL    HW117801   3.057   2.157   4.655
 5819SOL    HW217802   3.205   2.153   4.724
 5820SOL     OW17803   3.438   3.524   4.031
 5820SOL    HW117804   3.527   3.570   4.034
 5820SOL    HW217805   3.417   3.500   3.936
 5821SOL     OW17806   2.669   2.467   5.189
 5821SOL    HW117807   2.622   2.464   5.278
 5821SOL    HW217808   2.618   2.412   5.123
 5822SOL     OW17809   3.256   2.331   5.398
 5822SOL    HW117810   3.236   2.374   5.486
 5822SOL    HW217811   3.334   2.269   5.407
 5823SOL     OW17812   2.835   2.752   5.296
 5823SOL    HW117813   2.881   2.668   5.267
 5823SOL    HW217814   2.779   2.786   5.221
 5824SOL     OW17815   2.853   2.272   4.966
 5824SOL    HW117816   2.776   2.306   5.020
 5824SOL    HW217817   2.819   2.221   4.887
 5825SOL     OW17818   2.903   2.563   4.153
 5825SOL    HW117819   2.929   2.559   4.249
 5825SOL    HW217820   2.818   2.512   4.139
 5826SOL     OW17821   1.938   2.673   4.513
 5826SOL    HW117822   2.037   2.661   4.522
 5826SOL    HW217823   1.914   2.768   4.534
 5827SOL     OW17824   1.992   3.683   5.295
 5827SOL    HW117825   1.982   3.668   5.394
 5827SOL    HW217826   1.906   3.719   5.259
 5828SOL     OW17827   2.727   2.210   3.919
 5828SOL    HW117828   2.786   2.273   3.870
 5828SOL    HW217829   2.746   2.116   3.890
 5829SOL     OW17830   3.581   2.447   5.555
 5829SOL    HW117831   3.555   2.536   5.519
 5829SOL    HW217832   3.579   2.379   5.482
 5830SOL     OW17833   3.224   3.006   4.269
 5830SOL    HW117834   3.307   2.977   4.221
 5830SOL    HW217835   3.175   3.073   4.213
 5831SOL     OW17836   2.412   2.058   4.609
 5831SOL    HW117837   2.407   2.053   4.709
 5831SOL    HW217838   2.414   2.154   4.580
 5832SOL     OW17839   2.870   3.318   4.201
 5832SOL    HW117840   2.824   3.390   4.149
 5832SOL    HW217841   2.866   3.338   4.299
 5833SOL     OW17842   2.213   3.663   4.577
 5833SOL    HW117843   2.263   3.577   4.583
 5833SOL    HW217844   2.278   3.740   4.574
 5834SOL     OW17845   3.657   2.928   4.597
 5834SOL    HW117846   3.595   2.913   4.521
 5834SOL    HW217847   3.605   2.939   4.682
 5835SOL     OW17848   3.089   3.412   5.230
 5835SOL    HW117849   3.095   3.335   5.294
 5835SOL    HW217850   3.037   3.386   5.150
 5836SOL     OW17851   3.320   2.597   4.452
 5836SOL    HW117852   3.315   2.532   4.527
 5836SOL    HW217853   3.400   2.656   4.465
 5837SOL     OW17854   2.323   3.128   5.451
 5837SOL    HW117855   2.273   3.129   5.365
 5837SOL    HW217856   2.260   3.110   5.527
 5838SOL     OW17857   2.973   3.638   3.961
 5838SOL    HW117858   2.913   3.576   4.011
 5838SOL    HW217859   3.004   3.594   3.876
 5839SOL     OW17860   2.064   2.147   5.222
 5839SOL    HW117861   1.984   2.207   5.209
 5839SOL    HW217862   2.054   2.098   5.308
 5840SOL     OW17863   3.494   3.239   3.805
 5840SOL    HW117864   3.462   3.333   3.795
 5840SOL    HW217865   3.418   3.176   3.793
 5841SOL     OW17866   2.326   3.605   4.047
 5841SOL    HW117867   2.359   3.644   4.133
 5841SOL    HW217868   2.402   3.598   3.982
 5842SOL     OW17869   3.262   1.969   4.150
 5842SOL    HW117870   3.238   1.932   4.060
 5842SOL    HW217871   3.361   1.985   4.154
 5843SOL     OW17872   2.111   3.647   4.965
 5843SOL    HW117873   2.168   3.582   5.015
 5843SOL    HW217874   2.095   3.614   4.872
 5844SOL     OW17875   2.244   2.562   4.204
 5844SOL    HW117876   2.289   2.472   4.201
 5844SOL    HW217877   2.150   2.551   4.237
 5845SOL     OW17878   3.409   2.084   5.453
 5845SOL    HW117879   3.404   2.121   5.545
 5845SOL    HW217880   3.337   2.015   5.441
 5846SOL     OW17881   2.476   1.984   3.841
 5846SOL    HW117882   2.574   1.962   3.848
 5846SOL    HW217883   2.445   1.967   3.748
 5847SOL     OW17884   2.643   2.126   5.473
 5847SOL    HW117885   2.710   2.065   5.516
 5847SOL    HW217886   2.570   2.145   5.538
 5848SOL     OW17887   2.750   3.376   4.919
 5848SOL    HW117888   2.727   3.351   4.825
 5848SOL    HW217889   2.811   3.307   4.958
 5849SOL     OW17890   3.213   2.452   5.157
 5849SOL    HW117891   3.241   2.409   5.242
 5849SOL    HW217892   3.238   2.548   5.158
 5850SOL     OW17893   2.665   3.264   4.648
 5850SOL    HW117894   2.755   3.278   4.606
 5850SOL    HW217895   2.594   3.266   4.577
 5851SOL     OW17896   2.784   2.365   4.623
 5851SOL    HW117897   2.759   2.356   4.527
 5851SOL    HW217898   2.832   2.283   4.654
 5852SOL     OW17899   2.401   1.926   4.236
 5852SOL    HW117900   2.320   1.927   4.294
 5852SOL    HW217901   2.404   2.009   4.181
 5853SOL     OW17902   3.296   3.050   3.765
 5853SOL    HW117903   3.328   2.974   3.822
 5853SOL    HW217904   3.204   3.077   3.795
 5854SOL     OW17905   2.159   1.897   3.895
 5854SOL    HW117906   2.208   1.981   3.874
 5854SOL    HW217907   2.221   1.832   3.940
 5855SOL     OW17908   2.797   2.098   4.204
 5855SOL    HW117909   2.749   2.139   4.126
 5855SOL    HW217910   2.896   2.096   4.185
 5856SOL     OW17911   2.938   2.545   5.188
 5856SOL    HW117912   2.858   2.484   5.191
 5856SOL    HW217913   3.019   2.492   5.164
 5857SOL     OW17914   3.089   3.432   4.517
 5857SOL    HW117915   3.110   3.506   4.452
 5857SOL    HW217916   3.157   3.432   4.590
 5858SOL     OW17917   2.321   3.014   4.465
 5858SOL    HW117918   2.250   2.987   4.530
 5858SOL    HW217919   2.295   2.986   4.372
 5859SOL     OW17920   3.133   3.659   4.315
 5859SOL    HW117921   3.177   3.723   4.251
 5859SOL    HW217922   3.083   3.711   4.385
 5860SOL     OW17923   2.894   2.411   3.740
 5860SOL    HW117924   2.853   2.493   3.701
 5860SOL    HW217925   2.958   2.437   3.813
 5861SOL     OW17926   1.940   2.418   5.110
 5861SOL    HW117927   2.032   2.417   5.069
 5861SOL    HW217928   1.934   2.492   5.177
 5862SOL     OW17929   2.423   2.084   4.871
 5862SOL    HW117930   2.461   2.000   4.908
 5862SOL    HW217931   2.335   2.103   4.915
 5863SOL     OW17932   2.728   2.316   4.366
 5863SOL    HW117933   2.696   2.388   4.304
 5863SOL    HW217934   2.752   2.235   4.313
 5864SOL     OW17935   2.879   1.901   4.477
 5864SOL    HW117936   2.807   1.906   4.408
 5864SOL    HW217937   2.855   1.832   4.546
 5865SOL     OW17938   3.291   3.035   4.591
 5865SOL    HW117939   3.236   2.951   4.584
 5865SOL    HW217940   3.317   3.064   4.499
 5866SOL     OW17941   3.328   2.452   4.716
 5866SOL    HW117942   3.298   2.357   4.723
 5866SOL    HW217943   3.401   2.468   4.782
 5867SOL     OW17944   3.719   2.695   4.101
 5867SOL    HW117945   3.761   2.631   4.165
 5867SOL    HW217946   3.681   2.644   4.023
 5868SOL     OW17947   2.350   3.247   3.898
 5868SOL    HW117948   2.263   3.232   3.945
 5868SOL    HW217949   2.333   3.273   3.803
 5869SOL     OW17950   3.526   3.142   4.381
 5869SOL    HW117951   3.625   3.150   4.395
 5869SOL    HW217952   3.481   3.226   4.412
 5870SOL     OW17953   3.252   2.437   3.802
 5870SOL    HW117954   3.198   2.416   3.883
 5870SOL    HW217955   3.343   2.396   3.811
 5871SOL     OW17956   2.389   2.118   4.052
 5871SOL    HW117957   2.416   2.059   3.977
 5871SOL    HW217958   2.389   2.213   4.021
 5872SOL     OW17959   3.616   3.085   5.312
 5872SOL    HW117960   3.707   3.046   5.299
 5872SOL    HW217961   3.624   3.181   5.336
 5873SOL     OW17962   2.926   3.209   5.064
 5873SOL    HW117963   2.846   3.186   5.119
 5873SOL    HW217964   3.009   3.183   5.113
 5874SOL     OW17965   3.454   3.491   5.349
 5874SOL    HW117966   3.481   3.525   5.259
 5874SOL    HW217967   3.533   3.453   5.395
 5875SOL     OW17968   2.973   3.057   4.824
 5875SOL    HW117969   2.933   3.101   4.905
 5875SOL    HW217970   2.932   3.094   4.741
 5876SOL     OW17971   3.500   2.961   4.803
 5876SOL    HW117972   3.505   3.042   4.862
 5876SOL    HW217973   3.414   2.963   4.752
 5877SOL     OW17974   2.777   1.951   5.126
 5877SOL    HW117975   2.802   1.931   5.031
 5877SOL    HW217976   2.849   2.007   5.168
 5878SOL     OW17977   2.842   2.978   5.443
 5878SOL    HW117978   2.743   2.984   5.453
 5878SOL    HW217979   2.865   2.898   5.387
 5879SOL     OW17980   2.567   2.912   4.092
 5879SOL    HW117981   2.553   2.919   4.191
 5879SOL    HW217982   2.651   2.861   4.074
 5880SOL     OW17983   2.272   2.675   4.975
 5880SOL    HW117984   2.358   2.687   5.025
 5880SOL    HW217985   2.230   2.588   5.002
 5881SOL     OW17986   3.136   2.248   4.986
 5881SOL    HW117987   3.157   2.322   5.050
 5881SOL    HW217988   3.047   2.265   4.943
 5882SOL     OW17989   1.926   3.426   5.055
 5882SOL    HW117990   1.880   3.508   5.021
 5882SOL    HW217991   2.024   3.445   5.064
 5883SOL     OW17992   2.229   2.962   4.225
 5883SOL    HW117993   2.222   3.045   4.169
 5883SOL    HW217994   2.233   2.882   4.165
 5884SOL     OW17995   2.428   2.399   4.589
 5884SOL    HW117996   2.440   2.465   4.515
 5884SOL    HW217997   2.474   2.433   4.672
 5885SOL     OW17998   3.114   3.210   4.112
 5885SOL    HW117999   3.164   3.287   4.152
 5885SOL    HW218000   3.019   3.212   4.144
 5886SOL     OW18001   3.134   3.307   4.866
 5886SOL    HW118002   3.181   3.320   4.953
 5886SOL    HW218003   3.068   3.233   4.875
 5887SOL     OW18004   3.444   2.501   4.196
 5887SOL    HW118005   3.413   2.562   4.269
 5887SOL    HW218006   3.494   2.553   4.127
 5888SOL     OW18007   2.216   3.372   5.053
 5888SOL    HW118008   2.195   3.328   4.966
 5888SOL    HW218009   2.313   3.398   5.056
 5889SOL     OW18010   2.264   2.613   5.322
 5889SOL    HW118011   2.332   2.668   5.275
 5889SOL    HW218012   2.304   2.525   5.349
 5890SOL     OW18013   3.449   2.641   5.394
 5890SOL    HW118014   3.357   2.679   5.389
 5890SOL    HW218015   3.509   2.688   5.329
 5891SOL     OW18016   2.875   1.967   5.494
 5891SOL    HW118017   2.881   2.052   5.442
 5891SOL    HW218018   2.907   1.891   5.437
 5892SOL     OW18019   2.366   1.912   5.464
 5892SOL    HW118020   2.324   1.855   5.394
 5892SOL    HW218021   2.300   1.981   5.496
 5893SOL     OW18022   2.435   2.732   4.753
 5893SOL    HW118023   2.479   2.821   4.744
 5893SOL    HW218024   2.372   2.732   4.830
 5894SOL     OW18025   3.222   2.724   4.769
 5894SOL    HW118026   3.147   2.724   4.703
 5894SOL    HW218027   3.259   2.632   4.778
 5895SOL     OW18028   3.071   2.387   3.999
 5895SOL    HW118029   3.084   2.303   4.053
 5895SOL    HW218030   3.042   2.461   4.059
 5896SOL     OW18031   2.169   2.075   4.955
 5896SOL    HW118032   2.146   2.112   5.045
 5896SOL    HW218033   2.139   1.980   4.949
 5897SOL     OW18034   1.899   3.172   5.006
 5897SOL    HW118035   1.952   3.123   5.074
 5897SOL    HW218036   1.921   3.270   5.011
 5898SOL     OW18037   2.594   2.496   4.788
 5898SOL    HW118038   2.653   2.470   4.712
 5898SOL    HW218039   2.566   2.592   4.777
 5899SOL     OW18040   3.590   2.797   5.578
 5899SOL    HW118041   3.544   2.790   5.489
 5899SOL    HW218042   3.528   2.841   5.644
 5900SOL     OW18043   2.169   1.925   4.342
 5900SOL    HW118044   2.158   2.019   4.375
 5900SOL    HW218045   2.164   1.862   4.419
 5901SOL     OW18046   3.484   2.229   4.098
 5901SOL    HW118047   3.486   2.153   4.162
 5901SOL    HW218048   3.436   2.306   4.138
 5902SOL     OW18049   2.885   2.628   4.690
 5902SOL    HW118050   2.900   2.649   4.786
 5902SOL    HW218051   2.855   2.533   4.681
 5903SOL     OW18052   2.842   3.435   5.424
 5903SOL    HW118053   2.822   3.479   5.336
 5903SOL    HW218054   2.881   3.344   5.408
 5904SOL     OW18055   3.721   3.380   5.329
 5904SOL    HW118056   3.735   3.407   5.234
 5904SOL    HW218057   3.804   3.402   5.382
 5905SOL     OW18058   2.212   2.760   5.528
 5905SOL    HW118059   2.288   2.804   5.576
 5905SOL    HW218060   2.247   2.713   5.446
 5906SOL     OW18061   3.402   2.136   3.849
 5906SOL    HW118062   3.341   2.061   3.872
 5906SOL    HW218063   3.424   2.188   3.932
 5907SOL     OW18064   3.165   2.700   3.766
 5907SOL    HW118065   3.199   2.607   3.781
 5907SOL    HW218066   3.183   2.727   3.671
 5908SOL     OW18067   2.930   3.195   4.573
 5908SOL    HW118068   2.937   3.111   4.518
 5908SOL    HW218069   2.992   3.264   4.537
 5909SOL     OW18070   2.181   2.672   4.673
 5909SOL    HW118071   2.274   2.708   4.678
 5909SOL    HW218072   2.175   2.587   4.725
 5910SOL     OW18073   2.201   2.371   4.730
 5910SOL    HW118074   2.149   2.288   4.713
 5910SOL    HW218075   2.278   2.376   4.666
 5911SOL     OW18076   3.000   2.242   5.402
 5911SOL    HW118077   2.955   2.305   5.466
 5911SOL    HW218078   3.093   2.273   5.385
 5912SOL     OW18079   3.022   2.069   5.201
 5912SOL    HW118080   3.022   2.133   5.278
 5912SOL    HW218081   3.050   2.117   5.118
 5913SOL     OW18082   1.870   3.188   3.924
 5913SOL    HW118083   1.777   3.209   3.893
 5913SOL    HW218084   1.880   3.089   3.937
 5914SOL     OW18085   1.950   3.663   4.651
 5914SOL    HW118086   1.908   3.577   4.624
 5914SOL    HW218087   2.044   3.666   4.617
 5915SOL     OW18088   2.366   3.430   4.634
 5915SOL    HW118089   2.432   3.504   4.643
 5915SOL    HW218090   2.410   3.351   4.592
 5916SOL     OW18091   2.864   2.658   4.962
 5916SOL    HW118092   2.905   2.626   5.048
 5916SOL    HW218093   2.768   2.631   4.959
 5917SOL     OW18094   1.902   2.406   4.838
 5917SOL    HW118095   1.987   2.373   4.797
 5917SOL    HW218096   1.915   2.421   4.936
 5918SOL     OW18097   2.051   2.382   5.446
 5918SOL    HW118098   2.110   2.342   5.376
 5918SOL    HW218099   1.993   2.453   5.405
 5919SOL     OW18100   3.231   2.812   5.384
 5919SOL    HW118101   3.270   2.901   5.404
 5919SOL    HW218102   3.241   2.792   5.287
 5920SOL     OW18103   2.677   2.434   4.049
 5920SOL    HW118104   2.684   2.345   4.003
 5920SOL    HW218105   2.583   2.468   4.041
 5921SOL     OW18106   3.519   2.466   4.930
 5921SOL    HW118107   3.481   2.397   4.992
 5921SOL    HW218108   3.601   2.430   4.886
 5922SOL     OW18109   2.114   3.426   5.468
 5922SOL    HW118110   2.084   3.483   5.544
 5922SOL    HW218111   2.107   3.329   5.494
 5923SOL     OW18112   2.533   2.326   4.993
 5923SOL    HW118113   2.499   2.237   4.963
 5923SOL    HW218114   2.559   2.380   4.913
 5924SOL     OW18115   2.792   3.540   5.189
 5924SOL    HW118116   2.768   3.522   5.094
 5924SOL    HW218117   2.822   3.634   5.199
 5925SOL     OW18118   2.335   2.362   3.915
 5925SOL    HW118119   2.396   2.442   3.919
 5925SOL    HW218120   2.240   2.393   3.922
 5926SOL     OW18121   2.021   2.999   5.190
 5926SOL    HW118122   2.043   2.938   5.266
 5926SOL    HW218123   2.031   2.950   5.104
 5927SOL     OW18124   3.209   2.921   4.958
 5927SOL    HW118125   3.233   2.858   4.884
 5927SOL    HW218126   3.119   2.961   4.940
 5928SOL     OW18127   3.164   2.717   4.033
 5928SOL    HW118128   3.078   2.686   4.075
 5928SOL    HW218129   3.160   2.703   3.934
 5929SOL     OW18130   3.621   3.609   4.878
 5929SOL    HW118131   3.682   3.639   4.805
 5929SOL    HW218132   3.583   3.520   4.856
 5930SOL     OW18133   3.114   3.593   4.852
 5930SOL    HW118134   3.198   3.598   4.798
 5930SOL    HW218135   3.091   3.497   4.870
 5931SOL     OW18136   1.945   3.120   4.746
 5931SOL    HW118137   1.940   3.119   4.846
 5931SOL    HW218138   1.862   3.079   4.708
 5932SOL     OW18139   2.550   3.524   5.440
 5932SOL    HW118140   2.494   3.605   5.449
 5932SOL    HW218141   2.602   3.528   5.354
 5933SOL     OW18142   3.588   1.997   4.247
 5933SOL    HW118143   3.661   1.980   4.180
 5933SOL    HW218144   3.557   1.910   4.285
 5934SOL     OW18145   3.250   3.435   4.201
 5934SOL    HW118146   3.317   3.447   4.127
 5934SOL    HW218147   3.210   3.524   4.224
 5935SOL     OW18148   1.992   3.656   5.575
 5935SOL    HW118149   1.951   3.582   5.628
 5935SOL    HW218150   2.056   3.707   5.633
 5936SOL     OW18151   3.142   2.789   4.396
 5936SOL    HW118152   3.202   2.708   4.398
 5936SOL    HW218153   3.182   2.858   4.336
 5937SOL     OW18154   2.692   3.135   5.146
 5937SOL    HW118155   2.687   3.168   5.241
 5937SOL    HW218156   2.606   3.154   5.100
 5938SOL     OW18157   2.534   3.478   3.878
 5938SOL    HW118158   2.543   3.488   3.779
 5938SOL    HW218159   2.494   3.389   3.899
 5939SOL     OW18160   3.512   3.582   5.118
 5939SOL    HW118161   3.565   3.592   5.034
 5939SOL    HW218162   3.485   3.672   5.152
 5940SOL     OW18163   3.703   2.037   4.687
 5940SOL    HW118164   3.742   1.952   4.651
 5940SOL    HW218165   3.605   2.039   4.668
 5941SOL     OW18166   2.125   2.188   4.444
 5941SOL    HW118167   2.046   2.239   4.410
 5941SOL    HW218168   2.116   2.173   4.542
 5942SOL     OW18169   3.056   3.474   3.755
 5942SOL    HW118170   3.062   3.381   3.792
 5942SOL    HW218171   2.997   3.474   3.675
 5943SOL     OW18172   2.684   2.864   5.096
 5943SOL    HW118173   2.724   2.863   5.004
 5943SOL    HW218174   2.694   2.956   5.136
 5944SOL     OW18175   2.778   2.772   4.015
 5944SOL    HW118176   2.841   2.810   3.947
 5944SOL    HW218177   2.818   2.689   4.054
 5945SOL     OW18178   3.366   3.469   3.768
 5945SOL    HW118179   3.274   3.506   3.775
 5945SOL    HW218180   3.404   3.489   3.678
 5946SOL     OW18181   2.234   3.150   5.214
 5946SOL    HW118182   2.221   3.243   5.180
 5946SOL    HW218183   2.150   3.098   5.201
 5947SOL     OW18184   3.476   3.154   5.013
 5947SOL    HW118185   3.536   3.157   5.093
 5947SOL    HW218186   3.401   3.218   5.026
 5948SOL     OW18187   2.901   2.960   4.420
 5948SOL    HW118188   2.831   2.913   4.474
 5948SOL    HW218189   2.960   2.892   4.377
 5949SOL     OW18190   2.876   2.098   4.695
 5949SOL    HW118191   2.868   2.062   4.602
 5949SOL    HW218192   2.874   2.022   4.760
 5950SOL     OW18193   2.452   3.349   4.215
 5950SOL    HW118194   2.494   3.291   4.145
 5950SOL    HW218195   2.408   3.428   4.171
 5951SOL     OW18196   3.571   2.247   5.105
 5951SOL    HW118197   3.644   2.316   5.109
 5951SOL    HW218198   3.599   2.172   5.046
 5952SOL     OW18199   2.117   3.210   4.014
 5952SOL    HW118200   2.021   3.211   3.987
 5952SOL    HW218201   2.129   3.263   4.098
 5953SOL     OW18202   1.967   2.875   5.450
 5953SOL    HW118203   1.890   2.842   5.504
 5953SOL    HW218204   2.052   2.845   5.492
 5954SOL     OW18205   2.534   2.065   5.213
 5954SOL    HW118206   2.624   2.049   5.173
 5954SOL    HW218207   2.542   2.070   5.312
 5955SOL     OW18208   1.937   2.207   3.757
 5955SOL    HW118209   1.845   2.179   3.728
 5955SOL    HW218210   1.968   2.284   3.701
 5956SOL     OW18211   3.302   2.718   5.122
 5956SOL    HW118212   3.245   2.770   5.059
 5956SOL    HW218213   3.398   2.730   5.098
 5957SOL     OW18214   1.934   2.028   4.042
 5957SOL    HW118215   1.917   2.111   3.988
 5957SOL    HW218216   2.024   1.991   4.020
 5958SOL     OW18217   3.045   3.197   3.843
 5958SOL    HW118218   2.946   3.186   3.845
 5958SOL    HW218219   3.079   3.212   3.936
 5959SOL     OW18220   2.475   2.704   5.155
 5959SOL    HW118221   2.531   2.785   5.138
 5959SOL    HW218222   2.534   2.624   5.158
 5960SOL     OW18223   3.355   3.629   4.683
 5960SOL    HW118224   3.388   3.693   4.614
 5960SOL    HW218225   3.421   3.623   4.758
 5961SOL     OW18226   2.578   2.427   5.432
 5961SOL    HW118227   2.597   2.492   5.506
 5961SOL    HW218228   2.638   2.347   5.441
 5962SOL     OW18229   3.312   3.082   5.357
 5962SOL    HW118230   3.303   3.072   5.456
 5962SOL    HW218231   3.408   3.075   5.331
 5963SOL     OW18232   2.252   3.603   5.284
 5963SOL    HW118233   2.161   3.644   5.282
 5963SOL    HW218234   2.245   3.509   5.316
 5964SOL     OW18235   3.536   2.745   4.978
 5964SOL    HW118236   3.509   2.656   4.941
 5964SOL    HW218237   3.537   2.813   4.905
 5965SOL     OW18238   3.087   2.187   4.173
 5965SOL    HW118239   3.152   2.113   4.162
 5965SOL    HW218240   3.107   2.237   4.257
 5966SOL     OW18241   2.456   2.607   4.376
 5966SOL    HW118242   2.506   2.692   4.357
 5966SOL    HW218243   2.368   2.609   4.328
 5967SOL     OW18244   3.639   2.204   5.366
 5967SOL    HW118245   3.622   2.235   5.272
 5967SOL    HW218246   3.555   2.167   5.404
 5968SOL     OW18247   3.592   2.796   5.241
 5968SOL    HW118248   3.630   2.887   5.256
 5968SOL    HW218249   3.584   2.779   5.142
 5969SOL     OW18250   2.721   3.236   3.740
 5969SOL    HW118251   2.675   3.251   3.828
 5969SOL    HW218252   2.765   3.321   3.710
 5970SOL     OW18253   2.523   3.652   4.677
 5970SOL    HW118254   2.477   3.740   4.664
 5970SOL    HW218255   2.622   3.664   4.670
 5971SOL     OW18256   2.945   2.846   3.811
 5971SOL    HW118257   2.922   2.899   3.729
 5971SOL    HW218258   3.026   2.790   3.792
 5972SOL     OW18259   3.723   3.431   4.575
 5972SOL    HW118260   3.652   3.419   4.505
 5972SOL    HW218261   3.724   3.352   4.635
 5973SOL     OW18262   2.083   3.176   5.568
 5973SOL    HW118263   2.018   3.103   5.547
 5973SOL    HW218264   2.087   3.190   5.666
 5974SOL     OW18265   1.941   3.102   4.377
 5974SOL    HW118266   1.940   3.055   4.465
 5974SOL    HW218267   2.023   3.074   4.326
 5975SOL     OW18268   2.534   3.253   5.348
 5975SOL    HW118269   2.456   3.203   5.386
 5975SOL    HW218270   2.531   3.348   5.379
 5976SOL     OW18271   3.686   2.054   4.951
 5976SOL    HW118272   3.682   1.964   4.995
 5976SOL    HW218273   3.689   2.043   4.852
 5977SOL     OW18274   2.290   2.286   4.244
 5977SOL    HW118275   2.320   2.214   4.182
 5977SOL    HW218276   2.251   2.246   4.327
 5978SOL     OW18277   3.567   3.349   4.828
 5978SOL    HW118278   3.474   3.324   4.801
 5978SOL    HW218279   3.593   3.299   4.910
 5979SOL     OW18280   2.179   2.409   5.004
 5979SOL    HW118281   2.217   2.350   5.076
 5979SOL    HW218282   2.219   2.383   4.916
 5980SOL     OW18283   2.674   3.448   4.411
 5980SOL    HW118284   2.706   3.458   4.317
 5980SOL    HW218285   2.595   3.386   4.413
 5981SOL     OW18286   3.286   2.076   4.836
 5981SOL    HW118287   3.338   2.011   4.891
 5981SOL    HW218288   3.237   2.139   4.897
 5982SOL     OW18289   2.863   1.896   4.878
 5982SOL    HW118290   2.800   1.824   4.847
 5982SOL    HW218291   2.956   1.860   4.878
 5983SOL     OW18292   2.632   3.192   4.025
 5983SOL    HW118293   2.586   3.105   4.042
 5983SOL    HW218294   2.723   3.189   4.066
 5984SOL     OW18295   2.480   3.429   5.008
 5984SOL    HW118296   2.475   3.511   5.065
 5984SOL    HW218297   2.569   3.426   4.963
 5985SOL     OW18298   3.214   1.914   3.892
 5985SOL    HW118299   3.249   1.873   3.808
 5985SOL    HW218300   3.124   1.876   3.912
 5986SOL     OW18301   3.162   2.315   4.415
 5986SOL    HW118302   3.103   2.395   4.419
 5986SOL    HW218303   3.177   2.280   4.508
 5987SOL     OW18304   3.455   2.083   4.606
 5987SOL    HW118305   3.371   2.082   4.660
 5987SOL    HW218306   3.457   2.166   4.550
 5988SOL     OW18307   1.901   2.939   4.024
 5988SOL    HW118308   2.000   2.928   4.015
 5988SOL    HW218309   1.861   2.853   4.056
 5989SOL     OW18310   2.737   3.508   4.061
 5989SOL    HW118311   2.660   3.473   4.007
 5989SOL    HW218312   2.705   3.579   4.123
 5990SOL     OW18313   2.092   2.490   5.699
 5990SOL    HW118314   1.999   2.488   5.736
 5990SOL    HW218315   2.093   2.451   5.607
 5991SOL     OW18316   2.087   2.137   6.582
 5991SOL    HW118317   2.122   2.120   6.674
 5991SOL    HW218318   1.999   2.092   6.570
 5992SOL     OW18319   1.881   2.230   6.233
 5992SOL    HW118320   1.799   2.273   6.272
 5992SOL    HW218321   1.853   2.157   6.170
 5993SOL     OW18322   2.431   3.137   6.751
 5993SOL    HW118323   2.338   3.130   6.714
 5993SOL    HW218324   2.442   3.226   6.795
 5994SOL     OW18325   3.417   3.373   6.289
 5994SOL    HW118326   3.360   3.357   6.370
 5994SOL    HW218327   3.358   3.383   6.209
 5995SOL     OW18328   2.997   2.565   6.303
 5995SOL    HW118329   3.054   2.643   6.278
 5995SOL    HW218330   2.937   2.591   6.379
 5996SOL     OW18331   3.617   2.469   5.817
 5996SOL    HW118332   3.605   2.456   5.718
 5996SOL    HW218333   3.587   2.388   5.866
 5997SOL     OW18334   2.630   3.006   6.609
 5997SOL    HW118335   2.552   3.023   6.669
 5997SOL    HW218336   2.664   3.093   6.573
 5998SOL     OW18337   2.712   2.660   7.409
 5998SOL    HW118338   2.708   2.736   7.474
 5998SOL    HW218339   2.734   2.696   7.318
 5999SOL     OW18340   2.547   2.874   6.251
 5999SOL    HW118341   2.616   2.858   6.321
 5999SOL    HW218342   2.474   2.931   6.289
 6000SOL     OW18343   2.548   3.023   7.389
 6000SOL    HW118344   2.608   3.102   7.403
 6000SOL    HW218345   2.462   3.054   7.348
 6001SOL     OW18346   2.197   3.297   6.647
 6001SOL    HW118347   2.119   3.266   6.594
 6001SOL    HW218348   2.255   3.355   6.590
 6002SOL     OW18349   3.322   3.367   6.925
 6002SOL    HW118350   3.346   3.461   6.951
 6002SOL    HW218351   3.306   3.313   7.007
 6003SOL     OW18352   2.300   2.254   7.085
 6003SOL    HW118353   2.382   2.198   7.094
 6003SOL    HW218354   2.219   2.196   7.089
 6004SOL     OW18355   3.465   2.309   6.323
 6004SOL    HW118356   3.391   2.355   6.273
 6004SOL    HW218357   3.516   2.377   6.376
 6005SOL     OW18358   2.093   3.575   6.069
 6005SOL    HW118359   2.127   3.652   6.123
 6005SOL    HW218360   2.137   3.575   5.979
 6006SOL     OW18361   2.989   3.203   7.276
 6006SOL    HW118362   3.036   3.203   7.364
 6006SOL    HW218363   2.941   3.116   7.265
 6007SOL     OW18364   2.092   3.296   6.124
 6007SOL    HW118365   2.066   3.392   6.124
 6007SOL    HW218366   2.021   3.242   6.169
 6008SOL     OW18367   2.102   2.953   6.472
 6008SOL    HW118368   2.116   2.869   6.524
 6008SOL    HW218369   2.047   3.017   6.527
 6009SOL     OW18370   2.482   3.648   7.025
 6009SOL    HW118371   2.390   3.631   7.060
 6009SOL    HW218372   2.510   3.740   7.051
 6010SOL     OW18373   2.468   2.826   5.709
 6010SOL    HW118374   2.475   2.910   5.655
 6010SOL    HW218375   2.514   2.839   5.797
 6011SOL     OW18376   3.456   1.976   7.066
 6011SOL    HW118377   3.438   2.043   6.994
 6011SOL    HW218378   3.453   2.022   7.155
 6012SOL     OW18379   1.984   2.505   6.149
 6012SOL    HW118380   1.939   2.417   6.166
 6012SOL    HW218381   1.983   2.559   6.233
 6013SOL     OW18382   1.889   3.458   5.703
 6013SOL    HW118383   1.870   3.362   5.724
 6013SOL    HW218384   1.856   3.516   5.778
 6014SOL     OW18385   3.551   2.784   6.198
 6014SOL    HW118386   3.646   2.755   6.206
 6014SOL    HW218387   3.543   2.849   6.123
 6015SOL     OW18388   3.503   2.970   6.018
 6015SOL    HW118389   3.589   2.972   5.966
 6015SOL    HW218390   3.517   3.017   6.106
 6016SOL     OW18391   1.975   2.599   7.183
 6016SOL    HW118392   2.063   2.586   7.228
 6016SOL    HW218393   1.962   2.696   7.161
 6017SOL     OW18394   2.475   3.227   6.312
 6017SOL    HW118395   2.426   3.140   6.321
 6017SOL    HW218396   2.452   3.270   6.225
 6018SOL     OW18397   3.155   3.090   7.009
 6018SOL    HW118398   3.192   3.017   6.951
 6018SOL    HW218399   3.207   3.095   7.094
 6019SOL     OW18400   2.671   1.866   6.088
 6019SOL    HW118401   2.711   1.957   6.079
 6019SOL    HW218402   2.571   1.874   6.094
 6020SOL     OW18403   2.059   2.838   6.850
 6020SOL    HW118404   2.148   2.793   6.836
 6020SOL    HW218405   1.986   2.773   6.831
 6021SOL     OW18406   3.387   2.861   5.776
 6021SOL    HW118407   3.324   2.785   5.789
 6021SOL    HW218408   3.435   2.879   5.862
 6022SOL     OW18409   3.049   3.654   7.202
 6022SOL    HW118410   3.073   3.714   7.126
 6022SOL    HW218411   3.056   3.559   7.172
 6023SOL     OW18412   2.179   2.113   7.387
 6023SOL    HW118413   2.250   2.184   7.393
 6023SOL    HW218414   2.091   2.152   7.415
 6024SOL     OW18415   3.328   3.279   6.539
 6024SOL    HW118416   3.269   3.285   6.619
 6024SOL    HW218417   3.313   3.191   6.493
 6025SOL     OW18418   3.529   3.576   6.158
 6025SOL    HW118419   3.488   3.553   6.070
 6025SOL    HW218420   3.511   3.502   6.223
 6026SOL     OW18421   2.460   2.591   5.856
 6026SOL    HW118422   2.484   2.660   5.788
 6026SOL    HW218423   2.382   2.624   5.910
 6027SOL     OW18424   3.143   2.207   6.530
 6027SOL    HW118425   3.057   2.157   6.517
 6027SOL    HW218426   3.205   2.153   6.586
 6028SOL     OW18427   3.438   3.524   5.893
 6028SOL    HW118428   3.527   3.570   5.896
 6028SOL    HW218429   3.417   3.500   5.798
 6029SOL     OW18430   2.669   2.467   7.051
 6029SOL    HW118431   2.622   2.464   7.140
 6029SOL    HW218432   2.618   2.412   6.985
 6030SOL     OW18433   3.256   2.331   7.260
 6030SOL    HW118434   3.236   2.374   7.348
 6030SOL    HW218435   3.334   2.269   7.269
 6031SOL     OW18436   2.835   2.752   7.158
 6031SOL    HW118437   2.881   2.668   7.129
 6031SOL    HW218438   2.779   2.786   7.083
 6032SOL     OW18439   2.853   2.272   6.828
 6032SOL    HW118440   2.776   2.306   6.882
 6032SOL    HW218441   2.819   2.221   6.749
 6033SOL     OW18442   2.903   2.563   6.015
 6033SOL    HW118443   2.929   2.559   6.111
 6033SOL    HW218444   2.818   2.512   6.001
 6034SOL     OW18445   1.938   2.673   6.375
 6034SOL    HW118446   2.037   2.661   6.384
 6034SOL    HW218447   1.914   2.768   6.396
 6035SOL     OW18448   1.992   3.683   7.157
 6035SOL    HW118449   1.982   3.668   7.256
 6035SOL    HW218450   1.906   3.719   7.121
 6036SOL     OW18451   2.727   2.210   5.781
 6036SOL    HW118452   2.786   2.273   5.732
 6036SOL    HW218453   2.746   2.116   5.752
 6037SOL     OW18454   3.581   2.447   7.417
 6037SOL    HW118455   3.555   2.536   7.381
 6037SOL    HW218456   3.579   2.379   7.344
 6038SOL     OW18457   3.224   3.006   6.131
 6038SOL    HW118458   3.307   2.977   6.083
 6038SOL    HW218459   3.175   3.073   6.075
 6039SOL     OW18460   2.412   2.058   6.471
 6039SOL    HW118461   2.407   2.053   6.571
 6039SOL    HW218462   2.414   2.154   6.442
 6040SOL     OW18463   2.870   3.318   6.063
 6040SOL    HW118464   2.824   3.390   6.011
 6040SOL    HW218465   2.866   3.338   6.161
 6041SOL     OW18466   2.213   3.663   6.439
 6041SOL    HW118467   2.263   3.577   6.445
 6041SOL    HW218468   2.278   3.740   6.436
 6042SOL     OW18469   3.657   2.928   6.459
 6042SOL    HW118470   3.595   2.913   6.383
 6042SOL    HW218471   3.605   2.939   6.544
 6043SOL     OW18472   3.089   3.412   7.092
 6043SOL    HW118473   3.095   3.335   7.156
 6043SOL    HW218474   3.037   3.386   7.012
 6044SOL     OW18475   2.183   2.805   5.828
 6044SOL    HW118476   2.265   2.844   5.786
 6044SOL    HW218477   2.156   2.723   5.779
 6045SOL     OW18478   3.320   2.597   6.314
 6045SOL    HW118479   3.315   2.532   6.389
 6045SOL    HW218480   3.400   2.656   6.327
 6046SOL     OW18481   2.323   3.128   7.313
 6046SOL    HW118482   2.273   3.129   7.227
 6046SOL    HW218483   2.260   3.110   7.389
 6047SOL     OW18484   2.973   3.638   5.823
 6047SOL    HW118485   2.913   3.576   5.873
 6047SOL    HW218486   3.004   3.594   5.738
 6048SOL     OW18487   2.064   2.147   7.084
 6048SOL    HW118488   1.984   2.207   7.071
 6048SOL    HW218489   2.054   2.098   7.170
 6049SOL     OW18490   3.494   3.239   5.667
 6049SOL    HW118491   3.462   3.333   5.657
 6049SOL    HW218492   3.418   3.176   5.655
 6050SOL     OW18493   2.326   3.605   5.909
 6050SOL    HW118494   2.359   3.644   5.995
 6050SOL    HW218495   2.402   3.598   5.844
 6051SOL     OW18496   3.262   1.969   6.012
 6051SOL    HW118497   3.238   1.932   5.922
 6051SOL    HW218498   3.361   1.985   6.016
 6052SOL     OW18499   2.111   3.647   6.827
 6052SOL    HW118500   2.168   3.582   6.877
 6052SOL    HW218501   2.095   3.614   6.734
 6053SOL     OW18502   2.802   3.560   6.490
 6053SOL    HW118503   2.882   3.503   6.511
 6053SOL    HW218504   2.753   3.520   6.413
 6054SOL     OW18505   2.244   2.562   6.066
 6054SOL    HW118506   2.289   2.472   6.063
 6054SOL    HW218507   2.150   2.551   6.099
 6055SOL     OW18508   3.409   2.084   7.315
 6055SOL    HW118509   3.404   2.121   7.407
 6055SOL    HW218510   3.337   2.015   7.303
 6056SOL     OW18511   2.476   1.984   5.703
 6056SOL    HW118512   2.574   1.962   5.710
 6056SOL    HW218513   2.445   1.967   5.610
 6057SOL     OW18514   2.643   2.126   7.335
 6057SOL    HW118515   2.710   2.065   7.378
 6057SOL    HW218516   2.570   2.145   7.400
 6058SOL     OW18517   2.750   3.376   6.781
 6058SOL    HW118518   2.727   3.351   6.687
 6058SOL    HW218519   2.811   3.307   6.820
 6059SOL     OW18520   3.213   2.452   7.019
 6059SOL    HW118521   3.241   2.409   7.104
 6059SOL    HW218522   3.238   2.548   7.020
 6060SOL     OW18523   2.665   3.264   6.510
 6060SOL    HW118524   2.755   3.278   6.468
 6060SOL    HW218525   2.594   3.266   6.439
 6061SOL     OW18526   2.784   2.365   6.485
 6061SOL    HW118527   2.759   2.356   6.389
 6061SOL    HW218528   2.832   2.283   6.516
 6062SOL     OW18529   2.401   1.926   6.098
 6062SOL    HW118530   2.320   1.927   6.156
 6062SOL    HW218531   2.404   2.009   6.043
 6063SOL     OW18532   3.296   3.050   5.627
 6063SOL    HW118533   3.328   2.974   5.684
 6063SOL    HW218534   3.204   3.077   5.657
 6064SOL     OW18535   2.159   1.897   5.757
 6064SOL    HW118536   2.208   1.981   5.736
 6064SOL    HW218537   2.221   1.832   5.802
 6065SOL     OW18538   2.797   2.098   6.066
 6065SOL    HW118539   2.749   2.139   5.988
 6065SOL    HW218540   2.896   2.096   6.047
 6066SOL     OW18541   2.938   2.545   7.050
 6066SOL    HW118542   2.858   2.484   7.053
 6066SOL    HW218543   3.019   2.492   7.026
 6067SOL     OW18544   3.089   3.432   6.379
 6067SOL    HW118545   3.110   3.506   6.314
 6067SOL    HW218546   3.157   3.432   6.452
 6068SOL     OW18547   2.321   3.014   6.327
 6068SOL    HW118548   2.250   2.987   6.392
 6068SOL    HW218549   2.295   2.986   6.234
 6069SOL     OW18550   3.133   3.659   6.177
 6069SOL    HW118551   3.177   3.723   6.113
 6069SOL    HW218552   3.083   3.711   6.247
 6070SOL     OW18553   2.894   2.411   5.602
 6070SOL    HW118554   2.853   2.493   5.563
 6070SOL    HW218555   2.958   2.437   5.675
 6071SOL     OW18556   1.940   2.418   6.972
 6071SOL    HW118557   2.032   2.417   6.931
 6071SOL    HW218558   1.934   2.492   7.039
 6072SOL     OW18559   2.423   2.084   6.733
 6072SOL    HW118560   2.461   2.000   6.770
 6072SOL    HW218561   2.335   2.103   6.777
 6073SOL     OW18562   2.728   2.316   6.228
 6073SOL    HW118563   2.696   2.388   6.166
 6073SOL    HW218564   2.752   2.235   6.175
 6074SOL     OW18565   2.879   1.901   6.339
 6074SOL    HW118566   2.807   1.906   6.270
 6074SOL    HW218567   2.855   1.832   6.408
 6075SOL     OW18568   3.291   3.035   6.453
 6075SOL    HW118569   3.236   2.951   6.446
 6075SOL    HW218570   3.317   3.064   6.361
 6076SOL     OW18571   3.328   2.452   6.578
 6076SOL    HW118572   3.298   2.357   6.585
 6076SOL    HW218573   3.401   2.468   6.644
 6077SOL     OW18574   3.719   2.695   5.963
 6077SOL    HW118575   3.761   2.631   6.027
 6077SOL    HW218576   3.681   2.644   5.885
 6078SOL     OW18577   2.350   3.247   5.760
 6078SOL    HW118578   2.263   3.232   5.807
 6078SOL    HW218579   2.333   3.273   5.665
 6079SOL     OW18580   3.526   3.142   6.243
 6079SOL    HW118581   3.625   3.150   6.257
 6079SOL    HW218582   3.481   3.226   6.274
 6080SOL     OW18583   3.252   2.437   5.664
 6080SOL    HW118584   3.198   2.416   5.745
 6080SOL    HW218585   3.343   2.396   5.673
 6081SOL     OW18586   2.389   2.118   5.914
 6081SOL    HW118587   2.416   2.059   5.839
 6081SOL    HW218588   2.389   2.213   5.883
 6082SOL     OW18589   3.616   3.085   7.174
 6082SOL    HW118590   3.707   3.046   7.161
 6082SOL    HW218591   3.624   3.181   7.198
 6083SOL     OW18592   2.926   3.209   6.926
 6083SOL    HW118593   2.846   3.186   6.981
 6083SOL    HW218594   3.009   3.183   6.975
 6084SOL     OW18595   3.454   3.491   7.211
 6084SOL    HW118596   3.481   3.525   7.121
 6084SOL    HW218597   3.533   3.453   7.257
 6085SOL     OW18598   2.973   3.057   6.686
 6085SOL    HW118599   2.933   3.101   6.767
 6085SOL    HW218600   2.932   3.094   6.603
 6086SOL     OW18601   3.500   2.961   6.665
 6086SOL    HW118602   3.505   3.042   6.724
 6086SOL    HW218603   3.414   2.963   6.614
 6087SOL     OW18604   2.777   1.951   6.988
 6087SOL    HW118605   2.802   1.931   6.893
 6087SOL    HW218606   2.849   2.007   7.030
 6088SOL     OW18607   2.842   2.978   7.305
 6088SOL    HW118608   2.743   2.984   7.315
 6088SOL    HW218609   2.865   2.898   7.249
 6089SOL     OW18610   2.567   2.912   5.954
 6089SOL    HW118611   2.553   2.919   6.053
 6089SOL    HW218612   2.651   2.861   5.936
 6090SOL     OW18613   2.272   2.675   6.837
 6090SOL    HW118614   2.358   2.687   6.887
 6090SOL    HW218615   2.230   2.588   6.864
 6091SOL     OW18616   3.136   2.248   6.848
 6091SOL    HW118617   3.157   2.322   6.912
 6091SOL    HW218618   3.047   2.265   6.805
 6092SOL     OW18619   1.926   3.426   6.917
 6092SOL    HW118620   1.880   3.508   6.883
 6092SOL    HW218621   2.024   3.445   6.926
 6093SOL     OW18622   2.229   2.962   6.087
 6093SOL    HW118623   2.222   3.045   6.031
 6093SOL    HW218624   2.233   2.882   6.027
 6094SOL     OW18625   2.428   2.399   6.451
 6094SOL    HW118626   2.440   2.465   6.377
 6094SOL    HW218627   2.474   2.433   6.534
 6095SOL     OW18628   3.114   3.210   5.974
 6095SOL    HW118629   3.164   3.287   6.014
 6095SOL    HW218630   3.019   3.212   6.006
 6096SOL     OW18631   3.134   3.307   6.728
 6096SOL    HW118632   3.181   3.320   6.815
 6096SOL    HW218633   3.068   3.233   6.737
 6097SOL     OW18634   3.444   2.501   6.058
 6097SOL    HW118635   3.413   2.562   6.131
 6097SOL    HW218636   3.494   2.553   5.989
 6098SOL     OW18637   2.216   3.372   6.915
 6098SOL    HW118638   2.195   3.328   6.828
 6098SOL    HW218639   2.313   3.398   6.918
 6099SOL     OW18640   2.264   2.613   7.184
 6099SOL    HW118641   2.332   2.668   7.137
 6099SOL    HW218642   2.304   2.525   7.211
 6100SOL     OW18643   3.449   2.641   7.256
 6100SOL    HW118644   3.357   2.679   7.251
 6100SOL    HW218645   3.509   2.688   7.191
 6101SOL     OW18646   2.875   1.967   7.356
 6101SOL    HW118647   2.881   2.052   7.304
 6101SOL    HW218648   2.907   1.891   7.299
 6102SOL     OW18649   2.366   1.912   7.326
 6102SOL    HW118650   2.324   1.855   7.256
 6102SOL    HW218651   2.300   1.981   7.358
 6103SOL     OW18652   2.435   2.732   6.615
 6103SOL    HW118653   2.479   2.821   6.606
 6103SOL    HW218654   2.372   2.732   6.692
 6104SOL     OW18655   3.222   2.724   6.631
 6104SOL    HW118656   3.147   2.724   6.565
 6104SOL    HW218657   3.259   2.632   6.640
 6105SOL     OW18658   3.071   2.387   5.861
 6105SOL    HW118659   3.084   2.303   5.915
 6105SOL    HW218660   3.042   2.461   5.921
 6106SOL     OW18661   2.169   2.075   6.817
 6106SOL    HW118662   2.146   2.112   6.907
 6106SOL    HW218663   2.139   1.980   6.811
 6107SOL     OW18664   1.899   3.172   6.868
 6107SOL    HW118665   1.952   3.123   6.936
 6107SOL    HW218666   1.921   3.270   6.873
 6108SOL     OW18667   2.594   2.496   6.650
 6108SOL    HW118668   2.653   2.470   6.574
 6108SOL    HW218669   2.566   2.592   6.639
 6109SOL     OW18670   3.590   2.797   7.440
 6109SOL    HW118671   3.544   2.790   7.351
 6109SOL    HW218672   3.528   2.841   7.506
 6110SOL     OW18673   2.169   1.925   6.204
 6110SOL    HW118674   2.158   2.019   6.237
 6110SOL    HW218675   2.164   1.862   6.281
 6111SOL     OW18676   3.484   2.229   5.960
 6111SOL    HW118677   3.486   2.153   6.024
 6111SOL    HW218678   3.436   2.306   6.000
 6112SOL     OW18679   2.885   2.628   6.552
 6112SOL    HW118680   2.900   2.649   6.648
 6112SOL    HW218681   2.855   2.533   6.543
 6113SOL     OW18682   2.842   3.435   7.286
 6113SOL    HW118683   2.822   3.479   7.198
 6113SOL    HW218684   2.881   3.344   7.270
 6114SOL     OW18685   3.721   3.380   7.191
 6114SOL    HW118686   3.735   3.407   7.096
 6114SOL    HW218687   3.804   3.402   7.244
 6115SOL     OW18688   2.212   2.760   7.390
 6115SOL    HW118689   2.288   2.804   7.438
 6115SOL    HW218690   2.247   2.713   7.308
 6116SOL     OW18691   3.402   2.136   5.711
 6116SOL    HW118692   3.341   2.061   5.734
 6116SOL    HW218693   3.424   2.188   5.794
 6117SOL     OW18694   3.165   2.700   5.628
 6117SOL    HW118695   3.199   2.607   5.643
 6117SOL    HW218696   3.183   2.727   5.533
 6118SOL     OW18697   2.930   3.195   6.435
 6118SOL    HW118698   2.937   3.111   6.380
 6118SOL    HW218699   2.992   3.264   6.399
 6119SOL     OW18700   2.181   2.672   6.535
 6119SOL    HW118701   2.274   2.708   6.540
 6119SOL    HW218702   2.175   2.587   6.587
 6120SOL     OW18703   2.201   2.371   6.592
 6120SOL    HW118704   2.149   2.288   6.575
 6120SOL    HW218705   2.278   2.376   6.528
 6121SOL     OW18706   3.000   2.242   7.264
 6121SOL    HW118707   2.955   2.305   7.328
 6121SOL    HW218708   3.093   2.273   7.247
 6122SOL     OW18709   3.022   2.069   7.063
 6122SOL    HW118710   3.022   2.133   7.140
 6122SOL    HW218711   3.050   2.117   6.980
 6123SOL     OW18712   1.870   3.188   5.786
 6123SOL    HW118713   1.777   3.209   5.755
 6123SOL    HW218714   1.880   3.089   5.799
 6124SOL     OW18715   1.950   3.663   6.513
 6124SOL    HW118716   1.908   3.577   6.486
 6124SOL    HW218717   2.044   3.666   6.479
 6125SOL     OW18718   2.366   3.430   6.496
 6125SOL    HW118719   2.432   3.504   6.505
 6125SOL    HW218720   2.410   3.351   6.454
 6126SOL     OW18721   2.864   2.658   6.824
 6126SOL    HW118722   2.905   2.626   6.910
 6126SOL    HW218723   2.768   2.631   6.821
 6127SOL     OW18724   1.902   2.406   6.700
 6127SOL    HW118725   1.987   2.373   6.659
 6127SOL    HW218726   1.915   2.421   6.798
 6128SOL     OW18727   2.051   2.382   7.308
 6128SOL    HW118728   2.110   2.342   7.238
 6128SOL    HW218729   1.993   2.453   7.267
 6129SOL     OW18730   3.231   2.812   7.246
 6129SOL    HW118731   3.270   2.901   7.266
 6129SOL    HW218732   3.241   2.792   7.149
 6130SOL     OW18733   2.677   2.434   5.911
 6130SOL    HW118734   2.684   2.345   5.865
 6130SOL    HW218735   2.583   2.468   5.903
 6131SOL     OW18736   3.519   2.466   6.792
 6131SOL    HW118737   3.481   2.397   6.854
 6131SOL    HW218738   3.601   2.430   6.748
 6132SOL     OW18739   2.114   3.426   7.330
 6132SOL    HW118740   2.084   3.483   7.406
 6132SOL    HW218741   2.107   3.329   7.356
 6133SOL     OW18742   2.533   2.326   6.855
 6133SOL    HW118743   2.499   2.237   6.825
 6133SOL    HW218744   2.559   2.380   6.775
 6134SOL     OW18745   2.792   3.540   7.051
 6134SOL    HW118746   2.768   3.522   6.956
 6134SOL    HW218747   2.822   3.634   7.061
 6135SOL     OW18748   2.335   2.362   5.777
 6135SOL    HW118749   2.396   2.442   5.781
 6135SOL    HW218750   2.240   2.393   5.784
 6136SOL     OW18751   2.021   2.999   7.052
 6136SOL    HW118752   2.043   2.938   7.128
 6136SOL    HW218753   2.031   2.950   6.966
 6137SOL     OW18754   3.209   2.921   6.820
 6137SOL    HW118755   3.233   2.858   6.746
 6137SOL    HW218756   3.119   2.961   6.802
 6138SOL     OW18757   3.164   2.717   5.895
 6138SOL    HW118758   3.078   2.686   5.937
 6138SOL    HW218759   3.160   2.703   5.796
 6139SOL     OW18760   3.621   3.609   6.740
 6139SOL    HW118761   3.682   3.639   6.667
 6139SOL    HW218762   3.583   3.520   6.718
 6140SOL     OW18763   3.114   3.593   6.714
 6140SOL    HW118764   3.198   3.598   6.660
 6140SOL    HW218765   3.091   3.497   6.732
 6141SOL     OW18766   1.945   3.120   6.608
 6141SOL    HW118767   1.940   3.119   6.708
 6141SOL    HW218768   1.862   3.079   6.570
 6142SOL     OW18769   2.550   3.524   7.302
 6142SOL    HW118770   2.494   3.605   7.311
 6142SOL    HW218771   2.602   3.528   7.216
 6143SOL     OW18772   3.588   1.997   6.109
 6143SOL    HW118773   3.661   1.980   6.042
 6143SOL    HW218774   3.557   1.910   6.147
 6144SOL     OW18775   3.250   3.435   6.063
 6144SOL    HW118776   3.317   3.447   5.989
 6144SOL    HW218777   3.210   3.524   6.086
 6145SOL     OW18778   1.992   3.656   7.437
 6145SOL    HW118779   1.951   3.582   7.490
 6145SOL    HW218780   2.056   3.707   7.495
 6146SOL     OW18781   3.142   2.789   6.258
 6146SOL    HW118782   3.202   2.708   6.260
 6146SOL    HW218783   3.182   2.858   6.198
 6147SOL     OW18784   2.692   3.135   7.008
 6147SOL    HW118785   2.687   3.168   7.103
 6147SOL    HW218786   2.606   3.154   6.962
 6148SOL     OW18787   2.534   3.478   5.740
 6148SOL    HW118788   2.543   3.488   5.641
 6148SOL    HW218789   2.494   3.389   5.761
 6149SOL     OW18790   3.512   3.582   6.980
 6149SOL    HW118791   3.565   3.592   6.896
 6149SOL    HW218792   3.485   3.672   7.014
 6150SOL     OW18793   3.703   2.037   6.549
 6150SOL    HW118794   3.742   1.952   6.513
 6150SOL    HW218795   3.605   2.039   6.530
 6151SOL     OW18796   2.125   2.188   6.306
 6151SOL    HW118797   2.046   2.239   6.272
 6151SOL    HW218798   2.116   2.173   6.404
 6152SOL     OW18799   3.056   3.474   5.617
 6152SOL    HW118800   3.062   3.381   5.654
 6152SOL    HW218801   2.997   3.474   5.537
 6153SOL     OW18802   2.684   2.864   6.958
 6153SOL    HW118803   2.724   2.863   6.866
 6153SOL    HW218804   2.694   2.956   6.998
 6154SOL     OW18805   2.778   2.772   5.877
 6154SOL    HW118806   2.841   2.810   5.809
 6154SOL    HW218807   2.818   2.689   5.916
 6155SOL     OW18808   3.366   3.469   5.630
 6155SOL    HW118809   3.274   3.506   5.637
 6155SOL    HW218810   3.404   3.489   5.540
 6156SOL     OW18811   2.234   3.150   7.076
 6156SOL    HW118812   2.221   3.243   7.042
 6156SOL    HW218813   2.150   3.098   7.063
 6157SOL     OW18814   3.476   3.154   6.875
 6157SOL    HW118815   3.536   3.157   6.955
 6157SOL    HW218816   3.401   3.218   6.888
 6158SOL     OW18817   2.901   2.960   6.282
 6158SOL    HW118818   2.831   2.913   6.336
 6158SOL    HW218819   2.960   2.892   6.239
 6159SOL     OW18820   2.876   2.098   6.557
 6159SOL    HW118821   2.868   2.062   6.464
 6159SOL    HW218822   2.874   2.022   6.622
 6160SOL     OW18823   2.452   3.349   6.077
 6160SOL    HW118824   2.494   3.291   6.007
 6160SOL    HW218825   2.408   3.428   6.033
 6161SOL     OW18826   3.571   2.247   6.967
 6161SOL    HW118827   3.644   2.316   6.971
 6161SOL    HW218828   3.599   2.172   6.908
 6162SOL     OW18829   2.117   3.210   5.876
 6162SOL    HW118830   2.021   3.211   5.849
 6162SOL    HW218831   2.129   3.263   5.960
 6163SOL     OW18832   1.967   2.875   7.312
 6163SOL    HW118833   1.890   2.842   7.366
 6163SOL    HW218834   2.052   2.845   7.354
 6164SOL     OW18835   2.534   2.065   7.075
 6164SOL    HW118836   2.624   2.049   7.035
 6164SOL    HW218837   2.542   2.070   7.174
 6165SOL     OW18838   1.937   2.207   5.619
 6165SOL    HW118839   1.845   2.179   5.590
 6165SOL    HW218840   1.968   2.284   5.563
 6166SOL     OW18841   3.302   2.718   6.984
 6166SOL    HW118842   3.245   2.770   6.921
 6166SOL    HW218843   3.398   2.730   6.960
 6167SOL     OW18844   1.934   2.028   5.904
 6167SOL    HW118845   1.917   2.111   5.850
 6167SOL    HW218846   2.024   1.991   5.882
 6168SOL     OW18847   3.045   3.197   5.705
 6168SOL    HW118848   2.946   3.186   5.707
 6168SOL    HW218849   3.079   3.212   5.798
 6169SOL     OW18850   2.475   2.704   7.017
 6169SOL    HW118851   2.531   2.785   7.000
 6169SOL    HW218852   2.534   2.624   7.020
 6170SOL     OW18853   3.355   3.629   6.545
 6170SOL    HW118854   3.388   3.693   6.476
 6170SOL    HW218855   3.421   3.623   6.620
 6171SOL     OW18856   2.578   2.427   7.294
 6171SOL    HW118857   2.597   2.492   7.368
 6171SOL    HW218858   2.638   2.347   7.303
 6172SOL     OW18859   3.312   3.082   7.219
 6172SOL    HW118860   3.303   3.072   7.318
 6172SOL    HW218861   3.408   3.075   7.193
 6173SOL     OW18862   2.252   3.603   7.146
 6173SOL    HW118863   2.161   3.644   7.144
 6173SOL    HW218864   2.245   3.509   7.178
 6174SOL     OW18865   3.536   2.745   6.840
 6174SOL    HW118866   3.509   2.656   6.803
 6174SOL    HW218867   3.537   2.813   6.767
 6175SOL     OW18868   3.087   2.187   6.035
 6175SOL    HW118869   3.152   2.113   6.024
 6175SOL    HW218870   3.107   2.237   6.119
 6176SOL     OW18871   2.456   2.607   6.238
 6176SOL    HW118872   2.506   2.692   6.219
 6176SOL    HW218873   2.368   2.609   6.190
 6177SOL     OW18874   3.639   2.204   7.228
 6177SOL    HW118875   3.622   2.235   7.134
 6177SOL    HW218876   3.555   2.167   7.266
 6178SOL     OW18877   3.592   2.796   7.103
 6178SOL    HW118878   3.630   2.887   7.118
 6178SOL    HW218879   3.584   2.779   7.004
 6179SOL     OW18880   2.721   3.236   5.602
 6179SOL    HW118881   2.675   3.251   5.690
 6179SOL    HW218882   2.765   3.321   5.572
 6180SOL     OW18883   2.523   3.652   6.539
 6180SOL    HW118884   2.477   3.740   6.526
 6180SOL    HW218885   2.622   3.664   6.532
 6181SOL     OW18886   2.721   2.818   6.447
 6181SOL    HW118887   2.775   2.749   6.495
 6181SOL    HW218888   2.689   2.887   6.513
 6182SOL     OW18889   2.945   2.846   5.673
 6182SOL    HW118890   2.922   2.899   5.591
 6182SOL    HW218891   3.026   2.790   5.654
 6183SOL     OW18892   3.723   3.431   6.437
 6183SOL    HW118893   3.652   3.419   6.367
 6183SOL    HW218894   3.724   3.352   6.497
 6184SOL     OW18895   2.083   3.176   7.430
 6184SOL    HW118896   2.018   3.103   7.409
 6184SOL    HW218897   2.087   3.190   7.528
 6185SOL     OW18898   1.941   3.102   6.239
 6185SOL    HW118899   1.940   3.055   6.327
 6185SOL    HW218900   2.023   3.074   6.188
 6186SOL     OW18901   2.534   3.253   7.210
 6186SOL    HW118902   2.456   3.203   7.248
 6186SOL    HW218903   2.531   3.348   7.241
 6187SOL     OW18904   3.686   2.054   6.813
 6187SOL    HW118905   3.682   1.964   6.857
 6187SOL    HW218906   3.689   2.043   6.714
 6188SOL     OW18907   2.290   2.286   6.106
 6188SOL    HW118908   2.320   2.214   6.044
 6188SOL    HW218909   2.251   2.246   6.189
 6189SOL     OW18910   3.567   3.349   6.690
 6189SOL    HW118911   3.474   3.324   6.663
 6189SOL    HW218912   3.593   3.299   6.772
 6190SOL     OW18913   2.179   2.409   6.866
 6190SOL    HW118914   2.217   2.350   6.938
 6190SOL    HW218915   2.219   2.383   6.778
 6191SOL     OW18916   2.674   3.448   6.273
 6191SOL    HW118917   2.706   3.458   6.179
 6191SOL    HW218918   2.595   3.386   6.275
 6192SOL     OW18919   3.286   2.076   6.698
 6192SOL    HW118920   3.338   2.011   6.753
 6192SOL    HW218921   3.237   2.139   6.759
 6193SOL     OW18922   2.863   1.896   6.740
 6193SOL    HW118923   2.800   1.824   6.709
 6193SOL    HW218924   2.956   1.860   6.740
 6194SOL     OW18925   2.632   3.192   5.887
 6194SOL    HW118926   2.586   3.105   5.904
 6194SOL    HW218927   2.723   3.189   5.928
 6195SOL     OW18928   2.480   3.429   6.870
 6195SOL    HW118929   2.475   3.511   6.927
 6195SOL    HW218930   2.569   3.426   6.825
 6196SOL     OW18931   3.214   1.914   5.754
 6196SOL    HW118932   3.249   1.873   5.670
 6196SOL    HW218933   3.124   1.876   5.774
 6197SOL     OW18934   3.162   2.315   6.277
 6197SOL    HW118935   3.103   2.395   6.281
 6197SOL    HW218936   3.177   2.280   6.370
 6198SOL     OW18937   3.455   2.083   6.468
 6198SOL    HW118938   3.371   2.082   6.522
 6198SOL    HW218939   3.457   2.166   6.412
 6199SOL     OW18940   1.901   2.939   5.886
 6199SOL    HW118941   2.000   2.928   5.877
 6199SOL    HW218942   1.861   2.853   5.918
 6200SOL     OW18943   2.737   3.508   5.923
 6200SOL    HW118944   2.660   3.473   5.869
 6200SOL    HW218945   2.705   3.579   5.985
 6201SOL     OW18946   2.092   2.490   7.561
 6201SOL    HW118947   1.999   2.488   7.598
 6201SOL    HW218948   2.093   2.451   7.469
 6202SOL     OW18949   2.093   3.575   7.931
 6202SOL    HW118950   2.127   3.652   7.985
 6202SOL    HW218951   2.137   3.575   7.841
 6203SOL     OW18952   2.468   2.826   7.571
 6203SOL    HW118953   2.475   2.910   7.517
 6203SOL    HW218954   2.514   2.839   7.659
 6204SOL     OW18955   1.889   3.458   7.565
 6204SOL    HW118956   1.870   3.362   7.586
 6204SOL    HW218957   1.856   3.516   7.640
 6205SOL     OW18958   2.671   1.866   7.950
 6205SOL    HW118959   2.711   1.957   7.941
 6205SOL    HW218960   2.571   1.874   7.956
 6206SOL     OW18961   3.387   2.861   7.638
 6206SOL    HW118962   3.324   2.785   7.651
 6206SOL    HW218963   3.435   2.879   7.724
 6207SOL     OW18964   2.460   2.591   7.718
 6207SOL    HW118965   2.484   2.660   7.650
 6207SOL    HW218966   2.382   2.624   7.772
 6208SOL     OW18967   2.903   2.563   7.877
 6208SOL    HW118968   2.929   2.559   7.973
 6208SOL    HW218969   2.818   2.512   7.863
 6209SOL     OW18970   2.727   2.210   7.643
 6209SOL    HW118971   2.786   2.273   7.594
 6209SOL    HW218972   2.746   2.116   7.614
 6210SOL     OW18973   2.870   3.318   7.925
 6210SOL    HW118974   2.824   3.390   7.873
 6210SOL    HW218975   2.866   3.338   8.023
 6211SOL     OW18976   2.183   2.805   7.690
 6211SOL    HW118977   2.265   2.844   7.648
 6211SOL    HW218978   2.156   2.723   7.641
 6212SOL     OW18979   2.973   3.638   7.685
 6212SOL    HW118980   2.913   3.576   7.735
 6212SOL    HW218981   3.004   3.594   7.600
 6213SOL     OW18982   3.494   3.239   7.529
 6213SOL    HW118983   3.462   3.333   7.519
 6213SOL    HW218984   3.418   3.176   7.517
 6214SOL     OW18985   2.326   3.605   7.771
 6214SOL    HW118986   2.359   3.644   7.857
 6214SOL    HW218987   2.402   3.598   7.706
 6215SOL     OW18988   2.244   2.562   7.928
 6215SOL    HW118989   2.289   2.472   7.925
 6215SOL    HW218990   2.150   2.551   7.961
 6216SOL     OW18991   2.476   1.984   7.565
 6216SOL    HW118992   2.574   1.962   7.572
 6216SOL    HW218993   2.445   1.967   7.472
 6217SOL     OW18994   2.401   1.926   7.960
 6217SOL    HW118995   2.320   1.927   8.018
 6217SOL    HW218996   2.404   2.009   7.905
 6218SOL     OW18997   3.296   3.050   7.489
 6218SOL    HW118998   3.328   2.974   7.546
 6218SOL    HW218999   3.204   3.077   7.519
 6219SOL     OW19000   2.159   1.897   7.619
 6219SOL    HW119001   2.208   1.981   7.598
 6219SOL    HW219002   2.221   1.832   7.664
 6220SOL     OW19003   2.797   2.098   7.928
 6220SOL    HW119004   2.749   2.139   7.850
 6220SOL    HW219005   2.896   2.096   7.909
 6221SOL     OW19006   2.894   2.411   7.464
 6221SOL    HW119007   2.853   2.493   7.425
 6221SOL    HW219008   2.958   2.437   7.537
 6222SOL     OW19009   2.350   3.247   7.622
 6222SOL    HW119010   2.263   3.232   7.669
 6222SOL    HW219011   2.333   3.273   7.527
 6223SOL     OW19012   3.252   2.437   7.526
 6223SOL    HW119013   3.198   2.416   7.607
 6223SOL    HW219014   3.343   2.396   7.535
 6224SOL     OW19015   2.389   2.118   7.776
 6224SOL    HW119016   2.416   2.059   7.701
 6224SOL    HW219017   2.389   2.213   7.745
 6225SOL     OW19018   2.567   2.912   7.816
 6225SOL    HW119019   2.553   2.919   7.915
 6225SOL    HW219020   2.651   2.861   7.798
 6226SOL     OW19021   2.229   2.962   7.949
 6226SOL    HW119022   2.222   3.045   7.893
 6226SOL    HW219023   2.233   2.882   7.889
 6227SOL     OW19024   3.402   2.136   7.573
 6227SOL    HW119025   3.341   2.061   7.596
 6227SOL    HW219026   3.424   2.188   7.656
 6228SOL     OW19027   3.165   2.700   7.490
 6228SOL    HW119028   3.199   2.607   7.505
 6228SOL    HW219029   3.183   2.727   7.395
 6229SOL     OW19030   1.870   3.188   7.648
 6229SOL    HW119031   1.777   3.209   7.617
 6229SOL    HW219032   1.880   3.089   7.661
 6230SOL     OW19033   2.677   2.434   7.773
 6230SOL    HW119034   2.684   2.345   7.727
 6230SOL    HW219035   2.583   2.468   7.765
 6231SOL     OW19036   2.335   2.362   7.639
 6231SOL    HW119037   2.396   2.442   7.643
 6231SOL    HW219038   2.240   2.393   7.646
 6232SOL     OW19039   3.250   3.435   7.925
 6232SOL    HW119040   3.317   3.447   7.851
 6232SOL    HW219041   3.210   3.524   7.948
 6233SOL     OW19042   2.534   3.478   7.602
 6233SOL    HW119043   2.543   3.488   7.503
 6233SOL    HW219044   2.494   3.389   7.623
 6234SOL     OW19045   3.056   3.474   7.479
 6234SOL    HW119046   3.062   3.381   7.516
 6234SOL    HW219047   2.997   3.474   7.399
 6235SOL     OW19048   2.778   2.772   7.739
 6235SOL    HW119049   2.841   2.810   7.671
 6235SOL    HW219050   2.818   2.689   7.778
 6236SOL     OW19051   3.366   3.469   7.492
 6236SOL    HW119052   3.274   3.506   7.499
 6236SOL    HW219053   3.404   3.489   7.402
 6237SOL     OW19054   2.452   3.349   7.939
 6237SOL    HW119055   2.494   3.291   7.869
 6237SOL    HW219056   2.408   3.428   7.895
 6238SOL     OW19057   2.117   3.210   7.738
 6238SOL    HW119058   2.021   3.211   7.711
 6238SOL    HW219059   2.129   3.263   7.822
 6239SOL     OW19060   1.937   2.207   7.481
 6239SOL    HW119061   1.845   2.179   7.452
 6239SOL    HW219062   1.968   2.284   7.425
 6240SOL     OW19063   1.934   2.028   7.766
 6240SOL    HW119064   1.917   2.111   7.712
 6240SOL    HW219065   2.024   1.991   7.744
 6241SOL     OW19066   2.721   3.236   7.464
 6241SOL    HW119067   2.675   3.251   7.552
 6241SOL    HW219068   2.765   3.321   7.434
 6242SOL     OW19069   2.945   2.846   7.535
 6242SOL    HW119070   2.922   2.899   7.453
 6242SOL    HW219071   3.026   2.790   7.516
 6243SOL     OW19072   2.290   2.286   7.968
 6243SOL    HW119073   2.320   2.214   7.906
 6243SOL    HW219074   2.251   2.246   8.051
 6244SOL     OW19075   2.632   3.192   7.749
 6244SOL    HW119076   2.586   3.105   7.766
 6244SOL    HW219077   2.723   3.189   7.790
 6245SOL     OW19078   3.214   1.914   7.616
 6245SOL    HW119079   3.249   1.873   7.532
 6245SOL    HW219080   3.124   1.876   7.636
 6246SOL     OW19081   1.901   2.939   7.748
 6246SOL    HW119082   2.000   2.928   7.739
 6246SOL    HW219083   1.861   2.853   7.780
 6247SOL     OW19084   2.737   3.508   7.785
 6247SOL    HW119085   2.660   3.473   7.731
 6247SOL    HW219086   2.705   3.579   7.847
 6248SOL     OW19087   2.092   4.352   0.113
 6248SOL    HW119088   1.999   4.350   0.150
 6248SOL    HW219089   2.093   4.313   0.021
 6249SOL     OW19090   2.087   3.999   0.996
 6249SOL    HW119091   2.122   3.982   1.088
 6249SOL    HW219092   1.999   3.954   0.984
 6250SOL     OW19093   1.881   4.092   0.647
 6250SOL    HW119094   1.799   4.135   0.686
 6250SOL    HW219095   1.853   4.019   0.584
 6251SOL     OW19096   2.431   4.999   1.165
 6251SOL    HW119097   2.338   4.992   1.128
 6251SOL    HW219098   2.442   5.088   1.209
 6252SOL     OW19099   3.417   5.235   0.703
 6252SOL    HW119100   3.360   5.219   0.784
 6252SOL    HW219101   3.358   5.245   0.623
 6253SOL     OW19102   2.997   4.427   0.717
 6253SOL    HW119103   3.054   4.505   0.692
 6253SOL    HW219104   2.937   4.453   0.793
 6254SOL     OW19105   3.617   4.331   0.231
 6254SOL    HW119106   3.605   4.318   0.132
 6254SOL    HW219107   3.587   4.250   0.280
 6255SOL     OW19108   2.630   4.868   1.023
 6255SOL    HW119109   2.552   4.885   1.083
 6255SOL    HW219110   2.664   4.955   0.987
 6256SOL     OW19111   2.712   4.522   1.823
 6256SOL    HW119112   2.708   4.598   1.888
 6256SOL    HW219113   2.734   4.558   1.732
 6257SOL     OW19114   2.547   4.736   0.665
 6257SOL    HW119115   2.616   4.720   0.735
 6257SOL    HW219116   2.474   4.793   0.703
 6258SOL     OW19117   2.548   4.885   1.803
 6258SOL    HW119118   2.608   4.964   1.817
 6258SOL    HW219119   2.462   4.916   1.762
 6259SOL     OW19120   2.197   5.159   1.061
 6259SOL    HW119121   2.119   5.128   1.008
 6259SOL    HW219122   2.255   5.217   1.004
 6260SOL     OW19123   3.322   5.229   1.339
 6260SOL    HW119124   3.346   5.323   1.365
 6260SOL    HW219125   3.306   5.175   1.421
 6261SOL     OW19126   2.300   4.116   1.499
 6261SOL    HW119127   2.382   4.060   1.508
 6261SOL    HW219128   2.219   4.058   1.503
 6262SOL     OW19129   3.465   4.171   0.737
 6262SOL    HW119130   3.391   4.217   0.687
 6262SOL    HW219131   3.516   4.239   0.790
 6263SOL     OW19132   2.989   5.065   1.690
 6263SOL    HW119133   3.036   5.065   1.778
 6263SOL    HW219134   2.941   4.978   1.679
 6264SOL     OW19135   2.092   5.158   0.538
 6264SOL    HW119136   2.066   5.254   0.538
 6264SOL    HW219137   2.021   5.104   0.583
 6265SOL     OW19138   2.102   4.815   0.886
 6265SOL    HW119139   2.116   4.731   0.938
 6265SOL    HW219140   2.047   4.879   0.941
 6266SOL     OW19141   2.482   5.510   1.439
 6266SOL    HW119142   2.390   5.493   1.474
 6266SOL    HW219143   2.510   5.602   1.465
 6267SOL     OW19144   2.468   4.688   0.123
 6267SOL    HW119145   2.475   4.772   0.069
 6267SOL    HW219146   2.514   4.701   0.211
 6268SOL     OW19147   3.456   3.838   1.480
 6268SOL    HW119148   3.438   3.905   1.408
 6268SOL    HW219149   3.453   3.884   1.569
 6269SOL     OW19150   1.984   4.367   0.563
 6269SOL    HW119151   1.939   4.279   0.580
 6269SOL    HW219152   1.983   4.421   0.647
 6270SOL     OW19153   3.704   5.491   0.359
 6270SOL    HW119154   3.758   5.462   0.439
 6270SOL    HW219155   3.734   5.581   0.330
 6271SOL     OW19156   1.889   5.320   0.117
 6271SOL    HW119157   1.870   5.224   0.138
 6271SOL    HW219158   1.856   5.378   0.192
 6272SOL     OW19159   3.551   4.646   0.612
 6272SOL    HW119160   3.646   4.617   0.620
 6272SOL    HW219161   3.543   4.711   0.537
 6273SOL     OW19162   3.503   4.832   0.432
 6273SOL    HW119163   3.589   4.834   0.380
 6273SOL    HW219164   3.517   4.879   0.520
 6274SOL     OW19165   1.975   4.461   1.597
 6274SOL    HW119166   2.063   4.448   1.642
 6274SOL    HW219167   1.962   4.558   1.575
 6275SOL     OW19168   2.475   5.089   0.726
 6275SOL    HW119169   2.426   5.002   0.735
 6275SOL    HW219170   2.452   5.132   0.639
 6276SOL     OW19171   3.155   4.952   1.423
 6276SOL    HW119172   3.192   4.879   1.365
 6276SOL    HW219173   3.207   4.957   1.508
 6277SOL     OW19174   2.671   3.728   0.502
 6277SOL    HW119175   2.711   3.819   0.493
 6277SOL    HW219176   2.571   3.736   0.508
 6278SOL     OW19177   2.059   4.700   1.264
 6278SOL    HW119178   2.148   4.655   1.250
 6278SOL    HW219179   1.986   4.635   1.245
 6279SOL     OW19180   3.387   4.723   0.190
 6279SOL    HW119181   3.324   4.647   0.203
 6279SOL    HW219182   3.435   4.741   0.276
 6280SOL     OW19183   3.049   5.516   1.616
 6280SOL    HW119184   3.073   5.576   1.540
 6280SOL    HW219185   3.056   5.421   1.586
 6281SOL     OW19186   2.179   3.975   1.801
 6281SOL    HW119187   2.250   4.046   1.807
 6281SOL    HW219188   2.091   4.014   1.829
 6282SOL     OW19189   3.328   5.141   0.953
 6282SOL    HW119190   3.269   5.147   1.033
 6282SOL    HW219191   3.313   5.053   0.907
 6283SOL     OW19192   3.529   5.438   0.572
 6283SOL    HW119193   3.488   5.415   0.484
 6283SOL    HW219194   3.511   5.364   0.637
 6284SOL     OW19195   2.460   4.453   0.270
 6284SOL    HW119196   2.484   4.522   0.202
 6284SOL    HW219197   2.382   4.486   0.324
 6285SOL     OW19198   3.143   4.069   0.944
 6285SOL    HW119199   3.057   4.019   0.931
 6285SOL    HW219200   3.205   4.015   1.000
 6286SOL     OW19201   3.438   5.386   0.307
 6286SOL    HW119202   3.527   5.432   0.310
 6286SOL    HW219203   3.417   5.362   0.212
 6287SOL     OW19204   2.669   4.329   1.465
 6287SOL    HW119205   2.622   4.326   1.554
 6287SOL    HW219206   2.618   4.274   1.399
 6288SOL     OW19207   3.256   4.193   1.674
 6288SOL    HW119208   3.236   4.236   1.762
 6288SOL    HW219209   3.334   4.131   1.683
 6289SOL     OW19210   2.835   4.614   1.572
 6289SOL    HW119211   2.881   4.530   1.543
 6289SOL    HW219212   2.779   4.648   1.497
 6290SOL     OW19213   2.853   4.134   1.242
 6290SOL    HW119214   2.776   4.168   1.296
 6290SOL    HW219215   2.819   4.083   1.163
 6291SOL     OW19216   2.903   4.425   0.429
 6291SOL    HW119217   2.929   4.421   0.525
 6291SOL    HW219218   2.818   4.374   0.415
 6292SOL     OW19219   1.938   4.535   0.789
 6292SOL    HW119220   2.037   4.523   0.798
 6292SOL    HW219221   1.914   4.630   0.810
 6293SOL     OW19222   1.992   5.545   1.571
 6293SOL    HW119223   1.982   5.530   1.670
 6293SOL    HW219224   1.906   5.581   1.535
 6294SOL     OW19225   2.727   4.072   0.195
 6294SOL    HW119226   2.786   4.135   0.146
 6294SOL    HW219227   2.746   3.978   0.166
 6295SOL     OW19228   3.581   4.309   1.831
 6295SOL    HW119229   3.555   4.398   1.795
 6295SOL    HW219230   3.579   4.241   1.758
 6296SOL     OW19231   3.224   4.868   0.545
 6296SOL    HW119232   3.307   4.839   0.497
 6296SOL    HW219233   3.175   4.935   0.489
 6297SOL     OW19234   2.412   3.920   0.885
 6297SOL    HW119235   2.407   3.915   0.985
 6297SOL    HW219236   2.414   4.016   0.856
 6298SOL     OW19237   2.870   5.180   0.477
 6298SOL    HW119238   2.824   5.252   0.425
 6298SOL    HW219239   2.866   5.200   0.575
 6299SOL     OW19240   2.213   5.525   0.853
 6299SOL    HW119241   2.263   5.439   0.859
 6299SOL    HW219242   2.278   5.602   0.850
 6300SOL     OW19243   3.657   4.790   0.873
 6300SOL    HW119244   3.595   4.775   0.797
 6300SOL    HW219245   3.605   4.801   0.958
 6301SOL     OW19246   3.089   5.274   1.506
 6301SOL    HW119247   3.095   5.197   1.570
 6301SOL    HW219248   3.037   5.248   1.426
 6302SOL     OW19249   2.183   4.667   0.242
 6302SOL    HW119250   2.265   4.706   0.200
 6302SOL    HW219251   2.156   4.585   0.193
 6303SOL     OW19252   3.320   4.459   0.728
 6303SOL    HW119253   3.315   4.394   0.803
 6303SOL    HW219254   3.400   4.518   0.741
 6304SOL     OW19255   2.323   4.990   1.727
 6304SOL    HW119256   2.273   4.991   1.641
 6304SOL    HW219257   2.260   4.972   1.803
 6305SOL     OW19258   2.973   5.500   0.237
 6305SOL    HW119259   2.913   5.438   0.287
 6305SOL    HW219260   3.004   5.456   0.152
 6306SOL     OW19261   2.064   4.009   1.498
 6306SOL    HW119262   1.984   4.069   1.485
 6306SOL    HW219263   2.054   3.960   1.584
 6307SOL     OW19264   3.494   5.101   0.081
 6307SOL    HW119265   3.462   5.195   0.071
 6307SOL    HW219266   3.418   5.038   0.069
 6308SOL     OW19267   2.326   5.467   0.323
 6308SOL    HW119268   2.359   5.506   0.409
 6308SOL    HW219269   2.402   5.460   0.258
 6309SOL     OW19270   3.262   3.831   0.426
 6309SOL    HW119271   3.238   3.794   0.336
 6309SOL    HW219272   3.361   3.847   0.430
 6310SOL     OW19273   2.111   5.509   1.241
 6310SOL    HW119274   2.168   5.444   1.291
 6310SOL    HW219275   2.095   5.476   1.148
 6311SOL     OW19276   2.802   5.422   0.904
 6311SOL    HW119277   2.882   5.365   0.925
 6311SOL    HW219278   2.753   5.382   0.827
 6312SOL     OW19279   2.244   4.424   0.480
 6312SOL    HW119280   2.289   4.334   0.477
 6312SOL    HW219281   2.150   4.413   0.513
 6313SOL     OW19282   3.409   3.946   1.729
 6313SOL    HW119283   3.404   3.983   1.821
 6313SOL    HW219284   3.337   3.877   1.717
 6314SOL     OW19285   2.476   3.846   0.117
 6314SOL    HW119286   2.574   3.824   0.124
 6314SOL    HW219287   2.445   3.829   0.024
 6315SOL     OW19288   2.643   3.988   1.749
 6315SOL    HW119289   2.710   3.927   1.792
 6315SOL    HW219290   2.570   4.007   1.814
 6316SOL     OW19291   2.750   5.238   1.195
 6316SOL    HW119292   2.727   5.213   1.101
 6316SOL    HW219293   2.811   5.169   1.234
 6317SOL     OW19294   3.213   4.314   1.433
 6317SOL    HW119295   3.241   4.271   1.518
 6317SOL    HW219296   3.238   4.410   1.434
 6318SOL     OW19297   2.665   5.126   0.924
 6318SOL    HW119298   2.755   5.140   0.882
 6318SOL    HW219299   2.594   5.128   0.853
 6319SOL     OW19300   2.784   4.227   0.899
 6319SOL    HW119301   2.759   4.218   0.803
 6319SOL    HW219302   2.832   4.145   0.930
 6320SOL     OW19303   2.401   3.788   0.512
 6320SOL    HW119304   2.320   3.789   0.570
 6320SOL    HW219305   2.404   3.871   0.457
 6321SOL     OW19306   3.296   4.912   0.041
 6321SOL    HW119307   3.328   4.836   0.098
 6321SOL    HW219308   3.204   4.939   0.071
 6322SOL     OW19309   2.159   3.759   0.171
 6322SOL    HW119310   2.208   3.843   0.150
 6322SOL    HW219311   2.221   3.694   0.216
 6323SOL     OW19312   2.797   3.960   0.480
 6323SOL    HW119313   2.749   4.001   0.402
 6323SOL    HW219314   2.896   3.958   0.461
 6324SOL     OW19315   2.938   4.407   1.464
 6324SOL    HW119316   2.858   4.346   1.467
 6324SOL    HW219317   3.019   4.354   1.440
 6325SOL     OW19318   3.089   5.294   0.793
 6325SOL    HW119319   3.110   5.368   0.728
 6325SOL    HW219320   3.157   5.294   0.866
 6326SOL     OW19321   2.321   4.876   0.741
 6326SOL    HW119322   2.250   4.849   0.806
 6326SOL    HW219323   2.295   4.848   0.648
 6327SOL     OW19324   3.133   5.521   0.591
 6327SOL    HW119325   3.177   5.585   0.527
 6327SOL    HW219326   3.083   5.573   0.661
 6328SOL     OW19327   2.894   4.273   0.016
 6328SOL    HW119328   2.853   4.355  -0.023
 6328SOL    HW219329   2.958   4.299   0.089
 6329SOL     OW19330   1.940   4.280   1.386
 6329SOL    HW119331   2.032   4.279   1.345
 6329SOL    HW219332   1.934   4.354   1.453
 6330SOL     OW19333   2.423   3.946   1.147
 6330SOL    HW119334   2.461   3.862   1.184
 6330SOL    HW219335   2.335   3.965   1.191
 6331SOL     OW19336   2.728   4.178   0.642
 6331SOL    HW119337   2.696   4.250   0.580
 6331SOL    HW219338   2.752   4.097   0.589
 6332SOL     OW19339   2.879   3.763   0.753
 6332SOL    HW119340   2.807   3.768   0.684
 6332SOL    HW219341   2.855   3.694   0.822
 6333SOL     OW19342   3.291   4.897   0.867
 6333SOL    HW119343   3.236   4.813   0.860
 6333SOL    HW219344   3.317   4.926   0.775
 6334SOL     OW19345   3.328   4.314   0.992
 6334SOL    HW119346   3.298   4.219   0.999
 6334SOL    HW219347   3.401   4.330   1.058
 6335SOL     OW19348   2.350   5.109   0.174
 6335SOL    HW119349   2.263   5.094   0.221
 6335SOL    HW219350   2.333   5.135   0.079
 6336SOL     OW19351   3.526   5.004   0.657
 6336SOL    HW119352   3.625   5.012   0.671
 6336SOL    HW219353   3.481   5.088   0.688
 6337SOL     OW19354   2.389   3.980   0.328
 6337SOL    HW119355   2.416   3.921   0.253
 6337SOL    HW219356   2.389   4.075   0.297
 6338SOL     OW19357   3.616   4.947   1.588
 6338SOL    HW119358   3.707   4.908   1.575
 6338SOL    HW219359   3.624   5.043   1.612
 6339SOL     OW19360   2.926   5.071   1.340
 6339SOL    HW119361   2.846   5.048   1.395
 6339SOL    HW219362   3.009   5.045   1.389
 6340SOL     OW19363   3.454   5.353   1.625
 6340SOL    HW119364   3.481   5.387   1.535
 6340SOL    HW219365   3.533   5.315   1.671
 6341SOL     OW19366   2.973   4.919   1.100
 6341SOL    HW119367   2.933   4.963   1.181
 6341SOL    HW219368   2.932   4.956   1.017
 6342SOL     OW19369   3.500   4.823   1.079
 6342SOL    HW119370   3.505   4.904   1.138
 6342SOL    HW219371   3.414   4.825   1.028
 6343SOL     OW19372   2.777   3.813   1.402
 6343SOL    HW119373   2.802   3.793   1.307
 6343SOL    HW219374   2.849   3.869   1.444
 6344SOL     OW19375   2.842   4.840   1.719
 6344SOL    HW119376   2.743   4.846   1.729
 6344SOL    HW219377   2.865   4.760   1.663
 6345SOL     OW19378   2.567   4.774   0.368
 6345SOL    HW119379   2.553   4.781   0.467
 6345SOL    HW219380   2.651   4.723   0.350
 6346SOL     OW19381   2.272   4.537   1.251
 6346SOL    HW119382   2.358   4.549   1.301
 6346SOL    HW219383   2.230   4.450   1.278
 6347SOL     OW19384   3.136   4.110   1.262
 6347SOL    HW119385   3.157   4.184   1.326
 6347SOL    HW219386   3.047   4.127   1.219
 6348SOL     OW19387   2.229   4.824   0.501
 6348SOL    HW119388   2.222   4.907   0.445
 6348SOL    HW219389   2.233   4.744   0.441
 6349SOL     OW19390   2.428   4.261   0.865
 6349SOL    HW119391   2.440   4.327   0.791
 6349SOL    HW219392   2.474   4.295   0.948
 6350SOL     OW19393   3.114   5.072   0.388
 6350SOL    HW119394   3.164   5.149   0.428
 6350SOL    HW219395   3.019   5.074   0.420
 6351SOL     OW19396   3.134   5.169   1.142
 6351SOL    HW119397   3.181   5.182   1.229
 6351SOL    HW219398   3.068   5.095   1.151
 6352SOL     OW19399   3.444   4.363   0.472
 6352SOL    HW119400   3.413   4.424   0.545
 6352SOL    HW219401   3.494   4.415   0.403
 6353SOL     OW19402   2.216   5.234   1.329
 6353SOL    HW119403   2.195   5.190   1.242
 6353SOL    HW219404   2.313   5.260   1.332
 6354SOL     OW19405   2.264   4.475   1.598
 6354SOL    HW119406   2.332   4.530   1.551
 6354SOL    HW219407   2.304   4.387   1.625
 6355SOL     OW19408   3.449   4.503   1.670
 6355SOL    HW119409   3.357   4.541   1.665
 6355SOL    HW219410   3.509   4.550   1.605
 6356SOL     OW19411   2.875   3.829   1.770
 6356SOL    HW119412   2.881   3.914   1.718
 6356SOL    HW219413   2.907   3.753   1.713
 6357SOL     OW19414   2.366   3.774   1.740
 6357SOL    HW119415   2.324   3.717   1.670
 6357SOL    HW219416   2.300   3.843   1.772
 6358SOL     OW19417   2.435   4.594   1.029
 6358SOL    HW119418   2.479   4.683   1.020
 6358SOL    HW219419   2.372   4.594   1.106
 6359SOL     OW19420   3.222   4.586   1.045
 6359SOL    HW119421   3.147   4.586   0.979
 6359SOL    HW219422   3.259   4.494   1.054
 6360SOL     OW19423   3.071   4.249   0.275
 6360SOL    HW119424   3.084   4.165   0.329
 6360SOL    HW219425   3.042   4.323   0.335
 6361SOL     OW19426   2.169   3.937   1.231
 6361SOL    HW119427   2.146   3.974   1.321
 6361SOL    HW219428   2.139   3.842   1.225
 6362SOL     OW19429   1.899   5.034   1.282
 6362SOL    HW119430   1.952   4.985   1.350
 6362SOL    HW219431   1.921   5.132   1.287
 6363SOL     OW19432   2.594   4.358   1.064
 6363SOL    HW119433   2.653   4.332   0.988
 6363SOL    HW219434   2.566   4.454   1.053
 6364SOL     OW19435   3.590   4.659   1.854
 6364SOL    HW119436   3.544   4.652   1.765
 6364SOL    HW219437   3.528   4.703   1.920
 6365SOL     OW19438   2.169   3.787   0.618
 6365SOL    HW119439   2.158   3.881   0.651
 6365SOL    HW219440   2.164   3.724   0.695
 6366SOL     OW19441   2.885   4.490   0.966
 6366SOL    HW119442   2.900   4.511   1.062
 6366SOL    HW219443   2.855   4.395   0.957
 6367SOL     OW19444   2.842   5.297   1.700
 6367SOL    HW119445   2.822   5.341   1.612
 6367SOL    HW219446   2.881   5.206   1.684
 6368SOL     OW19447   3.721   5.242   1.605
 6368SOL    HW119448   3.735   5.269   1.510
 6368SOL    HW219449   3.804   5.264   1.658
 6369SOL     OW19450   2.212   4.622   1.804
 6369SOL    HW119451   2.288   4.666   1.852
 6369SOL    HW219452   2.247   4.575   1.722
 6370SOL     OW19453   2.930   5.057   0.849
 6370SOL    HW119454   2.937   4.973   0.794
 6370SOL    HW219455   2.992   5.126   0.813
 6371SOL     OW19456   2.181   4.534   0.949
 6371SOL    HW119457   2.274   4.570   0.954
 6371SOL    HW219458   2.175   4.449   1.001
 6372SOL     OW19459   2.201   4.233   1.006
 6372SOL    HW119460   2.149   4.150   0.989
 6372SOL    HW219461   2.278   4.238   0.942
 6373SOL     OW19462   3.000   4.104   1.678
 6373SOL    HW119463   2.955   4.167   1.742
 6373SOL    HW219464   3.093   4.135   1.661
 6374SOL     OW19465   3.022   3.931   1.477
 6374SOL    HW119466   3.022   3.995   1.554
 6374SOL    HW219467   3.050   3.979   1.394
 6375SOL     OW19468   1.870   5.050   0.200
 6375SOL    HW119469   1.777   5.071   0.169
 6375SOL    HW219470   1.880   4.951   0.213
 6376SOL     OW19471   1.950   5.525   0.927
 6376SOL    HW119472   1.908   5.439   0.900
 6376SOL    HW219473   2.044   5.528   0.893
 6377SOL     OW19474   2.366   5.292   0.910
 6377SOL    HW119475   2.432   5.366   0.919
 6377SOL    HW219476   2.410   5.213   0.868
 6378SOL     OW19477   2.864   4.520   1.238
 6378SOL    HW119478   2.905   4.488   1.324
 6378SOL    HW219479   2.768   4.493   1.235
 6379SOL     OW19480   1.902   4.268   1.114
 6379SOL    HW119481   1.987   4.235   1.073
 6379SOL    HW219482   1.915   4.283   1.212
 6380SOL     OW19483   2.051   4.244   1.722
 6380SOL    HW119484   2.110   4.204   1.652
 6380SOL    HW219485   1.993   4.315   1.681
 6381SOL     OW19486   3.231   4.674   1.660
 6381SOL    HW119487   3.270   4.763   1.680
 6381SOL    HW219488   3.241   4.654   1.563
 6382SOL     OW19489   2.677   4.296   0.325
 6382SOL    HW119490   2.684   4.207   0.279
 6382SOL    HW219491   2.583   4.330   0.317
 6383SOL     OW19492   3.519   4.328   1.206
 6383SOL    HW119493   3.481   4.259   1.268
 6383SOL    HW219494   3.601   4.292   1.162
 6384SOL     OW19495   2.114   5.288   1.744
 6384SOL    HW119496   2.084   5.345   1.820
 6384SOL    HW219497   2.107   5.191   1.770
 6385SOL     OW19498   2.533   4.188   1.269
 6385SOL    HW119499   2.499   4.099   1.239
 6385SOL    HW219500   2.559   4.242   1.189
 6386SOL     OW19501   2.792   5.402   1.465
 6386SOL    HW119502   2.768   5.384   1.370
 6386SOL    HW219503   2.822   5.496   1.475
 6387SOL     OW19504   2.335   4.224   0.191
 6387SOL    HW119505   2.396   4.304   0.195
 6387SOL    HW219506   2.240   4.255   0.198
 6388SOL     OW19507   2.021   4.861   1.466
 6388SOL    HW119508   2.043   4.800   1.542
 6388SOL    HW219509   2.031   4.812   1.380
 6389SOL     OW19510   3.209   4.783   1.234
 6389SOL    HW119511   3.233   4.720   1.160
 6389SOL    HW219512   3.119   4.823   1.216
 6390SOL     OW19513   3.164   4.579   0.309
 6390SOL    HW119514   3.078   4.548   0.351
 6390SOL    HW219515   3.160   4.565   0.210
 6391SOL     OW19516   3.621   5.471   1.154
 6391SOL    HW119517   3.682   5.501   1.081
 6391SOL    HW219518   3.583   5.382   1.132
 6392SOL     OW19519   3.114   5.455   1.128
 6392SOL    HW119520   3.198   5.460   1.074
 6392SOL    HW219521   3.091   5.359   1.146
 6393SOL     OW19522   1.945   4.982   1.022
 6393SOL    HW119523   1.940   4.981   1.122
 6393SOL    HW219524   1.862   4.941   0.984
 6394SOL     OW19525   2.550   5.386   1.716
 6394SOL    HW119526   2.494   5.467   1.725
 6394SOL    HW219527   2.602   5.390   1.630
 6395SOL     OW19528   2.765   3.810   0.133
 6395SOL    HW119529   2.816   3.811   0.047
 6395SOL    HW219530   2.821   3.768   0.204
 6396SOL     OW19531   3.588   3.859   0.523
 6396SOL    HW119532   3.661   3.842   0.456
 6396SOL    HW219533   3.557   3.772   0.561
 6397SOL     OW19534   3.250   5.297   0.477
 6397SOL    HW119535   3.317   5.309   0.403
 6397SOL    HW219536   3.210   5.386   0.500
 6398SOL     OW19537   1.992   5.518   1.851
 6398SOL    HW119538   1.951   5.444   1.904
 6398SOL    HW219539   2.056   5.569   1.909
 6399SOL     OW19540   3.142   4.651   0.672
 6399SOL    HW119541   3.202   4.570   0.674
 6399SOL    HW219542   3.182   4.720   0.612
 6400SOL     OW19543   2.692   4.997   1.422
 6400SOL    HW119544   2.687   5.030   1.517
 6400SOL    HW219545   2.606   5.016   1.376
 6401SOL     OW19546   2.534   5.340   0.154
 6401SOL    HW119547   2.543   5.350   0.055
 6401SOL    HW219548   2.494   5.251   0.175
 6402SOL     OW19549   3.512   5.444   1.394
 6402SOL    HW119550   3.565   5.454   1.310
 6402SOL    HW219551   3.485   5.534   1.428
 6403SOL     OW19552   3.703   3.899   0.963
 6403SOL    HW119553   3.742   3.814   0.927
 6403SOL    HW219554   3.605   3.901   0.944
 6404SOL     OW19555   2.125   4.050   0.720
 6404SOL    HW119556   2.046   4.101   0.686
 6404SOL    HW219557   2.116   4.035   0.818
 6405SOL     OW19558   3.056   5.336   0.031
 6405SOL    HW119559   3.062   5.243   0.068
 6405SOL    HW219560   2.997   5.336  -0.049
 6406SOL     OW19561   2.684   4.726   1.372
 6406SOL    HW119562   2.724   4.725   1.280
 6406SOL    HW219563   2.694   4.818   1.412
 6407SOL     OW19564   2.778   4.634   0.291
 6407SOL    HW119565   2.841   4.672   0.223
 6407SOL    HW219566   2.818   4.551   0.330
 6408SOL     OW19567   3.366   5.331   0.044
 6408SOL    HW119568   3.274   5.368   0.051
 6408SOL    HW219569   3.404   5.351  -0.046
 6409SOL     OW19570   2.234   5.012   1.490
 6409SOL    HW119571   2.221   5.105   1.456
 6409SOL    HW219572   2.150   4.960   1.477
 6410SOL     OW19573   3.476   5.016   1.289
 6410SOL    HW119574   3.536   5.019   1.369
 6410SOL    HW219575   3.401   5.080   1.302
 6411SOL     OW19576   2.901   4.822   0.696
 6411SOL    HW119577   2.831   4.775   0.750
 6411SOL    HW219578   2.960   4.754   0.653
 6412SOL     OW19579   2.876   3.960   0.971
 6412SOL    HW119580   2.868   3.924   0.878
 6412SOL    HW219581   2.874   3.884   1.036
 6413SOL     OW19582   2.452   5.211   0.491
 6413SOL    HW119583   2.494   5.153   0.421
 6413SOL    HW219584   2.408   5.290   0.447
 6414SOL     OW19585   3.571   4.109   1.381
 6414SOL    HW119586   3.644   4.178   1.385
 6414SOL    HW219587   3.599   4.034   1.322
 6415SOL     OW19588   2.117   5.072   0.290
 6415SOL    HW119589   2.021   5.073   0.263
 6415SOL    HW219590   2.129   5.125   0.374
 6416SOL     OW19591   1.967   4.737   1.726
 6416SOL    HW119592   1.890   4.704   1.780
 6416SOL    HW219593   2.052   4.707   1.768
 6417SOL     OW19594   2.534   3.927   1.489
 6417SOL    HW119595   2.624   3.911   1.449
 6417SOL    HW219596   2.542   3.932   1.588
 6418SOL     OW19597   1.937   4.069   0.033
 6418SOL    HW119598   1.845   4.041   0.004
 6418SOL    HW219599   1.968   4.146  -0.023
 6419SOL     OW19600   3.302   4.580   1.398
 6419SOL    HW119601   3.245   4.632   1.335
 6419SOL    HW219602   3.398   4.592   1.374
 6420SOL     OW19603   1.934   3.890   0.318
 6420SOL    HW119604   1.917   3.973   0.264
 6420SOL    HW219605   2.024   3.853   0.296
 6421SOL     OW19606   3.045   5.059   0.119
 6421SOL    HW119607   2.946   5.048   0.121
 6421SOL    HW219608   3.079   5.074   0.212
 6422SOL     OW19609   2.475   4.566   1.431
 6422SOL    HW119610   2.531   4.647   1.414
 6422SOL    HW219611   2.534   4.486   1.434
 6423SOL     OW19612   3.355   5.491   0.959
 6423SOL    HW119613   3.388   5.555   0.890
 6423SOL    HW219614   3.421   5.485   1.034
 6424SOL     OW19615   2.578   4.289   1.708
 6424SOL    HW119616   2.597   4.354   1.782
 6424SOL    HW219617   2.638   4.209   1.717
 6425SOL     OW19618   3.312   4.944   1.633
 6425SOL    HW119619   3.303   4.934   1.732
 6425SOL    HW219620   3.408   4.937   1.607
 6426SOL     OW19621   2.252   5.465   1.560
 6426SOL    HW119622   2.161   5.506   1.558
 6426SOL    HW219623   2.245   5.371   1.592
 6427SOL     OW19624   3.536   4.607   1.254
 6427SOL    HW119625   3.509   4.518   1.217
 6427SOL    HW219626   3.537   4.675   1.181
 6428SOL     OW19627   3.087   4.049   0.449
 6428SOL    HW119628   3.152   3.975   0.438
 6428SOL    HW219629   3.107   4.099   0.533
 6429SOL     OW19630   2.456   4.469   0.652
 6429SOL    HW119631   2.506   4.554   0.633
 6429SOL    HW219632   2.368   4.471   0.604
 6430SOL     OW19633   3.639   4.066   1.642
 6430SOL    HW119634   3.622   4.097   1.548
 6430SOL    HW219635   3.555   4.029   1.680
 6431SOL     OW19636   3.592   4.658   1.517
 6431SOL    HW119637   3.630   4.749   1.532
 6431SOL    HW219638   3.584   4.641   1.418
 6432SOL     OW19639   2.721   5.098   0.016
 6432SOL    HW119640   2.675   5.113   0.104
 6432SOL    HW219641   2.765   5.183  -0.014
 6433SOL     OW19642   2.523   5.514   0.953
 6433SOL    HW119643   2.477   5.602   0.940
 6433SOL    HW219644   2.622   5.526   0.946
 6434SOL     OW19645   2.721   4.680   0.861
 6434SOL    HW119646   2.775   4.611   0.909
 6434SOL    HW219647   2.689   4.749   0.927
 6435SOL     OW19648   2.945   4.708   0.087
 6435SOL    HW119649   2.922   4.761   0.005
 6435SOL    HW219650   3.026   4.652   0.068
 6436SOL     OW19651   3.723   5.293   0.851
 6436SOL    HW119652   3.652   5.281   0.781
 6436SOL    HW219653   3.724   5.214   0.911
 6437SOL     OW19654   2.083   5.038   1.844
 6437SOL    HW119655   2.018   4.965   1.823
 6437SOL    HW219656   2.087   5.052   1.942
 6438SOL     OW19657   1.941   4.964   0.653
 6438SOL    HW119658   1.940   4.917   0.741
 6438SOL    HW219659   2.023   4.936   0.602
 6439SOL     OW19660   2.534   5.115   1.624
 6439SOL    HW119661   2.456   5.065   1.662
 6439SOL    HW219662   2.531   5.210   1.655
 6440SOL     OW19663   3.686   3.916   1.227
 6440SOL    HW119664   3.682   3.826   1.271
 6440SOL    HW219665   3.689   3.905   1.128
 6441SOL     OW19666   2.290   4.148   0.520
 6441SOL    HW119667   2.320   4.076   0.458
 6441SOL    HW219668   2.251   4.108   0.603
 6442SOL     OW19669   3.567   5.211   1.104
 6442SOL    HW119670   3.474   5.186   1.077
 6442SOL    HW219671   3.593   5.161   1.186
 6443SOL     OW19672   2.179   4.271   1.280
 6443SOL    HW119673   2.217   4.212   1.352
 6443SOL    HW219674   2.219   4.245   1.192
 6444SOL     OW19675   2.674   5.310   0.687
 6444SOL    HW119676   2.706   5.320   0.593
 6444SOL    HW219677   2.595   5.248   0.689
 6445SOL     OW19678   3.286   3.938   1.112
 6445SOL    HW119679   3.338   3.873   1.167
 6445SOL    HW219680   3.237   4.001   1.173
 6446SOL     OW19681   2.863   3.758   1.154
 6446SOL    HW119682   2.800   3.686   1.123
 6446SOL    HW219683   2.956   3.722   1.154
 6447SOL     OW19684   2.632   5.054   0.301
 6447SOL    HW119685   2.586   4.967   0.318
 6447SOL    HW219686   2.723   5.051   0.342
 6448SOL     OW19687   2.480   5.291   1.284
 6448SOL    HW119688   2.475   5.373   1.341
 6448SOL    HW219689   2.569   5.288   1.239
 6449SOL     OW19690   3.214   3.776   0.168
 6449SOL    HW119691   3.249   3.735   0.084
 6449SOL    HW219692   3.124   3.738   0.188
 6450SOL     OW19693   3.162   4.177   0.691
 6450SOL    HW119694   3.103   4.257   0.695
 6450SOL    HW219695   3.177   4.142   0.784
 6451SOL     OW19696   3.455   3.945   0.882
 6451SOL    HW119697   3.371   3.944   0.936
 6451SOL    HW219698   3.457   4.028   0.826
 6452SOL     OW19699   1.901   4.801   0.300
 6452SOL    HW119700   2.000   4.790   0.291
 6452SOL    HW219701   1.861   4.715   0.332
 6453SOL     OW19702   2.737   5.370   0.337
 6453SOL    HW119703   2.660   5.335   0.283
 6453SOL    HW219704   2.705   5.441   0.399
 6454SOL     OW19705   2.092   4.352   1.975
 6454SOL    HW119706   1.999   4.350   2.012
 6454SOL    HW219707   2.093   4.313   1.883
 6455SOL     OW19708   2.087   3.999   2.858
 6455SOL    HW119709   2.122   3.982   2.950
 6455SOL    HW219710   1.999   3.954   2.846
 6456SOL     OW19711   1.881   4.092   2.509
 6456SOL    HW119712   1.799   4.135   2.548
 6456SOL    HW219713   1.853   4.019   2.446
 6457SOL     OW19714   2.431   4.999   3.027
 6457SOL    HW119715   2.338   4.992   2.990
 6457SOL    HW219716   2.442   5.088   3.071
 6458SOL     OW19717   3.417   5.235   2.565
 6458SOL    HW119718   3.360   5.219   2.646
 6458SOL    HW219719   3.358   5.245   2.485
 6459SOL     OW19720   2.997   4.427   2.579
 6459SOL    HW119721   3.054   4.505   2.554
 6459SOL    HW219722   2.937   4.453   2.655
 6460SOL     OW19723   3.617   4.331   2.093
 6460SOL    HW119724   3.605   4.318   1.994
 6460SOL    HW219725   3.587   4.250   2.142
 6461SOL     OW19726   2.630   4.868   2.885
 6461SOL    HW119727   2.552   4.885   2.945
 6461SOL    HW219728   2.664   4.955   2.849
 6462SOL     OW19729   2.712   4.522   3.685
 6462SOL    HW119730   2.708   4.598   3.750
 6462SOL    HW219731   2.734   4.558   3.594
 6463SOL     OW19732   2.547   4.736   2.527
 6463SOL    HW119733   2.616   4.720   2.597
 6463SOL    HW219734   2.474   4.793   2.565
 6464SOL     OW19735   2.548   4.885   3.665
 6464SOL    HW119736   2.608   4.964   3.679
 6464SOL    HW219737   2.462   4.916   3.624
 6465SOL     OW19738   2.197   5.159   2.923
 6465SOL    HW119739   2.119   5.128   2.870
 6465SOL    HW219740   2.255   5.217   2.866
 6466SOL     OW19741   3.322   5.229   3.201
 6466SOL    HW119742   3.346   5.323   3.227
 6466SOL    HW219743   3.306   5.175   3.283
 6467SOL     OW19744   2.300   4.116   3.361
 6467SOL    HW119745   2.382   4.060   3.370
 6467SOL    HW219746   2.219   4.058   3.365
 6468SOL     OW19747   3.465   4.171   2.599
 6468SOL    HW119748   3.391   4.217   2.549
 6468SOL    HW219749   3.516   4.239   2.652
 6469SOL     OW19750   2.093   5.437   2.345
 6469SOL    HW119751   2.127   5.514   2.399
 6469SOL    HW219752   2.137   5.437   2.255
 6470SOL     OW19753   2.989   5.065   3.552
 6470SOL    HW119754   3.036   5.065   3.640
 6470SOL    HW219755   2.941   4.978   3.541
 6471SOL     OW19756   2.092   5.158   2.400
 6471SOL    HW119757   2.066   5.254   2.400
 6471SOL    HW219758   2.021   5.104   2.445
 6472SOL     OW19759   2.102   4.815   2.748
 6472SOL    HW119760   2.116   4.731   2.800
 6472SOL    HW219761   2.047   4.879   2.803
 6473SOL     OW19762   2.482   5.510   3.301
 6473SOL    HW119763   2.390   5.493   3.336
 6473SOL    HW219764   2.510   5.602   3.327
 6474SOL     OW19765   2.468   4.688   1.985
 6474SOL    HW119766   2.475   4.772   1.931
 6474SOL    HW219767   2.514   4.701   2.073
 6475SOL     OW19768   3.456   3.838   3.342
 6475SOL    HW119769   3.438   3.905   3.270
 6475SOL    HW219770   3.453   3.884   3.431
 6476SOL     OW19771   1.984   4.367   2.425
 6476SOL    HW119772   1.939   4.279   2.442
 6476SOL    HW219773   1.983   4.421   2.509
 6477SOL     OW19774   3.704   5.491   2.221
 6477SOL    HW119775   3.758   5.462   2.301
 6477SOL    HW219776   3.734   5.581   2.192
 6478SOL     OW19777   1.889   5.320   1.979
 6478SOL    HW119778   1.870   5.224   2.000
 6478SOL    HW219779   1.856   5.378   2.054
 6479SOL     OW19780   3.551   4.646   2.474
 6479SOL    HW119781   3.646   4.617   2.482
 6479SOL    HW219782   3.543   4.711   2.399
 6480SOL     OW19783   3.503   4.832   2.294
 6480SOL    HW119784   3.589   4.834   2.242
 6480SOL    HW219785   3.517   4.879   2.382
 6481SOL     OW19786   1.975   4.461   3.459
 6481SOL    HW119787   2.063   4.448   3.504
 6481SOL    HW219788   1.962   4.558   3.437
 6482SOL     OW19789   2.475   5.089   2.588
 6482SOL    HW119790   2.426   5.002   2.597
 6482SOL    HW219791   2.452   5.132   2.501
 6483SOL     OW19792   3.155   4.952   3.285
 6483SOL    HW119793   3.192   4.879   3.227
 6483SOL    HW219794   3.207   4.957   3.370
 6484SOL     OW19795   2.671   3.728   2.364
 6484SOL    HW119796   2.711   3.819   2.355
 6484SOL    HW219797   2.571   3.736   2.370
 6485SOL     OW19798   2.059   4.700   3.126
 6485SOL    HW119799   2.148   4.655   3.112
 6485SOL    HW219800   1.986   4.635   3.107
 6486SOL     OW19801   3.387   4.723   2.052
 6486SOL    HW119802   3.324   4.647   2.065
 6486SOL    HW219803   3.435   4.741   2.138
 6487SOL     OW19804   3.049   5.516   3.478
 6487SOL    HW119805   3.073   5.576   3.402
 6487SOL    HW219806   3.056   5.421   3.448
 6488SOL     OW19807   2.179   3.975   3.663
 6488SOL    HW119808   2.250   4.046   3.669
 6488SOL    HW219809   2.091   4.014   3.691
 6489SOL     OW19810   3.328   5.141   2.815
 6489SOL    HW119811   3.269   5.147   2.895
 6489SOL    HW219812   3.313   5.053   2.769
 6490SOL     OW19813   3.529   5.438   2.434
 6490SOL    HW119814   3.488   5.415   2.346
 6490SOL    HW219815   3.511   5.364   2.499
 6491SOL     OW19816   2.460   4.453   2.132
 6491SOL    HW119817   2.484   4.522   2.064
 6491SOL    HW219818   2.382   4.486   2.186
 6492SOL     OW19819   3.143   4.069   2.806
 6492SOL    HW119820   3.057   4.019   2.793
 6492SOL    HW219821   3.205   4.015   2.862
 6493SOL     OW19822   3.438   5.386   2.169
 6493SOL    HW119823   3.527   5.432   2.172
 6493SOL    HW219824   3.417   5.362   2.074
 6494SOL     OW19825   2.669   4.329   3.327
 6494SOL    HW119826   2.622   4.326   3.416
 6494SOL    HW219827   2.618   4.274   3.261
 6495SOL     OW19828   3.256   4.193   3.536
 6495SOL    HW119829   3.236   4.236   3.624
 6495SOL    HW219830   3.334   4.131   3.545
 6496SOL     OW19831   2.835   4.614   3.434
 6496SOL    HW119832   2.881   4.530   3.405
 6496SOL    HW219833   2.779   4.648   3.359
 6497SOL     OW19834   2.853   4.134   3.104
 6497SOL    HW119835   2.776   4.168   3.158
 6497SOL    HW219836   2.819   4.083   3.025
 6498SOL     OW19837   2.903   4.425   2.291
 6498SOL    HW119838   2.929   4.421   2.387
 6498SOL    HW219839   2.818   4.374   2.277
 6499SOL     OW19840   1.938   4.535   2.651
 6499SOL    HW119841   2.037   4.523   2.660
 6499SOL    HW219842   1.914   4.630   2.672
 6500SOL     OW19843   1.992   5.545   3.433
 6500SOL    HW119844   1.982   5.530   3.532
 6500SOL    HW219845   1.906   5.581   3.397
 6501SOL     OW19846   2.727   4.072   2.057
 6501SOL    HW119847   2.786   4.135   2.008
 6501SOL    HW219848   2.746   3.978   2.028
 6502SOL     OW19849   3.581   4.309   3.693
 6502SOL    HW119850   3.555   4.398   3.657
 6502SOL    HW219851   3.579   4.241   3.620
 6503SOL     OW19852   3.224   4.868   2.407
 6503SOL    HW119853   3.307   4.839   2.359
 6503SOL    HW219854   3.175   4.935   2.351
 6504SOL     OW19855   2.412   3.920   2.747
 6504SOL    HW119856   2.407   3.915   2.847
 6504SOL    HW219857   2.414   4.016   2.718
 6505SOL     OW19858   2.870   5.180   2.339
 6505SOL    HW119859   2.824   5.252   2.287
 6505SOL    HW219860   2.866   5.200   2.437
 6506SOL     OW19861   2.213   5.525   2.715
 6506SOL    HW119862   2.263   5.439   2.721
 6506SOL    HW219863   2.278   5.602   2.712
 6507SOL     OW19864   3.657   4.790   2.735
 6507SOL    HW119865   3.595   4.775   2.659
 6507SOL    HW219866   3.605   4.801   2.820
 6508SOL     OW19867   3.089   5.274   3.368
 6508SOL    HW119868   3.095   5.197   3.432
 6508SOL    HW219869   3.037   5.248   3.288
 6509SOL     OW19870   2.183   4.667   2.104
 6509SOL    HW119871   2.265   4.706   2.062
 6509SOL    HW219872   2.156   4.585   2.055
 6510SOL     OW19873   3.320   4.459   2.590
 6510SOL    HW119874   3.315   4.394   2.665
 6510SOL    HW219875   3.400   4.518   2.603
 6511SOL     OW19876   2.323   4.990   3.589
 6511SOL    HW119877   2.273   4.991   3.503
 6511SOL    HW219878   2.260   4.972   3.665
 6512SOL     OW19879   2.973   5.500   2.099
 6512SOL    HW119880   2.913   5.438   2.149
 6512SOL    HW219881   3.004   5.456   2.014
 6513SOL     OW19882   2.064   4.009   3.360
 6513SOL    HW119883   1.984   4.069   3.347
 6513SOL    HW219884   2.054   3.960   3.446
 6514SOL     OW19885   3.494   5.101   1.943
 6514SOL    HW119886   3.462   5.195   1.933
 6514SOL    HW219887   3.418   5.038   1.931
 6515SOL     OW19888   2.326   5.467   2.185
 6515SOL    HW119889   2.359   5.506   2.271
 6515SOL    HW219890   2.402   5.460   2.120
 6516SOL     OW19891   3.262   3.831   2.288
 6516SOL    HW119892   3.238   3.794   2.198
 6516SOL    HW219893   3.361   3.847   2.292
 6517SOL     OW19894   2.111   5.509   3.103
 6517SOL    HW119895   2.168   5.444   3.153
 6517SOL    HW219896   2.095   5.476   3.010
 6518SOL     OW19897   2.802   5.422   2.766
 6518SOL    HW119898   2.882   5.365   2.787
 6518SOL    HW219899   2.753   5.382   2.689
 6519SOL     OW19900   2.244   4.424   2.342
 6519SOL    HW119901   2.289   4.334   2.339
 6519SOL    HW219902   2.150   4.413   2.375
 6520SOL     OW19903   3.409   3.946   3.591
 6520SOL    HW119904   3.404   3.983   3.683
 6520SOL    HW219905   3.337   3.877   3.579
 6521SOL     OW19906   2.476   3.846   1.979
 6521SOL    HW119907   2.574   3.824   1.986
 6521SOL    HW219908   2.445   3.829   1.886
 6522SOL     OW19909   2.643   3.988   3.611
 6522SOL    HW119910   2.710   3.927   3.654
 6522SOL    HW219911   2.570   4.007   3.676
 6523SOL     OW19912   2.750   5.238   3.057
 6523SOL    HW119913   2.727   5.213   2.963
 6523SOL    HW219914   2.811   5.169   3.096
 6524SOL     OW19915   3.213   4.314   3.295
 6524SOL    HW119916   3.241   4.271   3.380
 6524SOL    HW219917   3.238   4.410   3.296
 6525SOL     OW19918   2.665   5.126   2.786
 6525SOL    HW119919   2.755   5.140   2.744
 6525SOL    HW219920   2.594   5.128   2.715
 6526SOL     OW19921   2.784   4.227   2.761
 6526SOL    HW119922   2.759   4.218   2.665
 6526SOL    HW219923   2.832   4.145   2.792
 6527SOL     OW19924   2.401   3.788   2.374
 6527SOL    HW119925   2.320   3.789   2.432
 6527SOL    HW219926   2.404   3.871   2.319
 6528SOL     OW19927   3.296   4.912   1.903
 6528SOL    HW119928   3.328   4.836   1.960
 6528SOL    HW219929   3.204   4.939   1.933
 6529SOL     OW19930   2.159   3.759   2.033
 6529SOL    HW119931   2.208   3.843   2.012
 6529SOL    HW219932   2.221   3.694   2.078
 6530SOL     OW19933   2.797   3.960   2.342
 6530SOL    HW119934   2.749   4.001   2.264
 6530SOL    HW219935   2.896   3.958   2.323
 6531SOL     OW19936   2.938   4.407   3.326
 6531SOL    HW119937   2.858   4.346   3.329
 6531SOL    HW219938   3.019   4.354   3.302
 6532SOL     OW19939   3.089   5.294   2.655
 6532SOL    HW119940   3.110   5.368   2.590
 6532SOL    HW219941   3.157   5.294   2.728
 6533SOL     OW19942   2.321   4.876   2.603
 6533SOL    HW119943   2.250   4.849   2.668
 6533SOL    HW219944   2.295   4.848   2.510
 6534SOL     OW19945   3.133   5.521   2.453
 6534SOL    HW119946   3.177   5.585   2.389
 6534SOL    HW219947   3.083   5.573   2.523
 6535SOL     OW19948   2.894   4.273   1.878
 6535SOL    HW119949   2.853   4.355   1.839
 6535SOL    HW219950   2.958   4.299   1.951
 6536SOL     OW19951   1.940   4.280   3.248
 6536SOL    HW119952   2.032   4.279   3.207
 6536SOL    HW219953   1.934   4.354   3.315
 6537SOL     OW19954   2.423   3.946   3.009
 6537SOL    HW119955   2.461   3.862   3.046
 6537SOL    HW219956   2.335   3.965   3.053
 6538SOL     OW19957   2.728   4.178   2.504
 6538SOL    HW119958   2.696   4.250   2.442
 6538SOL    HW219959   2.752   4.097   2.451
 6539SOL     OW19960   2.879   3.763   2.615
 6539SOL    HW119961   2.807   3.768   2.546
 6539SOL    HW219962   2.855   3.694   2.684
 6540SOL     OW19963   3.291   4.897   2.729
 6540SOL    HW119964   3.236   4.813   2.722
 6540SOL    HW219965   3.317   4.926   2.637
 6541SOL     OW19966   3.328   4.314   2.854
 6541SOL    HW119967   3.298   4.219   2.861
 6541SOL    HW219968   3.401   4.330   2.920
 6542SOL     OW19969   3.719   4.557   2.239
 6542SOL    HW119970   3.761   4.493   2.303
 6542SOL    HW219971   3.681   4.506   2.161
 6543SOL     OW19972   2.350   5.109   2.036
 6543SOL    HW119973   2.263   5.094   2.083
 6543SOL    HW219974   2.333   5.135   1.941
 6544SOL     OW19975   3.526   5.004   2.519
 6544SOL    HW119976   3.625   5.012   2.533
 6544SOL    HW219977   3.481   5.088   2.550
 6545SOL     OW19978   3.252   4.299   1.940
 6545SOL    HW119979   3.198   4.278   2.021
 6545SOL    HW219980   3.343   4.258   1.949
 6546SOL     OW19981   2.389   3.980   2.190
 6546SOL    HW119982   2.416   3.921   2.115
 6546SOL    HW219983   2.389   4.075   2.159
 6547SOL     OW19984   3.616   4.947   3.450
 6547SOL    HW119985   3.707   4.908   3.437
 6547SOL    HW219986   3.624   5.043   3.474
 6548SOL     OW19987   2.926   5.071   3.202
 6548SOL    HW119988   2.846   5.048   3.257
 6548SOL    HW219989   3.009   5.045   3.251
 6549SOL     OW19990   3.454   5.353   3.487
 6549SOL    HW119991   3.481   5.387   3.397
 6549SOL    HW219992   3.533   5.315   3.533
 6550SOL     OW19993   2.973   4.919   2.962
 6550SOL    HW119994   2.933   4.963   3.043
 6550SOL    HW219995   2.932   4.956   2.879
 6551SOL     OW19996   3.500   4.823   2.941
 6551SOL    HW119997   3.505   4.904   3.000
 6551SOL    HW219998   3.414   4.825   2.890
 6552SOL     OW19999   2.777   3.813   3.264
 6552SOL    HW120000   2.802   3.793   3.169
 6552SOL    HW220001   2.849   3.869   3.306
 6553SOL     OW20002   2.842   4.840   3.581
 6553SOL    HW120003   2.743   4.846   3.591
 6553SOL    HW220004   2.865   4.760   3.525
 6554SOL     OW20005   2.567   4.774   2.230
 6554SOL    HW120006   2.553   4.781   2.329
 6554SOL    HW220007   2.651   4.723   2.212
 6555SOL     OW20008   2.272   4.537   3.113
 6555SOL    HW120009   2.358   4.549   3.163
 6555SOL    HW220010   2.230   4.450   3.140
 6556SOL     OW20011   3.136   4.110   3.124
 6556SOL    HW120012   3.157   4.184   3.188
 6556SOL    HW220013   3.047   4.127   3.081
 6557SOL     OW20014   1.926   5.288   3.193
 6557SOL    HW120015   1.880   5.370   3.159
 6557SOL    HW220016   2.024   5.307   3.202
 6558SOL     OW20017   2.229   4.824   2.363
 6558SOL    HW120018   2.222   4.907   2.307
 6558SOL    HW220019   2.233   4.744   2.303
 6559SOL     OW20020   2.428   4.261   2.727
 6559SOL    HW120021   2.440   4.327   2.653
 6559SOL    HW220022   2.474   4.295   2.810
 6560SOL     OW20023   3.114   5.072   2.250
 6560SOL    HW120024   3.164   5.149   2.290
 6560SOL    HW220025   3.019   5.074   2.282
 6561SOL     OW20026   3.134   5.169   3.004
 6561SOL    HW120027   3.181   5.182   3.091
 6561SOL    HW220028   3.068   5.095   3.013
 6562SOL     OW20029   3.444   4.363   2.334
 6562SOL    HW120030   3.413   4.424   2.407
 6562SOL    HW220031   3.494   4.415   2.265
 6563SOL     OW20032   2.216   5.234   3.191
 6563SOL    HW120033   2.195   5.190   3.104
 6563SOL    HW220034   2.313   5.260   3.194
 6564SOL     OW20035   2.264   4.475   3.460
 6564SOL    HW120036   2.332   4.530   3.413
 6564SOL    HW220037   2.304   4.387   3.487
 6565SOL     OW20038   3.449   4.503   3.532
 6565SOL    HW120039   3.357   4.541   3.527
 6565SOL    HW220040   3.509   4.550   3.467
 6566SOL     OW20041   2.875   3.829   3.632
 6566SOL    HW120042   2.881   3.914   3.580
 6566SOL    HW220043   2.907   3.753   3.575
 6567SOL     OW20044   2.366   3.774   3.602
 6567SOL    HW120045   2.324   3.717   3.532
 6567SOL    HW220046   2.300   3.843   3.634
 6568SOL     OW20047   2.435   4.594   2.891
 6568SOL    HW120048   2.479   4.683   2.882
 6568SOL    HW220049   2.372   4.594   2.968
 6569SOL     OW20050   3.222   4.586   2.907
 6569SOL    HW120051   3.147   4.586   2.841
 6569SOL    HW220052   3.259   4.494   2.916
 6570SOL     OW20053   3.071   4.249   2.137
 6570SOL    HW120054   3.084   4.165   2.191
 6570SOL    HW220055   3.042   4.323   2.197
 6571SOL     OW20056   2.169   3.937   3.093
 6571SOL    HW120057   2.146   3.974   3.183
 6571SOL    HW220058   2.139   3.842   3.087
 6572SOL     OW20059   1.899   5.034   3.144
 6572SOL    HW120060   1.952   4.985   3.212
 6572SOL    HW220061   1.921   5.132   3.149
 6573SOL     OW20062   2.594   4.358   2.926
 6573SOL    HW120063   2.653   4.332   2.850
 6573SOL    HW220064   2.566   4.454   2.915
 6574SOL     OW20065   3.590   4.659   3.716
 6574SOL    HW120066   3.544   4.652   3.627
 6574SOL    HW220067   3.528   4.703   3.782
 6575SOL     OW20068   2.169   3.787   2.480
 6575SOL    HW120069   2.158   3.881   2.513
 6575SOL    HW220070   2.164   3.724   2.557
 6576SOL     OW20071   3.484   4.091   2.236
 6576SOL    HW120072   3.486   4.015   2.300
 6576SOL    HW220073   3.436   4.168   2.276
 6577SOL     OW20074   2.885   4.490   2.828
 6577SOL    HW120075   2.900   4.511   2.924
 6577SOL    HW220076   2.855   4.395   2.819
 6578SOL     OW20077   2.842   5.297   3.562
 6578SOL    HW120078   2.822   5.341   3.474
 6578SOL    HW220079   2.881   5.206   3.546
 6579SOL     OW20080   3.721   5.242   3.467
 6579SOL    HW120081   3.735   5.269   3.372
 6579SOL    HW220082   3.804   5.264   3.520
 6580SOL     OW20083   2.212   4.622   3.666
 6580SOL    HW120084   2.288   4.666   3.714
 6580SOL    HW220085   2.247   4.575   3.584
 6581SOL     OW20086   3.402   3.998   1.987
 6581SOL    HW120087   3.341   3.923   2.010
 6581SOL    HW220088   3.424   4.050   2.070
 6582SOL     OW20089   3.165   4.562   1.904
 6582SOL    HW120090   3.199   4.469   1.919
 6582SOL    HW220091   3.183   4.589   1.809
 6583SOL     OW20092   2.930   5.057   2.711
 6583SOL    HW120093   2.937   4.973   2.656
 6583SOL    HW220094   2.992   5.126   2.675
 6584SOL     OW20095   2.181   4.534   2.811
 6584SOL    HW120096   2.274   4.570   2.816
 6584SOL    HW220097   2.175   4.449   2.863
 6585SOL     OW20098   2.201   4.233   2.868
 6585SOL    HW120099   2.149   4.150   2.851
 6585SOL    HW220100   2.278   4.238   2.804
 6586SOL     OW20101   3.000   4.104   3.540
 6586SOL    HW120102   2.955   4.167   3.604
 6586SOL    HW220103   3.093   4.135   3.523
 6587SOL     OW20104   3.022   3.931   3.339
 6587SOL    HW120105   3.022   3.995   3.416
 6587SOL    HW220106   3.050   3.979   3.256
 6588SOL     OW20107   1.870   5.050   2.062
 6588SOL    HW120108   1.777   5.071   2.031
 6588SOL    HW220109   1.880   4.951   2.075
 6589SOL     OW20110   1.950   5.525   2.789
 6589SOL    HW120111   1.908   5.439   2.762
 6589SOL    HW220112   2.044   5.528   2.755
 6590SOL     OW20113   2.366   5.292   2.772
 6590SOL    HW120114   2.432   5.366   2.781
 6590SOL    HW220115   2.410   5.213   2.730
 6591SOL     OW20116   2.864   4.520   3.100
 6591SOL    HW120117   2.905   4.488   3.186
 6591SOL    HW220118   2.768   4.493   3.097
 6592SOL     OW20119   1.902   4.268   2.976
 6592SOL    HW120120   1.987   4.235   2.935
 6592SOL    HW220121   1.915   4.283   3.074
 6593SOL     OW20122   2.051   4.244   3.584
 6593SOL    HW120123   2.110   4.204   3.514
 6593SOL    HW220124   1.993   4.315   3.543
 6594SOL     OW20125   3.231   4.674   3.522
 6594SOL    HW120126   3.270   4.763   3.542
 6594SOL    HW220127   3.241   4.654   3.425
 6595SOL     OW20128   2.677   4.296   2.187
 6595SOL    HW120129   2.684   4.207   2.141
 6595SOL    HW220130   2.583   4.330   2.179
 6596SOL     OW20131   3.519   4.328   3.068
 6596SOL    HW120132   3.481   4.259   3.130
 6596SOL    HW220133   3.601   4.292   3.024
 6597SOL     OW20134   2.114   5.288   3.606
 6597SOL    HW120135   2.084   5.345   3.682
 6597SOL    HW220136   2.107   5.191   3.632
 6598SOL     OW20137   2.533   4.188   3.131
 6598SOL    HW120138   2.499   4.099   3.101
 6598SOL    HW220139   2.559   4.242   3.051
 6599SOL     OW20140   2.792   5.402   3.327
 6599SOL    HW120141   2.768   5.384   3.232
 6599SOL    HW220142   2.822   5.496   3.337
 6600SOL     OW20143   2.335   4.224   2.053
 6600SOL    HW120144   2.396   4.304   2.057
 6600SOL    HW220145   2.240   4.255   2.060
 6601SOL     OW20146   2.021   4.861   3.328
 6601SOL    HW120147   2.043   4.800   3.404
 6601SOL    HW220148   2.031   4.812   3.242
 6602SOL     OW20149   3.209   4.783   3.096
 6602SOL    HW120150   3.233   4.720   3.022
 6602SOL    HW220151   3.119   4.823   3.078
 6603SOL     OW20152   3.164   4.579   2.171
 6603SOL    HW120153   3.078   4.548   2.213
 6603SOL    HW220154   3.160   4.565   2.072
 6604SOL     OW20155   3.621   5.471   3.016
 6604SOL    HW120156   3.682   5.501   2.943
 6604SOL    HW220157   3.583   5.382   2.994
 6605SOL     OW20158   3.114   5.455   2.990
 6605SOL    HW120159   3.198   5.460   2.936
 6605SOL    HW220160   3.091   5.359   3.008
 6606SOL     OW20161   1.945   4.982   2.884
 6606SOL    HW120162   1.940   4.981   2.984
 6606SOL    HW220163   1.862   4.941   2.846
 6607SOL     OW20164   2.550   5.386   3.578
 6607SOL    HW120165   2.494   5.467   3.587
 6607SOL    HW220166   2.602   5.390   3.492
 6608SOL     OW20167   3.588   3.859   2.385
 6608SOL    HW120168   3.661   3.842   2.318
 6608SOL    HW220169   3.557   3.772   2.423
 6609SOL     OW20170   3.250   5.297   2.339
 6609SOL    HW120171   3.317   5.309   2.265
 6609SOL    HW220172   3.210   5.386   2.362
 6610SOL     OW20173   1.992   5.518   3.713
 6610SOL    HW120174   1.951   5.444   3.766
 6610SOL    HW220175   2.056   5.569   3.771
 6611SOL     OW20176   3.142   4.651   2.534
 6611SOL    HW120177   3.202   4.570   2.536
 6611SOL    HW220178   3.182   4.720   2.474
 6612SOL     OW20179   2.692   4.997   3.284
 6612SOL    HW120180   2.687   5.030   3.379
 6612SOL    HW220181   2.606   5.016   3.238
 6613SOL     OW20182   2.534   5.340   2.016
 6613SOL    HW120183   2.543   5.350   1.917
 6613SOL    HW220184   2.494   5.251   2.037
 6614SOL     OW20185   3.512   5.444   3.256
 6614SOL    HW120186   3.565   5.454   3.172
 6614SOL    HW220187   3.485   5.534   3.290
 6615SOL     OW20188   3.703   3.899   2.825
 6615SOL    HW120189   3.742   3.814   2.789
 6615SOL    HW220190   3.605   3.901   2.806
 6616SOL     OW20191   2.125   4.050   2.582
 6616SOL    HW120192   2.046   4.101   2.548
 6616SOL    HW220193   2.116   4.035   2.680
 6617SOL     OW20194   3.056   5.336   1.893
 6617SOL    HW120195   3.062   5.243   1.930
 6617SOL    HW220196   2.997   5.336   1.813
 6618SOL     OW20197   2.684   4.726   3.234
 6618SOL    HW120198   2.724   4.725   3.142
 6618SOL    HW220199   2.694   4.818   3.274
 6619SOL     OW20200   2.778   4.634   2.153
 6619SOL    HW120201   2.841   4.672   2.085
 6619SOL    HW220202   2.818   4.551   2.192
 6620SOL     OW20203   3.366   5.331   1.906
 6620SOL    HW120204   3.274   5.368   1.913
 6620SOL    HW220205   3.404   5.351   1.816
 6621SOL     OW20206   2.234   5.012   3.352
 6621SOL    HW120207   2.221   5.105   3.318
 6621SOL    HW220208   2.150   4.960   3.339
 6622SOL     OW20209   3.476   5.016   3.151
 6622SOL    HW120210   3.536   5.019   3.231
 6622SOL    HW220211   3.401   5.080   3.164
 6623SOL     OW20212   2.901   4.822   2.558
 6623SOL    HW120213   2.831   4.775   2.612
 6623SOL    HW220214   2.960   4.754   2.515
 6624SOL     OW20215   2.876   3.960   2.833
 6624SOL    HW120216   2.868   3.924   2.740
 6624SOL    HW220217   2.874   3.884   2.898
 6625SOL     OW20218   2.452   5.211   2.353
 6625SOL    HW120219   2.494   5.153   2.283
 6625SOL    HW220220   2.408   5.290   2.309
 6626SOL     OW20221   3.571   4.109   3.243
 6626SOL    HW120222   3.644   4.178   3.247
 6626SOL    HW220223   3.599   4.034   3.184
 6627SOL     OW20224   2.117   5.072   2.152
 6627SOL    HW120225   2.021   5.073   2.125
 6627SOL    HW220226   2.129   5.125   2.236
 6628SOL     OW20227   1.967   4.737   3.588
 6628SOL    HW120228   1.890   4.704   3.642
 6628SOL    HW220229   2.052   4.707   3.630
 6629SOL     OW20230   2.534   3.927   3.351
 6629SOL    HW120231   2.624   3.911   3.311
 6629SOL    HW220232   2.542   3.932   3.450
 6630SOL     OW20233   1.937   4.069   1.895
 6630SOL    HW120234   1.845   4.041   1.866
 6630SOL    HW220235   1.968   4.146   1.839
 6631SOL     OW20236   3.302   4.580   3.260
 6631SOL    HW120237   3.245   4.632   3.197
 6631SOL    HW220238   3.398   4.592   3.236
 6632SOL     OW20239   1.934   3.890   2.180
 6632SOL    HW120240   1.917   3.973   2.126
 6632SOL    HW220241   2.024   3.853   2.158
 6633SOL     OW20242   3.045   5.059   1.981
 6633SOL    HW120243   2.946   5.048   1.983
 6633SOL    HW220244   3.079   5.074   2.074
 6634SOL     OW20245   2.475   4.566   3.293
 6634SOL    HW120246   2.531   4.647   3.276
 6634SOL    HW220247   2.534   4.486   3.296
 6635SOL     OW20248   3.355   5.491   2.821
 6635SOL    HW120249   3.388   5.555   2.752
 6635SOL    HW220250   3.421   5.485   2.896
 6636SOL     OW20251   2.578   4.289   3.570
 6636SOL    HW120252   2.597   4.354   3.644
 6636SOL    HW220253   2.638   4.209   3.579
 6637SOL     OW20254   3.312   4.944   3.495
 6637SOL    HW120255   3.303   4.934   3.594
 6637SOL    HW220256   3.408   4.937   3.469
 6638SOL     OW20257   2.252   5.465   3.422
 6638SOL    HW120258   2.161   5.506   3.420
 6638SOL    HW220259   2.245   5.371   3.454
 6639SOL     OW20260   3.536   4.607   3.116
 6639SOL    HW120261   3.509   4.518   3.079
 6639SOL    HW220262   3.537   4.675   3.043
 6640SOL     OW20263   3.087   4.049   2.311
 6640SOL    HW120264   3.152   3.975   2.300
 6640SOL    HW220265   3.107   4.099   2.395
 6641SOL     OW20266   2.456   4.469   2.514
 6641SOL    HW120267   2.506   4.554   2.495
 6641SOL    HW220268   2.368   4.471   2.466
 6642SOL     OW20269   3.639   4.066   3.504
 6642SOL    HW120270   3.622   4.097   3.410
 6642SOL    HW220271   3.555   4.029   3.542
 6643SOL     OW20272   3.592   4.658   3.379
 6643SOL    HW120273   3.630   4.749   3.394
 6643SOL    HW220274   3.584   4.641   3.280
 6644SOL     OW20275   2.721   5.098   1.878
 6644SOL    HW120276   2.675   5.113   1.966
 6644SOL    HW220277   2.765   5.183   1.848
 6645SOL     OW20278   2.523   5.514   2.815
 6645SOL    HW120279   2.477   5.602   2.802
 6645SOL    HW220280   2.622   5.526   2.808
 6646SOL     OW20281   2.721   4.680   2.723
 6646SOL    HW120282   2.775   4.611   2.771
 6646SOL    HW220283   2.689   4.749   2.789
 6647SOL     OW20284   2.945   4.708   1.949
 6647SOL    HW120285   2.922   4.761   1.867
 6647SOL    HW220286   3.026   4.652   1.930
 6648SOL     OW20287   3.723   5.293   2.713
 6648SOL    HW120288   3.652   5.281   2.643
 6648SOL    HW220289   3.724   5.214   2.773
 6649SOL     OW20290   2.083   5.038   3.706
 6649SOL    HW120291   2.018   4.965   3.685
 6649SOL    HW220292   2.087   5.052   3.804
 6650SOL     OW20293   1.941   4.964   2.515
 6650SOL    HW120294   1.940   4.917   2.603
 6650SOL    HW220295   2.023   4.936   2.464
 6651SOL     OW20296   2.534   5.115   3.486
 6651SOL    HW120297   2.456   5.065   3.524
 6651SOL    HW220298   2.531   5.210   3.517
 6652SOL     OW20299   3.686   3.916   3.089
 6652SOL    HW120300   3.682   3.826   3.133
 6652SOL    HW220301   3.689   3.905   2.990
 6653SOL     OW20302   2.290   4.148   2.382
 6653SOL    HW120303   2.320   4.076   2.320
 6653SOL    HW220304   2.251   4.108   2.465
 6654SOL     OW20305   2.179   4.271   3.142
 6654SOL    HW120306   2.217   4.212   3.214
 6654SOL    HW220307   2.219   4.245   3.054
 6655SOL     OW20308   2.674   5.310   2.549
 6655SOL    HW120309   2.706   5.320   2.455
 6655SOL    HW220310   2.595   5.248   2.551
 6656SOL     OW20311   3.286   3.938   2.974
 6656SOL    HW120312   3.338   3.873   3.029
 6656SOL    HW220313   3.237   4.001   3.035
 6657SOL     OW20314   2.863   3.758   3.016
 6657SOL    HW120315   2.800   3.686   2.985
 6657SOL    HW220316   2.956   3.722   3.016
 6658SOL     OW20317   2.632   5.054   2.163
 6658SOL    HW120318   2.586   4.967   2.180
 6658SOL    HW220319   2.723   5.051   2.204
 6659SOL     OW20320   2.480   5.291   3.146
 6659SOL    HW120321   2.475   5.373   3.203
 6659SOL    HW220322   2.569   5.288   3.101
 6660SOL     OW20323   3.214   3.776   2.030
 6660SOL    HW120324   3.249   3.735   1.946
 6660SOL    HW220325   3.124   3.738   2.050
 6661SOL     OW20326   3.162   4.177   2.553
 6661SOL    HW120327   3.103   4.257   2.557
 6661SOL    HW220328   3.177   4.142   2.646
 6662SOL     OW20329   3.455   3.945   2.744
 6662SOL    HW120330   3.371   3.944   2.798
 6662SOL    HW220331   3.457   4.028   2.688
 6663SOL     OW20332   1.901   4.801   2.162
 6663SOL    HW120333   2.000   4.790   2.153
 6663SOL    HW220334   1.861   4.715   2.194
 6664SOL     OW20335   2.737   5.370   2.199
 6664SOL    HW120336   2.660   5.335   2.145
 6664SOL    HW220337   2.705   5.441   2.261
 6665SOL     OW20338   2.092   4.352   3.837
 6665SOL    HW120339   1.999   4.350   3.874
 6665SOL    HW220340   2.093   4.313   3.745
 6666SOL     OW20341   2.087   3.999   4.720
 6666SOL    HW120342   2.122   3.982   4.812
 6666SOL    HW220343   1.999   3.954   4.708
 6667SOL     OW20344   1.881   4.092   4.371
 6667SOL    HW120345   1.799   4.135   4.410
 6667SOL    HW220346   1.853   4.019   4.308
 6668SOL     OW20347   2.431   4.999   4.889
 6668SOL    HW120348   2.338   4.992   4.852
 6668SOL    HW220349   2.442   5.088   4.933
 6669SOL     OW20350   3.417   5.235   4.427
 6669SOL    HW120351   3.360   5.219   4.508
 6669SOL    HW220352   3.358   5.245   4.347
 6670SOL     OW20353   2.997   4.427   4.441
 6670SOL    HW120354   3.054   4.505   4.416
 6670SOL    HW220355   2.937   4.453   4.517
 6671SOL     OW20356   3.617   4.331   3.955
 6671SOL    HW120357   3.605   4.318   3.856
 6671SOL    HW220358   3.587   4.250   4.004
 6672SOL     OW20359   2.630   4.868   4.747
 6672SOL    HW120360   2.552   4.885   4.807
 6672SOL    HW220361   2.664   4.955   4.711
 6673SOL     OW20362   2.712   4.522   5.547
 6673SOL    HW120363   2.708   4.598   5.612
 6673SOL    HW220364   2.734   4.558   5.456
 6674SOL     OW20365   2.547   4.736   4.389
 6674SOL    HW120366   2.616   4.720   4.459
 6674SOL    HW220367   2.474   4.793   4.427
 6675SOL     OW20368   2.548   4.885   5.527
 6675SOL    HW120369   2.608   4.964   5.541
 6675SOL    HW220370   2.462   4.916   5.486
 6676SOL     OW20371   2.197   5.159   4.785
 6676SOL    HW120372   2.119   5.128   4.732
 6676SOL    HW220373   2.255   5.217   4.728
 6677SOL     OW20374   3.322   5.229   5.063
 6677SOL    HW120375   3.346   5.323   5.089
 6677SOL    HW220376   3.306   5.175   5.145
 6678SOL     OW20377   2.300   4.116   5.223
 6678SOL    HW120378   2.382   4.060   5.232
 6678SOL    HW220379   2.219   4.058   5.227
 6679SOL     OW20380   3.465   4.171   4.461
 6679SOL    HW120381   3.391   4.217   4.411
 6679SOL    HW220382   3.516   4.239   4.514
 6680SOL     OW20383   2.093   5.437   4.207
 6680SOL    HW120384   2.127   5.514   4.261
 6680SOL    HW220385   2.137   5.437   4.117
 6681SOL     OW20386   2.989   5.065   5.414
 6681SOL    HW120387   3.036   5.065   5.502
 6681SOL    HW220388   2.941   4.978   5.403
 6682SOL     OW20389   2.092   5.158   4.262
 6682SOL    HW120390   2.066   5.254   4.262
 6682SOL    HW220391   2.021   5.104   4.307
 6683SOL     OW20392   2.102   4.815   4.610
 6683SOL    HW120393   2.116   4.731   4.662
 6683SOL    HW220394   2.047   4.879   4.665
 6684SOL     OW20395   2.482   5.510   5.163
 6684SOL    HW120396   2.390   5.493   5.198
 6684SOL    HW220397   2.510   5.602   5.189
 6685SOL     OW20398   2.468   4.688   3.847
 6685SOL    HW120399   2.475   4.772   3.793
 6685SOL    HW220400   2.514   4.701   3.935
 6686SOL     OW20401   3.456   3.838   5.204
 6686SOL    HW120402   3.438   3.905   5.132
 6686SOL    HW220403   3.453   3.884   5.293
 6687SOL     OW20404   1.984   4.367   4.287
 6687SOL    HW120405   1.939   4.279   4.304
 6687SOL    HW220406   1.983   4.421   4.371
 6688SOL     OW20407   3.704   5.491   4.083
 6688SOL    HW120408   3.758   5.462   4.163
 6688SOL    HW220409   3.734   5.581   4.054
 6689SOL     OW20410   1.889   5.320   3.841
 6689SOL    HW120411   1.870   5.224   3.862
 6689SOL    HW220412   1.856   5.378   3.916
 6690SOL     OW20413   3.551   4.646   4.336
 6690SOL    HW120414   3.646   4.617   4.344
 6690SOL    HW220415   3.543   4.711   4.261
 6691SOL     OW20416   3.503   4.832   4.156
 6691SOL    HW120417   3.589   4.834   4.104
 6691SOL    HW220418   3.517   4.879   4.244
 6692SOL     OW20419   1.975   4.461   5.321
 6692SOL    HW120420   2.063   4.448   5.366
 6692SOL    HW220421   1.962   4.558   5.299
 6693SOL     OW20422   2.475   5.089   4.450
 6693SOL    HW120423   2.426   5.002   4.459
 6693SOL    HW220424   2.452   5.132   4.363
 6694SOL     OW20425   3.155   4.952   5.147
 6694SOL    HW120426   3.192   4.879   5.089
 6694SOL    HW220427   3.207   4.957   5.232
 6695SOL     OW20428   2.671   3.728   4.226
 6695SOL    HW120429   2.711   3.819   4.217
 6695SOL    HW220430   2.571   3.736   4.232
 6696SOL     OW20431   2.059   4.700   4.988
 6696SOL    HW120432   2.148   4.655   4.974
 6696SOL    HW220433   1.986   4.635   4.969
 6697SOL     OW20434   3.387   4.723   3.914
 6697SOL    HW120435   3.324   4.647   3.927
 6697SOL    HW220436   3.435   4.741   4.000
 6698SOL     OW20437   3.049   5.516   5.340
 6698SOL    HW120438   3.073   5.576   5.264
 6698SOL    HW220439   3.056   5.421   5.310
 6699SOL     OW20440   2.179   3.975   5.525
 6699SOL    HW120441   2.250   4.046   5.531
 6699SOL    HW220442   2.091   4.014   5.553
 6700SOL     OW20443   3.328   5.141   4.677
 6700SOL    HW120444   3.269   5.147   4.757
 6700SOL    HW220445   3.313   5.053   4.631
 6701SOL     OW20446   3.529   5.438   4.296
 6701SOL    HW120447   3.488   5.415   4.208
 6701SOL    HW220448   3.511   5.364   4.361
 6702SOL     OW20449   2.460   4.453   3.994
 6702SOL    HW120450   2.484   4.522   3.926
 6702SOL    HW220451   2.382   4.486   4.048
 6703SOL     OW20452   3.143   4.069   4.668
 6703SOL    HW120453   3.057   4.019   4.655
 6703SOL    HW220454   3.205   4.015   4.724
 6704SOL     OW20455   3.438   5.386   4.031
 6704SOL    HW120456   3.527   5.432   4.034
 6704SOL    HW220457   3.417   5.362   3.936
 6705SOL     OW20458   2.669   4.329   5.189
 6705SOL    HW120459   2.622   4.326   5.278
 6705SOL    HW220460   2.618   4.274   5.123
 6706SOL     OW20461   3.256   4.193   5.398
 6706SOL    HW120462   3.236   4.236   5.486
 6706SOL    HW220463   3.334   4.131   5.407
 6707SOL     OW20464   2.835   4.614   5.296
 6707SOL    HW120465   2.881   4.530   5.267
 6707SOL    HW220466   2.779   4.648   5.221
 6708SOL     OW20467   2.853   4.134   4.966
 6708SOL    HW120468   2.776   4.168   5.020
 6708SOL    HW220469   2.819   4.083   4.887
 6709SOL     OW20470   2.903   4.425   4.153
 6709SOL    HW120471   2.929   4.421   4.249
 6709SOL    HW220472   2.818   4.374   4.139
 6710SOL     OW20473   1.938   4.535   4.513
 6710SOL    HW120474   2.037   4.523   4.522
 6710SOL    HW220475   1.914   4.630   4.534
 6711SOL     OW20476   1.992   5.545   5.295
 6711SOL    HW120477   1.982   5.530   5.394
 6711SOL    HW220478   1.906   5.581   5.259
 6712SOL     OW20479   2.727   4.072   3.919
 6712SOL    HW120480   2.786   4.135   3.870
 6712SOL    HW220481   2.746   3.978   3.890
 6713SOL     OW20482   3.581   4.309   5.555
 6713SOL    HW120483   3.555   4.398   5.519
 6713SOL    HW220484   3.579   4.241   5.482
 6714SOL     OW20485   3.224   4.868   4.269
 6714SOL    HW120486   3.307   4.839   4.221
 6714SOL    HW220487   3.175   4.935   4.213
 6715SOL     OW20488   2.412   3.920   4.609
 6715SOL    HW120489   2.407   3.915   4.709
 6715SOL    HW220490   2.414   4.016   4.580
 6716SOL     OW20491   2.870   5.180   4.201
 6716SOL    HW120492   2.824   5.252   4.149
 6716SOL    HW220493   2.866   5.200   4.299
 6717SOL     OW20494   2.213   5.525   4.577
 6717SOL    HW120495   2.263   5.439   4.583
 6717SOL    HW220496   2.278   5.602   4.574
 6718SOL     OW20497   3.657   4.790   4.597
 6718SOL    HW120498   3.595   4.775   4.521
 6718SOL    HW220499   3.605   4.801   4.682
 6719SOL     OW20500   3.089   5.274   5.230
 6719SOL    HW120501   3.095   5.197   5.294
 6719SOL    HW220502   3.037   5.248   5.150
 6720SOL     OW20503   2.183   4.667   3.966
 6720SOL    HW120504   2.265   4.706   3.924
 6720SOL    HW220505   2.156   4.585   3.917
 6721SOL     OW20506   3.320   4.459   4.452
 6721SOL    HW120507   3.315   4.394   4.527
 6721SOL    HW220508   3.400   4.518   4.465
 6722SOL     OW20509   2.323   4.990   5.451
 6722SOL    HW120510   2.273   4.991   5.365
 6722SOL    HW220511   2.260   4.972   5.527
 6723SOL     OW20512   2.973   5.500   3.961
 6723SOL    HW120513   2.913   5.438   4.011
 6723SOL    HW220514   3.004   5.456   3.876
 6724SOL     OW20515   2.064   4.009   5.222
 6724SOL    HW120516   1.984   4.069   5.209
 6724SOL    HW220517   2.054   3.960   5.308
 6725SOL     OW20518   3.494   5.101   3.805
 6725SOL    HW120519   3.462   5.195   3.795
 6725SOL    HW220520   3.418   5.038   3.793
 6726SOL     OW20521   2.326   5.467   4.047
 6726SOL    HW120522   2.359   5.506   4.133
 6726SOL    HW220523   2.402   5.460   3.982
 6727SOL     OW20524   3.262   3.831   4.150
 6727SOL    HW120525   3.238   3.794   4.060
 6727SOL    HW220526   3.361   3.847   4.154
 6728SOL     OW20527   2.111   5.509   4.965
 6728SOL    HW120528   2.168   5.444   5.015
 6728SOL    HW220529   2.095   5.476   4.872
 6729SOL     OW20530   2.802   5.422   4.628
 6729SOL    HW120531   2.882   5.365   4.649
 6729SOL    HW220532   2.753   5.382   4.551
 6730SOL     OW20533   2.244   4.424   4.204
 6730SOL    HW120534   2.289   4.334   4.201
 6730SOL    HW220535   2.150   4.413   4.237
 6731SOL     OW20536   3.409   3.946   5.453
 6731SOL    HW120537   3.404   3.983   5.545
 6731SOL    HW220538   3.337   3.877   5.441
 6732SOL     OW20539   2.476   3.846   3.841
 6732SOL    HW120540   2.574   3.824   3.848
 6732SOL    HW220541   2.445   3.829   3.748
 6733SOL     OW20542   2.643   3.988   5.473
 6733SOL    HW120543   2.710   3.927   5.516
 6733SOL    HW220544   2.570   4.007   5.538
 6734SOL     OW20545   2.750   5.238   4.919
 6734SOL    HW120546   2.727   5.213   4.825
 6734SOL    HW220547   2.811   5.169   4.958
 6735SOL     OW20548   3.213   4.314   5.157
 6735SOL    HW120549   3.241   4.271   5.242
 6735SOL    HW220550   3.238   4.410   5.158
 6736SOL     OW20551   2.665   5.126   4.648
 6736SOL    HW120552   2.755   5.140   4.606
 6736SOL    HW220553   2.594   5.128   4.577
 6737SOL     OW20554   2.784   4.227   4.623
 6737SOL    HW120555   2.759   4.218   4.527
 6737SOL    HW220556   2.832   4.145   4.654
 6738SOL     OW20557   2.401   3.788   4.236
 6738SOL    HW120558   2.320   3.789   4.294
 6738SOL    HW220559   2.404   3.871   4.181
 6739SOL     OW20560   3.296   4.912   3.765
 6739SOL    HW120561   3.328   4.836   3.822
 6739SOL    HW220562   3.204   4.939   3.795
 6740SOL     OW20563   2.159   3.759   3.895
 6740SOL    HW120564   2.208   3.843   3.874
 6740SOL    HW220565   2.221   3.694   3.940
 6741SOL     OW20566   2.797   3.960   4.204
 6741SOL    HW120567   2.749   4.001   4.126
 6741SOL    HW220568   2.896   3.958   4.185
 6742SOL     OW20569   2.938   4.407   5.188
 6742SOL    HW120570   2.858   4.346   5.191
 6742SOL    HW220571   3.019   4.354   5.164
 6743SOL     OW20572   3.089   5.294   4.517
 6743SOL    HW120573   3.110   5.368   4.452
 6743SOL    HW220574   3.157   5.294   4.590
 6744SOL     OW20575   2.321   4.876   4.465
 6744SOL    HW120576   2.250   4.849   4.530
 6744SOL    HW220577   2.295   4.848   4.372
 6745SOL     OW20578   3.133   5.521   4.315
 6745SOL    HW120579   3.177   5.585   4.251
 6745SOL    HW220580   3.083   5.573   4.385
 6746SOL     OW20581   2.894   4.273   3.740
 6746SOL    HW120582   2.853   4.355   3.701
 6746SOL    HW220583   2.958   4.299   3.813
 6747SOL     OW20584   1.940   4.280   5.110
 6747SOL    HW120585   2.032   4.279   5.069
 6747SOL    HW220586   1.934   4.354   5.177
 6748SOL     OW20587   2.423   3.946   4.871
 6748SOL    HW120588   2.461   3.862   4.908
 6748SOL    HW220589   2.335   3.965   4.915
 6749SOL     OW20590   2.728   4.178   4.366
 6749SOL    HW120591   2.696   4.250   4.304
 6749SOL    HW220592   2.752   4.097   4.313
 6750SOL     OW20593   2.879   3.763   4.477
 6750SOL    HW120594   2.807   3.768   4.408
 6750SOL    HW220595   2.855   3.694   4.546
 6751SOL     OW20596   3.291   4.897   4.591
 6751SOL    HW120597   3.236   4.813   4.584
 6751SOL    HW220598   3.317   4.926   4.499
 6752SOL     OW20599   3.328   4.314   4.716
 6752SOL    HW120600   3.298   4.219   4.723
 6752SOL    HW220601   3.401   4.330   4.782
 6753SOL     OW20602   3.719   4.557   4.101
 6753SOL    HW120603   3.761   4.493   4.165
 6753SOL    HW220604   3.681   4.506   4.023
 6754SOL     OW20605   2.350   5.109   3.898
 6754SOL    HW120606   2.263   5.094   3.945
 6754SOL    HW220607   2.333   5.135   3.803
 6755SOL     OW20608   3.526   5.004   4.381
 6755SOL    HW120609   3.625   5.012   4.395
 6755SOL    HW220610   3.481   5.088   4.412
 6756SOL     OW20611   3.252   4.299   3.802
 6756SOL    HW120612   3.198   4.278   3.883
 6756SOL    HW220613   3.343   4.258   3.811
 6757SOL     OW20614   2.389   3.980   4.052
 6757SOL    HW120615   2.416   3.921   3.977
 6757SOL    HW220616   2.389   4.075   4.021
 6758SOL     OW20617   3.616   4.947   5.312
 6758SOL    HW120618   3.707   4.908   5.299
 6758SOL    HW220619   3.624   5.043   5.336
 6759SOL     OW20620   3.454   5.353   5.349
 6759SOL    HW120621   3.481   5.387   5.259
 6759SOL    HW220622   3.533   5.315   5.395
 6760SOL     OW20623   2.973   4.919   4.824
 6760SOL    HW120624   2.933   4.963   4.905
 6760SOL    HW220625   2.932   4.956   4.741
 6761SOL     OW20626   3.500   4.823   4.803
 6761SOL    HW120627   3.505   4.904   4.862
 6761SOL    HW220628   3.414   4.825   4.752
 6762SOL     OW20629   2.777   3.813   5.126
 6762SOL    HW120630   2.802   3.793   5.031
 6762SOL    HW220631   2.849   3.869   5.168
 6763SOL     OW20632   2.842   4.840   5.443
 6763SOL    HW120633   2.743   4.846   5.453
 6763SOL    HW220634   2.865   4.760   5.387
 6764SOL     OW20635   2.567   4.774   4.092
 6764SOL    HW120636   2.553   4.781   4.191
 6764SOL    HW220637   2.651   4.723   4.074
 6765SOL     OW20638   2.272   4.537   4.975
 6765SOL    HW120639   2.358   4.549   5.025
 6765SOL    HW220640   2.230   4.450   5.002
 6766SOL     OW20641   3.136   4.110   4.986
 6766SOL    HW120642   3.157   4.184   5.050
 6766SOL    HW220643   3.047   4.127   4.943
 6767SOL     OW20644   1.926   5.288   5.055
 6767SOL    HW120645   1.880   5.370   5.021
 6767SOL    HW220646   2.024   5.307   5.064
 6768SOL     OW20647   2.229   4.824   4.225
 6768SOL    HW120648   2.222   4.907   4.169
 6768SOL    HW220649   2.233   4.744   4.165
 6769SOL     OW20650   2.428   4.261   4.589
 6769SOL    HW120651   2.440   4.327   4.515
 6769SOL    HW220652   2.474   4.295   4.672
 6770SOL     OW20653   3.114   5.072   4.112
 6770SOL    HW120654   3.164   5.149   4.152
 6770SOL    HW220655   3.019   5.074   4.144
 6771SOL     OW20656   3.134   5.169   4.866
 6771SOL    HW120657   3.181   5.182   4.953
 6771SOL    HW220658   3.068   5.095   4.875
 6772SOL     OW20659   3.444   4.363   4.196
 6772SOL    HW120660   3.413   4.424   4.269
 6772SOL    HW220661   3.494   4.415   4.127
 6773SOL     OW20662   2.216   5.234   5.053
 6773SOL    HW120663   2.195   5.190   4.966
 6773SOL    HW220664   2.313   5.260   5.056
 6774SOL     OW20665   2.264   4.475   5.322
 6774SOL    HW120666   2.332   4.530   5.275
 6774SOL    HW220667   2.304   4.387   5.349
 6775SOL     OW20668   3.449   4.503   5.394
 6775SOL    HW120669   3.357   4.541   5.389
 6775SOL    HW220670   3.509   4.550   5.329
 6776SOL     OW20671   2.875   3.829   5.494
 6776SOL    HW120672   2.881   3.914   5.442
 6776SOL    HW220673   2.907   3.753   5.437
 6777SOL     OW20674   2.366   3.774   5.464
 6777SOL    HW120675   2.324   3.717   5.394
 6777SOL    HW220676   2.300   3.843   5.496
 6778SOL     OW20677   2.435   4.594   4.753
 6778SOL    HW120678   2.479   4.683   4.744
 6778SOL    HW220679   2.372   4.594   4.830
 6779SOL     OW20680   3.222   4.586   4.769
 6779SOL    HW120681   3.147   4.586   4.703
 6779SOL    HW220682   3.259   4.494   4.778
 6780SOL     OW20683   3.071   4.249   3.999
 6780SOL    HW120684   3.084   4.165   4.053
 6780SOL    HW220685   3.042   4.323   4.059
 6781SOL     OW20686   2.169   3.937   4.955
 6781SOL    HW120687   2.146   3.974   5.045
 6781SOL    HW220688   2.139   3.842   4.949
 6782SOL     OW20689   1.899   5.034   5.006
 6782SOL    HW120690   1.952   4.985   5.074
 6782SOL    HW220691   1.921   5.132   5.011
 6783SOL     OW20692   2.594   4.358   4.788
 6783SOL    HW120693   2.653   4.332   4.712
 6783SOL    HW220694   2.566   4.454   4.777
 6784SOL     OW20695   3.590   4.659   5.578
 6784SOL    HW120696   3.544   4.652   5.489
 6784SOL    HW220697   3.528   4.703   5.644
 6785SOL     OW20698   2.169   3.787   4.342
 6785SOL    HW120699   2.158   3.881   4.375
 6785SOL    HW220700   2.164   3.724   4.419
 6786SOL     OW20701   3.484   4.091   4.098
 6786SOL    HW120702   3.486   4.015   4.162
 6786SOL    HW220703   3.436   4.168   4.138
 6787SOL     OW20704   2.885   4.490   4.690
 6787SOL    HW120705   2.900   4.511   4.786
 6787SOL    HW220706   2.855   4.395   4.681
 6788SOL     OW20707   2.842   5.297   5.424
 6788SOL    HW120708   2.822   5.341   5.336
 6788SOL    HW220709   2.881   5.206   5.408
 6789SOL     OW20710   3.721   5.242   5.329
 6789SOL    HW120711   3.735   5.269   5.234
 6789SOL    HW220712   3.804   5.264   5.382
 6790SOL     OW20713   2.212   4.622   5.528
 6790SOL    HW120714   2.288   4.666   5.576
 6790SOL    HW220715   2.247   4.575   5.446
 6791SOL     OW20716   3.402   3.998   3.849
 6791SOL    HW120717   3.341   3.923   3.872
 6791SOL    HW220718   3.424   4.050   3.932
 6792SOL     OW20719   3.165   4.562   3.766
 6792SOL    HW120720   3.199   4.469   3.781
 6792SOL    HW220721   3.183   4.589   3.671
 6793SOL     OW20722   2.930   5.057   4.573
 6793SOL    HW120723   2.937   4.973   4.518
 6793SOL    HW220724   2.992   5.126   4.537
 6794SOL     OW20725   2.181   4.534   4.673
 6794SOL    HW120726   2.274   4.570   4.678
 6794SOL    HW220727   2.175   4.449   4.725
 6795SOL     OW20728   2.201   4.233   4.730
 6795SOL    HW120729   2.149   4.150   4.713
 6795SOL    HW220730   2.278   4.238   4.666
 6796SOL     OW20731   3.000   4.104   5.402
 6796SOL    HW120732   2.955   4.167   5.466
 6796SOL    HW220733   3.093   4.135   5.385
 6797SOL     OW20734   1.870   5.050   3.924
 6797SOL    HW120735   1.777   5.071   3.893
 6797SOL    HW220736   1.880   4.951   3.937
 6798SOL     OW20737   1.950   5.525   4.651
 6798SOL    HW120738   1.908   5.439   4.624
 6798SOL    HW220739   2.044   5.528   4.617
 6799SOL     OW20740   2.366   5.292   4.634
 6799SOL    HW120741   2.432   5.366   4.643
 6799SOL    HW220742   2.410   5.213   4.592
 6800SOL     OW20743   2.864   4.520   4.962
 6800SOL    HW120744   2.905   4.488   5.048
 6800SOL    HW220745   2.768   4.493   4.959
 6801SOL     OW20746   1.902   4.268   4.838
 6801SOL    HW120747   1.987   4.235   4.797
 6801SOL    HW220748   1.915   4.283   4.936
 6802SOL     OW20749   2.051   4.244   5.446
 6802SOL    HW120750   2.110   4.204   5.376
 6802SOL    HW220751   1.993   4.315   5.405
 6803SOL     OW20752   3.231   4.674   5.384
 6803SOL    HW120753   3.270   4.763   5.404
 6803SOL    HW220754   3.241   4.654   5.287
 6804SOL     OW20755   2.677   4.296   4.049
 6804SOL    HW120756   2.684   4.207   4.003
 6804SOL    HW220757   2.583   4.330   4.041
 6805SOL     OW20758   3.519   4.328   4.930
 6805SOL    HW120759   3.481   4.259   4.992
 6805SOL    HW220760   3.601   4.292   4.886
 6806SOL     OW20761   2.114   5.288   5.468
 6806SOL    HW120762   2.084   5.345   5.544
 6806SOL    HW220763   2.107   5.191   5.494
 6807SOL     OW20764   2.533   4.188   4.993
 6807SOL    HW120765   2.499   4.099   4.963
 6807SOL    HW220766   2.559   4.242   4.913
 6808SOL     OW20767   2.792   5.402   5.189
 6808SOL    HW120768   2.768   5.384   5.094
 6808SOL    HW220769   2.822   5.496   5.199
 6809SOL     OW20770   2.335   4.224   3.915
 6809SOL    HW120771   2.396   4.304   3.919
 6809SOL    HW220772   2.240   4.255   3.922
 6810SOL     OW20773   2.021   4.861   5.190
 6810SOL    HW120774   2.043   4.800   5.266
 6810SOL    HW220775   2.031   4.812   5.104
 6811SOL     OW20776   3.209   4.783   4.958
 6811SOL    HW120777   3.233   4.720   4.884
 6811SOL    HW220778   3.119   4.823   4.940
 6812SOL     OW20779   3.164   4.579   4.033
 6812SOL    HW120780   3.078   4.548   4.075
 6812SOL    HW220781   3.160   4.565   3.934
 6813SOL     OW20782   3.621   5.471   4.878
 6813SOL    HW120783   3.682   5.501   4.805
 6813SOL    HW220784   3.583   5.382   4.856
 6814SOL     OW20785   3.114   5.455   4.852
 6814SOL    HW120786   3.198   5.460   4.798
 6814SOL    HW220787   3.091   5.359   4.870
 6815SOL     OW20788   1.945   4.982   4.746
 6815SOL    HW120789   1.940   4.981   4.846
 6815SOL    HW220790   1.862   4.941   4.708
 6816SOL     OW20791   2.550   5.386   5.440
 6816SOL    HW120792   2.494   5.467   5.449
 6816SOL    HW220793   2.602   5.390   5.354
 6817SOL     OW20794   3.588   3.859   4.247
 6817SOL    HW120795   3.661   3.842   4.180
 6817SOL    HW220796   3.557   3.772   4.285
 6818SOL     OW20797   3.250   5.297   4.201
 6818SOL    HW120798   3.317   5.309   4.127
 6818SOL    HW220799   3.210   5.386   4.224
 6819SOL     OW20800   1.992   5.518   5.575
 6819SOL    HW120801   1.951   5.444   5.628
 6819SOL    HW220802   2.056   5.569   5.633
 6820SOL     OW20803   3.142   4.651   4.396
 6820SOL    HW120804   3.202   4.570   4.398
 6820SOL    HW220805   3.182   4.720   4.336
 6821SOL     OW20806   2.692   4.997   5.146
 6821SOL    HW120807   2.687   5.030   5.241
 6821SOL    HW220808   2.606   5.016   5.100
 6822SOL     OW20809   2.534   5.340   3.878
 6822SOL    HW120810   2.543   5.350   3.779
 6822SOL    HW220811   2.494   5.251   3.899
 6823SOL     OW20812   3.512   5.444   5.118
 6823SOL    HW120813   3.565   5.454   5.034
 6823SOL    HW220814   3.485   5.534   5.152
 6824SOL     OW20815   3.703   3.899   4.687
 6824SOL    HW120816   3.742   3.814   4.651
 6824SOL    HW220817   3.605   3.901   4.668
 6825SOL     OW20818   2.125   4.050   4.444
 6825SOL    HW120819   2.046   4.101   4.410
 6825SOL    HW220820   2.116   4.035   4.542
 6826SOL     OW20821   3.056   5.336   3.755
 6826SOL    HW120822   3.062   5.243   3.792
 6826SOL    HW220823   2.997   5.336   3.675
 6827SOL     OW20824   2.684   4.726   5.096
 6827SOL    HW120825   2.724   4.725   5.004
 6827SOL    HW220826   2.694   4.818   5.136
 6828SOL     OW20827   2.778   4.634   4.015
 6828SOL    HW120828   2.841   4.672   3.947
 6828SOL    HW220829   2.818   4.551   4.054
 6829SOL     OW20830   3.366   5.331   3.768
 6829SOL    HW120831   3.274   5.368   3.775
 6829SOL    HW220832   3.404   5.351   3.678
 6830SOL     OW20833   2.234   5.012   5.214
 6830SOL    HW120834   2.221   5.105   5.180
 6830SOL    HW220835   2.150   4.960   5.201
 6831SOL     OW20836   3.476   5.016   5.013
 6831SOL    HW120837   3.536   5.019   5.093
 6831SOL    HW220838   3.401   5.080   5.026
 6832SOL     OW20839   2.901   4.822   4.420
 6832SOL    HW120840   2.831   4.775   4.474
 6832SOL    HW220841   2.960   4.754   4.377
 6833SOL     OW20842   2.876   3.960   4.695
 6833SOL    HW120843   2.868   3.924   4.602
 6833SOL    HW220844   2.874   3.884   4.760
 6834SOL     OW20845   2.452   5.211   4.215
 6834SOL    HW120846   2.494   5.153   4.145
 6834SOL    HW220847   2.408   5.290   4.171
 6835SOL     OW20848   3.571   4.109   5.105
 6835SOL    HW120849   3.644   4.178   5.109
 6835SOL    HW220850   3.599   4.034   5.046
 6836SOL     OW20851   2.117   5.072   4.014
 6836SOL    HW120852   2.021   5.073   3.987
 6836SOL    HW220853   2.129   5.125   4.098
 6837SOL     OW20854   2.534   3.927   5.213
 6837SOL    HW120855   2.624   3.911   5.173
 6837SOL    HW220856   2.542   3.932   5.312
 6838SOL     OW20857   1.937   4.069   3.757
 6838SOL    HW120858   1.845   4.041   3.728
 6838SOL    HW220859   1.968   4.146   3.701
 6839SOL     OW20860   3.302   4.580   5.122
 6839SOL    HW120861   3.245   4.632   5.059
 6839SOL    HW220862   3.398   4.592   5.098
 6840SOL     OW20863   1.934   3.890   4.042
 6840SOL    HW120864   1.917   3.973   3.988
 6840SOL    HW220865   2.024   3.853   4.020
 6841SOL     OW20866   3.045   5.059   3.843
 6841SOL    HW120867   2.946   5.048   3.845
 6841SOL    HW220868   3.079   5.074   3.936
 6842SOL     OW20869   2.475   4.566   5.155
 6842SOL    HW120870   2.531   4.647   5.138
 6842SOL    HW220871   2.534   4.486   5.158
 6843SOL     OW20872   3.355   5.491   4.683
 6843SOL    HW120873   3.388   5.555   4.614
 6843SOL    HW220874   3.421   5.485   4.758
 6844SOL     OW20875   2.578   4.289   5.432
 6844SOL    HW120876   2.597   4.354   5.506
 6844SOL    HW220877   2.638   4.209   5.441
 6845SOL     OW20878   3.312   4.944   5.357
 6845SOL    HW120879   3.303   4.934   5.456
 6845SOL    HW220880   3.408   4.937   5.331
 6846SOL     OW20881   2.252   5.465   5.284
 6846SOL    HW120882   2.161   5.506   5.282
 6846SOL    HW220883   2.245   5.371   5.316
 6847SOL     OW20884   3.536   4.607   4.978
 6847SOL    HW120885   3.509   4.518   4.941
 6847SOL    HW220886   3.537   4.675   4.905
 6848SOL     OW20887   3.087   4.049   4.173
 6848SOL    HW120888   3.152   3.975   4.162
 6848SOL    HW220889   3.107   4.099   4.257
 6849SOL     OW20890   2.456   4.469   4.376
 6849SOL    HW120891   2.506   4.554   4.357
 6849SOL    HW220892   2.368   4.471   4.328
 6850SOL     OW20893   3.639   4.066   5.366
 6850SOL    HW120894   3.622   4.097   5.272
 6850SOL    HW220895   3.555   4.029   5.404
 6851SOL     OW20896   3.592   4.658   5.241
 6851SOL    HW120897   3.630   4.749   5.256
 6851SOL    HW220898   3.584   4.641   5.142
 6852SOL     OW20899   2.721   5.098   3.740
 6852SOL    HW120900   2.675   5.113   3.828
 6852SOL    HW220901   2.765   5.183   3.710
 6853SOL     OW20902   2.523   5.514   4.677
 6853SOL    HW120903   2.477   5.602   4.664
 6853SOL    HW220904   2.622   5.526   4.670
 6854SOL     OW20905   2.721   4.680   4.585
 6854SOL    HW120906   2.775   4.611   4.633
 6854SOL    HW220907   2.689   4.749   4.651
 6855SOL     OW20908   2.945   4.708   3.811
 6855SOL    HW120909   2.922   4.761   3.729
 6855SOL    HW220910   3.026   4.652   3.792
 6856SOL     OW20911   3.723   5.293   4.575
 6856SOL    HW120912   3.652   5.281   4.505
 6856SOL    HW220913   3.724   5.214   4.635
 6857SOL     OW20914   2.083   5.038   5.568
 6857SOL    HW120915   2.018   4.965   5.547
 6857SOL    HW220916   2.087   5.052   5.666
 6858SOL     OW20917   1.941   4.964   4.377
 6858SOL    HW120918   1.940   4.917   4.465
 6858SOL    HW220919   2.023   4.936   4.326
 6859SOL     OW20920   2.534   5.115   5.348
 6859SOL    HW120921   2.456   5.065   5.386
 6859SOL    HW220922   2.531   5.210   5.379
 6860SOL     OW20923   3.686   3.916   4.951
 6860SOL    HW120924   3.682   3.826   4.995
 6860SOL    HW220925   3.689   3.905   4.852
 6861SOL     OW20926   2.290   4.148   4.244
 6861SOL    HW120927   2.320   4.076   4.182
 6861SOL    HW220928   2.251   4.108   4.327
 6862SOL     OW20929   3.567   5.211   4.828
 6862SOL    HW120930   3.474   5.186   4.801
 6862SOL    HW220931   3.593   5.161   4.910
 6863SOL     OW20932   2.179   4.271   5.004
 6863SOL    HW120933   2.217   4.212   5.076
 6863SOL    HW220934   2.219   4.245   4.916
 6864SOL     OW20935   2.674   5.310   4.411
 6864SOL    HW120936   2.706   5.320   4.317
 6864SOL    HW220937   2.595   5.248   4.413
 6865SOL     OW20938   3.286   3.938   4.836
 6865SOL    HW120939   3.338   3.873   4.891
 6865SOL    HW220940   3.237   4.001   4.897
 6866SOL     OW20941   2.863   3.758   4.878
 6866SOL    HW120942   2.800   3.686   4.847
 6866SOL    HW220943   2.956   3.722   4.878
 6867SOL     OW20944   2.632   5.054   4.025
 6867SOL    HW120945   2.586   4.967   4.042
 6867SOL    HW220946   2.723   5.051   4.066
 6868SOL     OW20947   2.480   5.291   5.008
 6868SOL    HW120948   2.475   5.373   5.065
 6868SOL    HW220949   2.569   5.288   4.963
 6869SOL     OW20950   3.214   3.776   3.892
 6869SOL    HW120951   3.249   3.735   3.808
 6869SOL    HW220952   3.124   3.738   3.912
 6870SOL     OW20953   3.162   4.177   4.415
 6870SOL    HW120954   3.103   4.257   4.419
 6870SOL    HW220955   3.177   4.142   4.508
 6871SOL     OW20956   3.455   3.945   4.606
 6871SOL    HW120957   3.371   3.944   4.660
 6871SOL    HW220958   3.457   4.028   4.550
 6872SOL     OW20959   1.901   4.801   4.024
 6872SOL    HW120960   2.000   4.790   4.015
 6872SOL    HW220961   1.861   4.715   4.056
 6873SOL     OW20962   2.737   5.370   4.061
 6873SOL    HW120963   2.660   5.335   4.007
 6873SOL    HW220964   2.705   5.441   4.123
 6874SOL     OW20965   2.092   4.352   5.699
 6874SOL    HW120966   1.999   4.350   5.736
 6874SOL    HW220967   2.093   4.313   5.607
 6875SOL     OW20968   2.087   3.999   6.582
 6875SOL    HW120969   2.122   3.982   6.674
 6875SOL    HW220970   1.999   3.954   6.570
 6876SOL     OW20971   1.881   4.092   6.233
 6876SOL    HW120972   1.799   4.135   6.272
 6876SOL    HW220973   1.853   4.019   6.170
 6877SOL     OW20974   2.431   4.999   6.751
 6877SOL    HW120975   2.338   4.992   6.714
 6877SOL    HW220976   2.442   5.088   6.795
 6878SOL     OW20977   3.417   5.235   6.289
 6878SOL    HW120978   3.360   5.219   6.370
 6878SOL    HW220979   3.358   5.245   6.209
 6879SOL     OW20980   2.997   4.427   6.303
 6879SOL    HW120981   3.054   4.505   6.278
 6879SOL    HW220982   2.937   4.453   6.379
 6880SOL     OW20983   3.617   4.331   5.817
 6880SOL    HW120984   3.605   4.318   5.718
 6880SOL    HW220985   3.587   4.250   5.866
 6881SOL     OW20986   2.630   4.868   6.609
 6881SOL    HW120987   2.552   4.885   6.669
 6881SOL    HW220988   2.664   4.955   6.573
 6882SOL     OW20989   2.712   4.522   7.409
 6882SOL    HW120990   2.708   4.598   7.474
 6882SOL    HW220991   2.734   4.558   7.318
 6883SOL     OW20992   2.547   4.736   6.251
 6883SOL    HW120993   2.616   4.720   6.321
 6883SOL    HW220994   2.474   4.793   6.289
 6884SOL     OW20995   2.548   4.885   7.389
 6884SOL    HW120996   2.608   4.964   7.403
 6884SOL    HW220997   2.462   4.916   7.348
 6885SOL     OW20998   2.197   5.159   6.647
 6885SOL    HW120999   2.119   5.128   6.594
 6885SOL    HW221000   2.255   5.217   6.590
 6886SOL     OW21001   3.322   5.229   6.925
 6886SOL    HW121002   3.346   5.323   6.951
 6886SOL    HW221003   3.306   5.175   7.007
 6887SOL     OW21004   2.300   4.116   7.085
 6887SOL    HW121005   2.382   4.060   7.094
 6887SOL    HW221006   2.219   4.058   7.089
 6888SOL     OW21007   3.465   4.171   6.323
 6888SOL    HW121008   3.391   4.217   6.273
 6888SOL    HW221009   3.516   4.239   6.376
 6889SOL     OW21010   2.093   5.437   6.069
 6889SOL    HW121011   2.127   5.514   6.123
 6889SOL    HW221012   2.137   5.437   5.979
 6890SOL     OW21013   2.989   5.065   7.276
 6890SOL    HW121014   3.036   5.065   7.364
 6890SOL    HW221015   2.941   4.978   7.265
 6891SOL     OW21016   2.092   5.158   6.124
 6891SOL    HW121017   2.066   5.254   6.124
 6891SOL    HW221018   2.021   5.104   6.169
 6892SOL     OW21019   2.102   4.815   6.472
 6892SOL    HW121020   2.116   4.731   6.524
 6892SOL    HW221021   2.047   4.879   6.527
 6893SOL     OW21022   2.482   5.510   7.025
 6893SOL    HW121023   2.390   5.493   7.060
 6893SOL    HW221024   2.510   5.602   7.051
 6894SOL     OW21025   2.468   4.688   5.709
 6894SOL    HW121026   2.475   4.772   5.655
 6894SOL    HW221027   2.514   4.701   5.797
 6895SOL     OW21028   3.456   3.838   7.066
 6895SOL    HW121029   3.438   3.905   6.994
 6895SOL    HW221030   3.453   3.884   7.155
 6896SOL     OW21031   1.984   4.367   6.149
 6896SOL    HW121032   1.939   4.279   6.166
 6896SOL    HW221033   1.983   4.421   6.233
 6897SOL     OW21034   3.704   5.491   5.945
 6897SOL    HW121035   3.758   5.462   6.025
 6897SOL    HW221036   3.734   5.581   5.916
 6898SOL     OW21037   1.889   5.320   5.703
 6898SOL    HW121038   1.870   5.224   5.724
 6898SOL    HW221039   1.856   5.378   5.778
 6899SOL     OW21040   3.551   4.646   6.198
 6899SOL    HW121041   3.646   4.617   6.206
 6899SOL    HW221042   3.543   4.711   6.123
 6900SOL     OW21043   3.503   4.832   6.018
 6900SOL    HW121044   3.589   4.834   5.966
 6900SOL    HW221045   3.517   4.879   6.106
 6901SOL     OW21046   1.975   4.461   7.183
 6901SOL    HW121047   2.063   4.448   7.228
 6901SOL    HW221048   1.962   4.558   7.161
 6902SOL     OW21049   2.475   5.089   6.312
 6902SOL    HW121050   2.426   5.002   6.321
 6902SOL    HW221051   2.452   5.132   6.225
 6903SOL     OW21052   3.155   4.952   7.009
 6903SOL    HW121053   3.192   4.879   6.951
 6903SOL    HW221054   3.207   4.957   7.094
 6904SOL     OW21055   2.671   3.728   6.088
 6904SOL    HW121056   2.711   3.819   6.079
 6904SOL    HW221057   2.571   3.736   6.094
 6905SOL     OW21058   2.059   4.700   6.850
 6905SOL    HW121059   2.148   4.655   6.836
 6905SOL    HW221060   1.986   4.635   6.831
 6906SOL     OW21061   3.387   4.723   5.776
 6906SOL    HW121062   3.324   4.647   5.789
 6906SOL    HW221063   3.435   4.741   5.862
 6907SOL     OW21064   3.049   5.516   7.202
 6907SOL    HW121065   3.073   5.576   7.126
 6907SOL    HW221066   3.056   5.421   7.172
 6908SOL     OW21067   2.179   3.975   7.387
 6908SOL    HW121068   2.250   4.046   7.393
 6908SOL    HW221069   2.091   4.014   7.415
 6909SOL     OW21070   3.328   5.141   6.539
 6909SOL    HW121071   3.269   5.147   6.619
 6909SOL    HW221072   3.313   5.053   6.493
 6910SOL     OW21073   3.529   5.438   6.158
 6910SOL    HW121074   3.488   5.415   6.070
 6910SOL    HW221075   3.511   5.364   6.223
 6911SOL     OW21076   2.460   4.453   5.856
 6911SOL    HW121077   2.484   4.522   5.788
 6911SOL    HW221078   2.382   4.486   5.910
 6912SOL     OW21079   3.143   4.069   6.530
 6912SOL    HW121080   3.057   4.019   6.517
 6912SOL    HW221081   3.205   4.015   6.586
 6913SOL     OW21082   3.438   5.386   5.893
 6913SOL    HW121083   3.527   5.432   5.896
 6913SOL    HW221084   3.417   5.362   5.798
 6914SOL     OW21085   2.669   4.329   7.051
 6914SOL    HW121086   2.622   4.326   7.140
 6914SOL    HW221087   2.618   4.274   6.985
 6915SOL     OW21088   3.256   4.193   7.260
 6915SOL    HW121089   3.236   4.236   7.348
 6915SOL    HW221090   3.334   4.131   7.269
 6916SOL     OW21091   2.835   4.614   7.158
 6916SOL    HW121092   2.881   4.530   7.129
 6916SOL    HW221093   2.779   4.648   7.083
 6917SOL     OW21094   2.853   4.134   6.828
 6917SOL    HW121095   2.776   4.168   6.882
 6917SOL    HW221096   2.819   4.083   6.749
 6918SOL     OW21097   2.903   4.425   6.015
 6918SOL    HW121098   2.929   4.421   6.111
 6918SOL    HW221099   2.818   4.374   6.001
 6919SOL     OW21100   1.938   4.535   6.375
 6919SOL    HW121101   2.037   4.523   6.384
 6919SOL    HW221102   1.914   4.630   6.396
 6920SOL     OW21103   1.992   5.545   7.157
 6920SOL    HW121104   1.982   5.530   7.256
 6920SOL    HW221105   1.906   5.581   7.121
 6921SOL     OW21106   2.727   4.072   5.781
 6921SOL    HW121107   2.786   4.135   5.732
 6921SOL    HW221108   2.746   3.978   5.752
 6922SOL     OW21109   3.581   4.309   7.417
 6922SOL    HW121110   3.555   4.398   7.381
 6922SOL    HW221111   3.579   4.241   7.344
 6923SOL     OW21112   3.224   4.868   6.131
 6923SOL    HW121113   3.307   4.839   6.083
 6923SOL    HW221114   3.175   4.935   6.075
 6924SOL     OW21115   2.412   3.920   6.471
 6924SOL    HW121116   2.407   3.915   6.571
 6924SOL    HW221117   2.414   4.016   6.442
 6925SOL     OW21118   2.870   5.180   6.063
 6925SOL    HW121119   2.824   5.252   6.011
 6925SOL    HW221120   2.866   5.200   6.161
 6926SOL     OW21121   2.213   5.525   6.439
 6926SOL    HW121122   2.263   5.439   6.445
 6926SOL    HW221123   2.278   5.602   6.436
 6927SOL     OW21124   3.657   4.790   6.459
 6927SOL    HW121125   3.595   4.775   6.383
 6927SOL    HW221126   3.605   4.801   6.544
 6928SOL     OW21127   3.089   5.274   7.092
 6928SOL    HW121128   3.095   5.197   7.156
 6928SOL    HW221129   3.037   5.248   7.012
 6929SOL     OW21130   2.183   4.667   5.828
 6929SOL    HW121131   2.265   4.706   5.786
 6929SOL    HW221132   2.156   4.585   5.779
 6930SOL     OW21133   3.320   4.459   6.314
 6930SOL    HW121134   3.315   4.394   6.389
 6930SOL    HW221135   3.400   4.518   6.327
 6931SOL     OW21136   2.323   4.990   7.313
 6931SOL    HW121137   2.273   4.991   7.227
 6931SOL    HW221138   2.260   4.972   7.389
 6932SOL     OW21139   2.973   5.500   5.823
 6932SOL    HW121140   2.913   5.438   5.873
 6932SOL    HW221141   3.004   5.456   5.738
 6933SOL     OW21142   2.064   4.009   7.084
 6933SOL    HW121143   1.984   4.069   7.071
 6933SOL    HW221144   2.054   3.960   7.170
 6934SOL     OW21145   3.494   5.101   5.667
 6934SOL    HW121146   3.462   5.195   5.657
 6934SOL    HW221147   3.418   5.038   5.655
 6935SOL     OW21148   2.326   5.467   5.909
 6935SOL    HW121149   2.359   5.506   5.995
 6935SOL    HW221150   2.402   5.460   5.844
 6936SOL     OW21151   3.262   3.831   6.012
 6936SOL    HW121152   3.238   3.794   5.922
 6936SOL    HW221153   3.361   3.847   6.016
 6937SOL     OW21154   2.111   5.509   6.827
 6937SOL    HW121155   2.168   5.444   6.877
 6937SOL    HW221156   2.095   5.476   6.734
 6938SOL     OW21157   2.802   5.422   6.490
 6938SOL    HW121158   2.882   5.365   6.511
 6938SOL    HW221159   2.753   5.382   6.413
 6939SOL     OW21160   2.244   4.424   6.066
 6939SOL    HW121161   2.289   4.334   6.063
 6939SOL    HW221162   2.150   4.413   6.099
 6940SOL     OW21163   3.409   3.946   7.315
 6940SOL    HW121164   3.404   3.983   7.407
 6940SOL    HW221165   3.337   3.877   7.303
 6941SOL     OW21166   2.476   3.846   5.703
 6941SOL    HW121167   2.574   3.824   5.710
 6941SOL    HW221168   2.445   3.829   5.610
 6942SOL     OW21169   2.643   3.988   7.335
 6942SOL    HW121170   2.710   3.927   7.378
 6942SOL    HW221171   2.570   4.007   7.400
 6943SOL     OW21172   2.750   5.238   6.781
 6943SOL    HW121173   2.727   5.213   6.687
 6943SOL    HW221174   2.811   5.169   6.820
 6944SOL     OW21175   3.213   4.314   7.019
 6944SOL    HW121176   3.241   4.271   7.104
 6944SOL    HW221177   3.238   4.410   7.020
 6945SOL     OW21178   2.665   5.126   6.510
 6945SOL    HW121179   2.755   5.140   6.468
 6945SOL    HW221180   2.594   5.128   6.439
 6946SOL     OW21181   2.784   4.227   6.485
 6946SOL    HW121182   2.759   4.218   6.389
 6946SOL    HW221183   2.832   4.145   6.516
 6947SOL     OW21184   2.401   3.788   6.098
 6947SOL    HW121185   2.320   3.789   6.156
 6947SOL    HW221186   2.404   3.871   6.043
 6948SOL     OW21187   3.296   4.912   5.627
 6948SOL    HW121188   3.328   4.836   5.684
 6948SOL    HW221189   3.204   4.939   5.657
 6949SOL     OW21190   2.159   3.759   5.757
 6949SOL    HW121191   2.208   3.843   5.736
 6949SOL    HW221192   2.221   3.694   5.802
 6950SOL     OW21193   2.797   3.960   6.066
 6950SOL    HW121194   2.749   4.001   5.988
 6950SOL    HW221195   2.896   3.958   6.047
 6951SOL     OW21196   2.938   4.407   7.050
 6951SOL    HW121197   2.858   4.346   7.053
 6951SOL    HW221198   3.019   4.354   7.026
 6952SOL     OW21199   3.089   5.294   6.379
 6952SOL    HW121200   3.110   5.368   6.314
 6952SOL    HW221201   3.157   5.294   6.452
 6953SOL     OW21202   2.321   4.876   6.327
 6953SOL    HW121203   2.250   4.849   6.392
 6953SOL    HW221204   2.295   4.848   6.234
 6954SOL     OW21205   3.133   5.521   6.177
 6954SOL    HW121206   3.177   5.585   6.113
 6954SOL    HW221207   3.083   5.573   6.247
 6955SOL     OW21208   2.894   4.273   5.602
 6955SOL    HW121209   2.853   4.355   5.563
 6955SOL    HW221210   2.958   4.299   5.675
 6956SOL     OW21211   1.940   4.280   6.972
 6956SOL    HW121212   2.032   4.279   6.931
 6956SOL    HW221213   1.934   4.354   7.039
 6957SOL     OW21214   2.423   3.946   6.733
 6957SOL    HW121215   2.461   3.862   6.770
 6957SOL    HW221216   2.335   3.965   6.777
 6958SOL     OW21217   2.728   4.178   6.228
 6958SOL    HW121218   2.696   4.250   6.166
 6958SOL    HW221219   2.752   4.097   6.175
 6959SOL     OW21220   2.879   3.763   6.339
 6959SOL    HW121221   2.807   3.768   6.270
 6959SOL    HW221222   2.855   3.694   6.408
 6960SOL     OW21223   3.291   4.897   6.453
 6960SOL    HW121224   3.236   4.813   6.446
 6960SOL    HW221225   3.317   4.926   6.361
 6961SOL     OW21226   3.328   4.314   6.578
 6961SOL    HW121227   3.298   4.219   6.585
 6961SOL    HW221228   3.401   4.330   6.644
 6962SOL     OW21229   3.719   4.557   5.963
 6962SOL    HW121230   3.761   4.493   6.027
 6962SOL    HW221231   3.681   4.506   5.885
 6963SOL     OW21232   2.350   5.109   5.760
 6963SOL    HW121233   2.263   5.094   5.807
 6963SOL    HW221234   2.333   5.135   5.665
 6964SOL     OW21235   3.526   5.004   6.243
 6964SOL    HW121236   3.625   5.012   6.257
 6964SOL    HW221237   3.481   5.088   6.274
 6965SOL     OW21238   3.252   4.299   5.664
 6965SOL    HW121239   3.198   4.278   5.745
 6965SOL    HW221240   3.343   4.258   5.673
 6966SOL     OW21241   2.389   3.980   5.914
 6966SOL    HW121242   2.416   3.921   5.839
 6966SOL    HW221243   2.389   4.075   5.883
 6967SOL     OW21244   3.616   4.947   7.174
 6967SOL    HW121245   3.707   4.908   7.161
 6967SOL    HW221246   3.624   5.043   7.198
 6968SOL     OW21247   2.926   5.071   6.926
 6968SOL    HW121248   2.846   5.048   6.981
 6968SOL    HW221249   3.009   5.045   6.975
 6969SOL     OW21250   3.454   5.353   7.211
 6969SOL    HW121251   3.481   5.387   7.121
 6969SOL    HW221252   3.533   5.315   7.257
 6970SOL     OW21253   2.973   4.919   6.686
 6970SOL    HW121254   2.933   4.963   6.767
 6970SOL    HW221255   2.932   4.956   6.603
 6971SOL     OW21256   3.500   4.823   6.665
 6971SOL    HW121257   3.505   4.904   6.724
 6971SOL    HW221258   3.414   4.825   6.614
 6972SOL     OW21259   2.777   3.813   6.988
 6972SOL    HW121260   2.802   3.793   6.893
 6972SOL    HW221261   2.849   3.869   7.030
 6973SOL     OW21262   2.842   4.840   7.305
 6973SOL    HW121263   2.743   4.846   7.315
 6973SOL    HW221264   2.865   4.760   7.249
 6974SOL     OW21265   2.272   4.537   6.837
 6974SOL    HW121266   2.358   4.549   6.887
 6974SOL    HW221267   2.230   4.450   6.864
 6975SOL     OW21268   3.136   4.110   6.848
 6975SOL    HW121269   3.157   4.184   6.912
 6975SOL    HW221270   3.047   4.127   6.805
 6976SOL     OW21271   1.926   5.288   6.917
 6976SOL    HW121272   1.880   5.370   6.883
 6976SOL    HW221273   2.024   5.307   6.926
 6977SOL     OW21274   2.229   4.824   6.087
 6977SOL    HW121275   2.222   4.907   6.031
 6977SOL    HW221276   2.233   4.744   6.027
 6978SOL     OW21277   2.428   4.261   6.451
 6978SOL    HW121278   2.440   4.327   6.377
 6978SOL    HW221279   2.474   4.295   6.534
 6979SOL     OW21280   3.114   5.072   5.974
 6979SOL    HW121281   3.164   5.149   6.014
 6979SOL    HW221282   3.019   5.074   6.006
 6980SOL     OW21283   3.134   5.169   6.728
 6980SOL    HW121284   3.181   5.182   6.815
 6980SOL    HW221285   3.068   5.095   6.737
 6981SOL     OW21286   3.444   4.363   6.058
 6981SOL    HW121287   3.413   4.424   6.131
 6981SOL    HW221288   3.494   4.415   5.989
 6982SOL     OW21289   2.216   5.234   6.915
 6982SOL    HW121290   2.195   5.190   6.828
 6982SOL    HW221291   2.313   5.260   6.918
 6983SOL     OW21292   2.264   4.475   7.184
 6983SOL    HW121293   2.332   4.530   7.137
 6983SOL    HW221294   2.304   4.387   7.211
 6984SOL     OW21295   3.449   4.503   7.256
 6984SOL    HW121296   3.357   4.541   7.251
 6984SOL    HW221297   3.509   4.550   7.191
 6985SOL     OW21298   2.875   3.829   7.356
 6985SOL    HW121299   2.881   3.914   7.304
 6985SOL    HW221300   2.907   3.753   7.299
 6986SOL     OW21301   2.366   3.774   7.326
 6986SOL    HW121302   2.324   3.717   7.256
 6986SOL    HW221303   2.300   3.843   7.358
 6987SOL     OW21304   2.435   4.594   6.615
 6987SOL    HW121305   2.479   4.683   6.606
 6987SOL    HW221306   2.372   4.594   6.692
 6988SOL     OW21307   3.222   4.586   6.631
 6988SOL    HW121308   3.147   4.586   6.565
 6988SOL    HW221309   3.259   4.494   6.640
 6989SOL     OW21310   3.071   4.249   5.861
 6989SOL    HW121311   3.084   4.165   5.915
 6989SOL    HW221312   3.042   4.323   5.921
 6990SOL     OW21313   2.169   3.937   6.817
 6990SOL    HW121314   2.146   3.974   6.907
 6990SOL    HW221315   2.139   3.842   6.811
 6991SOL     OW21316   1.899   5.034   6.868
 6991SOL    HW121317   1.952   4.985   6.936
 6991SOL    HW221318   1.921   5.132   6.873
 6992SOL     OW21319   2.594   4.358   6.650
 6992SOL    HW121320   2.653   4.332   6.574
 6992SOL    HW221321   2.566   4.454   6.639
 6993SOL     OW21322   3.590   4.659   7.440
 6993SOL    HW121323   3.544   4.652   7.351
 6993SOL    HW221324   3.528   4.703   7.506
 6994SOL     OW21325   2.169   3.787   6.204
 6994SOL    HW121326   2.158   3.881   6.237
 6994SOL    HW221327   2.164   3.724   6.281
 6995SOL     OW21328   3.484   4.091   5.960
 6995SOL    HW121329   3.486   4.015   6.024
 6995SOL    HW221330   3.436   4.168   6.000
 6996SOL     OW21331   2.885   4.490   6.552
 6996SOL    HW121332   2.900   4.511   6.648
 6996SOL    HW221333   2.855   4.395   6.543
 6997SOL     OW21334   2.842   5.297   7.286
 6997SOL    HW121335   2.822   5.341   7.198
 6997SOL    HW221336   2.881   5.206   7.270
 6998SOL     OW21337   3.721   5.242   7.191
 6998SOL    HW121338   3.735   5.269   7.096
 6998SOL    HW221339   3.804   5.264   7.244
 6999SOL     OW21340   2.212   4.622   7.390
 6999SOL    HW121341   2.288   4.666   7.438
 6999SOL    HW221342   2.247   4.575   7.308
 7000SOL     OW21343   3.402   3.998   5.711
 7000SOL    HW121344   3.341   3.923   5.734
 7000SOL    HW221345   3.424   4.050   5.794
 7001SOL     OW21346   3.165   4.562   5.628
 7001SOL    HW121347   3.199   4.469   5.643
 7001SOL    HW221348   3.183   4.589   5.533
 7002SOL     OW21349   2.930   5.057   6.435
 7002SOL    HW121350   2.937   4.973   6.380
 7002SOL    HW221351   2.992   5.126   6.399
 7003SOL     OW21352   2.181   4.534   6.535
 7003SOL    HW121353   2.274   4.570   6.540
 7003SOL    HW221354   2.175   4.449   6.587
 7004SOL     OW21355   2.201   4.233   6.592
 7004SOL    HW121356   2.149   4.150   6.575
 7004SOL    HW221357   2.278   4.238   6.528
 7005SOL     OW21358   3.000   4.104   7.264
 7005SOL    HW121359   2.955   4.167   7.328
 7005SOL    HW221360   3.093   4.135   7.247
 7006SOL     OW21361   3.022   3.931   7.063
 7006SOL    HW121362   3.022   3.995   7.140
 7006SOL    HW221363   3.050   3.979   6.980
 7007SOL     OW21364   1.870   5.050   5.786
 7007SOL    HW121365   1.777   5.071   5.755
 7007SOL    HW221366   1.880   4.951   5.799
 7008SOL     OW21367   1.950   5.525   6.513
 7008SOL    HW121368   1.908   5.439   6.486
 7008SOL    HW221369   2.044   5.528   6.479
 7009SOL     OW21370   2.366   5.292   6.496
 7009SOL    HW121371   2.432   5.366   6.505
 7009SOL    HW221372   2.410   5.213   6.454
 7010SOL     OW21373   2.864   4.520   6.824
 7010SOL    HW121374   2.905   4.488   6.910
 7010SOL    HW221375   2.768   4.493   6.821
 7011SOL     OW21376   1.902   4.268   6.700
 7011SOL    HW121377   1.987   4.235   6.659
 7011SOL    HW221378   1.915   4.283   6.798
 7012SOL     OW21379   2.051   4.244   7.308
 7012SOL    HW121380   2.110   4.204   7.238
 7012SOL    HW221381   1.993   4.315   7.267
 7013SOL     OW21382   3.231   4.674   7.246
 7013SOL    HW121383   3.270   4.763   7.266
 7013SOL    HW221384   3.241   4.654   7.149
 7014SOL     OW21385   2.677   4.296   5.911
 7014SOL    HW121386   2.684   4.207   5.865
 7014SOL    HW221387   2.583   4.330   5.903
 7015SOL     OW21388   3.519   4.328   6.792
 7015SOL    HW121389   3.481   4.259   6.854
 7015SOL    HW221390   3.601   4.292   6.748
 7016SOL     OW21391   2.114   5.288   7.330
 7016SOL    HW121392   2.084   5.345   7.406
 7016SOL    HW221393   2.107   5.191   7.356
 7017SOL     OW21394   2.533   4.188   6.855
 7017SOL    HW121395   2.499   4.099   6.825
 7017SOL    HW221396   2.559   4.242   6.775
 7018SOL     OW21397   2.792   5.402   7.051
 7018SOL    HW121398   2.768   5.384   6.956
 7018SOL    HW221399   2.822   5.496   7.061
 7019SOL     OW21400   2.335   4.224   5.777
 7019SOL    HW121401   2.396   4.304   5.781
 7019SOL    HW221402   2.240   4.255   5.784
 7020SOL     OW21403   2.021   4.861   7.052
 7020SOL    HW121404   2.043   4.800   7.128
 7020SOL    HW221405   2.031   4.812   6.966
 7021SOL     OW21406   3.209   4.783   6.820
 7021SOL    HW121407   3.233   4.720   6.746
 7021SOL    HW221408   3.119   4.823   6.802
 7022SOL     OW21409   3.164   4.579   5.895
 7022SOL    HW121410   3.078   4.548   5.937
 7022SOL    HW221411   3.160   4.565   5.796
 7023SOL     OW21412   3.621   5.471   6.740
 7023SOL    HW121413   3.682   5.501   6.667
 7023SOL    HW221414   3.583   5.382   6.718
 7024SOL     OW21415   3.114   5.455   6.714
 7024SOL    HW121416   3.198   5.460   6.660
 7024SOL    HW221417   3.091   5.359   6.732
 7025SOL     OW21418   1.945   4.982   6.608
 7025SOL    HW121419   1.940   4.981   6.708
 7025SOL    HW221420   1.862   4.941   6.570
 7026SOL     OW21421   2.550   5.386   7.302
 7026SOL    HW121422   2.494   5.467   7.311
 7026SOL    HW221423   2.602   5.390   7.216
 7027SOL     OW21424   3.588   3.859   6.109
 7027SOL    HW121425   3.661   3.842   6.042
 7027SOL    HW221426   3.557   3.772   6.147
 7028SOL     OW21427   3.250   5.297   6.063
 7028SOL    HW121428   3.317   5.309   5.989
 7028SOL    HW221429   3.210   5.386   6.086
 7029SOL     OW21430   1.992   5.518   7.437
 7029SOL    HW121431   1.951   5.444   7.490
 7029SOL    HW221432   2.056   5.569   7.495
 7030SOL     OW21433   3.142   4.651   6.258
 7030SOL    HW121434   3.202   4.570   6.260
 7030SOL    HW221435   3.182   4.720   6.198
 7031SOL     OW21436   2.692   4.997   7.008
 7031SOL    HW121437   2.687   5.030   7.103
 7031SOL    HW221438   2.606   5.016   6.962
 7032SOL     OW21439   2.534   5.340   5.740
 7032SOL    HW121440   2.543   5.350   5.641
 7032SOL    HW221441   2.494   5.251   5.761
 7033SOL     OW21442   3.512   5.444   6.980
 7033SOL    HW121443   3.565   5.454   6.896
 7033SOL    HW221444   3.485   5.534   7.014
 7034SOL     OW21445   3.703   3.899   6.549
 7034SOL    HW121446   3.742   3.814   6.513
 7034SOL    HW221447   3.605   3.901   6.530
 7035SOL     OW21448   2.125   4.050   6.306
 7035SOL    HW121449   2.046   4.101   6.272
 7035SOL    HW221450   2.116   4.035   6.404
 7036SOL     OW21451   3.056   5.336   5.617
 7036SOL    HW121452   3.062   5.243   5.654
 7036SOL    HW221453   2.997   5.336   5.537
 7037SOL     OW21454   2.684   4.726   6.958
 7037SOL    HW121455   2.724   4.725   6.866
 7037SOL    HW221456   2.694   4.818   6.998
 7038SOL     OW21457   2.778   4.634   5.877
 7038SOL    HW121458   2.841   4.672   5.809
 7038SOL    HW221459   2.818   4.551   5.916
 7039SOL     OW21460   3.366   5.331   5.630
 7039SOL    HW121461   3.274   5.368   5.637
 7039SOL    HW221462   3.404   5.351   5.540
 7040SOL     OW21463   2.234   5.012   7.076
 7040SOL    HW121464   2.221   5.105   7.042
 7040SOL    HW221465   2.150   4.960   7.063
 7041SOL     OW21466   3.476   5.016   6.875
 7041SOL    HW121467   3.536   5.019   6.955
 7041SOL    HW221468   3.401   5.080   6.888
 7042SOL     OW21469   2.901   4.822   6.282
 7042SOL    HW121470   2.831   4.775   6.336
 7042SOL    HW221471   2.960   4.754   6.239
 7043SOL     OW21472   2.876   3.960   6.557
 7043SOL    HW121473   2.868   3.924   6.464
 7043SOL    HW221474   2.874   3.884   6.622
 7044SOL     OW21475   2.452   5.211   6.077
 7044SOL    HW121476   2.494   5.153   6.007
 7044SOL    HW221477   2.408   5.290   6.033
 7045SOL     OW21478   3.571   4.109   6.967
 7045SOL    HW121479   3.644   4.178   6.971
 7045SOL    HW221480   3.599   4.034   6.908
 7046SOL     OW21481   2.117   5.072   5.876
 7046SOL    HW121482   2.021   5.073   5.849
 7046SOL    HW221483   2.129   5.125   5.960
 7047SOL     OW21484   1.967   4.737   7.312
 7047SOL    HW121485   1.890   4.704   7.366
 7047SOL    HW221486   2.052   4.707   7.354
 7048SOL     OW21487   2.534   3.927   7.075
 7048SOL    HW121488   2.624   3.911   7.035
 7048SOL    HW221489   2.542   3.932   7.174
 7049SOL     OW21490   1.937   4.069   5.619
 7049SOL    HW121491   1.845   4.041   5.590
 7049SOL    HW221492   1.968   4.146   5.563
 7050SOL     OW21493   3.302   4.580   6.984
 7050SOL    HW121494   3.245   4.632   6.921
 7050SOL    HW221495   3.398   4.592   6.960
 7051SOL     OW21496   1.934   3.890   5.904
 7051SOL    HW121497   1.917   3.973   5.850
 7051SOL    HW221498   2.024   3.853   5.882
 7052SOL     OW21499   3.045   5.059   5.705
 7052SOL    HW121500   2.946   5.048   5.707
 7052SOL    HW221501   3.079   5.074   5.798
 7053SOL     OW21502   2.475   4.566   7.017
 7053SOL    HW121503   2.531   4.647   7.000
 7053SOL    HW221504   2.534   4.486   7.020
 7054SOL     OW21505   3.355   5.491   6.545
 7054SOL    HW121506   3.388   5.555   6.476
 7054SOL    HW221507   3.421   5.485   6.620
 7055SOL     OW21508   2.578   4.289   7.294
 7055SOL    HW121509   2.597   4.354   7.368
 7055SOL    HW221510   2.638   4.209   7.303
 7056SOL     OW21511   3.312   4.944   7.219
 7056SOL    HW121512   3.303   4.934   7.318
 7056SOL    HW221513   3.408   4.937   7.193
 7057SOL     OW21514   2.252   5.465   7.146
 7057SOL    HW121515   2.161   5.506   7.144
 7057SOL    HW221516   2.245   5.371   7.178
 7058SOL     OW21517   3.536   4.607   6.840
 7058SOL    HW121518   3.509   4.518   6.803
 7058SOL    HW221519   3.537   4.675   6.767
 7059SOL     OW21520   3.087   4.049   6.035
 7059SOL    HW121521   3.152   3.975   6.024
 7059SOL    HW221522   3.107   4.099   6.119
 7060SOL     OW21523   2.456   4.469   6.238
 7060SOL    HW121524   2.506   4.554   6.219
 7060SOL    HW221525   2.368   4.471   6.190
 7061SOL     OW21526   3.639   4.066   7.228
 7061SOL    HW121527   3.622   4.097   7.134
 7061SOL    HW221528   3.555   4.029   7.266
 7062SOL     OW21529   3.592   4.658   7.103
 7062SOL    HW121530   3.630   4.749   7.118
 7062SOL    HW221531   3.584   4.641   7.004
 7063SOL     OW21532   2.721   5.098   5.602
 7063SOL    HW121533   2.675   5.113   5.690
 7063SOL    HW221534   2.765   5.183   5.572
 7064SOL     OW21535   2.523   5.514   6.539
 7064SOL    HW121536   2.477   5.602   6.526
 7064SOL    HW221537   2.622   5.526   6.532
 7065SOL     OW21538   2.721   4.680   6.447
 7065SOL    HW121539   2.775   4.611   6.495
 7065SOL    HW221540   2.689   4.749   6.513
 7066SOL     OW21541   2.945   4.708   5.673
 7066SOL    HW121542   2.922   4.761   5.591
 7066SOL    HW221543   3.026   4.652   5.654
 7067SOL     OW21544   3.723   5.293   6.437
 7067SOL    HW121545   3.652   5.281   6.367
 7067SOL    HW221546   3.724   5.214   6.497
 7068SOL     OW21547   2.083   5.038   7.430
 7068SOL    HW121548   2.018   4.965   7.409
 7068SOL    HW221549   2.087   5.052   7.528
 7069SOL     OW21550   2.534   5.115   7.210
 7069SOL    HW121551   2.456   5.065   7.248
 7069SOL    HW221552   2.531   5.210   7.241
 7070SOL     OW21553   3.686   3.916   6.813
 7070SOL    HW121554   3.682   3.826   6.857
 7070SOL    HW221555   3.689   3.905   6.714
 7071SOL     OW21556   2.290   4.148   6.106
 7071SOL    HW121557   2.320   4.076   6.044
 7071SOL    HW221558   2.251   4.108   6.189
 7072SOL     OW21559   3.567   5.211   6.690
 7072SOL    HW121560   3.474   5.186   6.663
 7072SOL    HW221561   3.593   5.161   6.772
 7073SOL     OW21562   2.179   4.271   6.866
 7073SOL    HW121563   2.217   4.212   6.938
 7073SOL    HW221564   2.219   4.245   6.778
 7074SOL     OW21565   2.674   5.310   6.273
 7074SOL    HW121566   2.706   5.320   6.179
 7074SOL    HW221567   2.595   5.248   6.275
 7075SOL     OW21568   3.286   3.938   6.698
 7075SOL    HW121569   3.338   3.873   6.753
 7075SOL    HW221570   3.237   4.001   6.759
 7076SOL     OW21571   2.863   3.758   6.740
 7076SOL    HW121572   2.800   3.686   6.709
 7076SOL    HW221573   2.956   3.722   6.740
 7077SOL     OW21574   2.632   5.054   5.887
 7077SOL    HW121575   2.586   4.967   5.904
 7077SOL    HW221576   2.723   5.051   5.928
 7078SOL     OW21577   2.480   5.291   6.870
 7078SOL    HW121578   2.475   5.373   6.927
 7078SOL    HW221579   2.569   5.288   6.825
 7079SOL     OW21580   3.214   3.776   5.754
 7079SOL    HW121581   3.249   3.735   5.670
 7079SOL    HW221582   3.124   3.738   5.774
 7080SOL     OW21583   3.162   4.177   6.277
 7080SOL    HW121584   3.103   4.257   6.281
 7080SOL    HW221585   3.177   4.142   6.370
 7081SOL     OW21586   3.455   3.945   6.468
 7081SOL    HW121587   3.371   3.944   6.522
 7081SOL    HW221588   3.457   4.028   6.412
 7082SOL     OW21589   1.901   4.801   5.886
 7082SOL    HW121590   2.000   4.790   5.877
 7082SOL    HW221591   1.861   4.715   5.918
 7083SOL     OW21592   2.737   5.370   5.923
 7083SOL    HW121593   2.660   5.335   5.869
 7083SOL    HW221594   2.705   5.441   5.985
 7084SOL     OW21595   2.092   4.352   7.561
 7084SOL    HW121596   1.999   4.350   7.598
 7084SOL    HW221597   2.093   4.313   7.469
 7085SOL     OW21598   2.093   5.437   7.931
 7085SOL    HW121599   2.127   5.514   7.985
 7085SOL    HW221600   2.137   5.437   7.841
 7086SOL     OW21601   2.468   4.688   7.571
 7086SOL    HW121602   2.475   4.772   7.517
 7086SOL    HW221603   2.514   4.701   7.659
 7087SOL     OW21604   3.704   5.491   7.807
 7087SOL    HW121605   3.758   5.462   7.887
 7087SOL    HW221606   3.734   5.581   7.778
 7088SOL     OW21607   1.889   5.320   7.565
 7088SOL    HW121608   1.870   5.224   7.586
 7088SOL    HW221609   1.856   5.378   7.640
 7089SOL     OW21610   3.503   4.832   7.880
 7089SOL    HW121611   3.589   4.834   7.828
 7089SOL    HW221612   3.517   4.879   7.968
 7090SOL     OW21613   2.671   3.728   7.950
 7090SOL    HW121614   2.711   3.819   7.941
 7090SOL    HW221615   2.571   3.736   7.956
 7091SOL     OW21616   3.387   4.723   7.638
 7091SOL    HW121617   3.324   4.647   7.651
 7091SOL    HW221618   3.435   4.741   7.724
 7092SOL     OW21619   3.529   5.438   8.020
 7092SOL    HW121620   3.488   5.415   7.932
 7092SOL    HW221621   3.511   5.364   8.085
 7093SOL     OW21622   2.460   4.453   7.718
 7093SOL    HW121623   2.484   4.522   7.650
 7093SOL    HW221624   2.382   4.486   7.772
 7094SOL     OW21625   3.438   5.386   7.755
 7094SOL    HW121626   3.527   5.432   7.758
 7094SOL    HW221627   3.417   5.362   7.660
 7095SOL     OW21628   2.903   4.425   7.877
 7095SOL    HW121629   2.929   4.421   7.973
 7095SOL    HW221630   2.818   4.374   7.863
 7096SOL     OW21631   2.727   4.072   7.643
 7096SOL    HW121632   2.786   4.135   7.594
 7096SOL    HW221633   2.746   3.978   7.614
 7097SOL     OW21634   3.224   4.868   7.993
 7097SOL    HW121635   3.307   4.839   7.945
 7097SOL    HW221636   3.175   4.935   7.937
 7098SOL     OW21637   2.870   5.180   7.925
 7098SOL    HW121638   2.824   5.252   7.873
 7098SOL    HW221639   2.866   5.200   8.023
 7099SOL     OW21640   2.183   4.667   7.690
 7099SOL    HW121641   2.265   4.706   7.648
 7099SOL    HW221642   2.156   4.585   7.641
 7100SOL     OW21643   2.973   5.500   7.685
 7100SOL    HW121644   2.913   5.438   7.735
 7100SOL    HW221645   3.004   5.456   7.600
 7101SOL     OW21646   3.494   5.101   7.529
 7101SOL    HW121647   3.462   5.195   7.519
 7101SOL    HW221648   3.418   5.038   7.517
 7102SOL     OW21649   2.326   5.467   7.771
 7102SOL    HW121650   2.359   5.506   7.857
 7102SOL    HW221651   2.402   5.460   7.706
 7103SOL     OW21652   2.244   4.424   7.928
 7103SOL    HW121653   2.289   4.334   7.925
 7103SOL    HW221654   2.150   4.413   7.961
 7104SOL     OW21655   2.476   3.846   7.565
 7104SOL    HW121656   2.574   3.824   7.572
 7104SOL    HW221657   2.445   3.829   7.472
 7105SOL     OW21658   2.401   3.788   7.960
 7105SOL    HW121659   2.320   3.789   8.018
 7105SOL    HW221660   2.404   3.871   7.905
 7106SOL     OW21661   3.296   4.912   7.489
 7106SOL    HW121662   3.328   4.836   7.546
 7106SOL    HW221663   3.204   4.939   7.519
 7107SOL     OW21664   2.159   3.759   7.619
 7107SOL    HW121665   2.208   3.843   7.598
 7107SOL    HW221666   2.221   3.694   7.664
 7108SOL     OW21667   2.797   3.960   7.928
 7108SOL    HW121668   2.749   4.001   7.850
 7108SOL    HW221669   2.896   3.958   7.909
 7109SOL     OW21670   2.894   4.273   7.464
 7109SOL    HW121671   2.853   4.355   7.425
 7109SOL    HW221672   2.958   4.299   7.537
 7110SOL     OW21673   2.350   5.109   7.622
 7110SOL    HW121674   2.263   5.094   7.669
 7110SOL    HW221675   2.333   5.135   7.527
 7111SOL     OW21676   3.252   4.299   7.526
 7111SOL    HW121677   3.198   4.278   7.607
 7111SOL    HW221678   3.343   4.258   7.535
 7112SOL     OW21679   2.389   3.980   7.776
 7112SOL    HW121680   2.416   3.921   7.701
 7112SOL    HW221681   2.389   4.075   7.745
 7113SOL     OW21682   2.567   4.774   7.816
 7113SOL    HW121683   2.553   4.781   7.915
 7113SOL    HW221684   2.651   4.723   7.798
 7114SOL     OW21685   2.229   4.824   7.949
 7114SOL    HW121686   2.222   4.907   7.893
 7114SOL    HW221687   2.233   4.744   7.889
 7115SOL     OW21688   3.114   5.072   7.836
 7115SOL    HW121689   3.164   5.149   7.876
 7115SOL    HW221690   3.019   5.074   7.868
 7116SOL     OW21691   3.402   3.998   7.573
 7116SOL    HW121692   3.341   3.923   7.596
 7116SOL    HW221693   3.424   4.050   7.656
 7117SOL     OW21694   3.165   4.562   7.490
 7117SOL    HW121695   3.199   4.469   7.505
 7117SOL    HW221696   3.183   4.589   7.395
 7118SOL     OW21697   1.870   5.050   7.648
 7118SOL    HW121698   1.777   5.071   7.617
 7118SOL    HW221699   1.880   4.951   7.661
 7119SOL     OW21700   2.677   4.296   7.773
 7119SOL    HW121701   2.684   4.207   7.727
 7119SOL    HW221702   2.583   4.330   7.765
 7120SOL     OW21703   2.335   4.224   7.639
 7120SOL    HW121704   2.396   4.304   7.643
 7120SOL    HW221705   2.240   4.255   7.646
 7121SOL     OW21706   3.250   5.297   7.925
 7121SOL    HW121707   3.317   5.309   7.851
 7121SOL    HW221708   3.210   5.386   7.948
 7122SOL     OW21709   2.534   5.340   7.602
 7122SOL    HW121710   2.543   5.350   7.503
 7122SOL    HW221711   2.494   5.251   7.623
 7123SOL     OW21712   3.056   5.336   7.479
 7123SOL    HW121713   3.062   5.243   7.516
 7123SOL    HW221714   2.997   5.336   7.399
 7124SOL     OW21715   2.778   4.634   7.739
 7124SOL    HW121716   2.841   4.672   7.671
 7124SOL    HW221717   2.818   4.551   7.778
 7125SOL     OW21718   3.366   5.331   7.492
 7125SOL    HW121719   3.274   5.368   7.499
 7125SOL    HW221720   3.404   5.351   7.402
 7126SOL     OW21721   2.452   5.211   7.939
 7126SOL    HW121722   2.494   5.153   7.869
 7126SOL    HW221723   2.408   5.290   7.895
 7127SOL     OW21724   2.117   5.072   7.738
 7127SOL    HW121725   2.021   5.073   7.711
 7127SOL    HW221726   2.129   5.125   7.822
 7128SOL     OW21727   1.937   4.069   7.481
 7128SOL    HW121728   1.845   4.041   7.452
 7128SOL    HW221729   1.968   4.146   7.425
 7129SOL     OW21730   1.934   3.890   7.766
 7129SOL    HW121731   1.917   3.973   7.712
 7129SOL    HW221732   2.024   3.853   7.744
 7130SOL     OW21733   3.045   5.059   7.567
 7130SOL    HW121734   2.946   5.048   7.569
 7130SOL    HW221735   3.079   5.074   7.660
 7131SOL     OW21736   2.721   5.098   7.464
 7131SOL    HW121737   2.675   5.113   7.552
 7131SOL    HW221738   2.765   5.183   7.434
 7132SOL     OW21739   2.945   4.708   7.535
 7132SOL    HW121740   2.922   4.761   7.453
 7132SOL    HW221741   3.026   4.652   7.516
 7133SOL     OW21742   2.290   4.148   7.968
 7133SOL    HW121743   2.320   4.076   7.906
 7133SOL    HW221744   2.251   4.108   8.051
 7134SOL     OW21745   2.632   5.054   7.749
 7134SOL    HW121746   2.586   4.967   7.766
 7134SOL    HW221747   2.723   5.051   7.790
 7135SOL     OW21748   3.214   3.776   7.616
 7135SOL    HW121749   3.249   3.735   7.532
 7135SOL    HW221750   3.124   3.738   7.636
 7136SOL     OW21751   1.901   4.801   7.748
 7136SOL    HW121752   2.000   4.790   7.739
 7136SOL    HW221753   1.861   4.715   7.780
 7137SOL     OW21754   2.737   5.370   7.785
 7137SOL    HW121755   2.660   5.335   7.731
 7137SOL    HW221756   2.705   5.441   7.847
 7138SOL     OW21757   2.092   6.214   0.113
 7138SOL    HW121758   1.999   6.212   0.150
 7138SOL    HW221759   2.093   6.175   0.021
 7139SOL     OW21760   2.087   5.861   0.996
 7139SOL    HW121761   2.122   5.844   1.088
 7139SOL    HW221762   1.999   5.816   0.984
 7140SOL     OW21763   1.881   5.954   0.647
 7140SOL    HW121764   1.799   5.997   0.686
 7140SOL    HW221765   1.853   5.881   0.584
 7141SOL     OW21766   2.431   6.861   1.165
 7141SOL    HW121767   2.338   6.854   1.128
 7141SOL    HW221768   2.442   6.950   1.209
 7142SOL     OW21769   3.417   7.097   0.703
 7142SOL    HW121770   3.360   7.081   0.784
 7142SOL    HW221771   3.358   7.107   0.623
 7143SOL     OW21772   2.997   6.289   0.717
 7143SOL    HW121773   3.054   6.367   0.692
 7143SOL    HW221774   2.937   6.315   0.793
 7144SOL     OW21775   3.617   6.193   0.231
 7144SOL    HW121776   3.605   6.180   0.132
 7144SOL    HW221777   3.587   6.112   0.280
 7145SOL     OW21778   2.630   6.730   1.023
 7145SOL    HW121779   2.552   6.747   1.083
 7145SOL    HW221780   2.664   6.817   0.987
 7146SOL     OW21781   2.712   6.384   1.823
 7146SOL    HW121782   2.708   6.460   1.888
 7146SOL    HW221783   2.734   6.420   1.732
 7147SOL     OW21784   2.547   6.598   0.665
 7147SOL    HW121785   2.616   6.582   0.735
 7147SOL    HW221786   2.474   6.655   0.703
 7148SOL     OW21787   2.548   6.747   1.803
 7148SOL    HW121788   2.608   6.826   1.817
 7148SOL    HW221789   2.462   6.778   1.762
 7149SOL     OW21790   2.197   7.021   1.061
 7149SOL    HW121791   2.119   6.990   1.008
 7149SOL    HW221792   2.255   7.079   1.004
 7150SOL     OW21793   3.322   7.091   1.339
 7150SOL    HW121794   3.346   7.185   1.365
 7150SOL    HW221795   3.306   7.037   1.421
 7151SOL     OW21796   2.300   5.978   1.499
 7151SOL    HW121797   2.382   5.922   1.508
 7151SOL    HW221798   2.219   5.920   1.503
 7152SOL     OW21799   3.465   6.033   0.737
 7152SOL    HW121800   3.391   6.079   0.687
 7152SOL    HW221801   3.516   6.101   0.790
 7153SOL     OW21802   2.093   7.299   0.483
 7153SOL    HW121803   2.127   7.376   0.537
 7153SOL    HW221804   2.137   7.299   0.393
 7154SOL     OW21805   2.989   6.927   1.690
 7154SOL    HW121806   3.036   6.927   1.778
 7154SOL    HW221807   2.941   6.840   1.679
 7155SOL     OW21808   2.092   7.020   0.538
 7155SOL    HW121809   2.066   7.116   0.538
 7155SOL    HW221810   2.021   6.966   0.583
 7156SOL     OW21811   2.102   6.677   0.886
 7156SOL    HW121812   2.116   6.593   0.938
 7156SOL    HW221813   2.047   6.741   0.941
 7157SOL     OW21814   2.482   7.372   1.439
 7157SOL    HW121815   2.390   7.355   1.474
 7157SOL    HW221816   2.510   7.464   1.465
 7158SOL     OW21817   2.468   6.550   0.123
 7158SOL    HW121818   2.475   6.634   0.069
 7158SOL    HW221819   2.514   6.563   0.211
 7159SOL     OW21820   3.456   5.700   1.480
 7159SOL    HW121821   3.438   5.767   1.408
 7159SOL    HW221822   3.453   5.746   1.569
 7160SOL     OW21823   1.984   6.229   0.563
 7160SOL    HW121824   1.939   6.141   0.580
 7160SOL    HW221825   1.983   6.283   0.647
 7161SOL     OW21826   3.704   7.353   0.359
 7161SOL    HW121827   3.758   7.324   0.439
 7161SOL    HW221828   3.734   7.443   0.330
 7162SOL     OW21829   1.889   7.182   0.117
 7162SOL    HW121830   1.870   7.086   0.138
 7162SOL    HW221831   1.856   7.240   0.192
 7163SOL     OW21832   3.551   6.508   0.612
 7163SOL    HW121833   3.646   6.479   0.620
 7163SOL    HW221834   3.543   6.573   0.537
 7164SOL     OW21835   3.503   6.694   0.432
 7164SOL    HW121836   3.589   6.696   0.380
 7164SOL    HW221837   3.517   6.741   0.520
 7165SOL     OW21838   1.975   6.323   1.597
 7165SOL    HW121839   2.063   6.310   1.642
 7165SOL    HW221840   1.962   6.420   1.575
 7166SOL     OW21841   2.475   6.951   0.726
 7166SOL    HW121842   2.426   6.864   0.735
 7166SOL    HW221843   2.452   6.994   0.639
 7167SOL     OW21844   3.155   6.814   1.423
 7167SOL    HW121845   3.192   6.741   1.365
 7167SOL    HW221846   3.207   6.819   1.508
 7168SOL     OW21847   2.671   5.590   0.502
 7168SOL    HW121848   2.711   5.681   0.493
 7168SOL    HW221849   2.571   5.598   0.508
 7169SOL     OW21850   2.059   6.562   1.264
 7169SOL    HW121851   2.148   6.517   1.250
 7169SOL    HW221852   1.986   6.497   1.245
 7170SOL     OW21853   3.387   6.585   0.190
 7170SOL    HW121854   3.324   6.509   0.203
 7170SOL    HW221855   3.435   6.603   0.276
 7171SOL     OW21856   3.049   7.378   1.616
 7171SOL    HW121857   3.073   7.438   1.540
 7171SOL    HW221858   3.056   7.283   1.586
 7172SOL     OW21859   2.179   5.837   1.801
 7172SOL    HW121860   2.250   5.908   1.807
 7172SOL    HW221861   2.091   5.876   1.829
 7173SOL     OW21862   3.328   7.003   0.953
 7173SOL    HW121863   3.269   7.009   1.033
 7173SOL    HW221864   3.313   6.915   0.907
 7174SOL     OW21865   3.529   7.300   0.572
 7174SOL    HW121866   3.488   7.277   0.484
 7174SOL    HW221867   3.511   7.226   0.637
 7175SOL     OW21868   2.460   6.315   0.270
 7175SOL    HW121869   2.484   6.384   0.202
 7175SOL    HW221870   2.382   6.348   0.324
 7176SOL     OW21871   3.143   5.931   0.944
 7176SOL    HW121872   3.057   5.881   0.931
 7176SOL    HW221873   3.205   5.877   1.000
 7177SOL     OW21874   3.438   7.248   0.307
 7177SOL    HW121875   3.527   7.294   0.310
 7177SOL    HW221876   3.417   7.224   0.212
 7178SOL     OW21877   2.669   6.191   1.465
 7178SOL    HW121878   2.622   6.188   1.554
 7178SOL    HW221879   2.618   6.136   1.399
 7179SOL     OW21880   3.256   6.055   1.674
 7179SOL    HW121881   3.236   6.098   1.762
 7179SOL    HW221882   3.334   5.993   1.683
 7180SOL     OW21883   2.835   6.476   1.572
 7180SOL    HW121884   2.881   6.392   1.543
 7180SOL    HW221885   2.779   6.510   1.497
 7181SOL     OW21886   2.853   5.996   1.242
 7181SOL    HW121887   2.776   6.030   1.296
 7181SOL    HW221888   2.819   5.945   1.163
 7182SOL     OW21889   2.903   6.287   0.429
 7182SOL    HW121890   2.929   6.283   0.525
 7182SOL    HW221891   2.818   6.236   0.415
 7183SOL     OW21892   1.938   6.397   0.789
 7183SOL    HW121893   2.037   6.385   0.798
 7183SOL    HW221894   1.914   6.492   0.810
 7184SOL     OW21895   1.992   7.407   1.571
 7184SOL    HW121896   1.982   7.392   1.670
 7184SOL    HW221897   1.906   7.443   1.535
 7185SOL     OW21898   2.727   5.934   0.195
 7185SOL    HW121899   2.786   5.997   0.146
 7185SOL    HW221900   2.746   5.840   0.166
 7186SOL     OW21901   3.581   6.171   1.831
 7186SOL    HW121902   3.555   6.260   1.795
 7186SOL    HW221903   3.579   6.103   1.758
 7187SOL     OW21904   3.224   6.730   0.545
 7187SOL    HW121905   3.307   6.701   0.497
 7187SOL    HW221906   3.175   6.797   0.489
 7188SOL     OW21907   2.412   5.782   0.885
 7188SOL    HW121908   2.407   5.777   0.985
 7188SOL    HW221909   2.414   5.878   0.856
 7189SOL     OW21910   2.870   7.042   0.477
 7189SOL    HW121911   2.824   7.114   0.425
 7189SOL    HW221912   2.866   7.062   0.575
 7190SOL     OW21913   2.213   7.387   0.853
 7190SOL    HW121914   2.263   7.301   0.859
 7190SOL    HW221915   2.278   7.464   0.850
 7191SOL     OW21916   3.657   6.652   0.873
 7191SOL    HW121917   3.595   6.637   0.797
 7191SOL    HW221918   3.605   6.663   0.958
 7192SOL     OW21919   3.089   7.136   1.506
 7192SOL    HW121920   3.095   7.059   1.570
 7192SOL    HW221921   3.037   7.110   1.426
 7193SOL     OW21922   2.183   6.529   0.242
 7193SOL    HW121923   2.265   6.568   0.200
 7193SOL    HW221924   2.156   6.447   0.193
 7194SOL     OW21925   3.320   6.321   0.728
 7194SOL    HW121926   3.315   6.256   0.803
 7194SOL    HW221927   3.400   6.380   0.741
 7195SOL     OW21928   2.323   6.852   1.727
 7195SOL    HW121929   2.273   6.853   1.641
 7195SOL    HW221930   2.260   6.834   1.803
 7196SOL     OW21931   2.973   7.362   0.237
 7196SOL    HW121932   2.913   7.300   0.287
 7196SOL    HW221933   3.004   7.318   0.152
 7197SOL     OW21934   2.064   5.871   1.498
 7197SOL    HW121935   1.984   5.931   1.485
 7197SOL    HW221936   2.054   5.822   1.584
 7198SOL     OW21937   3.494   6.963   0.081
 7198SOL    HW121938   3.462   7.057   0.071
 7198SOL    HW221939   3.418   6.900   0.069
 7199SOL     OW21940   2.326   7.329   0.323
 7199SOL    HW121941   2.359   7.368   0.409
 7199SOL    HW221942   2.402   7.322   0.258
 7200SOL     OW21943   3.262   5.693   0.426
 7200SOL    HW121944   3.238   5.656   0.336
 7200SOL    HW221945   3.361   5.709   0.430
 7201SOL     OW21946   2.111   7.371   1.241
 7201SOL    HW121947   2.168   7.306   1.291
 7201SOL    HW221948   2.095   7.338   1.148
 7202SOL     OW21949   2.802   7.284   0.904
 7202SOL    HW121950   2.882   7.227   0.925
 7202SOL    HW221951   2.753   7.244   0.827
 7203SOL     OW21952   2.244   6.286   0.480
 7203SOL    HW121953   2.289   6.196   0.477
 7203SOL    HW221954   2.150   6.275   0.513
 7204SOL     OW21955   3.409   5.808   1.729
 7204SOL    HW121956   3.404   5.845   1.821
 7204SOL    HW221957   3.337   5.739   1.717
 7205SOL     OW21958   2.476   5.708   0.117
 7205SOL    HW121959   2.574   5.686   0.124
 7205SOL    HW221960   2.445   5.691   0.024
 7206SOL     OW21961   2.643   5.850   1.749
 7206SOL    HW121962   2.710   5.789   1.792
 7206SOL    HW221963   2.570   5.869   1.814
 7207SOL     OW21964   2.750   7.100   1.195
 7207SOL    HW121965   2.727   7.075   1.101
 7207SOL    HW221966   2.811   7.031   1.234
 7208SOL     OW21967   3.213   6.176   1.433
 7208SOL    HW121968   3.241   6.133   1.518
 7208SOL    HW221969   3.238   6.272   1.434
 7209SOL     OW21970   2.665   6.988   0.924
 7209SOL    HW121971   2.755   7.002   0.882
 7209SOL    HW221972   2.594   6.990   0.853
 7210SOL     OW21973   2.784   6.089   0.899
 7210SOL    HW121974   2.759   6.080   0.803
 7210SOL    HW221975   2.832   6.007   0.930
 7211SOL     OW21976   2.401   5.650   0.512
 7211SOL    HW121977   2.320   5.651   0.570
 7211SOL    HW221978   2.404   5.733   0.457
 7212SOL     OW21979   3.296   6.774   0.041
 7212SOL    HW121980   3.328   6.698   0.098
 7212SOL    HW221981   3.204   6.801   0.071
 7213SOL     OW21982   2.159   5.621   0.171
 7213SOL    HW121983   2.208   5.705   0.150
 7213SOL    HW221984   2.221   5.556   0.216
 7214SOL     OW21985   2.797   5.822   0.480
 7214SOL    HW121986   2.749   5.863   0.402
 7214SOL    HW221987   2.896   5.820   0.461
 7215SOL     OW21988   2.938   6.269   1.464
 7215SOL    HW121989   2.858   6.208   1.467
 7215SOL    HW221990   3.019   6.216   1.440
 7216SOL     OW21991   3.089   7.156   0.793
 7216SOL    HW121992   3.110   7.230   0.728
 7216SOL    HW221993   3.157   7.156   0.866
 7217SOL     OW21994   2.321   6.738   0.741
 7217SOL    HW121995   2.250   6.711   0.806
 7217SOL    HW221996   2.295   6.710   0.648
 7218SOL     OW21997   3.133   7.383   0.591
 7218SOL    HW121998   3.177   7.447   0.527
 7218SOL    HW221999   3.083   7.435   0.661
 7219SOL     OW22000   2.894   6.135   0.016
 7219SOL    HW122001   2.853   6.217  -0.023
 7219SOL    HW222002   2.958   6.161   0.089
 7220SOL     OW22003   1.940   6.142   1.386
 7220SOL    HW122004   2.032   6.141   1.345
 7220SOL    HW222005   1.934   6.216   1.453
 7221SOL     OW22006   2.423   5.808   1.147
 7221SOL    HW122007   2.461   5.724   1.184
 7221SOL    HW222008   2.335   5.827   1.191
 7222SOL     OW22009   2.728   6.040   0.642
 7222SOL    HW122010   2.696   6.112   0.580
 7222SOL    HW222011   2.752   5.959   0.589
 7223SOL     OW22012   2.879   5.625   0.753
 7223SOL    HW122013   2.807   5.630   0.684
 7223SOL    HW222014   2.855   5.556   0.822
 7224SOL     OW22015   3.291   6.759   0.867
 7224SOL    HW122016   3.236   6.675   0.860
 7224SOL    HW222017   3.317   6.788   0.775
 7225SOL     OW22018   3.328   6.176   0.992
 7225SOL    HW122019   3.298   6.081   0.999
 7225SOL    HW222020   3.401   6.192   1.058
 7226SOL     OW22021   3.719   6.419   0.377
 7226SOL    HW122022   3.761   6.355   0.441
 7226SOL    HW222023   3.681   6.368   0.299
 7227SOL     OW22024   2.350   6.971   0.174
 7227SOL    HW122025   2.263   6.956   0.221
 7227SOL    HW222026   2.333   6.997   0.079
 7228SOL     OW22027   3.526   6.866   0.657
 7228SOL    HW122028   3.625   6.874   0.671
 7228SOL    HW222029   3.481   6.950   0.688
 7229SOL     OW22030   3.252   6.161   0.078
 7229SOL    HW122031   3.198   6.140   0.159
 7229SOL    HW222032   3.343   6.120   0.087
 7230SOL     OW22033   2.389   5.842   0.328
 7230SOL    HW122034   2.416   5.783   0.253
 7230SOL    HW222035   2.389   5.937   0.297
 7231SOL     OW22036   3.616   6.809   1.588
 7231SOL    HW122037   3.707   6.770   1.575
 7231SOL    HW222038   3.624   6.905   1.612
 7232SOL     OW22039   2.926   6.933   1.340
 7232SOL    HW122040   2.846   6.910   1.395
 7232SOL    HW222041   3.009   6.907   1.389
 7233SOL     OW22042   3.454   7.215   1.625
 7233SOL    HW122043   3.481   7.249   1.535
 7233SOL    HW222044   3.533   7.177   1.671
 7234SOL     OW22045   2.973   6.781   1.100
 7234SOL    HW122046   2.933   6.825   1.181
 7234SOL    HW222047   2.932   6.818   1.017
 7235SOL     OW22048   3.500   6.685   1.079
 7235SOL    HW122049   3.505   6.766   1.138
 7235SOL    HW222050   3.414   6.687   1.028
 7236SOL     OW22051   2.777   5.675   1.402
 7236SOL    HW122052   2.802   5.655   1.307
 7236SOL    HW222053   2.849   5.731   1.444
 7237SOL     OW22054   2.842   6.702   1.719
 7237SOL    HW122055   2.743   6.708   1.729
 7237SOL    HW222056   2.865   6.622   1.663
 7238SOL     OW22057   2.567   6.636   0.368
 7238SOL    HW122058   2.553   6.643   0.467
 7238SOL    HW222059   2.651   6.585   0.350
 7239SOL     OW22060   2.272   6.399   1.251
 7239SOL    HW122061   2.358   6.411   1.301
 7239SOL    HW222062   2.230   6.312   1.278
 7240SOL     OW22063   3.136   5.972   1.262
 7240SOL    HW122064   3.157   6.046   1.326
 7240SOL    HW222065   3.047   5.989   1.219
 7241SOL     OW22066   1.926   7.150   1.331
 7241SOL    HW122067   1.880   7.232   1.297
 7241SOL    HW222068   2.024   7.169   1.340
 7242SOL     OW22069   2.229   6.686   0.501
 7242SOL    HW122070   2.222   6.769   0.445
 7242SOL    HW222071   2.233   6.606   0.441
 7243SOL     OW22072   2.428   6.123   0.865
 7243SOL    HW122073   2.440   6.189   0.791
 7243SOL    HW222074   2.474   6.157   0.948
 7244SOL     OW22075   3.114   6.934   0.388
 7244SOL    HW122076   3.164   7.011   0.428
 7244SOL    HW222077   3.019   6.936   0.420
 7245SOL     OW22078   3.134   7.031   1.142
 7245SOL    HW122079   3.181   7.044   1.229
 7245SOL    HW222080   3.068   6.957   1.151
 7246SOL     OW22081   3.444   6.225   0.472
 7246SOL    HW122082   3.413   6.286   0.545
 7246SOL    HW222083   3.494   6.277   0.403
 7247SOL     OW22084   2.216   7.096   1.329
 7247SOL    HW122085   2.195   7.052   1.242
 7247SOL    HW222086   2.313   7.122   1.332
 7248SOL     OW22087   2.264   6.337   1.598
 7248SOL    HW122088   2.332   6.392   1.551
 7248SOL    HW222089   2.304   6.249   1.625
 7249SOL     OW22090   3.449   6.365   1.670
 7249SOL    HW122091   3.357   6.403   1.665
 7249SOL    HW222092   3.509   6.412   1.605
 7250SOL     OW22093   2.875   5.691   1.770
 7250SOL    HW122094   2.881   5.776   1.718
 7250SOL    HW222095   2.907   5.615   1.713
 7251SOL     OW22096   2.366   5.636   1.740
 7251SOL    HW122097   2.324   5.579   1.670
 7251SOL    HW222098   2.300   5.705   1.772
 7252SOL     OW22099   2.435   6.456   1.029
 7252SOL    HW122100   2.479   6.545   1.020
 7252SOL    HW222101   2.372   6.456   1.106
 7253SOL     OW22102   3.222   6.448   1.045
 7253SOL    HW122103   3.147   6.448   0.979
 7253SOL    HW222104   3.259   6.356   1.054
 7254SOL     OW22105   3.071   6.111   0.275
 7254SOL    HW122106   3.084   6.027   0.329
 7254SOL    HW222107   3.042   6.185   0.335
 7255SOL     OW22108   2.169   5.799   1.231
 7255SOL    HW122109   2.146   5.836   1.321
 7255SOL    HW222110   2.139   5.704   1.225
 7256SOL     OW22111   1.899   6.896   1.282
 7256SOL    HW122112   1.952   6.847   1.350
 7256SOL    HW222113   1.921   6.994   1.287
 7257SOL     OW22114   2.594   6.220   1.064
 7257SOL    HW122115   2.653   6.194   0.988
 7257SOL    HW222116   2.566   6.316   1.053
 7258SOL     OW22117   3.590   6.521   1.854
 7258SOL    HW122118   3.544   6.514   1.765
 7258SOL    HW222119   3.528   6.565   1.920
 7259SOL     OW22120   2.169   5.649   0.618
 7259SOL    HW122121   2.158   5.743   0.651
 7259SOL    HW222122   2.164   5.586   0.695
 7260SOL     OW22123   3.484   5.953   0.374
 7260SOL    HW122124   3.486   5.877   0.438
 7260SOL    HW222125   3.436   6.030   0.414
 7261SOL     OW22126   2.885   6.352   0.966
 7261SOL    HW122127   2.900   6.373   1.062
 7261SOL    HW222128   2.855   6.257   0.957
 7262SOL     OW22129   2.842   7.159   1.700
 7262SOL    HW122130   2.822   7.203   1.612
 7262SOL    HW222131   2.881   7.068   1.684
 7263SOL     OW22132   3.721   7.104   1.605
 7263SOL    HW122133   3.735   7.131   1.510
 7263SOL    HW222134   3.804   7.126   1.658
 7264SOL     OW22135   2.212   6.484   1.804
 7264SOL    HW122136   2.288   6.528   1.852
 7264SOL    HW222137   2.247   6.437   1.722
 7265SOL     OW22138   3.402   5.860   0.125
 7265SOL    HW122139   3.341   5.785   0.148
 7265SOL    HW222140   3.424   5.912   0.208
 7266SOL     OW22141   3.165   6.424   0.042
 7266SOL    HW122142   3.199   6.331   0.057
 7266SOL    HW222143   3.183   6.451  -0.053
 7267SOL     OW22144   2.930   6.919   0.849
 7267SOL    HW122145   2.937   6.835   0.794
 7267SOL    HW222146   2.992   6.988   0.813
 7268SOL     OW22147   2.181   6.396   0.949
 7268SOL    HW122148   2.274   6.432   0.954
 7268SOL    HW222149   2.175   6.311   1.001
 7269SOL     OW22150   2.201   6.095   1.006
 7269SOL    HW122151   2.149   6.012   0.989
 7269SOL    HW222152   2.278   6.100   0.942
 7270SOL     OW22153   3.000   5.966   1.678
 7270SOL    HW122154   2.955   6.029   1.742
 7270SOL    HW222155   3.093   5.997   1.661
 7271SOL     OW22156   3.022   5.793   1.477
 7271SOL    HW122157   3.022   5.857   1.554
 7271SOL    HW222158   3.050   5.841   1.394
 7272SOL     OW22159   1.870   6.912   0.200
 7272SOL    HW122160   1.777   6.933   0.169
 7272SOL    HW222161   1.880   6.813   0.213
 7273SOL     OW22162   1.950   7.387   0.927
 7273SOL    HW122163   1.908   7.301   0.900
 7273SOL    HW222164   2.044   7.390   0.893
 7274SOL     OW22165   2.366   7.154   0.910
 7274SOL    HW122166   2.432   7.228   0.919
 7274SOL    HW222167   2.410   7.075   0.868
 7275SOL     OW22168   2.864   6.382   1.238
 7275SOL    HW122169   2.905   6.350   1.324
 7275SOL    HW222170   2.768   6.355   1.235
 7276SOL     OW22171   1.902   6.130   1.114
 7276SOL    HW122172   1.987   6.097   1.073
 7276SOL    HW222173   1.915   6.145   1.212
 7277SOL     OW22174   2.051   6.106   1.722
 7277SOL    HW122175   2.110   6.066   1.652
 7277SOL    HW222176   1.993   6.177   1.681
 7278SOL     OW22177   3.231   6.536   1.660
 7278SOL    HW122178   3.270   6.625   1.680
 7278SOL    HW222179   3.241   6.516   1.563
 7279SOL     OW22180   2.677   6.158   0.325
 7279SOL    HW122181   2.684   6.069   0.279
 7279SOL    HW222182   2.583   6.192   0.317
 7280SOL     OW22183   3.519   6.190   1.206
 7280SOL    HW122184   3.481   6.121   1.268
 7280SOL    HW222185   3.601   6.154   1.162
 7281SOL     OW22186   2.114   7.150   1.744
 7281SOL    HW122187   2.084   7.207   1.820
 7281SOL    HW222188   2.107   7.053   1.770
 7282SOL     OW22189   2.533   6.050   1.269
 7282SOL    HW122190   2.499   5.961   1.239
 7282SOL    HW222191   2.559   6.104   1.189
 7283SOL     OW22192   2.792   7.264   1.465
 7283SOL    HW122193   2.768   7.246   1.370
 7283SOL    HW222194   2.822   7.358   1.475
 7284SOL     OW22195   2.021   6.723   1.466
 7284SOL    HW122196   2.043   6.662   1.542
 7284SOL    HW222197   2.031   6.674   1.380
 7285SOL     OW22198   3.209   6.645   1.234
 7285SOL    HW122199   3.233   6.582   1.160
 7285SOL    HW222200   3.119   6.685   1.216
 7286SOL     OW22201   3.164   6.441   0.309
 7286SOL    HW122202   3.078   6.410   0.351
 7286SOL    HW222203   3.160   6.427   0.210
 7287SOL     OW22204   3.621   7.333   1.154
 7287SOL    HW122205   3.682   7.363   1.081
 7287SOL    HW222206   3.583   7.244   1.132
 7288SOL     OW22207   3.114   7.317   1.128
 7288SOL    HW122208   3.198   7.322   1.074
 7288SOL    HW222209   3.091   7.221   1.146
 7289SOL     OW22210   1.945   6.844   1.022
 7289SOL    HW122211   1.940   6.843   1.122
 7289SOL    HW222212   1.862   6.803   0.984
 7290SOL     OW22213   2.550   7.248   1.716
 7290SOL    HW122214   2.494   7.329   1.725
 7290SOL    HW222215   2.602   7.252   1.630
 7291SOL     OW22216   2.765   5.672   0.133
 7291SOL    HW122217   2.816   5.673   0.047
 7291SOL    HW222218   2.821   5.630   0.204
 7292SOL     OW22219   3.588   5.721   0.523
 7292SOL    HW122220   3.661   5.704   0.456
 7292SOL    HW222221   3.557   5.634   0.561
 7293SOL     OW22222   3.250   7.159   0.477
 7293SOL    HW122223   3.317   7.171   0.403
 7293SOL    HW222224   3.210   7.248   0.500
 7294SOL     OW22225   1.992   7.380   1.851
 7294SOL    HW122226   1.951   7.306   1.904
 7294SOL    HW222227   2.056   7.431   1.909
 7295SOL     OW22228   3.142   6.513   0.672
 7295SOL    HW122229   3.202   6.432   0.674
 7295SOL    HW222230   3.182   6.582   0.612
 7296SOL     OW22231   2.692   6.859   1.422
 7296SOL    HW122232   2.687   6.892   1.517
 7296SOL    HW222233   2.606   6.878   1.376
 7297SOL     OW22234   2.534   7.202   0.154
 7297SOL    HW122235   2.543   7.212   0.055
 7297SOL    HW222236   2.494   7.113   0.175
 7298SOL     OW22237   3.512   7.306   1.394
 7298SOL    HW122238   3.565   7.316   1.310
 7298SOL    HW222239   3.485   7.396   1.428
 7299SOL     OW22240   3.703   5.761   0.963
 7299SOL    HW122241   3.742   5.676   0.927
 7299SOL    HW222242   3.605   5.763   0.944
 7300SOL     OW22243   2.125   5.912   0.720
 7300SOL    HW122244   2.046   5.963   0.686
 7300SOL    HW222245   2.116   5.897   0.818
 7301SOL     OW22246   3.056   7.198   0.031
 7301SOL    HW122247   3.062   7.105   0.068
 7301SOL    HW222248   2.997   7.198  -0.049
 7302SOL     OW22249   2.684   6.588   1.372
 7302SOL    HW122250   2.724   6.587   1.280
 7302SOL    HW222251   2.694   6.680   1.412
 7303SOL     OW22252   2.778   6.496   0.291
 7303SOL    HW122253   2.841   6.534   0.223
 7303SOL    HW222254   2.818   6.413   0.330
 7304SOL     OW22255   3.366   7.193   0.044
 7304SOL    HW122256   3.274   7.230   0.051
 7304SOL    HW222257   3.404   7.213  -0.046
 7305SOL     OW22258   2.234   6.874   1.490
 7305SOL    HW122259   2.221   6.967   1.456
 7305SOL    HW222260   2.150   6.822   1.477
 7306SOL     OW22261   3.476   6.878   1.289
 7306SOL    HW122262   3.536   6.881   1.369
 7306SOL    HW222263   3.401   6.942   1.302
 7307SOL     OW22264   2.901   6.684   0.696
 7307SOL    HW122265   2.831   6.637   0.750
 7307SOL    HW222266   2.960   6.616   0.653
 7308SOL     OW22267   2.876   5.822   0.971
 7308SOL    HW122268   2.868   5.786   0.878
 7308SOL    HW222269   2.874   5.746   1.036
 7309SOL     OW22270   2.452   7.073   0.491
 7309SOL    HW122271   2.494   7.015   0.421
 7309SOL    HW222272   2.408   7.152   0.447
 7310SOL     OW22273   3.571   5.971   1.381
 7310SOL    HW122274   3.644   6.040   1.385
 7310SOL    HW222275   3.599   5.896   1.322
 7311SOL     OW22276   2.117   6.934   0.290
 7311SOL    HW122277   2.021   6.935   0.263
 7311SOL    HW222278   2.129   6.987   0.374
 7312SOL     OW22279   1.967   6.599   1.726
 7312SOL    HW122280   1.890   6.566   1.780
 7312SOL    HW222281   2.052   6.569   1.768
 7313SOL     OW22282   2.534   5.789   1.489
 7313SOL    HW122283   2.624   5.773   1.449
 7313SOL    HW222284   2.542   5.794   1.588
 7314SOL     OW22285   1.937   5.931   0.033
 7314SOL    HW122286   1.845   5.903   0.004
 7314SOL    HW222287   1.968   6.008  -0.023
 7315SOL     OW22288   3.302   6.442   1.398
 7315SOL    HW122289   3.245   6.494   1.335
 7315SOL    HW222290   3.398   6.454   1.374
 7316SOL     OW22291   1.934   5.752   0.318
 7316SOL    HW122292   1.917   5.835   0.264
 7316SOL    HW222293   2.024   5.715   0.296
 7317SOL     OW22294   3.045   6.921   0.119
 7317SOL    HW122295   2.946   6.910   0.121
 7317SOL    HW222296   3.079   6.936   0.212
 7318SOL     OW22297   2.475   6.428   1.431
 7318SOL    HW122298   2.531   6.509   1.414
 7318SOL    HW222299   2.534   6.348   1.434
 7319SOL     OW22300   3.355   7.353   0.959
 7319SOL    HW122301   3.388   7.417   0.890
 7319SOL    HW222302   3.421   7.347   1.034
 7320SOL     OW22303   2.578   6.151   1.708
 7320SOL    HW122304   2.597   6.216   1.782
 7320SOL    HW222305   2.638   6.071   1.717
 7321SOL     OW22306   3.312   6.806   1.633
 7321SOL    HW122307   3.303   6.796   1.732
 7321SOL    HW222308   3.408   6.799   1.607
 7322SOL     OW22309   2.252   7.327   1.560
 7322SOL    HW122310   2.161   7.368   1.558
 7322SOL    HW222311   2.245   7.233   1.592
 7323SOL     OW22312   3.536   6.469   1.254
 7323SOL    HW122313   3.509   6.380   1.217
 7323SOL    HW222314   3.537   6.537   1.181
 7324SOL     OW22315   3.087   5.911   0.449
 7324SOL    HW122316   3.152   5.837   0.438
 7324SOL    HW222317   3.107   5.961   0.533
 7325SOL     OW22318   2.456   6.331   0.652
 7325SOL    HW122319   2.506   6.416   0.633
 7325SOL    HW222320   2.368   6.333   0.604
 7326SOL     OW22321   3.639   5.928   1.642
 7326SOL    HW122322   3.622   5.959   1.548
 7326SOL    HW222323   3.555   5.891   1.680
 7327SOL     OW22324   3.592   6.520   1.517
 7327SOL    HW122325   3.630   6.611   1.532
 7327SOL    HW222326   3.584   6.503   1.418
 7328SOL     OW22327   2.721   6.960   0.016
 7328SOL    HW122328   2.675   6.975   0.104
 7328SOL    HW222329   2.765   7.045  -0.014
 7329SOL     OW22330   2.523   7.376   0.953
 7329SOL    HW122331   2.477   7.464   0.940
 7329SOL    HW222332   2.622   7.388   0.946
 7330SOL     OW22333   2.721   6.542   0.861
 7330SOL    HW122334   2.775   6.473   0.909
 7330SOL    HW222335   2.689   6.611   0.927
 7331SOL     OW22336   2.945   6.570   0.087
 7331SOL    HW122337   2.922   6.623   0.005
 7331SOL    HW222338   3.026   6.514   0.068
 7332SOL     OW22339   3.723   7.155   0.851
 7332SOL    HW122340   3.652   7.143   0.781
 7332SOL    HW222341   3.724   7.076   0.911
 7333SOL     OW22342   2.083   6.900   1.844
 7333SOL    HW122343   2.018   6.827   1.823
 7333SOL    HW222344   2.087   6.914   1.942
 7334SOL     OW22345   1.941   6.826   0.653
 7334SOL    HW122346   1.940   6.779   0.741
 7334SOL    HW222347   2.023   6.798   0.602
 7335SOL     OW22348   2.534   6.977   1.624
 7335SOL    HW122349   2.456   6.927   1.662
 7335SOL    HW222350   2.531   7.072   1.655
 7336SOL     OW22351   3.686   5.778   1.227
 7336SOL    HW122352   3.682   5.688   1.271
 7336SOL    HW222353   3.689   5.767   1.128
 7337SOL     OW22354   2.290   6.010   0.520
 7337SOL    HW122355   2.320   5.938   0.458
 7337SOL    HW222356   2.251   5.970   0.603
 7338SOL     OW22357   3.567   7.073   1.104
 7338SOL    HW122358   3.474   7.048   1.077
 7338SOL    HW222359   3.593   7.023   1.186
 7339SOL     OW22360   2.179   6.133   1.280
 7339SOL    HW122361   2.217   6.074   1.352
 7339SOL    HW222362   2.219   6.107   1.192
 7340SOL     OW22363   2.674   7.172   0.687
 7340SOL    HW122364   2.706   7.182   0.593
 7340SOL    HW222365   2.595   7.110   0.689
 7341SOL     OW22366   3.286   5.800   1.112
 7341SOL    HW122367   3.338   5.735   1.167
 7341SOL    HW222368   3.237   5.863   1.173
 7342SOL     OW22369   2.863   5.620   1.154
 7342SOL    HW122370   2.800   5.548   1.123
 7342SOL    HW222371   2.956   5.584   1.154
 7343SOL     OW22372   2.632   6.916   0.301
 7343SOL    HW122373   2.586   6.829   0.318
 7343SOL    HW222374   2.723   6.913   0.342
 7344SOL     OW22375   2.480   7.153   1.284
 7344SOL    HW122376   2.475   7.235   1.341
 7344SOL    HW222377   2.569   7.150   1.239
 7345SOL     OW22378   3.214   5.638   0.168
 7345SOL    HW122379   3.249   5.597   0.084
 7345SOL    HW222380   3.124   5.600   0.188
 7346SOL     OW22381   3.162   6.039   0.691
 7346SOL    HW122382   3.103   6.119   0.695
 7346SOL    HW222383   3.177   6.004   0.784
 7347SOL     OW22384   3.455   5.807   0.882
 7347SOL    HW122385   3.371   5.806   0.936
 7347SOL    HW222386   3.457   5.890   0.826
 7348SOL     OW22387   1.901   6.663   0.300
 7348SOL    HW122388   2.000   6.652   0.291
 7348SOL    HW222389   1.861   6.577   0.332
 7349SOL     OW22390   2.737   7.232   0.337
 7349SOL    HW122391   2.660   7.197   0.283
 7349SOL    HW222392   2.705   7.303   0.399
 7350SOL     OW22393   2.092   6.214   1.975
 7350SOL    HW122394   1.999   6.212   2.012
 7350SOL    HW222395   2.093   6.175   1.883
 7351SOL     OW22396   2.087   5.861   2.858
 7351SOL    HW122397   2.122   5.844   2.950
 7351SOL    HW222398   1.999   5.816   2.846
 7352SOL     OW22399   1.881   5.954   2.509
 7352SOL    HW122400   1.799   5.997   2.548
 7352SOL    HW222401   1.853   5.881   2.446
 7353SOL     OW22402   2.431   6.861   3.027
 7353SOL    HW122403   2.338   6.854   2.990
 7353SOL    HW222404   2.442   6.950   3.071
 7354SOL     OW22405   3.417   7.097   2.565
 7354SOL    HW122406   3.360   7.081   2.646
 7354SOL    HW222407   3.358   7.107   2.485
 7355SOL     OW22408   2.997   6.289   2.579
 7355SOL    HW122409   3.054   6.367   2.554
 7355SOL    HW222410   2.937   6.315   2.655
 7356SOL     OW22411   3.617   6.193   2.093
 7356SOL    HW122412   3.605   6.180   1.994
 7356SOL    HW222413   3.587   6.112   2.142
 7357SOL     OW22414   2.630   6.730   2.885
 7357SOL    HW122415   2.552   6.747   2.945
 7357SOL    HW222416   2.664   6.817   2.849
 7358SOL     OW22417   2.712   6.384   3.685
 7358SOL    HW122418   2.708   6.460   3.750
 7358SOL    HW222419   2.734   6.420   3.594
 7359SOL     OW22420   2.547   6.598   2.527
 7359SOL    HW122421   2.616   6.582   2.597
 7359SOL    HW222422   2.474   6.655   2.565
 7360SOL     OW22423   2.548   6.747   3.665
 7360SOL    HW122424   2.608   6.826   3.679
 7360SOL    HW222425   2.462   6.778   3.624
 7361SOL     OW22426   2.197   7.021   2.923
 7361SOL    HW122427   2.119   6.990   2.870
 7361SOL    HW222428   2.255   7.079   2.866
 7362SOL     OW22429   3.322   7.091   3.201
 7362SOL    HW122430   3.346   7.185   3.227
 7362SOL    HW222431   3.306   7.037   3.283
 7363SOL     OW22432   2.300   5.978   3.361
 7363SOL    HW122433   2.382   5.922   3.370
 7363SOL    HW222434   2.219   5.920   3.365
 7364SOL     OW22435   3.465   6.033   2.599
 7364SOL    HW122436   3.391   6.079   2.549
 7364SOL    HW222437   3.516   6.101   2.652
 7365SOL     OW22438   2.093   7.299   2.345
 7365SOL    HW122439   2.127   7.376   2.399
 7365SOL    HW222440   2.137   7.299   2.255
 7366SOL     OW22441   2.989   6.927   3.552
 7366SOL    HW122442   3.036   6.927   3.640
 7366SOL    HW222443   2.941   6.840   3.541
 7367SOL     OW22444   2.092   7.020   2.400
 7367SOL    HW122445   2.066   7.116   2.400
 7367SOL    HW222446   2.021   6.966   2.445
 7368SOL     OW22447   2.102   6.677   2.748
 7368SOL    HW122448   2.116   6.593   2.800
 7368SOL    HW222449   2.047   6.741   2.803
 7369SOL     OW22450   2.482   7.372   3.301
 7369SOL    HW122451   2.390   7.355   3.336
 7369SOL    HW222452   2.510   7.464   3.327
 7370SOL     OW22453   2.468   6.550   1.985
 7370SOL    HW122454   2.475   6.634   1.931
 7370SOL    HW222455   2.514   6.563   2.073
 7371SOL     OW22456   3.456   5.700   3.342
 7371SOL    HW122457   3.438   5.767   3.270
 7371SOL    HW222458   3.453   5.746   3.431
 7372SOL     OW22459   1.984   6.229   2.425
 7372SOL    HW122460   1.939   6.141   2.442
 7372SOL    HW222461   1.983   6.283   2.509
 7373SOL     OW22462   3.704   7.353   2.221
 7373SOL    HW122463   3.758   7.324   2.301
 7373SOL    HW222464   3.734   7.443   2.192
 7374SOL     OW22465   1.889   7.182   1.979
 7374SOL    HW122466   1.870   7.086   2.000
 7374SOL    HW222467   1.856   7.240   2.054
 7375SOL     OW22468   3.551   6.508   2.474
 7375SOL    HW122469   3.646   6.479   2.482
 7375SOL    HW222470   3.543   6.573   2.399
 7376SOL     OW22471   3.503   6.694   2.294
 7376SOL    HW122472   3.589   6.696   2.242
 7376SOL    HW222473   3.517   6.741   2.382
 7377SOL     OW22474   1.975   6.323   3.459
 7377SOL    HW122475   2.063   6.310   3.504
 7377SOL    HW222476   1.962   6.420   3.437
 7378SOL     OW22477   2.475   6.951   2.588
 7378SOL    HW122478   2.426   6.864   2.597
 7378SOL    HW222479   2.452   6.994   2.501
 7379SOL     OW22480   3.155   6.814   3.285
 7379SOL    HW122481   3.192   6.741   3.227
 7379SOL    HW222482   3.207   6.819   3.370
 7380SOL     OW22483   2.671   5.590   2.364
 7380SOL    HW122484   2.711   5.681   2.355
 7380SOL    HW222485   2.571   5.598   2.370
 7381SOL     OW22486   2.059   6.562   3.126
 7381SOL    HW122487   2.148   6.517   3.112
 7381SOL    HW222488   1.986   6.497   3.107
 7382SOL     OW22489   3.387   6.585   2.052
 7382SOL    HW122490   3.324   6.509   2.065
 7382SOL    HW222491   3.435   6.603   2.138
 7383SOL     OW22492   3.049   7.378   3.478
 7383SOL    HW122493   3.073   7.438   3.402
 7383SOL    HW222494   3.056   7.283   3.448
 7384SOL     OW22495   2.179   5.837   3.663
 7384SOL    HW122496   2.250   5.908   3.669
 7384SOL    HW222497   2.091   5.876   3.691
 7385SOL     OW22498   3.328   7.003   2.815
 7385SOL    HW122499   3.269   7.009   2.895
 7385SOL    HW222500   3.313   6.915   2.769
 7386SOL     OW22501   3.529   7.300   2.434
 7386SOL    HW122502   3.488   7.277   2.346
 7386SOL    HW222503   3.511   7.226   2.499
 7387SOL     OW22504   2.460   6.315   2.132
 7387SOL    HW122505   2.484   6.384   2.064
 7387SOL    HW222506   2.382   6.348   2.186
 7388SOL     OW22507   3.143   5.931   2.806
 7388SOL    HW122508   3.057   5.881   2.793
 7388SOL    HW222509   3.205   5.877   2.862
 7389SOL     OW22510   3.438   7.248   2.169
 7389SOL    HW122511   3.527   7.294   2.172
 7389SOL    HW222512   3.417   7.224   2.074
 7390SOL     OW22513   2.669   6.191   3.327
 7390SOL    HW122514   2.622   6.188   3.416
 7390SOL    HW222515   2.618   6.136   3.261
 7391SOL     OW22516   2.835   6.476   3.434
 7391SOL    HW122517   2.881   6.392   3.405
 7391SOL    HW222518   2.779   6.510   3.359
 7392SOL     OW22519   2.853   5.996   3.104
 7392SOL    HW122520   2.776   6.030   3.158
 7392SOL    HW222521   2.819   5.945   3.025
 7393SOL     OW22522   2.903   6.287   2.291
 7393SOL    HW122523   2.929   6.283   2.387
 7393SOL    HW222524   2.818   6.236   2.277
 7394SOL     OW22525   1.938   6.397   2.651
 7394SOL    HW122526   2.037   6.385   2.660
 7394SOL    HW222527   1.914   6.492   2.672
 7395SOL     OW22528   1.992   7.407   3.433
 7395SOL    HW122529   1.982   7.392   3.532
 7395SOL    HW222530   1.906   7.443   3.397
 7396SOL     OW22531   2.727   5.934   2.057
 7396SOL    HW122532   2.786   5.997   2.008
 7396SOL    HW222533   2.746   5.840   2.028
 7397SOL     OW22534   3.581   6.171   3.693
 7397SOL    HW122535   3.555   6.260   3.657
 7397SOL    HW222536   3.579   6.103   3.620
 7398SOL     OW22537   3.224   6.730   2.407
 7398SOL    HW122538   3.307   6.701   2.359
 7398SOL    HW222539   3.175   6.797   2.351
 7399SOL     OW22540   2.412   5.782   2.747
 7399SOL    HW122541   2.407   5.777   2.847
 7399SOL    HW222542   2.414   5.878   2.718
 7400SOL     OW22543   2.870   7.042   2.339
 7400SOL    HW122544   2.824   7.114   2.287
 7400SOL    HW222545   2.866   7.062   2.437
 7401SOL     OW22546   2.213   7.387   2.715
 7401SOL    HW122547   2.263   7.301   2.721
 7401SOL    HW222548   2.278   7.464   2.712
 7402SOL     OW22549   3.657   6.652   2.735
 7402SOL    HW122550   3.595   6.637   2.659
 7402SOL    HW222551   3.605   6.663   2.820
 7403SOL     OW22552   2.183   6.529   2.104
 7403SOL    HW122553   2.265   6.568   2.062
 7403SOL    HW222554   2.156   6.447   2.055
 7404SOL     OW22555   3.320   6.321   2.590
 7404SOL    HW122556   3.315   6.256   2.665
 7404SOL    HW222557   3.400   6.380   2.603
 7405SOL     OW22558   2.323   6.852   3.589
 7405SOL    HW122559   2.273   6.853   3.503
 7405SOL    HW222560   2.260   6.834   3.665
 7406SOL     OW22561   2.973   7.362   2.099
 7406SOL    HW122562   2.913   7.300   2.149
 7406SOL    HW222563   3.004   7.318   2.014
 7407SOL     OW22564   2.064   5.871   3.360
 7407SOL    HW122565   1.984   5.931   3.347
 7407SOL    HW222566   2.054   5.822   3.446
 7408SOL     OW22567   3.494   6.963   1.943
 7408SOL    HW122568   3.462   7.057   1.933
 7408SOL    HW222569   3.418   6.900   1.931
 7409SOL     OW22570   2.326   7.329   2.185
 7409SOL    HW122571   2.359   7.368   2.271
 7409SOL    HW222572   2.402   7.322   2.120
 7410SOL     OW22573   3.262   5.693   2.288
 7410SOL    HW122574   3.238   5.656   2.198
 7410SOL    HW222575   3.361   5.709   2.292
 7411SOL     OW22576   2.111   7.371   3.103
 7411SOL    HW122577   2.168   7.306   3.153
 7411SOL    HW222578   2.095   7.338   3.010
 7412SOL     OW22579   2.802   7.284   2.766
 7412SOL    HW122580   2.882   7.227   2.787
 7412SOL    HW222581   2.753   7.244   2.689
 7413SOL     OW22582   2.244   6.286   2.342
 7413SOL    HW122583   2.289   6.196   2.339
 7413SOL    HW222584   2.150   6.275   2.375
 7414SOL     OW22585   3.409   5.808   3.591
 7414SOL    HW122586   3.404   5.845   3.683
 7414SOL    HW222587   3.337   5.739   3.579
 7415SOL     OW22588   2.476   5.708   1.979
 7415SOL    HW122589   2.574   5.686   1.986
 7415SOL    HW222590   2.445   5.691   1.886
 7416SOL     OW22591   2.643   5.850   3.611
 7416SOL    HW122592   2.710   5.789   3.654
 7416SOL    HW222593   2.570   5.869   3.676
 7417SOL     OW22594   2.750   7.100   3.057
 7417SOL    HW122595   2.727   7.075   2.963
 7417SOL    HW222596   2.811   7.031   3.096
 7418SOL     OW22597   3.213   6.176   3.295
 7418SOL    HW122598   3.241   6.133   3.380
 7418SOL    HW222599   3.238   6.272   3.296
 7419SOL     OW22600   2.665   6.988   2.786
 7419SOL    HW122601   2.755   7.002   2.744
 7419SOL    HW222602   2.594   6.990   2.715
 7420SOL     OW22603   2.784   6.089   2.761
 7420SOL    HW122604   2.759   6.080   2.665
 7420SOL    HW222605   2.832   6.007   2.792
 7421SOL     OW22606   2.401   5.650   2.374
 7421SOL    HW122607   2.320   5.651   2.432
 7421SOL    HW222608   2.404   5.733   2.319
 7422SOL     OW22609   3.296   6.774   1.903
 7422SOL    HW122610   3.328   6.698   1.960
 7422SOL    HW222611   3.204   6.801   1.933
 7423SOL     OW22612   2.159   5.621   2.033
 7423SOL    HW122613   2.208   5.705   2.012
 7423SOL    HW222614   2.221   5.556   2.078
 7424SOL     OW22615   2.797   5.822   2.342
 7424SOL    HW122616   2.749   5.863   2.264
 7424SOL    HW222617   2.896   5.820   2.323
 7425SOL     OW22618   2.938   6.269   3.326
 7425SOL    HW122619   2.858   6.208   3.329
 7425SOL    HW222620   3.019   6.216   3.302
 7426SOL     OW22621   3.089   7.156   2.655
 7426SOL    HW122622   3.110   7.230   2.590
 7426SOL    HW222623   3.157   7.156   2.728
 7427SOL     OW22624   2.321   6.738   2.603
 7427SOL    HW122625   2.250   6.711   2.668
 7427SOL    HW222626   2.295   6.710   2.510
 7428SOL     OW22627   3.133   7.383   2.453
 7428SOL    HW122628   3.177   7.447   2.389
 7428SOL    HW222629   3.083   7.435   2.523
 7429SOL     OW22630   2.894   6.135   1.878
 7429SOL    HW122631   2.853   6.217   1.839
 7429SOL    HW222632   2.958   6.161   1.951
 7430SOL     OW22633   1.940   6.142   3.248
 7430SOL    HW122634   2.032   6.141   3.207
 7430SOL    HW222635   1.934   6.216   3.315
 7431SOL     OW22636   2.423   5.808   3.009
 7431SOL    HW122637   2.461   5.724   3.046
 7431SOL    HW222638   2.335   5.827   3.053
 7432SOL     OW22639   2.728   6.040   2.504
 7432SOL    HW122640   2.696   6.112   2.442
 7432SOL    HW222641   2.752   5.959   2.451
 7433SOL     OW22642   2.879   5.625   2.615
 7433SOL    HW122643   2.807   5.630   2.546
 7433SOL    HW222644   2.855   5.556   2.684
 7434SOL     OW22645   3.291   6.759   2.729
 7434SOL    HW122646   3.236   6.675   2.722
 7434SOL    HW222647   3.317   6.788   2.637
 7435SOL     OW22648   3.328   6.176   2.854
 7435SOL    HW122649   3.298   6.081   2.861
 7435SOL    HW222650   3.401   6.192   2.920
 7436SOL     OW22651   3.719   6.419   2.239
 7436SOL    HW122652   3.761   6.355   2.303
 7436SOL    HW222653   3.681   6.368   2.161
 7437SOL     OW22654   2.350   6.971   2.036
 7437SOL    HW122655   2.263   6.956   2.083
 7437SOL    HW222656   2.333   6.997   1.941
 7438SOL     OW22657   3.526   6.866   2.519
 7438SOL    HW122658   3.625   6.874   2.533
 7438SOL    HW222659   3.481   6.950   2.550
 7439SOL     OW22660   3.252   6.161   1.940
 7439SOL    HW122661   3.198   6.140   2.021
 7439SOL    HW222662   3.343   6.120   1.949
 7440SOL     OW22663   2.389   5.842   2.190
 7440SOL    HW122664   2.416   5.783   2.115
 7440SOL    HW222665   2.389   5.937   2.159
 7441SOL     OW22666   3.616   6.809   3.450
 7441SOL    HW122667   3.707   6.770   3.437
 7441SOL    HW222668   3.624   6.905   3.474
 7442SOL     OW22669   2.926   6.933   3.202
 7442SOL    HW122670   2.846   6.910   3.257
 7442SOL    HW222671   3.009   6.907   3.251
 7443SOL     OW22672   3.454   7.215   3.487
 7443SOL    HW122673   3.481   7.249   3.397
 7443SOL    HW222674   3.533   7.177   3.533
 7444SOL     OW22675   2.973   6.781   2.962
 7444SOL    HW122676   2.933   6.825   3.043
 7444SOL    HW222677   2.932   6.818   2.879
 7445SOL     OW22678   3.500   6.685   2.941
 7445SOL    HW122679   3.505   6.766   3.000
 7445SOL    HW222680   3.414   6.687   2.890
 7446SOL     OW22681   2.777   5.675   3.264
 7446SOL    HW122682   2.802   5.655   3.169
 7446SOL    HW222683   2.849   5.731   3.306
 7447SOL     OW22684   2.842   6.702   3.581
 7447SOL    HW122685   2.743   6.708   3.591
 7447SOL    HW222686   2.865   6.622   3.525
 7448SOL     OW22687   2.567   6.636   2.230
 7448SOL    HW122688   2.553   6.643   2.329
 7448SOL    HW222689   2.651   6.585   2.212
 7449SOL     OW22690   2.272   6.399   3.113
 7449SOL    HW122691   2.358   6.411   3.163
 7449SOL    HW222692   2.230   6.312   3.140
 7450SOL     OW22693   3.136   5.972   3.124
 7450SOL    HW122694   3.157   6.046   3.188
 7450SOL    HW222695   3.047   5.989   3.081
 7451SOL     OW22696   1.926   7.150   3.193
 7451SOL    HW122697   1.880   7.232   3.159
 7451SOL    HW222698   2.024   7.169   3.202
 7452SOL     OW22699   2.229   6.686   2.363
 7452SOL    HW122700   2.222   6.769   2.307
 7452SOL    HW222701   2.233   6.606   2.303
 7453SOL     OW22702   2.428   6.123   2.727
 7453SOL    HW122703   2.440   6.189   2.653
 7453SOL    HW222704   2.474   6.157   2.810
 7454SOL     OW22705   3.114   6.934   2.250
 7454SOL    HW122706   3.164   7.011   2.290
 7454SOL    HW222707   3.019   6.936   2.282
 7455SOL     OW22708   3.134   7.031   3.004
 7455SOL    HW122709   3.181   7.044   3.091
 7455SOL    HW222710   3.068   6.957   3.013
 7456SOL     OW22711   3.444   6.225   2.334
 7456SOL    HW122712   3.413   6.286   2.407
 7456SOL    HW222713   3.494   6.277   2.265
 7457SOL     OW22714   2.216   7.096   3.191
 7457SOL    HW122715   2.195   7.052   3.104
 7457SOL    HW222716   2.313   7.122   3.194
 7458SOL     OW22717   2.264   6.337   3.460
 7458SOL    HW122718   2.332   6.392   3.413
 7458SOL    HW222719   2.304   6.249   3.487
 7459SOL     OW22720   3.449   6.365   3.532
 7459SOL    HW122721   3.357   6.403   3.527
 7459SOL    HW222722   3.509   6.412   3.467
 7460SOL     OW22723   2.875   5.691   3.632
 7460SOL    HW122724   2.881   5.776   3.580
 7460SOL    HW222725   2.907   5.615   3.575
 7461SOL     OW22726   2.366   5.636   3.602
 7461SOL    HW122727   2.324   5.579   3.532
 7461SOL    HW222728   2.300   5.705   3.634
 7462SOL     OW22729   2.435   6.456   2.891
 7462SOL    HW122730   2.479   6.545   2.882
 7462SOL    HW222731   2.372   6.456   2.968
 7463SOL     OW22732   3.222   6.448   2.907
 7463SOL    HW122733   3.147   6.448   2.841
 7463SOL    HW222734   3.259   6.356   2.916
 7464SOL     OW22735   3.071   6.111   2.137
 7464SOL    HW122736   3.084   6.027   2.191
 7464SOL    HW222737   3.042   6.185   2.197
 7465SOL     OW22738   2.169   5.799   3.093
 7465SOL    HW122739   2.146   5.836   3.183
 7465SOL    HW222740   2.139   5.704   3.087
 7466SOL     OW22741   1.899   6.896   3.144
 7466SOL    HW122742   1.952   6.847   3.212
 7466SOL    HW222743   1.921   6.994   3.149
 7467SOL     OW22744   2.594   6.220   2.926
 7467SOL    HW122745   2.653   6.194   2.850
 7467SOL    HW222746   2.566   6.316   2.915
 7468SOL     OW22747   3.590   6.521   3.716
 7468SOL    HW122748   3.544   6.514   3.627
 7468SOL    HW222749   3.528   6.565   3.782
 7469SOL     OW22750   2.169   5.649   2.480
 7469SOL    HW122751   2.158   5.743   2.513
 7469SOL    HW222752   2.164   5.586   2.557
 7470SOL     OW22753   3.484   5.953   2.236
 7470SOL    HW122754   3.486   5.877   2.300
 7470SOL    HW222755   3.436   6.030   2.276
 7471SOL     OW22756   2.885   6.352   2.828
 7471SOL    HW122757   2.900   6.373   2.924
 7471SOL    HW222758   2.855   6.257   2.819
 7472SOL     OW22759   2.842   7.159   3.562
 7472SOL    HW122760   2.822   7.203   3.474
 7472SOL    HW222761   2.881   7.068   3.546
 7473SOL     OW22762   3.721   7.104   3.467
 7473SOL    HW122763   3.735   7.131   3.372
 7473SOL    HW222764   3.804   7.126   3.520
 7474SOL     OW22765   2.212   6.484   3.666
 7474SOL    HW122766   2.288   6.528   3.714
 7474SOL    HW222767   2.247   6.437   3.584
 7475SOL     OW22768   3.402   5.860   1.987
 7475SOL    HW122769   3.341   5.785   2.010
 7475SOL    HW222770   3.424   5.912   2.070
 7476SOL     OW22771   3.165   6.424   1.904
 7476SOL    HW122772   3.199   6.331   1.919
 7476SOL    HW222773   3.183   6.451   1.809
 7477SOL     OW22774   2.930   6.919   2.711
 7477SOL    HW122775   2.937   6.835   2.656
 7477SOL    HW222776   2.992   6.988   2.675
 7478SOL     OW22777   2.181   6.396   2.811
 7478SOL    HW122778   2.274   6.432   2.816
 7478SOL    HW222779   2.175   6.311   2.863
 7479SOL     OW22780   2.201   6.095   2.868
 7479SOL    HW122781   2.149   6.012   2.851
 7479SOL    HW222782   2.278   6.100   2.804
 7480SOL     OW22783   3.000   5.966   3.540
 7480SOL    HW122784   2.955   6.029   3.604
 7480SOL    HW222785   3.093   5.997   3.523
 7481SOL     OW22786   3.022   5.793   3.339
 7481SOL    HW122787   3.022   5.857   3.416
 7481SOL    HW222788   3.050   5.841   3.256
 7482SOL     OW22789   1.870   6.912   2.062
 7482SOL    HW122790   1.777   6.933   2.031
 7482SOL    HW222791   1.880   6.813   2.075
 7483SOL     OW22792   1.950   7.387   2.789
 7483SOL    HW122793   1.908   7.301   2.762
 7483SOL    HW222794   2.044   7.390   2.755
 7484SOL     OW22795   2.366   7.154   2.772
 7484SOL    HW122796   2.432   7.228   2.781
 7484SOL    HW222797   2.410   7.075   2.730
 7485SOL     OW22798   2.864   6.382   3.100
 7485SOL    HW122799   2.905   6.350   3.186
 7485SOL    HW222800   2.768   6.355   3.097
 7486SOL     OW22801   1.902   6.130   2.976
 7486SOL    HW122802   1.987   6.097   2.935
 7486SOL    HW222803   1.915   6.145   3.074
 7487SOL     OW22804   2.051   6.106   3.584
 7487SOL    HW122805   2.110   6.066   3.514
 7487SOL    HW222806   1.993   6.177   3.543
 7488SOL     OW22807   3.231   6.536   3.522
 7488SOL    HW122808   3.270   6.625   3.542
 7488SOL    HW222809   3.241   6.516   3.425
 7489SOL     OW22810   2.677   6.158   2.187
 7489SOL    HW122811   2.684   6.069   2.141
 7489SOL    HW222812   2.583   6.192   2.179
 7490SOL     OW22813   3.519   6.190   3.068
 7490SOL    HW122814   3.481   6.121   3.130
 7490SOL    HW222815   3.601   6.154   3.024
 7491SOL     OW22816   2.114   7.150   3.606
 7491SOL    HW122817   2.084   7.207   3.682
 7491SOL    HW222818   2.107   7.053   3.632
 7492SOL     OW22819   2.533   6.050   3.131
 7492SOL    HW122820   2.499   5.961   3.101
 7492SOL    HW222821   2.559   6.104   3.051
 7493SOL     OW22822   2.792   7.264   3.327
 7493SOL    HW122823   2.768   7.246   3.232
 7493SOL    HW222824   2.822   7.358   3.337
 7494SOL     OW22825   2.335   6.086   2.053
 7494SOL    HW122826   2.396   6.166   2.057
 7494SOL    HW222827   2.240   6.117   2.060
 7495SOL     OW22828   2.021   6.723   3.328
 7495SOL    HW122829   2.043   6.662   3.404
 7495SOL    HW222830   2.031   6.674   3.242
 7496SOL     OW22831   3.209   6.645   3.096
 7496SOL    HW122832   3.233   6.582   3.022
 7496SOL    HW222833   3.119   6.685   3.078
 7497SOL     OW22834   3.164   6.441   2.171
 7497SOL    HW122835   3.078   6.410   2.213
 7497SOL    HW222836   3.160   6.427   2.072
 7498SOL     OW22837   3.621   7.333   3.016
 7498SOL    HW122838   3.682   7.363   2.943
 7498SOL    HW222839   3.583   7.244   2.994
 7499SOL     OW22840   3.114   7.317   2.990
 7499SOL    HW122841   3.198   7.322   2.936
 7499SOL    HW222842   3.091   7.221   3.008
 7500SOL     OW22843   1.945   6.844   2.884
 7500SOL    HW122844   1.940   6.843   2.984
 7500SOL    HW222845   1.862   6.803   2.846
 7501SOL     OW22846   2.550   7.248   3.578
 7501SOL    HW122847   2.494   7.329   3.587
 7501SOL    HW222848   2.602   7.252   3.492
 7502SOL     OW22849   3.588   5.721   2.385
 7502SOL    HW122850   3.661   5.704   2.318
 7502SOL    HW222851   3.557   5.634   2.423
 7503SOL     OW22852   3.250   7.159   2.339
 7503SOL    HW122853   3.317   7.171   2.265
 7503SOL    HW222854   3.210   7.248   2.362
 7504SOL     OW22855   1.992   7.380   3.713
 7504SOL    HW122856   1.951   7.306   3.766
 7504SOL    HW222857   2.056   7.431   3.771
 7505SOL     OW22858   3.142   6.513   2.534
 7505SOL    HW122859   3.202   6.432   2.536
 7505SOL    HW222860   3.182   6.582   2.474
 7506SOL     OW22861   2.692   6.859   3.284
 7506SOL    HW122862   2.687   6.892   3.379
 7506SOL    HW222863   2.606   6.878   3.238
 7507SOL     OW22864   2.534   7.202   2.016
 7507SOL    HW122865   2.543   7.212   1.917
 7507SOL    HW222866   2.494   7.113   2.037
 7508SOL     OW22867   3.512   7.306   3.256
 7508SOL    HW122868   3.565   7.316   3.172
 7508SOL    HW222869   3.485   7.396   3.290
 7509SOL     OW22870   3.703   5.761   2.825
 7509SOL    HW122871   3.742   5.676   2.789
 7509SOL    HW222872   3.605   5.763   2.806
 7510SOL     OW22873   2.125   5.912   2.582
 7510SOL    HW122874   2.046   5.963   2.548
 7510SOL    HW222875   2.116   5.897   2.680
 7511SOL     OW22876   3.056   7.198   1.893
 7511SOL    HW122877   3.062   7.105   1.930
 7511SOL    HW222878   2.997   7.198   1.813
 7512SOL     OW22879   2.684   6.588   3.234
 7512SOL    HW122880   2.724   6.587   3.142
 7512SOL    HW222881   2.694   6.680   3.274
 7513SOL     OW22882   2.778   6.496   2.153
 7513SOL    HW122883   2.841   6.534   2.085
 7513SOL    HW222884   2.818   6.413   2.192
 7514SOL     OW22885   3.366   7.193   1.906
 7514SOL    HW122886   3.274   7.230   1.913
 7514SOL    HW222887   3.404   7.213   1.816
 7515SOL     OW22888   2.234   6.874   3.352
 7515SOL    HW122889   2.221   6.967   3.318
 7515SOL    HW222890   2.150   6.822   3.339
 7516SOL     OW22891   3.476   6.878   3.151
 7516SOL    HW122892   3.536   6.881   3.231
 7516SOL    HW222893   3.401   6.942   3.164
 7517SOL     OW22894   2.901   6.684   2.558
 7517SOL    HW122895   2.831   6.637   2.612
 7517SOL    HW222896   2.960   6.616   2.515
 7518SOL     OW22897   2.876   5.822   2.833
 7518SOL    HW122898   2.868   5.786   2.740
 7518SOL    HW222899   2.874   5.746   2.898
 7519SOL     OW22900   2.452   7.073   2.353
 7519SOL    HW122901   2.494   7.015   2.283
 7519SOL    HW222902   2.408   7.152   2.309
 7520SOL     OW22903   3.571   5.971   3.243
 7520SOL    HW122904   3.644   6.040   3.247
 7520SOL    HW222905   3.599   5.896   3.184
 7521SOL     OW22906   2.117   6.934   2.152
 7521SOL    HW122907   2.021   6.935   2.125
 7521SOL    HW222908   2.129   6.987   2.236
 7522SOL     OW22909   1.967   6.599   3.588
 7522SOL    HW122910   1.890   6.566   3.642
 7522SOL    HW222911   2.052   6.569   3.630
 7523SOL     OW22912   2.534   5.789   3.351
 7523SOL    HW122913   2.624   5.773   3.311
 7523SOL    HW222914   2.542   5.794   3.450
 7524SOL     OW22915   1.937   5.931   1.895
 7524SOL    HW122916   1.845   5.903   1.866
 7524SOL    HW222917   1.968   6.008   1.839
 7525SOL     OW22918   3.302   6.442   3.260
 7525SOL    HW122919   3.245   6.494   3.197
 7525SOL    HW222920   3.398   6.454   3.236
 7526SOL     OW22921   1.934   5.752   2.180
 7526SOL    HW122922   1.917   5.835   2.126
 7526SOL    HW222923   2.024   5.715   2.158
 7527SOL     OW22924   3.045   6.921   1.981
 7527SOL    HW122925   2.946   6.910   1.983
 7527SOL    HW222926   3.079   6.936   2.074
 7528SOL     OW22927   2.475   6.428   3.293
 7528SOL    HW122928   2.531   6.509   3.276
 7528SOL    HW222929   2.534   6.348   3.296
 7529SOL     OW22930   3.355   7.353   2.821
 7529SOL    HW122931   3.388   7.417   2.752
 7529SOL    HW222932   3.421   7.347   2.896
 7530SOL     OW22933   2.578   6.151   3.570
 7530SOL    HW122934   2.597   6.216   3.644
 7530SOL    HW222935   2.638   6.071   3.579
 7531SOL     OW22936   3.312   6.806   3.495
 7531SOL    HW122937   3.303   6.796   3.594
 7531SOL    HW222938   3.408   6.799   3.469
 7532SOL     OW22939   2.252   7.327   3.422
 7532SOL    HW122940   2.161   7.368   3.420
 7532SOL    HW222941   2.245   7.233   3.454
 7533SOL     OW22942   3.536   6.469   3.116
 7533SOL    HW122943   3.509   6.380   3.079
 7533SOL    HW222944   3.537   6.537   3.043
 7534SOL     OW22945   3.087   5.911   2.311
 7534SOL    HW122946   3.152   5.837   2.300
 7534SOL    HW222947   3.107   5.961   2.395
 7535SOL     OW22948   2.456   6.331   2.514
 7535SOL    HW122949   2.506   6.416   2.495
 7535SOL    HW222950   2.368   6.333   2.466
 7536SOL     OW22951   3.639   5.928   3.504
 7536SOL    HW122952   3.622   5.959   3.410
 7536SOL    HW222953   3.555   5.891   3.542
 7537SOL     OW22954   3.592   6.520   3.379
 7537SOL    HW122955   3.630   6.611   3.394
 7537SOL    HW222956   3.584   6.503   3.280
 7538SOL     OW22957   2.721   6.960   1.878
 7538SOL    HW122958   2.675   6.975   1.966
 7538SOL    HW222959   2.765   7.045   1.848
 7539SOL     OW22960   2.523   7.376   2.815
 7539SOL    HW122961   2.477   7.464   2.802
 7539SOL    HW222962   2.622   7.388   2.808
 7540SOL     OW22963   2.721   6.542   2.723
 7540SOL    HW122964   2.775   6.473   2.771
 7540SOL    HW222965   2.689   6.611   2.789
 7541SOL     OW22966   2.945   6.570   1.949
 7541SOL    HW122967   2.922   6.623   1.867
 7541SOL    HW222968   3.026   6.514   1.930
 7542SOL     OW22969   3.723   7.155   2.713
 7542SOL    HW122970   3.652   7.143   2.643
 7542SOL    HW222971   3.724   7.076   2.773
 7543SOL     OW22972   2.083   6.900   3.706
 7543SOL    HW122973   2.018   6.827   3.685
 7543SOL    HW222974   2.087   6.914   3.804
 7544SOL     OW22975   1.941   6.826   2.515
 7544SOL    HW122976   1.940   6.779   2.603
 7544SOL    HW222977   2.023   6.798   2.464
 7545SOL     OW22978   2.534   6.977   3.486
 7545SOL    HW122979   2.456   6.927   3.524
 7545SOL    HW222980   2.531   7.072   3.517
 7546SOL     OW22981   3.686   5.778   3.089
 7546SOL    HW122982   3.682   5.688   3.133
 7546SOL    HW222983   3.689   5.767   2.990
 7547SOL     OW22984   2.290   6.010   2.382
 7547SOL    HW122985   2.320   5.938   2.320
 7547SOL    HW222986   2.251   5.970   2.465
 7548SOL     OW22987   3.567   7.073   2.966
 7548SOL    HW122988   3.474   7.048   2.939
 7548SOL    HW222989   3.593   7.023   3.048
 7549SOL     OW22990   2.179   6.133   3.142
 7549SOL    HW122991   2.217   6.074   3.214
 7549SOL    HW222992   2.219   6.107   3.054
 7550SOL     OW22993   2.674   7.172   2.549
 7550SOL    HW122994   2.706   7.182   2.455
 7550SOL    HW222995   2.595   7.110   2.551
 7551SOL     OW22996   3.286   5.800   2.974
 7551SOL    HW122997   3.338   5.735   3.029
 7551SOL    HW222998   3.237   5.863   3.035
 7552SOL     OW22999   2.863   5.620   3.016
 7552SOL    HW123000   2.800   5.548   2.985
 7552SOL    HW223001   2.956   5.584   3.016
 7553SOL     OW23002   2.632   6.916   2.163
 7553SOL    HW123003   2.586   6.829   2.180
 7553SOL    HW223004   2.723   6.913   2.204
 7554SOL     OW23005   2.480   7.153   3.146
 7554SOL    HW123006   2.475   7.235   3.203
 7554SOL    HW223007   2.569   7.150   3.101
 7555SOL     OW23008   3.214   5.638   2.030
 7555SOL    HW123009   3.249   5.597   1.946
 7555SOL    HW223010   3.124   5.600   2.050
 7556SOL     OW23011   3.162   6.039   2.553
 7556SOL    HW123012   3.103   6.119   2.557
 7556SOL    HW223013   3.177   6.004   2.646
 7557SOL     OW23014   3.455   5.807   2.744
 7557SOL    HW123015   3.371   5.806   2.798
 7557SOL    HW223016   3.457   5.890   2.688
 7558SOL     OW23017   1.901   6.663   2.162
 7558SOL    HW123018   2.000   6.652   2.153
 7558SOL    HW223019   1.861   6.577   2.194
 7559SOL     OW23020   2.737   7.232   2.199
 7559SOL    HW123021   2.660   7.197   2.145
 7559SOL    HW223022   2.705   7.303   2.261
 7560SOL     OW23023   2.092   6.214   3.837
 7560SOL    HW123024   1.999   6.212   3.874
 7560SOL    HW223025   2.093   6.175   3.745
 7561SOL     OW23026   2.087   5.861   4.720
 7561SOL    HW123027   2.122   5.844   4.812
 7561SOL    HW223028   1.999   5.816   4.708
 7562SOL     OW23029   1.881   5.954   4.371
 7562SOL    HW123030   1.799   5.997   4.410
 7562SOL    HW223031   1.853   5.881   4.308
 7563SOL     OW23032   2.431   6.861   4.889
 7563SOL    HW123033   2.338   6.854   4.852
 7563SOL    HW223034   2.442   6.950   4.933
 7564SOL     OW23035   3.417   7.097   4.427
 7564SOL    HW123036   3.360   7.081   4.508
 7564SOL    HW223037   3.358   7.107   4.347
 7565SOL     OW23038   2.997   6.289   4.441
 7565SOL    HW123039   3.054   6.367   4.416
 7565SOL    HW223040   2.937   6.315   4.517
 7566SOL     OW23041   3.617   6.193   3.955
 7566SOL    HW123042   3.605   6.180   3.856
 7566SOL    HW223043   3.587   6.112   4.004
 7567SOL     OW23044   2.630   6.730   4.747
 7567SOL    HW123045   2.552   6.747   4.807
 7567SOL    HW223046   2.664   6.817   4.711
 7568SOL     OW23047   2.547   6.598   4.389
 7568SOL    HW123048   2.616   6.582   4.459
 7568SOL    HW223049   2.474   6.655   4.427
 7569SOL     OW23050   2.548   6.747   5.527
 7569SOL    HW123051   2.608   6.826   5.541
 7569SOL    HW223052   2.462   6.778   5.486
 7570SOL     OW23053   2.197   7.021   4.785
 7570SOL    HW123054   2.119   6.990   4.732
 7570SOL    HW223055   2.255   7.079   4.728
 7571SOL     OW23056   2.300   5.978   5.223
 7571SOL    HW123057   2.382   5.922   5.232
 7571SOL    HW223058   2.219   5.920   5.227
 7572SOL     OW23059   3.465   6.033   4.461
 7572SOL    HW123060   3.391   6.079   4.411
 7572SOL    HW223061   3.516   6.101   4.514
 7573SOL     OW23062   2.093   7.299   4.207
 7573SOL    HW123063   2.127   7.376   4.261
 7573SOL    HW223064   2.137   7.299   4.117
 7574SOL     OW23065   2.989   6.927   5.414
 7574SOL    HW123066   3.036   6.927   5.502
 7574SOL    HW223067   2.941   6.840   5.403
 7575SOL     OW23068   2.092   7.020   4.262
 7575SOL    HW123069   2.066   7.116   4.262
 7575SOL    HW223070   2.021   6.966   4.307
 7576SOL     OW23071   2.102   6.677   4.610
 7576SOL    HW123072   2.116   6.593   4.662
 7576SOL    HW223073   2.047   6.741   4.665
 7577SOL     OW23074   2.482   7.372   5.163
 7577SOL    HW123075   2.390   7.355   5.198
 7577SOL    HW223076   2.510   7.464   5.189
 7578SOL     OW23077   2.468   6.550   3.847
 7578SOL    HW123078   2.475   6.634   3.793
 7578SOL    HW223079   2.514   6.563   3.935
 7579SOL     OW23080   3.456   5.700   5.204
 7579SOL    HW123081   3.438   5.767   5.132
 7579SOL    HW223082   3.453   5.746   5.293
 7580SOL     OW23083   1.984   6.229   4.287
 7580SOL    HW123084   1.939   6.141   4.304
 7580SOL    HW223085   1.983   6.283   4.371
 7581SOL     OW23086   3.704   7.353   4.083
 7581SOL    HW123087   3.758   7.324   4.163
 7581SOL    HW223088   3.734   7.443   4.054
 7582SOL     OW23089   1.889   7.182   3.841
 7582SOL    HW123090   1.870   7.086   3.862
 7582SOL    HW223091   1.856   7.240   3.916
 7583SOL     OW23092   3.551   6.508   4.336
 7583SOL    HW123093   3.646   6.479   4.344
 7583SOL    HW223094   3.543   6.573   4.261
 7584SOL     OW23095   3.503   6.694   4.156
 7584SOL    HW123096   3.589   6.696   4.104
 7584SOL    HW223097   3.517   6.741   4.244
 7585SOL     OW23098   1.975   6.323   5.321
 7585SOL    HW123099   2.063   6.310   5.366
 7585SOL    HW223100   1.962   6.420   5.299
 7586SOL     OW23101   2.475   6.951   4.450
 7586SOL    HW123102   2.426   6.864   4.459
 7586SOL    HW223103   2.452   6.994   4.363
 7587SOL     OW23104   2.671   5.590   4.226
 7587SOL    HW123105   2.711   5.681   4.217
 7587SOL    HW223106   2.571   5.598   4.232
 7588SOL     OW23107   2.059   6.562   4.988
 7588SOL    HW123108   2.148   6.517   4.974
 7588SOL    HW223109   1.986   6.497   4.969
 7589SOL     OW23110   3.387   6.585   3.914
 7589SOL    HW123111   3.324   6.509   3.927
 7589SOL    HW223112   3.435   6.603   4.000
 7590SOL     OW23113   3.049   7.378   5.340
 7590SOL    HW123114   3.073   7.438   5.264
 7590SOL    HW223115   3.056   7.283   5.310
 7591SOL     OW23116   2.179   5.837   5.525
 7591SOL    HW123117   2.250   5.908   5.531
 7591SOL    HW223118   2.091   5.876   5.553
 7592SOL     OW23119   3.328   7.003   4.677
 7592SOL    HW123120   3.269   7.009   4.757
 7592SOL    HW223121   3.313   6.915   4.631
 7593SOL     OW23122   3.529   7.300   4.296
 7593SOL    HW123123   3.488   7.277   4.208
 7593SOL    HW223124   3.511   7.226   4.361
 7594SOL     OW23125   2.460   6.315   3.994
 7594SOL    HW123126   2.484   6.384   3.926
 7594SOL    HW223127   2.382   6.348   4.048
 7595SOL     OW23128   3.143   5.931   4.668
 7595SOL    HW123129   3.057   5.881   4.655
 7595SOL    HW223130   3.205   5.877   4.724
 7596SOL     OW23131   3.438   7.248   4.031
 7596SOL    HW123132   3.527   7.294   4.034
 7596SOL    HW223133   3.417   7.224   3.936
 7597SOL     OW23134   2.669   6.191   5.189
 7597SOL    HW123135   2.622   6.188   5.278
 7597SOL    HW223136   2.618   6.136   5.123
 7598SOL     OW23137   3.256   6.055   5.398
 7598SOL    HW123138   3.236   6.098   5.486
 7598SOL    HW223139   3.334   5.993   5.407
 7599SOL     OW23140   2.853   5.996   4.966
 7599SOL    HW123141   2.776   6.030   5.020
 7599SOL    HW223142   2.819   5.945   4.887
 7600SOL     OW23143   2.903   6.287   4.153
 7600SOL    HW123144   2.929   6.283   4.249
 7600SOL    HW223145   2.818   6.236   4.139
 7601SOL     OW23146   1.938   6.397   4.513
 7601SOL    HW123147   2.037   6.385   4.522
 7601SOL    HW223148   1.914   6.492   4.534
 7602SOL     OW23149   1.992   7.407   5.295
 7602SOL    HW123150   1.982   7.392   5.394
 7602SOL    HW223151   1.906   7.443   5.259
 7603SOL     OW23152   2.727   5.934   3.919
 7603SOL    HW123153   2.786   5.997   3.870
 7603SOL    HW223154   2.746   5.840   3.890
 7604SOL     OW23155   3.581   6.171   5.555
 7604SOL    HW123156   3.555   6.260   5.519
 7604SOL    HW223157   3.579   6.103   5.482
 7605SOL     OW23158   3.224   6.730   4.269
 7605SOL    HW123159   3.307   6.701   4.221
 7605SOL    HW223160   3.175   6.797   4.213
 7606SOL     OW23161   2.412   5.782   4.609
 7606SOL    HW123162   2.407   5.777   4.709
 7606SOL    HW223163   2.414   5.878   4.580
 7607SOL     OW23164   2.870   7.042   4.201
 7607SOL    HW123165   2.824   7.114   4.149
 7607SOL    HW223166   2.866   7.062   4.299
 7608SOL     OW23167   2.213   7.387   4.577
 7608SOL    HW123168   2.263   7.301   4.583
 7608SOL    HW223169   2.278   7.464   4.574
 7609SOL     OW23170   3.657   6.652   4.597
 7609SOL    HW123171   3.595   6.637   4.521
 7609SOL    HW223172   3.605   6.663   4.682
 7610SOL     OW23173   3.089   7.136   5.230
 7610SOL    HW123174   3.095   7.059   5.294
 7610SOL    HW223175   3.037   7.110   5.150
 7611SOL     OW23176   2.183   6.529   3.966
 7611SOL    HW123177   2.265   6.568   3.924
 7611SOL    HW223178   2.156   6.447   3.917
 7612SOL     OW23179   3.320   6.321   4.452
 7612SOL    HW123180   3.315   6.256   4.527
 7612SOL    HW223181   3.400   6.380   4.465
 7613SOL     OW23182   2.323   6.852   5.451
 7613SOL    HW123183   2.273   6.853   5.365
 7613SOL    HW223184   2.260   6.834   5.527
 7614SOL     OW23185   2.973   7.362   3.961
 7614SOL    HW123186   2.913   7.300   4.011
 7614SOL    HW223187   3.004   7.318   3.876
 7615SOL     OW23188   2.064   5.871   5.222
 7615SOL    HW123189   1.984   5.931   5.209
 7615SOL    HW223190   2.054   5.822   5.308
 7616SOL     OW23191   3.494   6.963   3.805
 7616SOL    HW123192   3.462   7.057   3.795
 7616SOL    HW223193   3.418   6.900   3.793
 7617SOL     OW23194   2.326   7.329   4.047
 7617SOL    HW123195   2.359   7.368   4.133
 7617SOL    HW223196   2.402   7.322   3.982
 7618SOL     OW23197   3.262   5.693   4.150
 7618SOL    HW123198   3.238   5.656   4.060
 7618SOL    HW223199   3.361   5.709   4.154
 7619SOL     OW23200   2.111   7.371   4.965
 7619SOL    HW123201   2.168   7.306   5.015
 7619SOL    HW223202   2.095   7.338   4.872
 7620SOL     OW23203   2.802   7.284   4.628
 7620SOL    HW123204   2.882   7.227   4.649
 7620SOL    HW223205   2.753   7.244   4.551
 7621SOL     OW23206   2.244   6.286   4.204
 7621SOL    HW123207   2.289   6.196   4.201
 7621SOL    HW223208   2.150   6.275   4.237
 7622SOL     OW23209   3.409   5.808   5.453
 7622SOL    HW123210   3.404   5.845   5.545
 7622SOL    HW223211   3.337   5.739   5.441
 7623SOL     OW23212   2.476   5.708   3.841
 7623SOL    HW123213   2.574   5.686   3.848
 7623SOL    HW223214   2.445   5.691   3.748
 7624SOL     OW23215   2.643   5.850   5.473
 7624SOL    HW123216   2.710   5.789   5.516
 7624SOL    HW223217   2.570   5.869   5.538
 7625SOL     OW23218   2.750   7.100   4.919
 7625SOL    HW123219   2.727   7.075   4.825
 7625SOL    HW223220   2.811   7.031   4.958
 7626SOL     OW23221   3.213   6.176   5.157
 7626SOL    HW123222   3.241   6.133   5.242
 7626SOL    HW223223   3.238   6.272   5.158
 7627SOL     OW23224   2.784   6.089   4.623
 7627SOL    HW123225   2.759   6.080   4.527
 7627SOL    HW223226   2.832   6.007   4.654
 7628SOL     OW23227   2.401   5.650   4.236
 7628SOL    HW123228   2.320   5.651   4.294
 7628SOL    HW223229   2.404   5.733   4.181
 7629SOL     OW23230   3.296   6.774   3.765
 7629SOL    HW123231   3.328   6.698   3.822
 7629SOL    HW223232   3.204   6.801   3.795
 7630SOL     OW23233   2.159   5.621   3.895
 7630SOL    HW123234   2.208   5.705   3.874
 7630SOL    HW223235   2.221   5.556   3.940
 7631SOL     OW23236   2.797   5.822   4.204
 7631SOL    HW123237   2.749   5.863   4.126
 7631SOL    HW223238   2.896   5.820   4.185
 7632SOL     OW23239   3.089   7.156   4.517
 7632SOL    HW123240   3.110   7.230   4.452
 7632SOL    HW223241   3.157   7.156   4.590
 7633SOL     OW23242   2.321   6.738   4.465
 7633SOL    HW123243   2.250   6.711   4.530
 7633SOL    HW223244   2.295   6.710   4.372
 7634SOL     OW23245   3.133   7.383   4.315
 7634SOL    HW123246   3.177   7.447   4.251
 7634SOL    HW223247   3.083   7.435   4.385
 7635SOL     OW23248   2.894   6.135   3.740
 7635SOL    HW123249   2.853   6.217   3.701
 7635SOL    HW223250   2.958   6.161   3.813
 7636SOL     OW23251   1.940   6.142   5.110
 7636SOL    HW123252   2.032   6.141   5.069
 7636SOL    HW223253   1.934   6.216   5.177
 7637SOL     OW23254   2.423   5.808   4.871
 7637SOL    HW123255   2.461   5.724   4.908
 7637SOL    HW223256   2.335   5.827   4.915
 7638SOL     OW23257   2.728   6.040   4.366
 7638SOL    HW123258   2.696   6.112   4.304
 7638SOL    HW223259   2.752   5.959   4.313
 7639SOL     OW23260   2.879   5.625   4.477
 7639SOL    HW123261   2.807   5.630   4.408
 7639SOL    HW223262   2.855   5.556   4.546
 7640SOL     OW23263   3.291   6.759   4.591
 7640SOL    HW123264   3.236   6.675   4.584
 7640SOL    HW223265   3.317   6.788   4.499
 7641SOL     OW23266   3.328   6.176   4.716
 7641SOL    HW123267   3.298   6.081   4.723
 7641SOL    HW223268   3.401   6.192   4.782
 7642SOL     OW23269   3.719   6.419   4.101
 7642SOL    HW123270   3.761   6.355   4.165
 7642SOL    HW223271   3.681   6.368   4.023
 7643SOL     OW23272   2.350   6.971   3.898
 7643SOL    HW123273   2.263   6.956   3.945
 7643SOL    HW223274   2.333   6.997   3.803
 7644SOL     OW23275   3.526   6.866   4.381
 7644SOL    HW123276   3.625   6.874   4.395
 7644SOL    HW223277   3.481   6.950   4.412
 7645SOL     OW23278   3.252   6.161   3.802
 7645SOL    HW123279   3.198   6.140   3.883
 7645SOL    HW223280   3.343   6.120   3.811
 7646SOL     OW23281   2.389   5.842   4.052
 7646SOL    HW123282   2.416   5.783   3.977
 7646SOL    HW223283   2.389   5.937   4.021
 7647SOL     OW23284   2.926   6.933   5.064
 7647SOL    HW123285   2.846   6.910   5.119
 7647SOL    HW223286   3.009   6.907   5.113
 7648SOL     OW23287   3.454   7.215   5.349
 7648SOL    HW123288   3.481   7.249   5.259
 7648SOL    HW223289   3.533   7.177   5.395
 7649SOL     OW23290   2.973   6.781   4.824
 7649SOL    HW123291   2.933   6.825   4.905
 7649SOL    HW223292   2.932   6.818   4.741
 7650SOL     OW23293   3.500   6.685   4.803
 7650SOL    HW123294   3.505   6.766   4.862
 7650SOL    HW223295   3.414   6.687   4.752
 7651SOL     OW23296   2.777   5.675   5.126
 7651SOL    HW123297   2.802   5.655   5.031
 7651SOL    HW223298   2.849   5.731   5.168
 7652SOL     OW23299   2.567   6.636   4.092
 7652SOL    HW123300   2.553   6.643   4.191
 7652SOL    HW223301   2.651   6.585   4.074
 7653SOL     OW23302   2.272   6.399   4.975
 7653SOL    HW123303   2.358   6.411   5.025
 7653SOL    HW223304   2.230   6.312   5.002
 7654SOL     OW23305   3.136   5.972   4.986
 7654SOL    HW123306   3.157   6.046   5.050
 7654SOL    HW223307   3.047   5.989   4.943
 7655SOL     OW23308   1.926   7.150   5.055
 7655SOL    HW123309   1.880   7.232   5.021
 7655SOL    HW223310   2.024   7.169   5.064
 7656SOL     OW23311   2.229   6.686   4.225
 7656SOL    HW123312   2.222   6.769   4.169
 7656SOL    HW223313   2.233   6.606   4.165
 7657SOL     OW23314   2.428   6.123   4.589
 7657SOL    HW123315   2.440   6.189   4.515
 7657SOL    HW223316   2.474   6.157   4.672
 7658SOL     OW23317   3.114   6.934   4.112
 7658SOL    HW123318   3.164   7.011   4.152
 7658SOL    HW223319   3.019   6.936   4.144
 7659SOL     OW23320   3.444   6.225   4.196
 7659SOL    HW123321   3.413   6.286   4.269
 7659SOL    HW223322   3.494   6.277   4.127
 7660SOL     OW23323   2.216   7.096   5.053
 7660SOL    HW123324   2.195   7.052   4.966
 7660SOL    HW223325   2.313   7.122   5.056
 7661SOL     OW23326   2.264   6.337   5.322
 7661SOL    HW123327   2.332   6.392   5.275
 7661SOL    HW223328   2.304   6.249   5.349
 7662SOL     OW23329   3.449   6.365   5.394
 7662SOL    HW123330   3.357   6.403   5.389
 7662SOL    HW223331   3.509   6.412   5.329
 7663SOL     OW23332   2.875   5.691   5.494
 7663SOL    HW123333   2.881   5.776   5.442
 7663SOL    HW223334   2.907   5.615   5.437
 7664SOL     OW23335   2.366   5.636   5.464
 7664SOL    HW123336   2.324   5.579   5.394
 7664SOL    HW223337   2.300   5.705   5.496
 7665SOL     OW23338   2.435   6.456   4.753
 7665SOL    HW123339   2.479   6.545   4.744
 7665SOL    HW223340   2.372   6.456   4.830
 7666SOL     OW23341   3.222   6.448   4.769
 7666SOL    HW123342   3.147   6.448   4.703
 7666SOL    HW223343   3.259   6.356   4.778
 7667SOL     OW23344   3.071   6.111   3.999
 7667SOL    HW123345   3.084   6.027   4.053
 7667SOL    HW223346   3.042   6.185   4.059
 7668SOL     OW23347   2.169   5.799   4.955
 7668SOL    HW123348   2.146   5.836   5.045
 7668SOL    HW223349   2.139   5.704   4.949
 7669SOL     OW23350   1.899   6.896   5.006
 7669SOL    HW123351   1.952   6.847   5.074
 7669SOL    HW223352   1.921   6.994   5.011
 7670SOL     OW23353   2.594   6.220   4.788
 7670SOL    HW123354   2.653   6.194   4.712
 7670SOL    HW223355   2.566   6.316   4.777
 7671SOL     OW23356   3.590   6.521   5.578
 7671SOL    HW123357   3.544   6.514   5.489
 7671SOL    HW223358   3.528   6.565   5.644
 7672SOL     OW23359   2.169   5.649   4.342
 7672SOL    HW123360   2.158   5.743   4.375
 7672SOL    HW223361   2.164   5.586   4.419
 7673SOL     OW23362   3.484   5.953   4.098
 7673SOL    HW123363   3.486   5.877   4.162
 7673SOL    HW223364   3.436   6.030   4.138
 7674SOL     OW23365   2.885   6.352   4.690
 7674SOL    HW123366   2.900   6.373   4.786
 7674SOL    HW223367   2.855   6.257   4.681
 7675SOL     OW23368   2.842   7.159   5.424
 7675SOL    HW123369   2.822   7.203   5.336
 7675SOL    HW223370   2.881   7.068   5.408
 7676SOL     OW23371   2.212   6.484   5.528
 7676SOL    HW123372   2.288   6.528   5.576
 7676SOL    HW223373   2.247   6.437   5.446
 7677SOL     OW23374   3.402   5.860   3.849
 7677SOL    HW123375   3.341   5.785   3.872
 7677SOL    HW223376   3.424   5.912   3.932
 7678SOL     OW23377   3.165   6.424   3.766
 7678SOL    HW123378   3.199   6.331   3.781
 7678SOL    HW223379   3.183   6.451   3.671
 7679SOL     OW23380   2.930   6.919   4.573
 7679SOL    HW123381   2.937   6.835   4.518
 7679SOL    HW223382   2.992   6.988   4.537
 7680SOL     OW23383   2.181   6.396   4.673
 7680SOL    HW123384   2.274   6.432   4.678
 7680SOL    HW223385   2.175   6.311   4.725
 7681SOL     OW23386   2.201   6.095   4.730
 7681SOL    HW123387   2.149   6.012   4.713
 7681SOL    HW223388   2.278   6.100   4.666
 7682SOL     OW23389   3.000   5.966   5.402
 7682SOL    HW123390   2.955   6.029   5.466
 7682SOL    HW223391   3.093   5.997   5.385
 7683SOL     OW23392   3.022   5.793   5.201
 7683SOL    HW123393   3.022   5.857   5.278
 7683SOL    HW223394   3.050   5.841   5.118
 7684SOL     OW23395   1.870   6.912   3.924
 7684SOL    HW123396   1.777   6.933   3.893
 7684SOL    HW223397   1.880   6.813   3.937
 7685SOL     OW23398   1.950   7.387   4.651
 7685SOL    HW123399   1.908   7.301   4.624
 7685SOL    HW223400   2.044   7.390   4.617
 7686SOL     OW23401   2.366   7.154   4.634
 7686SOL    HW123402   2.432   7.228   4.643
 7686SOL    HW223403   2.410   7.075   4.592
 7687SOL     OW23404   2.864   6.382   4.962
 7687SOL    HW123405   2.905   6.350   5.048
 7687SOL    HW223406   2.768   6.355   4.959
 7688SOL     OW23407   1.902   6.130   4.838
 7688SOL    HW123408   1.987   6.097   4.797
 7688SOL    HW223409   1.915   6.145   4.936
 7689SOL     OW23410   2.051   6.106   5.446
 7689SOL    HW123411   2.110   6.066   5.376
 7689SOL    HW223412   1.993   6.177   5.405
 7690SOL     OW23413   2.677   6.158   4.049
 7690SOL    HW123414   2.684   6.069   4.003
 7690SOL    HW223415   2.583   6.192   4.041
 7691SOL     OW23416   3.519   6.190   4.930
 7691SOL    HW123417   3.481   6.121   4.992
 7691SOL    HW223418   3.601   6.154   4.886
 7692SOL     OW23419   2.114   7.150   5.468
 7692SOL    HW123420   2.084   7.207   5.544
 7692SOL    HW223421   2.107   7.053   5.494
 7693SOL     OW23422   2.533   6.050   4.993
 7693SOL    HW123423   2.499   5.961   4.963
 7693SOL    HW223424   2.559   6.104   4.913
 7694SOL     OW23425   2.792   7.264   5.189
 7694SOL    HW123426   2.768   7.246   5.094
 7694SOL    HW223427   2.822   7.358   5.199
 7695SOL     OW23428   2.335   6.086   3.915
 7695SOL    HW123429   2.396   6.166   3.919
 7695SOL    HW223430   2.240   6.117   3.922
 7696SOL     OW23431   2.021   6.723   5.190
 7696SOL    HW123432   2.043   6.662   5.266
 7696SOL    HW223433   2.031   6.674   5.104
 7697SOL     OW23434   3.209   6.645   4.958
 7697SOL    HW123435   3.233   6.582   4.884
 7697SOL    HW223436   3.119   6.685   4.940
 7698SOL     OW23437   3.164   6.441   4.033
 7698SOL    HW123438   3.078   6.410   4.075
 7698SOL    HW223439   3.160   6.427   3.934
 7699SOL     OW23440   3.114   7.317   4.852
 7699SOL    HW123441   3.198   7.322   4.798
 7699SOL    HW223442   3.091   7.221   4.870
 7700SOL     OW23443   1.945   6.844   4.746
 7700SOL    HW123444   1.940   6.843   4.846
 7700SOL    HW223445   1.862   6.803   4.708
 7701SOL     OW23446   2.550   7.248   5.440
 7701SOL    HW123447   2.494   7.329   5.449
 7701SOL    HW223448   2.602   7.252   5.354
 7702SOL     OW23449   3.588   5.721   4.247
 7702SOL    HW123450   3.661   5.704   4.180
 7702SOL    HW223451   3.557   5.634   4.285
 7703SOL     OW23452   3.250   7.159   4.201
 7703SOL    HW123453   3.317   7.171   4.127
 7703SOL    HW223454   3.210   7.248   4.224
 7704SOL     OW23455   1.992   7.380   5.575
 7704SOL    HW123456   1.951   7.306   5.628
 7704SOL    HW223457   2.056   7.431   5.633
 7705SOL     OW23458   3.142   6.513   4.396
 7705SOL    HW123459   3.202   6.432   4.398
 7705SOL    HW223460   3.182   6.582   4.336
 7706SOL     OW23461   2.692   6.859   5.146
 7706SOL    HW123462   2.687   6.892   5.241
 7706SOL    HW223463   2.606   6.878   5.100
 7707SOL     OW23464   2.534   7.202   3.878
 7707SOL    HW123465   2.543   7.212   3.779
 7707SOL    HW223466   2.494   7.113   3.899
 7708SOL     OW23467   3.512   7.306   5.118
 7708SOL    HW123468   3.565   7.316   5.034
 7708SOL    HW223469   3.485   7.396   5.152
 7709SOL     OW23470   3.703   5.761   4.687
 7709SOL    HW123471   3.742   5.676   4.651
 7709SOL    HW223472   3.605   5.763   4.668
 7710SOL     OW23473   2.125   5.912   4.444
 7710SOL    HW123474   2.046   5.963   4.410
 7710SOL    HW223475   2.116   5.897   4.542
 7711SOL     OW23476   3.056   7.198   3.755
 7711SOL    HW123477   3.062   7.105   3.792
 7711SOL    HW223478   2.997   7.198   3.675
 7712SOL     OW23479   2.684   6.588   5.096
 7712SOL    HW123480   2.724   6.587   5.004
 7712SOL    HW223481   2.694   6.680   5.136
 7713SOL     OW23482   2.778   6.496   4.015
 7713SOL    HW123483   2.841   6.534   3.947
 7713SOL    HW223484   2.818   6.413   4.054
 7714SOL     OW23485   3.366   7.193   3.768
 7714SOL    HW123486   3.274   7.230   3.775
 7714SOL    HW223487   3.404   7.213   3.678
 7715SOL     OW23488   2.234   6.874   5.214
 7715SOL    HW123489   2.221   6.967   5.180
 7715SOL    HW223490   2.150   6.822   5.201
 7716SOL     OW23491   2.901   6.684   4.420
 7716SOL    HW123492   2.831   6.637   4.474
 7716SOL    HW223493   2.960   6.616   4.377
 7717SOL     OW23494   2.876   5.822   4.695
 7717SOL    HW123495   2.868   5.786   4.602
 7717SOL    HW223496   2.874   5.746   4.760
 7718SOL     OW23497   2.452   7.073   4.215
 7718SOL    HW123498   2.494   7.015   4.145
 7718SOL    HW223499   2.408   7.152   4.171
 7719SOL     OW23500   3.571   5.971   5.105
 7719SOL    HW123501   3.644   6.040   5.109
 7719SOL    HW223502   3.599   5.896   5.046
 7720SOL     OW23503   2.117   6.934   4.014
 7720SOL    HW123504   2.021   6.935   3.987
 7720SOL    HW223505   2.129   6.987   4.098
 7721SOL     OW23506   1.967   6.599   5.450
 7721SOL    HW123507   1.890   6.566   5.504
 7721SOL    HW223508   2.052   6.569   5.492
 7722SOL     OW23509   2.534   5.789   5.213
 7722SOL    HW123510   2.624   5.773   5.173
 7722SOL    HW223511   2.542   5.794   5.312
 7723SOL     OW23512   1.937   5.931   3.757
 7723SOL    HW123513   1.845   5.903   3.728
 7723SOL    HW223514   1.968   6.008   3.701
 7724SOL     OW23515   3.302   6.442   5.122
 7724SOL    HW123516   3.245   6.494   5.059
 7724SOL    HW223517   3.398   6.454   5.098
 7725SOL     OW23518   1.934   5.752   4.042
 7725SOL    HW123519   1.917   5.835   3.988
 7725SOL    HW223520   2.024   5.715   4.020
 7726SOL     OW23521   3.045   6.921   3.843
 7726SOL    HW123522   2.946   6.910   3.845
 7726SOL    HW223523   3.079   6.936   3.936
 7727SOL     OW23524   2.475   6.428   5.155
 7727SOL    HW123525   2.531   6.509   5.138
 7727SOL    HW223526   2.534   6.348   5.158
 7728SOL     OW23527   3.355   7.353   4.683
 7728SOL    HW123528   3.388   7.417   4.614
 7728SOL    HW223529   3.421   7.347   4.758
 7729SOL     OW23530   2.578   6.151   5.432
 7729SOL    HW123531   2.597   6.216   5.506
 7729SOL    HW223532   2.638   6.071   5.441
 7730SOL     OW23533   2.252   7.327   5.284
 7730SOL    HW123534   2.161   7.368   5.282
 7730SOL    HW223535   2.245   7.233   5.316
 7731SOL     OW23536   3.536   6.469   4.978
 7731SOL    HW123537   3.509   6.380   4.941
 7731SOL    HW223538   3.537   6.537   4.905
 7732SOL     OW23539   3.087   5.911   4.173
 7732SOL    HW123540   3.152   5.837   4.162
 7732SOL    HW223541   3.107   5.961   4.257
 7733SOL     OW23542   2.456   6.331   4.376
 7733SOL    HW123543   2.506   6.416   4.357
 7733SOL    HW223544   2.368   6.333   4.328
 7734SOL     OW23545   3.639   5.928   5.366
 7734SOL    HW123546   3.622   5.959   5.272
 7734SOL    HW223547   3.555   5.891   5.404
 7735SOL     OW23548   3.592   6.520   5.241
 7735SOL    HW123549   3.630   6.611   5.256
 7735SOL    HW223550   3.584   6.503   5.142
 7736SOL     OW23551   2.721   6.960   3.740
 7736SOL    HW123552   2.675   6.975   3.828
 7736SOL    HW223553   2.765   7.045   3.710
 7737SOL     OW23554   2.523   7.376   4.677
 7737SOL    HW123555   2.477   7.464   4.664
 7737SOL    HW223556   2.622   7.388   4.670
 7738SOL     OW23557   2.721   6.542   4.585
 7738SOL    HW123558   2.775   6.473   4.633
 7738SOL    HW223559   2.689   6.611   4.651
 7739SOL     OW23560   2.945   6.570   3.811
 7739SOL    HW123561   2.922   6.623   3.729
 7739SOL    HW223562   3.026   6.514   3.792
 7740SOL     OW23563   3.723   7.155   4.575
 7740SOL    HW123564   3.652   7.143   4.505
 7740SOL    HW223565   3.724   7.076   4.635
 7741SOL     OW23566   2.083   6.900   5.568
 7741SOL    HW123567   2.018   6.827   5.547
 7741SOL    HW223568   2.087   6.914   5.666
 7742SOL     OW23569   1.941   6.826   4.377
 7742SOL    HW123570   1.940   6.779   4.465
 7742SOL    HW223571   2.023   6.798   4.326
 7743SOL     OW23572   2.534   6.977   5.348
 7743SOL    HW123573   2.456   6.927   5.386
 7743SOL    HW223574   2.531   7.072   5.379
 7744SOL     OW23575   3.686   5.778   4.951
 7744SOL    HW123576   3.682   5.688   4.995
 7744SOL    HW223577   3.689   5.767   4.852
 7745SOL     OW23578   2.290   6.010   4.244
 7745SOL    HW123579   2.320   5.938   4.182
 7745SOL    HW223580   2.251   5.970   4.327
 7746SOL     OW23581   3.567   7.073   4.828
 7746SOL    HW123582   3.474   7.048   4.801
 7746SOL    HW223583   3.593   7.023   4.910
 7747SOL     OW23584   2.179   6.133   5.004
 7747SOL    HW123585   2.217   6.074   5.076
 7747SOL    HW223586   2.219   6.107   4.916
 7748SOL     OW23587   2.674   7.172   4.411
 7748SOL    HW123588   2.706   7.182   4.317
 7748SOL    HW223589   2.595   7.110   4.413
 7749SOL     OW23590   3.286   5.800   4.836
 7749SOL    HW123591   3.338   5.735   4.891
 7749SOL    HW223592   3.237   5.863   4.897
 7750SOL     OW23593   2.863   5.620   4.878
 7750SOL    HW123594   2.800   5.548   4.847
 7750SOL    HW223595   2.956   5.584   4.878
 7751SOL     OW23596   2.632   6.916   4.025
 7751SOL    HW123597   2.586   6.829   4.042
 7751SOL    HW223598   2.723   6.913   4.066
 7752SOL     OW23599   2.480   7.153   5.008
 7752SOL    HW123600   2.475   7.235   5.065
 7752SOL    HW223601   2.569   7.150   4.963
 7753SOL     OW23602   3.214   5.638   3.892
 7753SOL    HW123603   3.249   5.597   3.808
 7753SOL    HW223604   3.124   5.600   3.912
 7754SOL     OW23605   3.162   6.039   4.415
 7754SOL    HW123606   3.103   6.119   4.419
 7754SOL    HW223607   3.177   6.004   4.508
 7755SOL     OW23608   3.455   5.807   4.606
 7755SOL    HW123609   3.371   5.806   4.660
 7755SOL    HW223610   3.457   5.890   4.550
 7756SOL     OW23611   1.901   6.663   4.024
 7756SOL    HW123612   2.000   6.652   4.015
 7756SOL    HW223613   1.861   6.577   4.056
 7757SOL     OW23614   2.737   7.232   4.061
 7757SOL    HW123615   2.660   7.197   4.007
 7757SOL    HW223616   2.705   7.303   4.123
 7758SOL     OW23617   2.092   6.214   5.699
 7758SOL    HW123618   1.999   6.212   5.736
 7758SOL    HW223619   2.093   6.175   5.607
 7759SOL     OW23620   2.087   5.861   6.582
 7759SOL    HW123621   2.122   5.844   6.674
 7759SOL    HW223622   1.999   5.816   6.570
 7760SOL     OW23623   1.881   5.954   6.233
 7760SOL    HW123624   1.799   5.997   6.272
 7760SOL    HW223625   1.853   5.881   6.170
 7761SOL     OW23626   2.431   6.861   6.751
 7761SOL    HW123627   2.338   6.854   6.714
 7761SOL    HW223628   2.442   6.950   6.795
 7762SOL     OW23629   3.417   7.097   6.289
 7762SOL    HW123630   3.360   7.081   6.370
 7762SOL    HW223631   3.358   7.107   6.209
 7763SOL     OW23632   2.997   6.289   6.303
 7763SOL    HW123633   3.054   6.367   6.278
 7763SOL    HW223634   2.937   6.315   6.379
 7764SOL     OW23635   3.617   6.193   5.817
 7764SOL    HW123636   3.605   6.180   5.718
 7764SOL    HW223637   3.587   6.112   5.866
 7765SOL     OW23638   2.630   6.730   6.609
 7765SOL    HW123639   2.552   6.747   6.669
 7765SOL    HW223640   2.664   6.817   6.573
 7766SOL     OW23641   2.712   6.384   7.409
 7766SOL    HW123642   2.708   6.460   7.474
 7766SOL    HW223643   2.734   6.420   7.318
 7767SOL     OW23644   2.547   6.598   6.251
 7767SOL    HW123645   2.616   6.582   6.321
 7767SOL    HW223646   2.474   6.655   6.289
 7768SOL     OW23647   2.548   6.747   7.389
 7768SOL    HW123648   2.608   6.826   7.403
 7768SOL    HW223649   2.462   6.778   7.348
 7769SOL     OW23650   2.197   7.021   6.647
 7769SOL    HW123651   2.119   6.990   6.594
 7769SOL    HW223652   2.255   7.079   6.590
 7770SOL     OW23653   3.322   7.091   6.925
 7770SOL    HW123654   3.346   7.185   6.951
 7770SOL    HW223655   3.306   7.037   7.007
 7771SOL     OW23656   2.300   5.978   7.085
 7771SOL    HW123657   2.382   5.922   7.094
 7771SOL    HW223658   2.219   5.920   7.089
 7772SOL     OW23659   3.465   6.033   6.323
 7772SOL    HW123660   3.391   6.079   6.273
 7772SOL    HW223661   3.516   6.101   6.376
 7773SOL     OW23662   2.093   7.299   6.069
 7773SOL    HW123663   2.127   7.376   6.123
 7773SOL    HW223664   2.137   7.299   5.979
 7774SOL     OW23665   2.989   6.927   7.276
 7774SOL    HW123666   3.036   6.927   7.364
 7774SOL    HW223667   2.941   6.840   7.265
 7775SOL     OW23668   2.092   7.020   6.124
 7775SOL    HW123669   2.066   7.116   6.124
 7775SOL    HW223670   2.021   6.966   6.169
 7776SOL     OW23671   2.102   6.677   6.472
 7776SOL    HW123672   2.116   6.593   6.524
 7776SOL    HW223673   2.047   6.741   6.527
 7777SOL     OW23674   2.482   7.372   7.025
 7777SOL    HW123675   2.390   7.355   7.060
 7777SOL    HW223676   2.510   7.464   7.051
 7778SOL     OW23677   2.468   6.550   5.709
 7778SOL    HW123678   2.475   6.634   5.655
 7778SOL    HW223679   2.514   6.563   5.797
 7779SOL     OW23680   3.456   5.700   7.066
 7779SOL    HW123681   3.438   5.767   6.994
 7779SOL    HW223682   3.453   5.746   7.155
 7780SOL     OW23683   1.984   6.229   6.149
 7780SOL    HW123684   1.939   6.141   6.166
 7780SOL    HW223685   1.983   6.283   6.233
 7781SOL     OW23686   3.704   7.353   5.945
 7781SOL    HW123687   3.758   7.324   6.025
 7781SOL    HW223688   3.734   7.443   5.916
 7782SOL     OW23689   1.889   7.182   5.703
 7782SOL    HW123690   1.870   7.086   5.724
 7782SOL    HW223691   1.856   7.240   5.778
 7783SOL     OW23692   1.975   6.323   7.183
 7783SOL    HW123693   2.063   6.310   7.228
 7783SOL    HW223694   1.962   6.420   7.161
 7784SOL     OW23695   2.475   6.951   6.312
 7784SOL    HW123696   2.426   6.864   6.321
 7784SOL    HW223697   2.452   6.994   6.225
 7785SOL     OW23698   3.155   6.814   7.009
 7785SOL    HW123699   3.192   6.741   6.951
 7785SOL    HW223700   3.207   6.819   7.094
 7786SOL     OW23701   2.671   5.590   6.088
 7786SOL    HW123702   2.711   5.681   6.079
 7786SOL    HW223703   2.571   5.598   6.094
 7787SOL     OW23704   2.059   6.562   6.850
 7787SOL    HW123705   2.148   6.517   6.836
 7787SOL    HW223706   1.986   6.497   6.831
 7788SOL     OW23707   3.049   7.378   7.202
 7788SOL    HW123708   3.073   7.438   7.126
 7788SOL    HW223709   3.056   7.283   7.172
 7789SOL     OW23710   2.179   5.837   7.387
 7789SOL    HW123711   2.250   5.908   7.393
 7789SOL    HW223712   2.091   5.876   7.415
 7790SOL     OW23713   3.328   7.003   6.539
 7790SOL    HW123714   3.269   7.009   6.619
 7790SOL    HW223715   3.313   6.915   6.493
 7791SOL     OW23716   3.529   7.300   6.158
 7791SOL    HW123717   3.488   7.277   6.070
 7791SOL    HW223718   3.511   7.226   6.223
 7792SOL     OW23719   2.460   6.315   5.856
 7792SOL    HW123720   2.484   6.384   5.788
 7792SOL    HW223721   2.382   6.348   5.910
 7793SOL     OW23722   3.143   5.931   6.530
 7793SOL    HW123723   3.057   5.881   6.517
 7793SOL    HW223724   3.205   5.877   6.586
 7794SOL     OW23725   3.438   7.248   5.893
 7794SOL    HW123726   3.527   7.294   5.896
 7794SOL    HW223727   3.417   7.224   5.798
 7795SOL     OW23728   2.669   6.191   7.051
 7795SOL    HW123729   2.622   6.188   7.140
 7795SOL    HW223730   2.618   6.136   6.985
 7796SOL     OW23731   3.256   6.055   7.260
 7796SOL    HW123732   3.236   6.098   7.348
 7796SOL    HW223733   3.334   5.993   7.269
 7797SOL     OW23734   2.835   6.476   7.158
 7797SOL    HW123735   2.881   6.392   7.129
 7797SOL    HW223736   2.779   6.510   7.083
 7798SOL     OW23737   2.853   5.996   6.828
 7798SOL    HW123738   2.776   6.030   6.882
 7798SOL    HW223739   2.819   5.945   6.749
 7799SOL     OW23740   2.903   6.287   6.015
 7799SOL    HW123741   2.929   6.283   6.111
 7799SOL    HW223742   2.818   6.236   6.001
 7800SOL     OW23743   1.938   6.397   6.375
 7800SOL    HW123744   2.037   6.385   6.384
 7800SOL    HW223745   1.914   6.492   6.396
 7801SOL     OW23746   1.992   7.407   7.157
 7801SOL    HW123747   1.982   7.392   7.256
 7801SOL    HW223748   1.906   7.443   7.121
 7802SOL     OW23749   2.727   5.934   5.781
 7802SOL    HW123750   2.786   5.997   5.732
 7802SOL    HW223751   2.746   5.840   5.752
 7803SOL     OW23752   3.581   6.171   7.417
 7803SOL    HW123753   3.555   6.260   7.381
 7803SOL    HW223754   3.579   6.103   7.344
 7804SOL     OW23755   2.412   5.782   6.471
 7804SOL    HW123756   2.407   5.777   6.571
 7804SOL    HW223757   2.414   5.878   6.442
 7805SOL     OW23758   2.213   7.387   6.439
 7805SOL    HW123759   2.263   7.301   6.445
 7805SOL    HW223760   2.278   7.464   6.436
 7806SOL     OW23761   3.089   7.136   7.092
 7806SOL    HW123762   3.095   7.059   7.156
 7806SOL    HW223763   3.037   7.110   7.012
 7807SOL     OW23764   2.183   6.529   5.828
 7807SOL    HW123765   2.265   6.568   5.786
 7807SOL    HW223766   2.156   6.447   5.779
 7808SOL     OW23767   3.320   6.321   6.314
 7808SOL    HW123768   3.315   6.256   6.389
 7808SOL    HW223769   3.400   6.380   6.327
 7809SOL     OW23770   2.323   6.852   7.313
 7809SOL    HW123771   2.273   6.853   7.227
 7809SOL    HW223772   2.260   6.834   7.389
 7810SOL     OW23773   2.973   7.362   5.823
 7810SOL    HW123774   2.913   7.300   5.873
 7810SOL    HW223775   3.004   7.318   5.738
 7811SOL     OW23776   2.064   5.871   7.084
 7811SOL    HW123777   1.984   5.931   7.071
 7811SOL    HW223778   2.054   5.822   7.170
 7812SOL     OW23779   3.494   6.963   5.667
 7812SOL    HW123780   3.462   7.057   5.657
 7812SOL    HW223781   3.418   6.900   5.655
 7813SOL     OW23782   2.326   7.329   5.909
 7813SOL    HW123783   2.359   7.368   5.995
 7813SOL    HW223784   2.402   7.322   5.844
 7814SOL     OW23785   3.262   5.693   6.012
 7814SOL    HW123786   3.238   5.656   5.922
 7814SOL    HW223787   3.361   5.709   6.016
 7815SOL     OW23788   2.111   7.371   6.827
 7815SOL    HW123789   2.168   7.306   6.877
 7815SOL    HW223790   2.095   7.338   6.734
 7816SOL     OW23791   2.802   7.284   6.490
 7816SOL    HW123792   2.882   7.227   6.511
 7816SOL    HW223793   2.753   7.244   6.413
 7817SOL     OW23794   2.244   6.286   6.066
 7817SOL    HW123795   2.289   6.196   6.063
 7817SOL    HW223796   2.150   6.275   6.099
 7818SOL     OW23797   3.409   5.808   7.315
 7818SOL    HW123798   3.404   5.845   7.407
 7818SOL    HW223799   3.337   5.739   7.303
 7819SOL     OW23800   2.476   5.708   5.703
 7819SOL    HW123801   2.574   5.686   5.710
 7819SOL    HW223802   2.445   5.691   5.610
 7820SOL     OW23803   2.643   5.850   7.335
 7820SOL    HW123804   2.710   5.789   7.378
 7820SOL    HW223805   2.570   5.869   7.400
 7821SOL     OW23806   2.750   7.100   6.781
 7821SOL    HW123807   2.727   7.075   6.687
 7821SOL    HW223808   2.811   7.031   6.820
 7822SOL     OW23809   3.213   6.176   7.019
 7822SOL    HW123810   3.241   6.133   7.104
 7822SOL    HW223811   3.238   6.272   7.020
 7823SOL     OW23812   2.665   6.988   6.510
 7823SOL    HW123813   2.755   7.002   6.468
 7823SOL    HW223814   2.594   6.990   6.439
 7824SOL     OW23815   2.784   6.089   6.485
 7824SOL    HW123816   2.759   6.080   6.389
 7824SOL    HW223817   2.832   6.007   6.516
 7825SOL     OW23818   2.401   5.650   6.098
 7825SOL    HW123819   2.320   5.651   6.156
 7825SOL    HW223820   2.404   5.733   6.043
 7826SOL     OW23821   2.159   5.621   5.757
 7826SOL    HW123822   2.208   5.705   5.736
 7826SOL    HW223823   2.221   5.556   5.802
 7827SOL     OW23824   2.797   5.822   6.066
 7827SOL    HW123825   2.749   5.863   5.988
 7827SOL    HW223826   2.896   5.820   6.047
 7828SOL     OW23827   2.938   6.269   7.050
 7828SOL    HW123828   2.858   6.208   7.053
 7828SOL    HW223829   3.019   6.216   7.026
 7829SOL     OW23830   3.089   7.156   6.379
 7829SOL    HW123831   3.110   7.230   6.314
 7829SOL    HW223832   3.157   7.156   6.452
 7830SOL     OW23833   2.321   6.738   6.327
 7830SOL    HW123834   2.250   6.711   6.392
 7830SOL    HW223835   2.295   6.710   6.234
 7831SOL     OW23836   3.133   7.383   6.177
 7831SOL    HW123837   3.177   7.447   6.113
 7831SOL    HW223838   3.083   7.435   6.247
 7832SOL     OW23839   2.894   6.135   5.602
 7832SOL    HW123840   2.853   6.217   5.563
 7832SOL    HW223841   2.958   6.161   5.675
 7833SOL     OW23842   1.940   6.142   6.972
 7833SOL    HW123843   2.032   6.141   6.931
 7833SOL    HW223844   1.934   6.216   7.039
 7834SOL     OW23845   2.423   5.808   6.733
 7834SOL    HW123846   2.461   5.724   6.770
 7834SOL    HW223847   2.335   5.827   6.777
 7835SOL     OW23848   2.728   6.040   6.228
 7835SOL    HW123849   2.696   6.112   6.166
 7835SOL    HW223850   2.752   5.959   6.175
 7836SOL     OW23851   2.879   5.625   6.339
 7836SOL    HW123852   2.807   5.630   6.270
 7836SOL    HW223853   2.855   5.556   6.408
 7837SOL     OW23854   3.328   6.176   6.578
 7837SOL    HW123855   3.298   6.081   6.585
 7837SOL    HW223856   3.401   6.192   6.644
 7838SOL     OW23857   3.719   6.419   5.963
 7838SOL    HW123858   3.761   6.355   6.027
 7838SOL    HW223859   3.681   6.368   5.885
 7839SOL     OW23860   3.526   6.866   6.243
 7839SOL    HW123861   3.625   6.874   6.257
 7839SOL    HW223862   3.481   6.950   6.274
 7840SOL     OW23863   3.252   6.161   5.664
 7840SOL    HW123864   3.198   6.140   5.745
 7840SOL    HW223865   3.343   6.120   5.673
 7841SOL     OW23866   2.389   5.842   5.914
 7841SOL    HW123867   2.416   5.783   5.839
 7841SOL    HW223868   2.389   5.937   5.883
 7842SOL     OW23869   3.616   6.809   7.174
 7842SOL    HW123870   3.707   6.770   7.161
 7842SOL    HW223871   3.624   6.905   7.198
 7843SOL     OW23872   2.926   6.933   6.926
 7843SOL    HW123873   2.846   6.910   6.981
 7843SOL    HW223874   3.009   6.907   6.975
 7844SOL     OW23875   3.454   7.215   7.211
 7844SOL    HW123876   3.481   7.249   7.121
 7844SOL    HW223877   3.533   7.177   7.257
 7845SOL     OW23878   2.973   6.781   6.686
 7845SOL    HW123879   2.933   6.825   6.767
 7845SOL    HW223880   2.932   6.818   6.603
 7846SOL     OW23881   2.777   5.675   6.988
 7846SOL    HW123882   2.802   5.655   6.893
 7846SOL    HW223883   2.849   5.731   7.030
 7847SOL     OW23884   2.842   6.702   7.305
 7847SOL    HW123885   2.743   6.708   7.315
 7847SOL    HW223886   2.865   6.622   7.249
 7848SOL     OW23887   2.272   6.399   6.837
 7848SOL    HW123888   2.358   6.411   6.887
 7848SOL    HW223889   2.230   6.312   6.864
 7849SOL     OW23890   3.136   5.972   6.848
 7849SOL    HW123891   3.157   6.046   6.912
 7849SOL    HW223892   3.047   5.989   6.805
 7850SOL     OW23893   1.926   7.150   6.917
 7850SOL    HW123894   1.880   7.232   6.883
 7850SOL    HW223895   2.024   7.169   6.926
 7851SOL     OW23896   2.229   6.686   6.087
 7851SOL    HW123897   2.222   6.769   6.031
 7851SOL    HW223898   2.233   6.606   6.027
 7852SOL     OW23899   2.428   6.123   6.451
 7852SOL    HW123900   2.440   6.189   6.377
 7852SOL    HW223901   2.474   6.157   6.534
 7853SOL     OW23902   3.134   7.031   6.728
 7853SOL    HW123903   3.181   7.044   6.815
 7853SOL    HW223904   3.068   6.957   6.737
 7854SOL     OW23905   3.444   6.225   6.058
 7854SOL    HW123906   3.413   6.286   6.131
 7854SOL    HW223907   3.494   6.277   5.989
 7855SOL     OW23908   2.216   7.096   6.915
 7855SOL    HW123909   2.195   7.052   6.828
 7855SOL    HW223910   2.313   7.122   6.918
 7856SOL     OW23911   2.264   6.337   7.184
 7856SOL    HW123912   2.332   6.392   7.137
 7856SOL    HW223913   2.304   6.249   7.211
 7857SOL     OW23914   3.449   6.365   7.256
 7857SOL    HW123915   3.357   6.403   7.251
 7857SOL    HW223916   3.509   6.412   7.191
 7858SOL     OW23917   2.875   5.691   7.356
 7858SOL    HW123918   2.881   5.776   7.304
 7858SOL    HW223919   2.907   5.615   7.299
 7859SOL     OW23920   2.366   5.636   7.326
 7859SOL    HW123921   2.324   5.579   7.256
 7859SOL    HW223922   2.300   5.705   7.358
 7860SOL     OW23923   2.435   6.456   6.615
 7860SOL    HW123924   2.479   6.545   6.606
 7860SOL    HW223925   2.372   6.456   6.692
 7861SOL     OW23926   3.222   6.448   6.631
 7861SOL    HW123927   3.147   6.448   6.565
 7861SOL    HW223928   3.259   6.356   6.640
 7862SOL     OW23929   3.071   6.111   5.861
 7862SOL    HW123930   3.084   6.027   5.915
 7862SOL    HW223931   3.042   6.185   5.921
 7863SOL     OW23932   2.169   5.799   6.817
 7863SOL    HW123933   2.146   5.836   6.907
 7863SOL    HW223934   2.139   5.704   6.811
 7864SOL     OW23935   1.899   6.896   6.868
 7864SOL    HW123936   1.952   6.847   6.936
 7864SOL    HW223937   1.921   6.994   6.873
 7865SOL     OW23938   2.594   6.220   6.650
 7865SOL    HW123939   2.653   6.194   6.574
 7865SOL    HW223940   2.566   6.316   6.639
 7866SOL     OW23941   3.590   6.521   7.440
 7866SOL    HW123942   3.544   6.514   7.351
 7866SOL    HW223943   3.528   6.565   7.506
 7867SOL     OW23944   2.169   5.649   6.204
 7867SOL    HW123945   2.158   5.743   6.237
 7867SOL    HW223946   2.164   5.586   6.281
 7868SOL     OW23947   3.484   5.953   5.960
 7868SOL    HW123948   3.486   5.877   6.024
 7868SOL    HW223949   3.436   6.030   6.000
 7869SOL     OW23950   2.885   6.352   6.552
 7869SOL    HW123951   2.900   6.373   6.648
 7869SOL    HW223952   2.855   6.257   6.543
 7870SOL     OW23953   2.842   7.159   7.286
 7870SOL    HW123954   2.822   7.203   7.198
 7870SOL    HW223955   2.881   7.068   7.270
 7871SOL     OW23956   3.721   7.104   7.191
 7871SOL    HW123957   3.735   7.131   7.096
 7871SOL    HW223958   3.804   7.126   7.244
 7872SOL     OW23959   2.212   6.484   7.390
 7872SOL    HW123960   2.288   6.528   7.438
 7872SOL    HW223961   2.247   6.437   7.308
 7873SOL     OW23962   3.402   5.860   5.711
 7873SOL    HW123963   3.341   5.785   5.734
 7873SOL    HW223964   3.424   5.912   5.794
 7874SOL     OW23965   2.930   6.919   6.435
 7874SOL    HW123966   2.937   6.835   6.380
 7874SOL    HW223967   2.992   6.988   6.399
 7875SOL     OW23968   2.181   6.396   6.535
 7875SOL    HW123969   2.274   6.432   6.540
 7875SOL    HW223970   2.175   6.311   6.587
 7876SOL     OW23971   2.201   6.095   6.592
 7876SOL    HW123972   2.149   6.012   6.575
 7876SOL    HW223973   2.278   6.100   6.528
 7877SOL     OW23974   3.000   5.966   7.264
 7877SOL    HW123975   2.955   6.029   7.328
 7877SOL    HW223976   3.093   5.997   7.247
 7878SOL     OW23977   3.022   5.793   7.063
 7878SOL    HW123978   3.022   5.857   7.140
 7878SOL    HW223979   3.050   5.841   6.980
 7879SOL     OW23980   1.870   6.912   5.786
 7879SOL    HW123981   1.777   6.933   5.755
 7879SOL    HW223982   1.880   6.813   5.799
 7880SOL     OW23983   1.950   7.387   6.513
 7880SOL    HW123984   1.908   7.301   6.486
 7880SOL    HW223985   2.044   7.390   6.479
 7881SOL     OW23986   2.366   7.154   6.496
 7881SOL    HW123987   2.432   7.228   6.505
 7881SOL    HW223988   2.410   7.075   6.454
 7882SOL     OW23989   2.864   6.382   6.824
 7882SOL    HW123990   2.905   6.350   6.910
 7882SOL    HW223991   2.768   6.355   6.821
 7883SOL     OW23992   1.902   6.130   6.700
 7883SOL    HW123993   1.987   6.097   6.659
 7883SOL    HW223994   1.915   6.145   6.798
 7884SOL     OW23995   2.051   6.106   7.308
 7884SOL    HW123996   2.110   6.066   7.238
 7884SOL    HW223997   1.993   6.177   7.267
 7885SOL     OW23998   3.231   6.536   7.246
 7885SOL    HW123999   3.270   6.625   7.266
 7885SOL    HW224000   3.241   6.516   7.149
 7886SOL     OW24001   2.677   6.158   5.911
 7886SOL    HW124002   2.684   6.069   5.865
 7886SOL    HW224003   2.583   6.192   5.903
 7887SOL     OW24004   3.519   6.190   6.792
 7887SOL    HW124005   3.481   6.121   6.854
 7887SOL    HW224006   3.601   6.154   6.748
 7888SOL     OW24007   2.114   7.150   7.330
 7888SOL    HW124008   2.084   7.207   7.406
 7888SOL    HW224009   2.107   7.053   7.356
 7889SOL     OW24010   2.533   6.050   6.855
 7889SOL    HW124011   2.499   5.961   6.825
 7889SOL    HW224012   2.559   6.104   6.775
 7890SOL     OW24013   2.792   7.264   7.051
 7890SOL    HW124014   2.768   7.246   6.956
 7890SOL    HW224015   2.822   7.358   7.061
 7891SOL     OW24016   2.335   6.086   5.777
 7891SOL    HW124017   2.396   6.166   5.781
 7891SOL    HW224018   2.240   6.117   5.784
 7892SOL     OW24019   2.021   6.723   7.052
 7892SOL    HW124020   2.043   6.662   7.128
 7892SOL    HW224021   2.031   6.674   6.966
 7893SOL     OW24022   3.209   6.645   6.820
 7893SOL    HW124023   3.233   6.582   6.746
 7893SOL    HW224024   3.119   6.685   6.802
 7894SOL     OW24025   3.164   6.441   5.895
 7894SOL    HW124026   3.078   6.410   5.937
 7894SOL    HW224027   3.160   6.427   5.796
 7895SOL     OW24028   3.621   7.333   6.740
 7895SOL    HW124029   3.682   7.363   6.667
 7895SOL    HW224030   3.583   7.244   6.718
 7896SOL     OW24031   3.114   7.317   6.714
 7896SOL    HW124032   3.198   7.322   6.660
 7896SOL    HW224033   3.091   7.221   6.732
 7897SOL     OW24034   1.945   6.844   6.608
 7897SOL    HW124035   1.940   6.843   6.708
 7897SOL    HW224036   1.862   6.803   6.570
 7898SOL     OW24037   2.550   7.248   7.302
 7898SOL    HW124038   2.494   7.329   7.311
 7898SOL    HW224039   2.602   7.252   7.216
 7899SOL     OW24040   3.588   5.721   6.109
 7899SOL    HW124041   3.661   5.704   6.042
 7899SOL    HW224042   3.557   5.634   6.147
 7900SOL     OW24043   3.250   7.159   6.063
 7900SOL    HW124044   3.317   7.171   5.989
 7900SOL    HW224045   3.210   7.248   6.086
 7901SOL     OW24046   1.992   7.380   7.437
 7901SOL    HW124047   1.951   7.306   7.490
 7901SOL    HW224048   2.056   7.431   7.495
 7902SOL     OW24049   2.692   6.859   7.008
 7902SOL    HW124050   2.687   6.892   7.103
 7902SOL    HW224051   2.606   6.878   6.962
 7903SOL     OW24052   2.534   7.202   5.740
 7903SOL    HW124053   2.543   7.212   5.641
 7903SOL    HW224054   2.494   7.113   5.761
 7904SOL     OW24055   3.512   7.306   6.980
 7904SOL    HW124056   3.565   7.316   6.896
 7904SOL    HW224057   3.485   7.396   7.014
 7905SOL     OW24058   3.703   5.761   6.549
 7905SOL    HW124059   3.742   5.676   6.513
 7905SOL    HW224060   3.605   5.763   6.530
 7906SOL     OW24061   2.125   5.912   6.306
 7906SOL    HW124062   2.046   5.963   6.272
 7906SOL    HW224063   2.116   5.897   6.404
 7907SOL     OW24064   3.056   7.198   5.617
 7907SOL    HW124065   3.062   7.105   5.654
 7907SOL    HW224066   2.997   7.198   5.537
 7908SOL     OW24067   2.684   6.588   6.958
 7908SOL    HW124068   2.724   6.587   6.866
 7908SOL    HW224069   2.694   6.680   6.998
 7909SOL     OW24070   2.778   6.496   5.877
 7909SOL    HW124071   2.841   6.534   5.809
 7909SOL    HW224072   2.818   6.413   5.916
 7910SOL     OW24073   3.366   7.193   5.630
 7910SOL    HW124074   3.274   7.230   5.637
 7910SOL    HW224075   3.404   7.213   5.540
 7911SOL     OW24076   2.234   6.874   7.076
 7911SOL    HW124077   2.221   6.967   7.042
 7911SOL    HW224078   2.150   6.822   7.063
 7912SOL     OW24079   3.476   6.878   6.875
 7912SOL    HW124080   3.536   6.881   6.955
 7912SOL    HW224081   3.401   6.942   6.888
 7913SOL     OW24082   2.901   6.684   6.282
 7913SOL    HW124083   2.831   6.637   6.336
 7913SOL    HW224084   2.960   6.616   6.239
 7914SOL     OW24085   2.876   5.822   6.557
 7914SOL    HW124086   2.868   5.786   6.464
 7914SOL    HW224087   2.874   5.746   6.622
 7915SOL     OW24088   3.571   5.971   6.967
 7915SOL    HW124089   3.644   6.040   6.971
 7915SOL    HW224090   3.599   5.896   6.908
 7916SOL     OW24091   1.967   6.599   7.312
 7916SOL    HW124092   1.890   6.566   7.366
 7916SOL    HW224093   2.052   6.569   7.354
 7917SOL     OW24094   2.534   5.789   7.075
 7917SOL    HW124095   2.624   5.773   7.035
 7917SOL    HW224096   2.542   5.794   7.174
 7918SOL     OW24097   1.937   5.931   5.619
 7918SOL    HW124098   1.845   5.903   5.590
 7918SOL    HW224099   1.968   6.008   5.563
 7919SOL     OW24100   3.302   6.442   6.984
 7919SOL    HW124101   3.245   6.494   6.921
 7919SOL    HW224102   3.398   6.454   6.960
 7920SOL     OW24103   1.934   5.752   5.904
 7920SOL    HW124104   1.917   5.835   5.850
 7920SOL    HW224105   2.024   5.715   5.882
 7921SOL     OW24106   2.475   6.428   7.017
 7921SOL    HW124107   2.531   6.509   7.000
 7921SOL    HW224108   2.534   6.348   7.020
 7922SOL     OW24109   3.355   7.353   6.545
 7922SOL    HW124110   3.388   7.417   6.476
 7922SOL    HW224111   3.421   7.347   6.620
 7923SOL     OW24112   2.578   6.151   7.294
 7923SOL    HW124113   2.597   6.216   7.368
 7923SOL    HW224114   2.638   6.071   7.303
 7924SOL     OW24115   3.312   6.806   7.219
 7924SOL    HW124116   3.303   6.796   7.318
 7924SOL    HW224117   3.408   6.799   7.193
 7925SOL     OW24118   2.252   7.327   7.146
 7925SOL    HW124119   2.161   7.368   7.144
 7925SOL    HW224120   2.245   7.233   7.178
 7926SOL     OW24121   3.536   6.469   6.840
 7926SOL    HW124122   3.509   6.380   6.803
 7926SOL    HW224123   3.537   6.537   6.767
 7927SOL     OW24124   3.087   5.911   6.035
 7927SOL    HW124125   3.152   5.837   6.024
 7927SOL    HW224126   3.107   5.961   6.119
 7928SOL     OW24127   2.456   6.331   6.238
 7928SOL    HW124128   2.506   6.416   6.219
 7928SOL    HW224129   2.368   6.333   6.190
 7929SOL     OW24130   3.639   5.928   7.228
 7929SOL    HW124131   3.622   5.959   7.134
 7929SOL    HW224132   3.555   5.891   7.266
 7930SOL     OW24133   3.592   6.520   7.103
 7930SOL    HW124134   3.630   6.611   7.118
 7930SOL    HW224135   3.584   6.503   7.004
 7931SOL     OW24136   2.523   7.376   6.539
 7931SOL    HW124137   2.477   7.464   6.526
 7931SOL    HW224138   2.622   7.388   6.532
 7932SOL     OW24139   2.721   6.542   6.447
 7932SOL    HW124140   2.775   6.473   6.495
 7932SOL    HW224141   2.689   6.611   6.513
 7933SOL     OW24142   2.945   6.570   5.673
 7933SOL    HW124143   2.922   6.623   5.591
 7933SOL    HW224144   3.026   6.514   5.654
 7934SOL     OW24145   3.723   7.155   6.437
 7934SOL    HW124146   3.652   7.143   6.367
 7934SOL    HW224147   3.724   7.076   6.497
 7935SOL     OW24148   2.083   6.900   7.430
 7935SOL    HW124149   2.018   6.827   7.409
 7935SOL    HW224150   2.087   6.914   7.528
 7936SOL     OW24151   1.941   6.826   6.239
 7936SOL    HW124152   1.940   6.779   6.327
 7936SOL    HW224153   2.023   6.798   6.188
 7937SOL     OW24154   2.534   6.977   7.210
 7937SOL    HW124155   2.456   6.927   7.248
 7937SOL    HW224156   2.531   7.072   7.241
 7938SOL     OW24157   3.686   5.778   6.813
 7938SOL    HW124158   3.682   5.688   6.857
 7938SOL    HW224159   3.689   5.767   6.714
 7939SOL     OW24160   2.290   6.010   6.106
 7939SOL    HW124161   2.320   5.938   6.044
 7939SOL    HW224162   2.251   5.970   6.189
 7940SOL     OW24163   3.567   7.073   6.690
 7940SOL    HW124164   3.474   7.048   6.663
 7940SOL    HW224165   3.593   7.023   6.772
 7941SOL     OW24166   2.179   6.133   6.866
 7941SOL    HW124167   2.217   6.074   6.938
 7941SOL    HW224168   2.219   6.107   6.778
 7942SOL     OW24169   2.674   7.172   6.273
 7942SOL    HW124170   2.706   7.182   6.179
 7942SOL    HW224171   2.595   7.110   6.275
 7943SOL     OW24172   3.286   5.800   6.698
 7943SOL    HW124173   3.338   5.735   6.753
 7943SOL    HW224174   3.237   5.863   6.759
 7944SOL     OW24175   2.863   5.620   6.740
 7944SOL    HW124176   2.800   5.548   6.709
 7944SOL    HW224177   2.956   5.584   6.740
 7945SOL     OW24178   2.480   7.153   6.870
 7945SOL    HW124179   2.475   7.235   6.927
 7945SOL    HW224180   2.569   7.150   6.825
 7946SOL     OW24181   3.214   5.638   5.754
 7946SOL    HW124182   3.249   5.597   5.670
 7946SOL    HW224183   3.124   5.600   5.774
 7947SOL     OW24184   3.162   6.039   6.277
 7947SOL    HW124185   3.103   6.119   6.281
 7947SOL    HW224186   3.177   6.004   6.370
 7948SOL     OW24187   3.455   5.807   6.468
 7948SOL    HW124188   3.371   5.806   6.522
 7948SOL    HW224189   3.457   5.890   6.412
 7949SOL     OW24190   1.901   6.663   5.886
 7949SOL    HW124191   2.000   6.652   5.877
 7949SOL    HW224192   1.861   6.577   5.918
 7950SOL     OW24193   2.737   7.232   5.923
 7950SOL    HW124194   2.660   7.197   5.869
 7950SOL    HW224195   2.705   7.303   5.985
 7951SOL     OW24196   2.092   6.214   7.561
 7951SOL    HW124197   1.999   6.212   7.598
 7951SOL    HW224198   2.093   6.175   7.469
 7952SOL     OW24199   3.617   6.193   7.679
 7952SOL    HW124200   3.605   6.180   7.580
 7952SOL    HW224201   3.587   6.112   7.728
 7953SOL     OW24202   2.093   7.299   7.931
 7953SOL    HW124203   2.127   7.376   7.985
 7953SOL    HW224204   2.137   7.299   7.841
 7954SOL     OW24205   2.468   6.550   7.571
 7954SOL    HW124206   2.475   6.634   7.517
 7954SOL    HW224207   2.514   6.563   7.659
 7955SOL     OW24208   3.704   7.353   7.807
 7955SOL    HW124209   3.758   7.324   7.887
 7955SOL    HW224210   3.734   7.443   7.778
 7956SOL     OW24211   1.889   7.182   7.565
 7956SOL    HW124212   1.870   7.086   7.586
 7956SOL    HW224213   1.856   7.240   7.640
 7957SOL     OW24214   3.503   6.694   7.880
 7957SOL    HW124215   3.589   6.696   7.828
 7957SOL    HW224216   3.517   6.741   7.968
 7958SOL     OW24217   2.671   5.590   7.950
 7958SOL    HW124218   2.711   5.681   7.941
 7958SOL    HW224219   2.571   5.598   7.956
 7959SOL     OW24220   3.387   6.585   7.638
 7959SOL    HW124221   3.324   6.509   7.651
 7959SOL    HW224222   3.435   6.603   7.724
 7960SOL     OW24223   3.529   7.300   8.020
 7960SOL    HW124224   3.488   7.277   7.932
 7960SOL    HW224225   3.511   7.226   8.085
 7961SOL     OW24226   2.460   6.315   7.718
 7961SOL    HW124227   2.484   6.384   7.650
 7961SOL    HW224228   2.382   6.348   7.772
 7962SOL     OW24229   3.438   7.248   7.755
 7962SOL    HW124230   3.527   7.294   7.758
 7962SOL    HW224231   3.417   7.224   7.660
 7963SOL     OW24232   2.903   6.287   7.877
 7963SOL    HW124233   2.929   6.283   7.973
 7963SOL    HW224234   2.818   6.236   7.863
 7964SOL     OW24235   2.727   5.934   7.643
 7964SOL    HW124236   2.786   5.997   7.594
 7964SOL    HW224237   2.746   5.840   7.614
 7965SOL     OW24238   3.224   6.730   7.993
 7965SOL    HW124239   3.307   6.701   7.945
 7965SOL    HW224240   3.175   6.797   7.937
 7966SOL     OW24241   2.870   7.042   7.925
 7966SOL    HW124242   2.824   7.114   7.873
 7966SOL    HW224243   2.866   7.062   8.023
 7967SOL     OW24244   2.183   6.529   7.690
 7967SOL    HW124245   2.265   6.568   7.648
 7967SOL    HW224246   2.156   6.447   7.641
 7968SOL     OW24247   2.973   7.362   7.685
 7968SOL    HW124248   2.913   7.300   7.735
 7968SOL    HW224249   3.004   7.318   7.600
 7969SOL     OW24250   3.494   6.963   7.529
 7969SOL    HW124251   3.462   7.057   7.519
 7969SOL    HW224252   3.418   6.900   7.517
 7970SOL     OW24253   2.326   7.329   7.771
 7970SOL    HW124254   2.359   7.368   7.857
 7970SOL    HW224255   2.402   7.322   7.706
 7971SOL     OW24256   3.262   5.693   7.874
 7971SOL    HW124257   3.238   5.656   7.784
 7971SOL    HW224258   3.361   5.709   7.878
 7972SOL     OW24259   2.244   6.286   7.928
 7972SOL    HW124260   2.289   6.196   7.925
 7972SOL    HW224261   2.150   6.275   7.961
 7973SOL     OW24262   2.476   5.708   7.565
 7973SOL    HW124263   2.574   5.686   7.572
 7973SOL    HW224264   2.445   5.691   7.472
 7974SOL     OW24265   2.401   5.650   7.960
 7974SOL    HW124266   2.320   5.651   8.018
 7974SOL    HW224267   2.404   5.733   7.905
 7975SOL     OW24268   3.296   6.774   7.489
 7975SOL    HW124269   3.328   6.698   7.546
 7975SOL    HW224270   3.204   6.801   7.519
 7976SOL     OW24271   2.159   5.621   7.619
 7976SOL    HW124272   2.208   5.705   7.598
 7976SOL    HW224273   2.221   5.556   7.664
 7977SOL     OW24274   2.797   5.822   7.928
 7977SOL    HW124275   2.749   5.863   7.850
 7977SOL    HW224276   2.896   5.820   7.909
 7978SOL     OW24277   2.894   6.135   7.464
 7978SOL    HW124278   2.853   6.217   7.425
 7978SOL    HW224279   2.958   6.161   7.537
 7979SOL     OW24280   3.719   6.419   7.825
 7979SOL    HW124281   3.761   6.355   7.889
 7979SOL    HW224282   3.681   6.368   7.747
 7980SOL     OW24283   2.350   6.971   7.622
 7980SOL    HW124284   2.263   6.956   7.669
 7980SOL    HW224285   2.333   6.997   7.527
 7981SOL     OW24286   3.252   6.161   7.526
 7981SOL    HW124287   3.198   6.140   7.607
 7981SOL    HW224288   3.343   6.120   7.535
 7982SOL     OW24289   2.389   5.842   7.776
 7982SOL    HW124290   2.416   5.783   7.701
 7982SOL    HW224291   2.389   5.937   7.745
 7983SOL     OW24292   2.567   6.636   7.816
 7983SOL    HW124293   2.553   6.643   7.915
 7983SOL    HW224294   2.651   6.585   7.798
 7984SOL     OW24295   2.229   6.686   7.949
 7984SOL    HW124296   2.222   6.769   7.893
 7984SOL    HW224297   2.233   6.606   7.889
 7985SOL     OW24298   3.114   6.934   7.836
 7985SOL    HW124299   3.164   7.011   7.876
 7985SOL    HW224300   3.019   6.936   7.868
 7986SOL     OW24301   3.444   6.225   7.920
 7986SOL    HW124302   3.413   6.286   7.993
 7986SOL    HW224303   3.494   6.277   7.851
 7987SOL     OW24304   3.071   6.111   7.723
 7987SOL    HW124305   3.084   6.027   7.777
 7987SOL    HW224306   3.042   6.185   7.783
 7988SOL     OW24307   3.484   5.953   7.822
 7988SOL    HW124308   3.486   5.877   7.886
 7988SOL    HW224309   3.436   6.030   7.862
 7989SOL     OW24310   3.402   5.860   7.573
 7989SOL    HW124311   3.341   5.785   7.596
 7989SOL    HW224312   3.424   5.912   7.656
 7990SOL     OW24313   3.165   6.424   7.490
 7990SOL    HW124314   3.199   6.331   7.505
 7990SOL    HW224315   3.183   6.451   7.395
 7991SOL     OW24316   1.870   6.912   7.648
 7991SOL    HW124317   1.777   6.933   7.617
 7991SOL    HW224318   1.880   6.813   7.661
 7992SOL     OW24319   2.677   6.158   7.773
 7992SOL    HW124320   2.684   6.069   7.727
 7992SOL    HW224321   2.583   6.192   7.765
 7993SOL     OW24322   2.335   6.086   7.639
 7993SOL    HW124323   2.396   6.166   7.643
 7993SOL    HW224324   2.240   6.117   7.646
 7994SOL     OW24325   3.164   6.441   7.757
 7994SOL    HW124326   3.078   6.410   7.799
 7994SOL    HW224327   3.160   6.427   7.658
 7995SOL     OW24328   3.588   5.721   7.971
 7995SOL    HW124329   3.661   5.704   7.904
 7995SOL    HW224330   3.557   5.634   8.009
 7996SOL     OW24331   3.250   7.159   7.925
 7996SOL    HW124332   3.317   7.171   7.851
 7996SOL    HW224333   3.210   7.248   7.948
 7997SOL     OW24334   2.534   7.202   7.602
 7997SOL    HW124335   2.543   7.212   7.503
 7997SOL    HW224336   2.494   7.113   7.623
 7998SOL     OW24337   3.056   7.198   7.479
 7998SOL    HW124338   3.062   7.105   7.516
 7998SOL    HW224339   2.997   7.198   7.399
 7999SOL     OW24340   2.778   6.496   7.739
 7999SOL    HW124341   2.841   6.534   7.671
 7999SOL    HW224342   2.818   6.413   7.778
 8000SOL     OW24343   3.366   7.193   7.492
 8000SOL    HW124344   3.274   7.230   7.499
 8000SOL    HW224345   3.404   7.213   7.402
 8001SOL     OW24346   2.452   7.073   7.939
 8001SOL    HW124347   2.494   7.015   7.869
 8001SOL    HW224348   2.408   7.152   7.895
 8002SOL     OW24349   2.117   6.934   7.738
 8002SOL    HW124350   2.021   6.935   7.711
 8002SOL    HW224351   2.129   6.987   7.822
 8003SOL     OW24352   1.937   5.931   7.481
 8003SOL    HW124353   1.845   5.903   7.452
 8003SOL    HW224354   1.968   6.008   7.425
 8004SOL     OW24355   1.934   5.752   7.766
 8004SOL    HW124356   1.917   5.835   7.712
 8004SOL    HW224357   2.024   5.715   7.744
 8005SOL     OW24358   3.045   6.921   7.567
 8005SOL    HW124359   2.946   6.910   7.569
 8005SOL    HW224360   3.079   6.936   7.660
 8006SOL     OW24361   3.087   5.911   7.897
 8006SOL    HW124362   3.152   5.837   7.886
 8006SOL    HW224363   3.107   5.961   7.981
 8007SOL     OW24364   2.721   6.960   7.464
 8007SOL    HW124365   2.675   6.975   7.552
 8007SOL    HW224366   2.765   7.045   7.434
 8008SOL     OW24367   2.945   6.570   7.535
 8008SOL    HW124368   2.922   6.623   7.453
 8008SOL    HW224369   3.026   6.514   7.516
 8009SOL     OW24370   2.290   6.010   7.968
 8009SOL    HW124371   2.320   5.938   7.906
 8009SOL    HW224372   2.251   5.970   8.051
 8010SOL     OW24373   2.632   6.916   7.749
 8010SOL    HW124374   2.586   6.829   7.766
 8010SOL    HW224375   2.723   6.913   7.790
 8011SOL     OW24376   3.214   5.638   7.616
 8011SOL    HW124377   3.249   5.597   7.532
 8011SOL    HW224378   3.124   5.600   7.636
 8012SOL     OW24379   1.901   6.663   7.748
 8012SOL    HW124380   2.000   6.652   7.739
 8012SOL    HW224381   1.861   6.577   7.780
 8013SOL     OW24382   2.737   7.232   7.785
 8013SOL    HW124383   2.660   7.197   7.731
 8013SOL    HW224384   2.705   7.303   7.847
 8014SOL     OW24385   2.092   8.076   0.113
 8014SOL    HW124386   1.999   8.074   0.150
 8014SOL    HW224387   2.093   8.037   0.021
 8015SOL     OW24388   2.087   7.723   0.996
 8015SOL    HW124389   2.122   7.706   1.088
 8015SOL    HW224390   1.999   7.678   0.984
 8016SOL     OW24391   1.881   7.816   0.647
 8016SOL    HW124392   1.799   7.859   0.686
 8016SOL    HW224393   1.853   7.743   0.584
 8017SOL     OW24394   2.431   8.723   1.165
 8017SOL    HW124395   2.338   8.716   1.128
 8017SOL    HW224396   2.442   8.812   1.209
 8018SOL     OW24397   2.997   8.151   0.717
 8018SOL    HW124398   3.054   8.229   0.692
 8018SOL    HW224399   2.937   8.177   0.793
 8019SOL     OW24400   3.617   8.055   0.231
 8019SOL    HW124401   3.605   8.042   0.132
 8019SOL    HW224402   3.587   7.974   0.280
 8020SOL     OW24403   2.630   8.592   1.023
 8020SOL    HW124404   2.552   8.609   1.083
 8020SOL    HW224405   2.664   8.679   0.987
 8021SOL     OW24406   2.712   8.246   1.823
 8021SOL    HW124407   2.708   8.322   1.888
 8021SOL    HW224408   2.734   8.282   1.732
 8022SOL     OW24409   2.547   8.460   0.665
 8022SOL    HW124410   2.616   8.444   0.735
 8022SOL    HW224411   2.474   8.517   0.703
 8023SOL     OW24412   2.548   8.609   1.803
 8023SOL    HW124413   2.608   8.688   1.817
 8023SOL    HW224414   2.462   8.640   1.762
 8024SOL     OW24415   2.197   8.883   1.061
 8024SOL    HW124416   2.119   8.852   1.008
 8024SOL    HW224417   2.255   8.941   1.004
 8025SOL     OW24418   2.300   7.840   1.499
 8025SOL    HW124419   2.382   7.784   1.508
 8025SOL    HW224420   2.219   7.782   1.503
 8026SOL     OW24421   3.465   7.895   0.737
 8026SOL    HW124422   3.391   7.941   0.687
 8026SOL    HW224423   3.516   7.963   0.790
 8027SOL     OW24424   2.989   8.789   1.690
 8027SOL    HW124425   3.036   8.789   1.778
 8027SOL    HW224426   2.941   8.702   1.679
 8028SOL     OW24427   2.092   8.882   0.538
 8028SOL    HW124428   2.066   8.978   0.538
 8028SOL    HW224429   2.021   8.828   0.583
 8029SOL     OW24430   2.468   8.412   0.123
 8029SOL    HW124431   2.475   8.496   0.069
 8029SOL    HW224432   2.514   8.425   0.211
 8030SOL     OW24433   3.456   7.562   1.480
 8030SOL    HW124434   3.438   7.629   1.408
 8030SOL    HW224435   3.453   7.608   1.569
 8031SOL     OW24436   1.984   8.091   0.563
 8031SOL    HW124437   1.939   8.003   0.580
 8031SOL    HW224438   1.983   8.145   0.647
 8032SOL     OW24439   1.889   9.044   0.117
 8032SOL    HW124440   1.870   8.948   0.138
 8032SOL    HW224441   1.856   9.102   0.192
 8033SOL     OW24442   3.551   8.370   0.612
 8033SOL    HW124443   3.646   8.341   0.620
 8033SOL    HW224444   3.543   8.435   0.537
 8034SOL     OW24445   3.503   8.556   0.432
 8034SOL    HW124446   3.589   8.558   0.380
 8034SOL    HW224447   3.517   8.603   0.520
 8035SOL     OW24448   1.975   8.185   1.597
 8035SOL    HW124449   2.063   8.172   1.642
 8035SOL    HW224450   1.962   8.282   1.575
 8036SOL     OW24451   2.475   8.813   0.726
 8036SOL    HW124452   2.426   8.726   0.735
 8036SOL    HW224453   2.452   8.856   0.639
 8037SOL     OW24454   3.155   8.676   1.423
 8037SOL    HW124455   3.192   8.603   1.365
 8037SOL    HW224456   3.207   8.681   1.508
 8038SOL     OW24457   2.671   7.452   0.502
 8038SOL    HW124458   2.711   7.543   0.493
 8038SOL    HW224459   2.571   7.460   0.508
 8039SOL     OW24460   2.059   8.424   1.264
 8039SOL    HW124461   2.148   8.379   1.250
 8039SOL    HW224462   1.986   8.359   1.245
 8040SOL     OW24463   3.387   8.447   0.190
 8040SOL    HW124464   3.324   8.371   0.203
 8040SOL    HW224465   3.435   8.465   0.276
 8041SOL     OW24466   3.049   9.240   1.616
 8041SOL    HW124467   3.073   9.300   1.540
 8041SOL    HW224468   3.056   9.145   1.586
 8042SOL     OW24469   2.179   7.699   1.801
 8042SOL    HW124470   2.250   7.770   1.807
 8042SOL    HW224471   2.091   7.738   1.829
 8043SOL     OW24472   3.328   8.865   0.953
 8043SOL    HW124473   3.269   8.871   1.033
 8043SOL    HW224474   3.313   8.777   0.907
 8044SOL     OW24475   2.460   8.177   0.270
 8044SOL    HW124476   2.484   8.246   0.202
 8044SOL    HW224477   2.382   8.210   0.324
 8045SOL     OW24478   3.143   7.793   0.944
 8045SOL    HW124479   3.057   7.743   0.931
 8045SOL    HW224480   3.205   7.739   1.000
 8046SOL     OW24481   2.669   8.053   1.465
 8046SOL    HW124482   2.622   8.050   1.554
 8046SOL    HW224483   2.618   7.998   1.399
 8047SOL     OW24484   3.256   7.917   1.674
 8047SOL    HW124485   3.236   7.960   1.762
 8047SOL    HW224486   3.334   7.855   1.683
 8048SOL     OW24487   2.835   8.338   1.572
 8048SOL    HW124488   2.881   8.254   1.543
 8048SOL    HW224489   2.779   8.372   1.497
 8049SOL     OW24490   2.853   7.858   1.242
 8049SOL    HW124491   2.776   7.892   1.296
 8049SOL    HW224492   2.819   7.807   1.163
 8050SOL     OW24493   2.903   8.149   0.429
 8050SOL    HW124494   2.929   8.145   0.525
 8050SOL    HW224495   2.818   8.098   0.415
 8051SOL     OW24496   1.938   8.259   0.789
 8051SOL    HW124497   2.037   8.247   0.798
 8051SOL    HW224498   1.914   8.354   0.810
 8052SOL     OW24499   2.727   7.796   0.195
 8052SOL    HW124500   2.786   7.859   0.146
 8052SOL    HW224501   2.746   7.702   0.166
 8053SOL     OW24502   3.581   8.033   1.831
 8053SOL    HW124503   3.555   8.122   1.795
 8053SOL    HW224504   3.579   7.965   1.758
 8054SOL     OW24505   3.224   8.592   0.545
 8054SOL    HW124506   3.307   8.563   0.497
 8054SOL    HW224507   3.175   8.659   0.489
 8055SOL     OW24508   2.412   7.644   0.885
 8055SOL    HW124509   2.407   7.639   0.985
 8055SOL    HW224510   2.414   7.740   0.856
 8056SOL     OW24511   2.870   8.904   0.477
 8056SOL    HW124512   2.824   8.976   0.425
 8056SOL    HW224513   2.866   8.924   0.575
 8057SOL     OW24514   3.657   8.514   0.873
 8057SOL    HW124515   3.595   8.499   0.797
 8057SOL    HW224516   3.605   8.525   0.958
 8058SOL     OW24517   3.089   8.998   1.506
 8058SOL    HW124518   3.095   8.921   1.570
 8058SOL    HW224519   3.037   8.972   1.426
 8059SOL     OW24520   2.183   8.391   0.242
 8059SOL    HW124521   2.265   8.430   0.200
 8059SOL    HW224522   2.156   8.309   0.193
 8060SOL     OW24523   3.320   8.183   0.728
 8060SOL    HW124524   3.315   8.118   0.803
 8060SOL    HW224525   3.400   8.242   0.741
 8061SOL     OW24526   2.323   8.714   1.727
 8061SOL    HW124527   2.273   8.715   1.641
 8061SOL    HW224528   2.260   8.696   1.803
 8062SOL     OW24529   2.064   7.733   1.498
 8062SOL    HW124530   1.984   7.793   1.485
 8062SOL    HW224531   2.054   7.684   1.584
 8063SOL     OW24532   3.262   7.555   0.426
 8063SOL    HW124533   3.238   7.518   0.336
 8063SOL    HW224534   3.361   7.571   0.430
 8064SOL     OW24535   2.802   9.146   0.904
 8064SOL    HW124536   2.882   9.089   0.925
 8064SOL    HW224537   2.753   9.106   0.827
 8065SOL     OW24538   2.244   8.148   0.480
 8065SOL    HW124539   2.289   8.058   0.477
 8065SOL    HW224540   2.150   8.137   0.513
 8066SOL     OW24541   3.409   7.670   1.729
 8066SOL    HW124542   3.404   7.707   1.821
 8066SOL    HW224543   3.337   7.601   1.717
 8067SOL     OW24544   2.476   7.570   0.117
 8067SOL    HW124545   2.574   7.548   0.124
 8067SOL    HW224546   2.445   7.553   0.024
 8068SOL     OW24547   2.643   7.712   1.749
 8068SOL    HW124548   2.710   7.651   1.792
 8068SOL    HW224549   2.570   7.731   1.814
 8069SOL     OW24550   2.750   8.962   1.195
 8069SOL    HW124551   2.727   8.937   1.101
 8069SOL    HW224552   2.811   8.893   1.234
 8070SOL     OW24553   3.213   8.038   1.433
 8070SOL    HW124554   3.241   7.995   1.518
 8070SOL    HW224555   3.238   8.134   1.434
 8071SOL     OW24556   2.665   8.850   0.924
 8071SOL    HW124557   2.755   8.864   0.882
 8071SOL    HW224558   2.594   8.852   0.853
 8072SOL     OW24559   2.784   7.951   0.899
 8072SOL    HW124560   2.759   7.942   0.803
 8072SOL    HW224561   2.832   7.869   0.930
 8073SOL     OW24562   2.401   7.512   0.512
 8073SOL    HW124563   2.320   7.513   0.570
 8073SOL    HW224564   2.404   7.595   0.457
 8074SOL     OW24565   3.296   8.636   0.041
 8074SOL    HW124566   3.328   8.560   0.098
 8074SOL    HW224567   3.204   8.663   0.071
 8075SOL     OW24568   2.159   7.483   0.171
 8075SOL    HW124569   2.208   7.567   0.150
 8075SOL    HW224570   2.221   7.418   0.216
 8076SOL     OW24571   2.797   7.684   0.480
 8076SOL    HW124572   2.749   7.725   0.402
 8076SOL    HW224573   2.896   7.682   0.461
 8077SOL     OW24574   2.938   8.131   1.464
 8077SOL    HW124575   2.858   8.070   1.467
 8077SOL    HW224576   3.019   8.078   1.440
 8078SOL     OW24577   3.089   9.018   0.793
 8078SOL    HW124578   3.110   9.092   0.728
 8078SOL    HW224579   3.157   9.018   0.866
 8079SOL     OW24580   2.321   8.600   0.741
 8079SOL    HW124581   2.250   8.573   0.806
 8079SOL    HW224582   2.295   8.572   0.648
 8080SOL     OW24583   2.894   7.997   0.016
 8080SOL    HW124584   2.853   8.079  -0.023
 8080SOL    HW224585   2.958   8.023   0.089
 8081SOL     OW24586   1.940   8.004   1.386
 8081SOL    HW124587   2.032   8.003   1.345
 8081SOL    HW224588   1.934   8.078   1.453
 8082SOL     OW24589   2.728   7.902   0.642
 8082SOL    HW124590   2.696   7.974   0.580
 8082SOL    HW224591   2.752   7.821   0.589
 8083SOL     OW24592   2.879   7.487   0.753
 8083SOL    HW124593   2.807   7.492   0.684
 8083SOL    HW224594   2.855   7.418   0.822
 8084SOL     OW24595   3.291   8.621   0.867
 8084SOL    HW124596   3.236   8.537   0.860
 8084SOL    HW224597   3.317   8.650   0.775
 8085SOL     OW24598   3.328   8.038   0.992
 8085SOL    HW124599   3.298   7.943   0.999
 8085SOL    HW224600   3.401   8.054   1.058
 8086SOL     OW24601   3.719   8.281   0.377
 8086SOL    HW124602   3.761   8.217   0.441
 8086SOL    HW224603   3.681   8.230   0.299
 8087SOL     OW24604   2.350   8.833   0.174
 8087SOL    HW124605   2.263   8.818   0.221
 8087SOL    HW224606   2.333   8.859   0.079
 8088SOL     OW24607   3.252   8.023   0.078
 8088SOL    HW124608   3.198   8.002   0.159
 8088SOL    HW224609   3.343   7.982   0.087
 8089SOL     OW24610   2.389   7.704   0.328
 8089SOL    HW124611   2.416   7.645   0.253
 8089SOL    HW224612   2.389   7.799   0.297
 8090SOL     OW24613   2.926   8.795   1.340
 8090SOL    HW124614   2.846   8.772   1.395
 8090SOL    HW224615   3.009   8.769   1.389
 8091SOL     OW24616   2.973   8.643   1.100
 8091SOL    HW124617   2.933   8.687   1.181
 8091SOL    HW224618   2.932   8.680   1.017
 8092SOL     OW24619   3.500   8.547   1.079
 8092SOL    HW124620   3.505   8.628   1.138
 8092SOL    HW224621   3.414   8.549   1.028
 8093SOL     OW24622   2.777   7.537   1.402
 8093SOL    HW124623   2.802   7.517   1.307
 8093SOL    HW224624   2.849   7.593   1.444
 8094SOL     OW24625   2.842   8.564   1.719
 8094SOL    HW124626   2.743   8.570   1.729
 8094SOL    HW224627   2.865   8.484   1.663
 8095SOL     OW24628   2.567   8.498   0.368
 8095SOL    HW124629   2.553   8.505   0.467
 8095SOL    HW224630   2.651   8.447   0.350
 8096SOL     OW24631   2.272   8.261   1.251
 8096SOL    HW124632   2.358   8.273   1.301
 8096SOL    HW224633   2.230   8.174   1.278
 8097SOL     OW24634   3.136   7.834   1.262
 8097SOL    HW124635   3.157   7.908   1.326
 8097SOL    HW224636   3.047   7.851   1.219
 8098SOL     OW24637   1.926   9.012   1.331
 8098SOL    HW124638   1.880   9.094   1.297
 8098SOL    HW224639   2.024   9.031   1.340
 8099SOL     OW24640   2.229   8.548   0.501
 8099SOL    HW124641   2.222   8.631   0.445
 8099SOL    HW224642   2.233   8.468   0.441
 8100SOL     OW24643   2.428   7.985   0.865
 8100SOL    HW124644   2.440   8.051   0.791
 8100SOL    HW224645   2.474   8.019   0.948
 8101SOL     OW24646   3.114   8.796   0.388
 8101SOL    HW124647   3.164   8.873   0.428
 8101SOL    HW224648   3.019   8.798   0.420
 8102SOL     OW24649   3.134   8.893   1.142
 8102SOL    HW124650   3.181   8.906   1.229
 8102SOL    HW224651   3.068   8.819   1.151
 8103SOL     OW24652   3.444   8.087   0.472
 8103SOL    HW124653   3.413   8.148   0.545
 8103SOL    HW224654   3.494   8.139   0.403
 8104SOL     OW24655   2.216   8.958   1.329
 8104SOL    HW124656   2.195   8.914   1.242
 8104SOL    HW224657   2.313   8.984   1.332
 8105SOL     OW24658   2.264   8.199   1.598
 8105SOL    HW124659   2.332   8.254   1.551
 8105SOL    HW224660   2.304   8.111   1.625
 8106SOL     OW24661   3.449   8.227   1.670
 8106SOL    HW124662   3.357   8.265   1.665
 8106SOL    HW224663   3.509   8.274   1.605
 8107SOL     OW24664   2.875   7.553   1.770
 8107SOL    HW124665   2.881   7.638   1.718
 8107SOL    HW224666   2.907   7.477   1.713
 8108SOL     OW24667   2.366   7.498   1.740
 8108SOL    HW124668   2.324   7.441   1.670
 8108SOL    HW224669   2.300   7.567   1.772
 8109SOL     OW24670   2.435   8.318   1.029
 8109SOL    HW124671   2.479   8.407   1.020
 8109SOL    HW224672   2.372   8.318   1.106
 8110SOL     OW24673   3.222   8.310   1.045
 8110SOL    HW124674   3.147   8.310   0.979
 8110SOL    HW224675   3.259   8.218   1.054
 8111SOL     OW24676   3.071   7.973   0.275
 8111SOL    HW124677   3.084   7.889   0.329
 8111SOL    HW224678   3.042   8.047   0.335
 8112SOL     OW24679   2.169   7.661   1.231
 8112SOL    HW124680   2.146   7.698   1.321
 8112SOL    HW224681   2.139   7.566   1.225
 8113SOL     OW24682   1.899   8.758   1.282
 8113SOL    HW124683   1.952   8.709   1.350
 8113SOL    HW224684   1.921   8.856   1.287
 8114SOL     OW24685   2.594   8.082   1.064
 8114SOL    HW124686   2.653   8.056   0.988
 8114SOL    HW224687   2.566   8.178   1.053
 8115SOL     OW24688   3.590   8.383   1.854
 8115SOL    HW124689   3.544   8.376   1.765
 8115SOL    HW224690   3.528   8.427   1.920
 8116SOL     OW24691   2.169   7.511   0.618
 8116SOL    HW124692   2.158   7.605   0.651
 8116SOL    HW224693   2.164   7.448   0.695
 8117SOL     OW24694   3.484   7.815   0.374
 8117SOL    HW124695   3.486   7.739   0.438
 8117SOL    HW224696   3.436   7.892   0.414
 8118SOL     OW24697   2.885   8.214   0.966
 8118SOL    HW124698   2.900   8.235   1.062
 8118SOL    HW224699   2.855   8.119   0.957
 8119SOL     OW24700   2.842   9.021   1.700
 8119SOL    HW124701   2.822   9.065   1.612
 8119SOL    HW224702   2.881   8.930   1.684
 8120SOL     OW24703   2.212   8.346   1.804
 8120SOL    HW124704   2.288   8.390   1.852
 8120SOL    HW224705   2.247   8.299   1.722
 8121SOL     OW24706   3.402   7.722   0.125
 8121SOL    HW124707   3.341   7.647   0.148
 8121SOL    HW224708   3.424   7.774   0.208
 8122SOL     OW24709   3.165   8.286   0.042
 8122SOL    HW124710   3.199   8.193   0.057
 8122SOL    HW224711   3.183   8.313  -0.053
 8123SOL     OW24712   2.930   8.781   0.849
 8123SOL    HW124713   2.937   8.697   0.794
 8123SOL    HW224714   2.992   8.850   0.813
 8124SOL     OW24715   2.181   8.258   0.949
 8124SOL    HW124716   2.274   8.294   0.954
 8124SOL    HW224717   2.175   8.173   1.001
 8125SOL     OW24718   2.201   7.957   1.006
 8125SOL    HW124719   2.149   7.874   0.989
 8125SOL    HW224720   2.278   7.962   0.942
 8126SOL     OW24721   3.000   7.828   1.678
 8126SOL    HW124722   2.955   7.891   1.742
 8126SOL    HW224723   3.093   7.859   1.661
 8127SOL     OW24724   3.022   7.655   1.477
 8127SOL    HW124725   3.022   7.719   1.554
 8127SOL    HW224726   3.050   7.703   1.394
 8128SOL     OW24727   1.870   8.774   0.200
 8128SOL    HW124728   1.777   8.795   0.169
 8128SOL    HW224729   1.880   8.675   0.213
 8129SOL     OW24730   2.366   9.016   0.910
 8129SOL    HW124731   2.432   9.090   0.919
 8129SOL    HW224732   2.410   8.937   0.868
 8130SOL     OW24733   2.864   8.244   1.238
 8130SOL    HW124734   2.905   8.212   1.324
 8130SOL    HW224735   2.768   8.217   1.235
 8131SOL     OW24736   1.902   7.992   1.114
 8131SOL    HW124737   1.987   7.959   1.073
 8131SOL    HW224738   1.915   8.007   1.212
 8132SOL     OW24739   2.051   7.968   1.722
 8132SOL    HW124740   2.110   7.928   1.652
 8132SOL    HW224741   1.993   8.039   1.681
 8133SOL     OW24742   3.231   8.398   1.660
 8133SOL    HW124743   3.270   8.487   1.680
 8133SOL    HW224744   3.241   8.378   1.563
 8134SOL     OW24745   2.677   8.020   0.325
 8134SOL    HW124746   2.684   7.931   0.279
 8134SOL    HW224747   2.583   8.054   0.317
 8135SOL     OW24748   3.519   8.052   1.206
 8135SOL    HW124749   3.481   7.983   1.268
 8135SOL    HW224750   3.601   8.016   1.162
 8136SOL     OW24751   2.114   9.012   1.744
 8136SOL    HW124752   2.084   9.069   1.820
 8136SOL    HW224753   2.107   8.915   1.770
 8137SOL     OW24754   2.533   7.912   1.269
 8137SOL    HW124755   2.499   7.823   1.239
 8137SOL    HW224756   2.559   7.966   1.189
 8138SOL     OW24757   2.792   9.126   1.465
 8138SOL    HW124758   2.768   9.108   1.370
 8138SOL    HW224759   2.822   9.220   1.475
 8139SOL     OW24760   2.335   7.948   0.191
 8139SOL    HW124761   2.396   8.028   0.195
 8139SOL    HW224762   2.240   7.979   0.198
 8140SOL     OW24763   2.021   8.585   1.466
 8140SOL    HW124764   2.043   8.524   1.542
 8140SOL    HW224765   2.031   8.536   1.380
 8141SOL     OW24766   3.209   8.507   1.234
 8141SOL    HW124767   3.233   8.444   1.160
 8141SOL    HW224768   3.119   8.547   1.216
 8142SOL     OW24769   3.164   8.303   0.309
 8142SOL    HW124770   3.078   8.272   0.351
 8142SOL    HW224771   3.160   8.289   0.210
 8143SOL     OW24772   1.945   8.706   1.022
 8143SOL    HW124773   1.940   8.705   1.122
 8143SOL    HW224774   1.862   8.665   0.984
 8144SOL     OW24775   2.550   9.110   1.716
 8144SOL    HW124776   2.494   9.191   1.725
 8144SOL    HW224777   2.602   9.114   1.630
 8145SOL     OW24778   2.765   7.534   0.133
 8145SOL    HW124779   2.816   7.535   0.047
 8145SOL    HW224780   2.821   7.492   0.204
 8146SOL     OW24781   3.588   7.583   0.523
 8146SOL    HW124782   3.661   7.566   0.456
 8146SOL    HW224783   3.557   7.496   0.561
 8147SOL     OW24784   3.142   8.375   0.672
 8147SOL    HW124785   3.202   8.294   0.674
 8147SOL    HW224786   3.182   8.444   0.612
 8148SOL     OW24787   2.692   8.721   1.422
 8148SOL    HW124788   2.687   8.754   1.517
 8148SOL    HW224789   2.606   8.740   1.376
 8149SOL     OW24790   2.534   9.064   0.154
 8149SOL    HW124791   2.543   9.074   0.055
 8149SOL    HW224792   2.494   8.975   0.175
 8150SOL     OW24793   3.703   7.623   0.963
 8150SOL    HW124794   3.742   7.538   0.927
 8150SOL    HW224795   3.605   7.625   0.944
 8151SOL     OW24796   2.125   7.774   0.720
 8151SOL    HW124797   2.046   7.825   0.686
 8151SOL    HW224798   2.116   7.759   0.818
 8152SOL     OW24799   3.056   9.060   0.031
 8152SOL    HW124800   3.062   8.967   0.068
 8152SOL    HW224801   2.997   9.060  -0.049
 8153SOL     OW24802   2.684   8.450   1.372
 8153SOL    HW124803   2.724   8.449   1.280
 8153SOL    HW224804   2.694   8.542   1.412
 8154SOL     OW24805   2.778   8.358   0.291
 8154SOL    HW124806   2.841   8.396   0.223
 8154SOL    HW224807   2.818   8.275   0.330
 8155SOL     OW24808   3.366   9.055   0.044
 8155SOL    HW124809   3.274   9.092   0.051
 8155SOL    HW224810   3.404   9.075  -0.046
 8156SOL     OW24811   2.234   8.736   1.490
 8156SOL    HW124812   2.221   8.829   1.456
 8156SOL    HW224813   2.150   8.684   1.477
 8157SOL     OW24814   3.476   8.740   1.289
 8157SOL    HW124815   3.536   8.743   1.369
 8157SOL    HW224816   3.401   8.804   1.302
 8158SOL     OW24817   2.901   8.546   0.696
 8158SOL    HW124818   2.831   8.499   0.750
 8158SOL    HW224819   2.960   8.478   0.653
 8159SOL     OW24820   2.876   7.684   0.971
 8159SOL    HW124821   2.868   7.648   0.878
 8159SOL    HW224822   2.874   7.608   1.036
 8160SOL     OW24823   2.452   8.935   0.491
 8160SOL    HW124824   2.494   8.877   0.421
 8160SOL    HW224825   2.408   9.014   0.447
 8161SOL     OW24826   3.571   7.833   1.381
 8161SOL    HW124827   3.644   7.902   1.385
 8161SOL    HW224828   3.599   7.758   1.322
 8162SOL     OW24829   2.117   8.796   0.290
 8162SOL    HW124830   2.021   8.797   0.263
 8162SOL    HW224831   2.129   8.849   0.374
 8163SOL     OW24832   1.967   8.461   1.726
 8163SOL    HW124833   1.890   8.428   1.780
 8163SOL    HW224834   2.052   8.431   1.768
 8164SOL     OW24835   2.534   7.651   1.489
 8164SOL    HW124836   2.624   7.635   1.449
 8164SOL    HW224837   2.542   7.656   1.588
 8165SOL     OW24838   1.937   7.793   0.033
 8165SOL    HW124839   1.845   7.765   0.004
 8165SOL    HW224840   1.968   7.870  -0.023
 8166SOL     OW24841   3.302   8.304   1.398
 8166SOL    HW124842   3.245   8.356   1.335
 8166SOL    HW224843   3.398   8.316   1.374
 8167SOL     OW24844   1.934   7.614   0.318
 8167SOL    HW124845   1.917   7.697   0.264
 8167SOL    HW224846   2.024   7.577   0.296
 8168SOL     OW24847   3.045   8.783   0.119
 8168SOL    HW124848   2.946   8.772   0.121
 8168SOL    HW224849   3.079   8.798   0.212
 8169SOL     OW24850   2.475   8.290   1.431
 8169SOL    HW124851   2.531   8.371   1.414
 8169SOL    HW224852   2.534   8.210   1.434
 8170SOL     OW24853   2.578   8.013   1.708
 8170SOL    HW124854   2.597   8.078   1.782
 8170SOL    HW224855   2.638   7.933   1.717
 8171SOL     OW24856   3.312   8.668   1.633
 8171SOL    HW124857   3.303   8.658   1.732
 8171SOL    HW224858   3.408   8.661   1.607
 8172SOL     OW24859   2.252   9.189   1.560
 8172SOL    HW124860   2.161   9.230   1.558
 8172SOL    HW224861   2.245   9.095   1.592
 8173SOL     OW24862   3.536   8.331   1.254
 8173SOL    HW124863   3.509   8.242   1.217
 8173SOL    HW224864   3.537   8.399   1.181
 8174SOL     OW24865   3.087   7.773   0.449
 8174SOL    HW124866   3.152   7.699   0.438
 8174SOL    HW224867   3.107   7.823   0.533
 8175SOL     OW24868   2.456   8.193   0.652
 8175SOL    HW124869   2.506   8.278   0.633
 8175SOL    HW224870   2.368   8.195   0.604
 8176SOL     OW24871   3.639   7.790   1.642
 8176SOL    HW124872   3.622   7.821   1.548
 8176SOL    HW224873   3.555   7.753   1.680
 8177SOL     OW24874   3.592   8.382   1.517
 8177SOL    HW124875   3.630   8.473   1.532
 8177SOL    HW224876   3.584   8.365   1.418
 8178SOL     OW24877   2.721   8.822   0.016
 8178SOL    HW124878   2.675   8.837   0.104
 8178SOL    HW224879   2.765   8.907  -0.014
 8179SOL     OW24880   2.721   8.404   0.861
 8179SOL    HW124881   2.775   8.335   0.909
 8179SOL    HW224882   2.689   8.473   0.927
 8180SOL     OW24883   2.945   8.432   0.087
 8180SOL    HW124884   2.922   8.485   0.005
 8180SOL    HW224885   3.026   8.376   0.068
 8181SOL     OW24886   2.083   8.762   1.844
 8181SOL    HW124887   2.018   8.689   1.823
 8181SOL    HW224888   2.087   8.776   1.942
 8182SOL     OW24889   1.941   8.688   0.653
 8182SOL    HW124890   1.940   8.641   0.741
 8182SOL    HW224891   2.023   8.660   0.602
 8183SOL     OW24892   2.534   8.839   1.624
 8183SOL    HW124893   2.456   8.789   1.662
 8183SOL    HW224894   2.531   8.934   1.655
 8184SOL     OW24895   3.686   7.640   1.227
 8184SOL    HW124896   3.682   7.550   1.271
 8184SOL    HW224897   3.689   7.629   1.128
 8185SOL     OW24898   2.290   7.872   0.520
 8185SOL    HW124899   2.320   7.800   0.458
 8185SOL    HW224900   2.251   7.832   0.603
 8186SOL     OW24901   3.567   8.935   1.104
 8186SOL    HW124902   3.474   8.910   1.077
 8186SOL    HW224903   3.593   8.885   1.186
 8187SOL     OW24904   2.179   7.995   1.280
 8187SOL    HW124905   2.217   7.936   1.352
 8187SOL    HW224906   2.219   7.969   1.192
 8188SOL     OW24907   2.674   9.034   0.687
 8188SOL    HW124908   2.706   9.044   0.593
 8188SOL    HW224909   2.595   8.972   0.689
 8189SOL     OW24910   3.286   7.662   1.112
 8189SOL    HW124911   3.338   7.597   1.167
 8189SOL    HW224912   3.237   7.725   1.173
 8190SOL     OW24913   2.863   7.482   1.154
 8190SOL    HW124914   2.800   7.410   1.123
 8190SOL    HW224915   2.956   7.446   1.154
 8191SOL     OW24916   2.632   8.778   0.301
 8191SOL    HW124917   2.586   8.691   0.318
 8191SOL    HW224918   2.723   8.775   0.342
 8192SOL     OW24919   2.480   9.015   1.284
 8192SOL    HW124920   2.475   9.097   1.341
 8192SOL    HW224921   2.569   9.012   1.239
 8193SOL     OW24922   3.214   7.500   0.168
 8193SOL    HW124923   3.249   7.459   0.084
 8193SOL    HW224924   3.124   7.462   0.188
 8194SOL     OW24925   3.162   7.901   0.691
 8194SOL    HW124926   3.103   7.981   0.695
 8194SOL    HW224927   3.177   7.866   0.784
 8195SOL     OW24928   3.455   7.669   0.882
 8195SOL    HW124929   3.371   7.668   0.936
 8195SOL    HW224930   3.457   7.752   0.826
 8196SOL     OW24931   1.901   8.525   0.300
 8196SOL    HW124932   2.000   8.514   0.291
 8196SOL    HW224933   1.861   8.439   0.332
 8197SOL     OW24934   2.737   9.094   0.337
 8197SOL    HW124935   2.660   9.059   0.283
 8197SOL    HW224936   2.705   9.165   0.399
 8198SOL     OW24937   2.092   8.076   1.975
 8198SOL    HW124938   1.999   8.074   2.012
 8198SOL    HW224939   2.093   8.037   1.883
 8199SOL     OW24940   2.087   7.723   2.858
 8199SOL    HW124941   2.122   7.706   2.950
 8199SOL    HW224942   1.999   7.678   2.846
 8200SOL     OW24943   1.881   7.816   2.509
 8200SOL    HW124944   1.799   7.859   2.548
 8200SOL    HW224945   1.853   7.743   2.446
 8201SOL     OW24946   2.431   8.723   3.027
 8201SOL    HW124947   2.338   8.716   2.990
 8201SOL    HW224948   2.442   8.812   3.071
 8202SOL     OW24949   2.997   8.151   2.579
 8202SOL    HW124950   3.054   8.229   2.554
 8202SOL    HW224951   2.937   8.177   2.655
 8203SOL     OW24952   3.617   8.055   2.093
 8203SOL    HW124953   3.605   8.042   1.994
 8203SOL    HW224954   3.587   7.974   2.142
 8204SOL     OW24955   2.630   8.592   2.885
 8204SOL    HW124956   2.552   8.609   2.945
 8204SOL    HW224957   2.664   8.679   2.849
 8205SOL     OW24958   2.712   8.246   3.685
 8205SOL    HW124959   2.708   8.322   3.750
 8205SOL    HW224960   2.734   8.282   3.594
 8206SOL     OW24961   2.547   8.460   2.527
 8206SOL    HW124962   2.616   8.444   2.597
 8206SOL    HW224963   2.474   8.517   2.565
 8207SOL     OW24964   2.548   8.609   3.665
 8207SOL    HW124965   2.608   8.688   3.679
 8207SOL    HW224966   2.462   8.640   3.624
 8208SOL     OW24967   2.197   8.883   2.923
 8208SOL    HW124968   2.119   8.852   2.870
 8208SOL    HW224969   2.255   8.941   2.866
 8209SOL     OW24970   2.300   7.840   3.361
 8209SOL    HW124971   2.382   7.784   3.370
 8209SOL    HW224972   2.219   7.782   3.365
 8210SOL     OW24973   3.465   7.895   2.599
 8210SOL    HW124974   3.391   7.941   2.549
 8210SOL    HW224975   3.516   7.963   2.652
 8211SOL     OW24976   2.989   8.789   3.552
 8211SOL    HW124977   3.036   8.789   3.640
 8211SOL    HW224978   2.941   8.702   3.541
 8212SOL     OW24979   2.092   8.882   2.400
 8212SOL    HW124980   2.066   8.978   2.400
 8212SOL    HW224981   2.021   8.828   2.445
 8213SOL     OW24982   2.102   8.539   2.748
 8213SOL    HW124983   2.116   8.455   2.800
 8213SOL    HW224984   2.047   8.603   2.803
 8214SOL     OW24985   2.468   8.412   1.985
 8214SOL    HW124986   2.475   8.496   1.931
 8214SOL    HW224987   2.514   8.425   2.073
 8215SOL     OW24988   3.456   7.562   3.342
 8215SOL    HW124989   3.438   7.629   3.270
 8215SOL    HW224990   3.453   7.608   3.431
 8216SOL     OW24991   1.984   8.091   2.425
 8216SOL    HW124992   1.939   8.003   2.442
 8216SOL    HW224993   1.983   8.145   2.509
 8217SOL     OW24994   1.889   9.044   1.979
 8217SOL    HW124995   1.870   8.948   2.000
 8217SOL    HW224996   1.856   9.102   2.054
 8218SOL     OW24997   3.551   8.370   2.474
 8218SOL    HW124998   3.646   8.341   2.482
 8218SOL    HW224999   3.543   8.435   2.399
 8219SOL     OW25000   3.503   8.556   2.294
 8219SOL    HW125001   3.589   8.558   2.242
 8219SOL    HW225002   3.517   8.603   2.382
 8220SOL     OW25003   1.975   8.185   3.459
 8220SOL    HW125004   2.063   8.172   3.504
 8220SOL    HW225005   1.962   8.282   3.437
 8221SOL     OW25006   2.475   8.813   2.588
 8221SOL    HW125007   2.426   8.726   2.597
 8221SOL    HW225008   2.452   8.856   2.501
 8222SOL     OW25009   3.155   8.676   3.285
 8222SOL    HW125010   3.192   8.603   3.227
 8222SOL    HW225011   3.207   8.681   3.370
 8223SOL     OW25012   2.671   7.452   2.364
 8223SOL    HW125013   2.711   7.543   2.355
 8223SOL    HW225014   2.571   7.460   2.370
 8224SOL     OW25015   2.059   8.424   3.126
 8224SOL    HW125016   2.148   8.379   3.112
 8224SOL    HW225017   1.986   8.359   3.107
 8225SOL     OW25018   3.387   8.447   2.052
 8225SOL    HW125019   3.324   8.371   2.065
 8225SOL    HW225020   3.435   8.465   2.138
 8226SOL     OW25021   3.049   9.240   3.478
 8226SOL    HW125022   3.073   9.300   3.402
 8226SOL    HW225023   3.056   9.145   3.448
 8227SOL     OW25024   2.179   7.699   3.663
 8227SOL    HW125025   2.250   7.770   3.669
 8227SOL    HW225026   2.091   7.738   3.691
 8228SOL     OW25027   3.328   8.865   2.815
 8228SOL    HW125028   3.269   8.871   2.895
 8228SOL    HW225029   3.313   8.777   2.769
 8229SOL     OW25030   2.460   8.177   2.132
 8229SOL    HW125031   2.484   8.246   2.064
 8229SOL    HW225032   2.382   8.210   2.186
 8230SOL     OW25033   3.143   7.793   2.806
 8230SOL    HW125034   3.057   7.743   2.793
 8230SOL    HW225035   3.205   7.739   2.862
 8231SOL     OW25036   2.669   8.053   3.327
 8231SOL    HW125037   2.622   8.050   3.416
 8231SOL    HW225038   2.618   7.998   3.261
 8232SOL     OW25039   3.256   7.917   3.536
 8232SOL    HW125040   3.236   7.960   3.624
 8232SOL    HW225041   3.334   7.855   3.545
 8233SOL     OW25042   2.835   8.338   3.434
 8233SOL    HW125043   2.881   8.254   3.405
 8233SOL    HW225044   2.779   8.372   3.359
 8234SOL     OW25045   2.853   7.858   3.104
 8234SOL    HW125046   2.776   7.892   3.158
 8234SOL    HW225047   2.819   7.807   3.025
 8235SOL     OW25048   2.903   8.149   2.291
 8235SOL    HW125049   2.929   8.145   2.387
 8235SOL    HW225050   2.818   8.098   2.277
 8236SOL     OW25051   1.938   8.259   2.651
 8236SOL    HW125052   2.037   8.247   2.660
 8236SOL    HW225053   1.914   8.354   2.672
 8237SOL     OW25054   2.727   7.796   2.057
 8237SOL    HW125055   2.786   7.859   2.008
 8237SOL    HW225056   2.746   7.702   2.028
 8238SOL     OW25057   3.581   8.033   3.693
 8238SOL    HW125058   3.555   8.122   3.657
 8238SOL    HW225059   3.579   7.965   3.620
 8239SOL     OW25060   3.224   8.592   2.407
 8239SOL    HW125061   3.307   8.563   2.359
 8239SOL    HW225062   3.175   8.659   2.351
 8240SOL     OW25063   2.412   7.644   2.747
 8240SOL    HW125064   2.407   7.639   2.847
 8240SOL    HW225065   2.414   7.740   2.718
 8241SOL     OW25066   2.870   8.904   2.339
 8241SOL    HW125067   2.824   8.976   2.287
 8241SOL    HW225068   2.866   8.924   2.437
 8242SOL     OW25069   3.657   8.514   2.735
 8242SOL    HW125070   3.595   8.499   2.659
 8242SOL    HW225071   3.605   8.525   2.820
 8243SOL     OW25072   3.089   8.998   3.368
 8243SOL    HW125073   3.095   8.921   3.432
 8243SOL    HW225074   3.037   8.972   3.288
 8244SOL     OW25075   2.183   8.391   2.104
 8244SOL    HW125076   2.265   8.430   2.062
 8244SOL    HW225077   2.156   8.309   2.055
 8245SOL     OW25078   3.320   8.183   2.590
 8245SOL    HW125079   3.315   8.118   2.665
 8245SOL    HW225080   3.400   8.242   2.603
 8246SOL     OW25081   2.323   8.714   3.589
 8246SOL    HW125082   2.273   8.715   3.503
 8246SOL    HW225083   2.260   8.696   3.665
 8247SOL     OW25084   2.064   7.733   3.360
 8247SOL    HW125085   1.984   7.793   3.347
 8247SOL    HW225086   2.054   7.684   3.446
 8248SOL     OW25087   3.262   7.555   2.288
 8248SOL    HW125088   3.238   7.518   2.198
 8248SOL    HW225089   3.361   7.571   2.292
 8249SOL     OW25090   2.802   9.146   2.766
 8249SOL    HW125091   2.882   9.089   2.787
 8249SOL    HW225092   2.753   9.106   2.689
 8250SOL     OW25093   2.244   8.148   2.342
 8250SOL    HW125094   2.289   8.058   2.339
 8250SOL    HW225095   2.150   8.137   2.375
 8251SOL     OW25096   3.409   7.670   3.591
 8251SOL    HW125097   3.404   7.707   3.683
 8251SOL    HW225098   3.337   7.601   3.579
 8252SOL     OW25099   2.476   7.570   1.979
 8252SOL    HW125100   2.574   7.548   1.986
 8252SOL    HW225101   2.445   7.553   1.886
 8253SOL     OW25102   2.643   7.712   3.611
 8253SOL    HW125103   2.710   7.651   3.654
 8253SOL    HW225104   2.570   7.731   3.676
 8254SOL     OW25105   2.750   8.962   3.057
 8254SOL    HW125106   2.727   8.937   2.963
 8254SOL    HW225107   2.811   8.893   3.096
 8255SOL     OW25108   3.213   8.038   3.295
 8255SOL    HW125109   3.241   7.995   3.380
 8255SOL    HW225110   3.238   8.134   3.296
 8256SOL     OW25111   2.665   8.850   2.786
 8256SOL    HW125112   2.755   8.864   2.744
 8256SOL    HW225113   2.594   8.852   2.715
 8257SOL     OW25114   2.784   7.951   2.761
 8257SOL    HW125115   2.759   7.942   2.665
 8257SOL    HW225116   2.832   7.869   2.792
 8258SOL     OW25117   2.401   7.512   2.374
 8258SOL    HW125118   2.320   7.513   2.432
 8258SOL    HW225119   2.404   7.595   2.319
 8259SOL     OW25120   3.296   8.636   1.903
 8259SOL    HW125121   3.328   8.560   1.960
 8259SOL    HW225122   3.204   8.663   1.933
 8260SOL     OW25123   2.159   7.483   2.033
 8260SOL    HW125124   2.208   7.567   2.012
 8260SOL    HW225125   2.221   7.418   2.078
 8261SOL     OW25126   2.797   7.684   2.342
 8261SOL    HW125127   2.749   7.725   2.264
 8261SOL    HW225128   2.896   7.682   2.323
 8262SOL     OW25129   2.938   8.131   3.326
 8262SOL    HW125130   2.858   8.070   3.329
 8262SOL    HW225131   3.019   8.078   3.302
 8263SOL     OW25132   3.089   9.018   2.655
 8263SOL    HW125133   3.110   9.092   2.590
 8263SOL    HW225134   3.157   9.018   2.728
 8264SOL     OW25135   2.321   8.600   2.603
 8264SOL    HW125136   2.250   8.573   2.668
 8264SOL    HW225137   2.295   8.572   2.510
 8265SOL     OW25138   2.894   7.997   1.878
 8265SOL    HW125139   2.853   8.079   1.839
 8265SOL    HW225140   2.958   8.023   1.951
 8266SOL     OW25141   1.940   8.004   3.248
 8266SOL    HW125142   2.032   8.003   3.207
 8266SOL    HW225143   1.934   8.078   3.315
 8267SOL     OW25144   2.423   7.670   3.009
 8267SOL    HW125145   2.461   7.586   3.046
 8267SOL    HW225146   2.335   7.689   3.053
 8268SOL     OW25147   2.728   7.902   2.504
 8268SOL    HW125148   2.696   7.974   2.442
 8268SOL    HW225149   2.752   7.821   2.451
 8269SOL     OW25150   2.879   7.487   2.615
 8269SOL    HW125151   2.807   7.492   2.546
 8269SOL    HW225152   2.855   7.418   2.684
 8270SOL     OW25153   3.291   8.621   2.729
 8270SOL    HW125154   3.236   8.537   2.722
 8270SOL    HW225155   3.317   8.650   2.637
 8271SOL     OW25156   3.328   8.038   2.854
 8271SOL    HW125157   3.298   7.943   2.861
 8271SOL    HW225158   3.401   8.054   2.920
 8272SOL     OW25159   3.719   8.281   2.239
 8272SOL    HW125160   3.761   8.217   2.303
 8272SOL    HW225161   3.681   8.230   2.161
 8273SOL     OW25162   2.350   8.833   2.036
 8273SOL    HW125163   2.263   8.818   2.083
 8273SOL    HW225164   2.333   8.859   1.941
 8274SOL     OW25165   3.252   8.023   1.940
 8274SOL    HW125166   3.198   8.002   2.021
 8274SOL    HW225167   3.343   7.982   1.949
 8275SOL     OW25168   2.389   7.704   2.190
 8275SOL    HW125169   2.416   7.645   2.115
 8275SOL    HW225170   2.389   7.799   2.159
 8276SOL     OW25171   2.926   8.795   3.202
 8276SOL    HW125172   2.846   8.772   3.257
 8276SOL    HW225173   3.009   8.769   3.251
 8277SOL     OW25174   2.973   8.643   2.962
 8277SOL    HW125175   2.933   8.687   3.043
 8277SOL    HW225176   2.932   8.680   2.879
 8278SOL     OW25177   3.500   8.547   2.941
 8278SOL    HW125178   3.505   8.628   3.000
 8278SOL    HW225179   3.414   8.549   2.890
 8279SOL     OW25180   2.777   7.537   3.264
 8279SOL    HW125181   2.802   7.517   3.169
 8279SOL    HW225182   2.849   7.593   3.306
 8280SOL     OW25183   2.842   8.564   3.581
 8280SOL    HW125184   2.743   8.570   3.591
 8280SOL    HW225185   2.865   8.484   3.525
 8281SOL     OW25186   2.567   8.498   2.230
 8281SOL    HW125187   2.553   8.505   2.329
 8281SOL    HW225188   2.651   8.447   2.212
 8282SOL     OW25189   2.272   8.261   3.113
 8282SOL    HW125190   2.358   8.273   3.163
 8282SOL    HW225191   2.230   8.174   3.140
 8283SOL     OW25192   3.136   7.834   3.124
 8283SOL    HW125193   3.157   7.908   3.188
 8283SOL    HW225194   3.047   7.851   3.081
 8284SOL     OW25195   1.926   9.012   3.193
 8284SOL    HW125196   1.880   9.094   3.159
 8284SOL    HW225197   2.024   9.031   3.202
 8285SOL     OW25198   2.229   8.548   2.363
 8285SOL    HW125199   2.222   8.631   2.307
 8285SOL    HW225200   2.233   8.468   2.303
 8286SOL     OW25201   2.428   7.985   2.727
 8286SOL    HW125202   2.440   8.051   2.653
 8286SOL    HW225203   2.474   8.019   2.810
 8287SOL     OW25204   3.114   8.796   2.250
 8287SOL    HW125205   3.164   8.873   2.290
 8287SOL    HW225206   3.019   8.798   2.282
 8288SOL     OW25207   3.134   8.893   3.004
 8288SOL    HW125208   3.181   8.906   3.091
 8288SOL    HW225209   3.068   8.819   3.013
 8289SOL     OW25210   3.444   8.087   2.334
 8289SOL    HW125211   3.413   8.148   2.407
 8289SOL    HW225212   3.494   8.139   2.265
 8290SOL     OW25213   2.216   8.958   3.191
 8290SOL    HW125214   2.195   8.914   3.104
 8290SOL    HW225215   2.313   8.984   3.194
 8291SOL     OW25216   2.264   8.199   3.460
 8291SOL    HW125217   2.332   8.254   3.413
 8291SOL    HW225218   2.304   8.111   3.487
 8292SOL     OW25219   3.449   8.227   3.532
 8292SOL    HW125220   3.357   8.265   3.527
 8292SOL    HW225221   3.509   8.274   3.467
 8293SOL     OW25222   2.875   7.553   3.632
 8293SOL    HW125223   2.881   7.638   3.580
 8293SOL    HW225224   2.907   7.477   3.575
 8294SOL     OW25225   2.366   7.498   3.602
 8294SOL    HW125226   2.324   7.441   3.532
 8294SOL    HW225227   2.300   7.567   3.634
 8295SOL     OW25228   2.435   8.318   2.891
 8295SOL    HW125229   2.479   8.407   2.882
 8295SOL    HW225230   2.372   8.318   2.968
 8296SOL     OW25231   3.222   8.310   2.907
 8296SOL    HW125232   3.147   8.310   2.841
 8296SOL    HW225233   3.259   8.218   2.916
 8297SOL     OW25234   3.071   7.973   2.137
 8297SOL    HW125235   3.084   7.889   2.191
 8297SOL    HW225236   3.042   8.047   2.197
 8298SOL     OW25237   2.169   7.661   3.093
 8298SOL    HW125238   2.146   7.698   3.183
 8298SOL    HW225239   2.139   7.566   3.087
 8299SOL     OW25240   1.899   8.758   3.144
 8299SOL    HW125241   1.952   8.709   3.212
 8299SOL    HW225242   1.921   8.856   3.149
 8300SOL     OW25243   2.594   8.082   2.926
 8300SOL    HW125244   2.653   8.056   2.850
 8300SOL    HW225245   2.566   8.178   2.915
 8301SOL     OW25246   3.590   8.383   3.716
 8301SOL    HW125247   3.544   8.376   3.627
 8301SOL    HW225248   3.528   8.427   3.782
 8302SOL     OW25249   2.169   7.511   2.480
 8302SOL    HW125250   2.158   7.605   2.513
 8302SOL    HW225251   2.164   7.448   2.557
 8303SOL     OW25252   3.484   7.815   2.236
 8303SOL    HW125253   3.486   7.739   2.300
 8303SOL    HW225254   3.436   7.892   2.276
 8304SOL     OW25255   2.885   8.214   2.828
 8304SOL    HW125256   2.900   8.235   2.924
 8304SOL    HW225257   2.855   8.119   2.819
 8305SOL     OW25258   2.842   9.021   3.562
 8305SOL    HW125259   2.822   9.065   3.474
 8305SOL    HW225260   2.881   8.930   3.546
 8306SOL     OW25261   2.212   8.346   3.666
 8306SOL    HW125262   2.288   8.390   3.714
 8306SOL    HW225263   2.247   8.299   3.584
 8307SOL     OW25264   3.402   7.722   1.987
 8307SOL    HW125265   3.341   7.647   2.010
 8307SOL    HW225266   3.424   7.774   2.070
 8308SOL     OW25267   3.165   8.286   1.904
 8308SOL    HW125268   3.199   8.193   1.919
 8308SOL    HW225269   3.183   8.313   1.809
 8309SOL     OW25270   2.930   8.781   2.711
 8309SOL    HW125271   2.937   8.697   2.656
 8309SOL    HW225272   2.992   8.850   2.675
 8310SOL     OW25273   2.181   8.258   2.811
 8310SOL    HW125274   2.274   8.294   2.816
 8310SOL    HW225275   2.175   8.173   2.863
 8311SOL     OW25276   2.201   7.957   2.868
 8311SOL    HW125277   2.149   7.874   2.851
 8311SOL    HW225278   2.278   7.962   2.804
 8312SOL     OW25279   3.000   7.828   3.540
 8312SOL    HW125280   2.955   7.891   3.604
 8312SOL    HW225281   3.093   7.859   3.523
 8313SOL     OW25282   3.022   7.655   3.339
 8313SOL    HW125283   3.022   7.719   3.416
 8313SOL    HW225284   3.050   7.703   3.256
 8314SOL     OW25285   1.870   8.774   2.062
 8314SOL    HW125286   1.777   8.795   2.031
 8314SOL    HW225287   1.880   8.675   2.075
 8315SOL     OW25288   2.366   9.016   2.772
 8315SOL    HW125289   2.432   9.090   2.781
 8315SOL    HW225290   2.410   8.937   2.730
 8316SOL     OW25291   2.864   8.244   3.100
 8316SOL    HW125292   2.905   8.212   3.186
 8316SOL    HW225293   2.768   8.217   3.097
 8317SOL     OW25294   1.902   7.992   2.976
 8317SOL    HW125295   1.987   7.959   2.935
 8317SOL    HW225296   1.915   8.007   3.074
 8318SOL     OW25297   2.051   7.968   3.584
 8318SOL    HW125298   2.110   7.928   3.514
 8318SOL    HW225299   1.993   8.039   3.543
 8319SOL     OW25300   3.231   8.398   3.522
 8319SOL    HW125301   3.270   8.487   3.542
 8319SOL    HW225302   3.241   8.378   3.425
 8320SOL     OW25303   2.677   8.020   2.187
 8320SOL    HW125304   2.684   7.931   2.141
 8320SOL    HW225305   2.583   8.054   2.179
 8321SOL     OW25306   3.519   8.052   3.068
 8321SOL    HW125307   3.481   7.983   3.130
 8321SOL    HW225308   3.601   8.016   3.024
 8322SOL     OW25309   2.114   9.012   3.606
 8322SOL    HW125310   2.084   9.069   3.682
 8322SOL    HW225311   2.107   8.915   3.632
 8323SOL     OW25312   2.533   7.912   3.131
 8323SOL    HW125313   2.499   7.823   3.101
 8323SOL    HW225314   2.559   7.966   3.051
 8324SOL     OW25315   2.792   9.126   3.327
 8324SOL    HW125316   2.768   9.108   3.232
 8324SOL    HW225317   2.822   9.220   3.337
 8325SOL     OW25318   2.335   7.948   2.053
 8325SOL    HW125319   2.396   8.028   2.057
 8325SOL    HW225320   2.240   7.979   2.060
 8326SOL     OW25321   2.021   8.585   3.328
 8326SOL    HW125322   2.043   8.524   3.404
 8326SOL    HW225323   2.031   8.536   3.242
 8327SOL     OW25324   3.209   8.507   3.096
 8327SOL    HW125325   3.233   8.444   3.022
 8327SOL    HW225326   3.119   8.547   3.078
 8328SOL     OW25327   3.164   8.303   2.171
 8328SOL    HW125328   3.078   8.272   2.213
 8328SOL    HW225329   3.160   8.289   2.072
 8329SOL     OW25330   1.945   8.706   2.884
 8329SOL    HW125331   1.940   8.705   2.984
 8329SOL    HW225332   1.862   8.665   2.846
 8330SOL     OW25333   2.550   9.110   3.578
 8330SOL    HW125334   2.494   9.191   3.587
 8330SOL    HW225335   2.602   9.114   3.492
 8331SOL     OW25336   3.588   7.583   2.385
 8331SOL    HW125337   3.661   7.566   2.318
 8331SOL    HW225338   3.557   7.496   2.423
 8332SOL     OW25339   3.142   8.375   2.534
 8332SOL    HW125340   3.202   8.294   2.536
 8332SOL    HW225341   3.182   8.444   2.474
 8333SOL     OW25342   2.692   8.721   3.284
 8333SOL    HW125343   2.687   8.754   3.379
 8333SOL    HW225344   2.606   8.740   3.238
 8334SOL     OW25345   2.534   9.064   2.016
 8334SOL    HW125346   2.543   9.074   1.917
 8334SOL    HW225347   2.494   8.975   2.037
 8335SOL     OW25348   3.703   7.623   2.825
 8335SOL    HW125349   3.742   7.538   2.789
 8335SOL    HW225350   3.605   7.625   2.806
 8336SOL     OW25351   2.125   7.774   2.582
 8336SOL    HW125352   2.046   7.825   2.548
 8336SOL    HW225353   2.116   7.759   2.680
 8337SOL     OW25354   3.056   9.060   1.893
 8337SOL    HW125355   3.062   8.967   1.930
 8337SOL    HW225356   2.997   9.060   1.813
 8338SOL     OW25357   2.684   8.450   3.234
 8338SOL    HW125358   2.724   8.449   3.142
 8338SOL    HW225359   2.694   8.542   3.274
 8339SOL     OW25360   2.778   8.358   2.153
 8339SOL    HW125361   2.841   8.396   2.085
 8339SOL    HW225362   2.818   8.275   2.192
 8340SOL     OW25363   2.234   8.736   3.352
 8340SOL    HW125364   2.221   8.829   3.318
 8340SOL    HW225365   2.150   8.684   3.339
 8341SOL     OW25366   3.476   8.740   3.151
 8341SOL    HW125367   3.536   8.743   3.231
 8341SOL    HW225368   3.401   8.804   3.164
 8342SOL     OW25369   2.901   8.546   2.558
 8342SOL    HW125370   2.831   8.499   2.612
 8342SOL    HW225371   2.960   8.478   2.515
 8343SOL     OW25372   2.876   7.684   2.833
 8343SOL    HW125373   2.868   7.648   2.740
 8343SOL    HW225374   2.874   7.608   2.898
 8344SOL     OW25375   2.452   8.935   2.353
 8344SOL    HW125376   2.494   8.877   2.283
 8344SOL    HW225377   2.408   9.014   2.309
 8345SOL     OW25378   3.571   7.833   3.243
 8345SOL    HW125379   3.644   7.902   3.247
 8345SOL    HW225380   3.599   7.758   3.184
 8346SOL     OW25381   2.117   8.796   2.152
 8346SOL    HW125382   2.021   8.797   2.125
 8346SOL    HW225383   2.129   8.849   2.236
 8347SOL     OW25384   1.967   8.461   3.588
 8347SOL    HW125385   1.890   8.428   3.642
 8347SOL    HW225386   2.052   8.431   3.630
 8348SOL     OW25387   2.534   7.651   3.351
 8348SOL    HW125388   2.624   7.635   3.311
 8348SOL    HW225389   2.542   7.656   3.450
 8349SOL     OW25390   3.302   8.304   3.260
 8349SOL    HW125391   3.245   8.356   3.197
 8349SOL    HW225392   3.398   8.316   3.236
 8350SOL     OW25393   1.934   7.614   2.180
 8350SOL    HW125394   1.917   7.697   2.126
 8350SOL    HW225395   2.024   7.577   2.158
 8351SOL     OW25396   3.045   8.783   1.981
 8351SOL    HW125397   2.946   8.772   1.983
 8351SOL    HW225398   3.079   8.798   2.074
 8352SOL     OW25399   2.475   8.290   3.293
 8352SOL    HW125400   2.531   8.371   3.276
 8352SOL    HW225401   2.534   8.210   3.296
 8353SOL     OW25402   2.578   8.013   3.570
 8353SOL    HW125403   2.597   8.078   3.644
 8353SOL    HW225404   2.638   7.933   3.579
 8354SOL     OW25405   3.312   8.668   3.495
 8354SOL    HW125406   3.303   8.658   3.594
 8354SOL    HW225407   3.408   8.661   3.469
 8355SOL     OW25408   2.252   9.189   3.422
 8355SOL    HW125409   2.161   9.230   3.420
 8355SOL    HW225410   2.245   9.095   3.454
 8356SOL     OW25411   3.536   8.331   3.116
 8356SOL    HW125412   3.509   8.242   3.079
 8356SOL    HW225413   3.537   8.399   3.043
 8357SOL     OW25414   3.087   7.773   2.311
 8357SOL    HW125415   3.152   7.699   2.300
 8357SOL    HW225416   3.107   7.823   2.395
 8358SOL     OW25417   2.456   8.193   2.514
 8358SOL    HW125418   2.506   8.278   2.495
 8358SOL    HW225419   2.368   8.195   2.466
 8359SOL     OW25420   3.639   7.790   3.504
 8359SOL    HW125421   3.622   7.821   3.410
 8359SOL    HW225422   3.555   7.753   3.542
 8360SOL     OW25423   3.592   8.382   3.379
 8360SOL    HW125424   3.630   8.473   3.394
 8360SOL    HW225425   3.584   8.365   3.280
 8361SOL     OW25426   2.721   8.822   1.878
 8361SOL    HW125427   2.675   8.837   1.966
 8361SOL    HW225428   2.765   8.907   1.848
 8362SOL     OW25429   2.721   8.404   2.723
 8362SOL    HW125430   2.775   8.335   2.771
 8362SOL    HW225431   2.689   8.473   2.789
 8363SOL     OW25432   2.945   8.432   1.949
 8363SOL    HW125433   2.922   8.485   1.867
 8363SOL    HW225434   3.026   8.376   1.930
 8364SOL     OW25435   2.083   8.762   3.706
 8364SOL    HW125436   2.018   8.689   3.685
 8364SOL    HW225437   2.087   8.776   3.804
 8365SOL     OW25438   1.941   8.688   2.515
 8365SOL    HW125439   1.940   8.641   2.603
 8365SOL    HW225440   2.023   8.660   2.464
 8366SOL     OW25441   2.534   8.839   3.486
 8366SOL    HW125442   2.456   8.789   3.524
 8366SOL    HW225443   2.531   8.934   3.517
 8367SOL     OW25444   3.686   7.640   3.089
 8367SOL    HW125445   3.682   7.550   3.133
 8367SOL    HW225446   3.689   7.629   2.990
 8368SOL     OW25447   2.290   7.872   2.382
 8368SOL    HW125448   2.320   7.800   2.320
 8368SOL    HW225449   2.251   7.832   2.465
 8369SOL     OW25450   2.179   7.995   3.142
 8369SOL    HW125451   2.217   7.936   3.214
 8369SOL    HW225452   2.219   7.969   3.054
 8370SOL     OW25453   2.674   9.034   2.549
 8370SOL    HW125454   2.706   9.044   2.455
 8370SOL    HW225455   2.595   8.972   2.551
 8371SOL     OW25456   3.286   7.662   2.974
 8371SOL    HW125457   3.338   7.597   3.029
 8371SOL    HW225458   3.237   7.725   3.035
 8372SOL     OW25459   2.863   7.482   3.016
 8372SOL    HW125460   2.800   7.410   2.985
 8372SOL    HW225461   2.956   7.446   3.016
 8373SOL     OW25462   2.632   8.778   2.163
 8373SOL    HW125463   2.586   8.691   2.180
 8373SOL    HW225464   2.723   8.775   2.204
 8374SOL     OW25465   2.480   9.015   3.146
 8374SOL    HW125466   2.475   9.097   3.203
 8374SOL    HW225467   2.569   9.012   3.101
 8375SOL     OW25468   3.214   7.500   2.030
 8375SOL    HW125469   3.249   7.459   1.946
 8375SOL    HW225470   3.124   7.462   2.050
 8376SOL     OW25471   3.162   7.901   2.553
 8376SOL    HW125472   3.103   7.981   2.557
 8376SOL    HW225473   3.177   7.866   2.646
 8377SOL     OW25474   3.455   7.669   2.744
 8377SOL    HW125475   3.371   7.668   2.798
 8377SOL    HW225476   3.457   7.752   2.688
 8378SOL     OW25477   1.901   8.525   2.162
 8378SOL    HW125478   2.000   8.514   2.153
 8378SOL    HW225479   1.861   8.439   2.194
 8379SOL     OW25480   2.737   9.094   2.199
 8379SOL    HW125481   2.660   9.059   2.145
 8379SOL    HW225482   2.705   9.165   2.261
 8380SOL     OW25483   2.092   8.076   3.837
 8380SOL    HW125484   1.999   8.074   3.874
 8380SOL    HW225485   2.093   8.037   3.745
 8381SOL     OW25486   2.087   7.723   4.720
 8381SOL    HW125487   2.122   7.706   4.812
 8381SOL    HW225488   1.999   7.678   4.708
 8382SOL     OW25489   1.881   7.816   4.371
 8382SOL    HW125490   1.799   7.859   4.410
 8382SOL    HW225491   1.853   7.743   4.308
 8383SOL     OW25492   2.431   8.723   4.889
 8383SOL    HW125493   2.338   8.716   4.852
 8383SOL    HW225494   2.442   8.812   4.933
 8384SOL     OW25495   2.997   8.151   4.441
 8384SOL    HW125496   3.054   8.229   4.416
 8384SOL    HW225497   2.937   8.177   4.517
 8385SOL     OW25498   3.617   8.055   3.955
 8385SOL    HW125499   3.605   8.042   3.856
 8385SOL    HW225500   3.587   7.974   4.004
 8386SOL     OW25501   2.630   8.592   4.747
 8386SOL    HW125502   2.552   8.609   4.807
 8386SOL    HW225503   2.664   8.679   4.711
 8387SOL     OW25504   2.712   8.246   5.547
 8387SOL    HW125505   2.708   8.322   5.612
 8387SOL    HW225506   2.734   8.282   5.456
 8388SOL     OW25507   2.547   8.460   4.389
 8388SOL    HW125508   2.616   8.444   4.459
 8388SOL    HW225509   2.474   8.517   4.427
 8389SOL     OW25510   2.548   8.609   5.527
 8389SOL    HW125511   2.608   8.688   5.541
 8389SOL    HW225512   2.462   8.640   5.486
 8390SOL     OW25513   2.197   8.883   4.785
 8390SOL    HW125514   2.119   8.852   4.732
 8390SOL    HW225515   2.255   8.941   4.728
 8391SOL     OW25516   2.300   7.840   5.223
 8391SOL    HW125517   2.382   7.784   5.232
 8391SOL    HW225518   2.219   7.782   5.227
 8392SOL     OW25519   3.465   7.895   4.461
 8392SOL    HW125520   3.391   7.941   4.411
 8392SOL    HW225521   3.516   7.963   4.514
 8393SOL     OW25522   2.989   8.789   5.414
 8393SOL    HW125523   3.036   8.789   5.502
 8393SOL    HW225524   2.941   8.702   5.403
 8394SOL     OW25525   2.092   8.882   4.262
 8394SOL    HW125526   2.066   8.978   4.262
 8394SOL    HW225527   2.021   8.828   4.307
 8395SOL     OW25528   2.102   8.539   4.610
 8395SOL    HW125529   2.116   8.455   4.662
 8395SOL    HW225530   2.047   8.603   4.665
 8396SOL     OW25531   2.468   8.412   3.847
 8396SOL    HW125532   2.475   8.496   3.793
 8396SOL    HW225533   2.514   8.425   3.935
 8397SOL     OW25534   3.456   7.562   5.204
 8397SOL    HW125535   3.438   7.629   5.132
 8397SOL    HW225536   3.453   7.608   5.293
 8398SOL     OW25537   1.984   8.091   4.287
 8398SOL    HW125538   1.939   8.003   4.304
 8398SOL    HW225539   1.983   8.145   4.371
 8399SOL     OW25540   1.889   9.044   3.841
 8399SOL    HW125541   1.870   8.948   3.862
 8399SOL    HW225542   1.856   9.102   3.916
 8400SOL     OW25543   3.551   8.370   4.336
 8400SOL    HW125544   3.646   8.341   4.344
 8400SOL    HW225545   3.543   8.435   4.261
 8401SOL     OW25546   3.503   8.556   4.156
 8401SOL    HW125547   3.589   8.558   4.104
 8401SOL    HW225548   3.517   8.603   4.244
 8402SOL     OW25549   1.975   8.185   5.321
 8402SOL    HW125550   2.063   8.172   5.366
 8402SOL    HW225551   1.962   8.282   5.299
 8403SOL     OW25552   2.475   8.813   4.450
 8403SOL    HW125553   2.426   8.726   4.459
 8403SOL    HW225554   2.452   8.856   4.363
 8404SOL     OW25555   3.155   8.676   5.147
 8404SOL    HW125556   3.192   8.603   5.089
 8404SOL    HW225557   3.207   8.681   5.232
 8405SOL     OW25558   2.671   7.452   4.226
 8405SOL    HW125559   2.711   7.543   4.217
 8405SOL    HW225560   2.571   7.460   4.232
 8406SOL     OW25561   2.059   8.424   4.988
 8406SOL    HW125562   2.148   8.379   4.974
 8406SOL    HW225563   1.986   8.359   4.969
 8407SOL     OW25564   3.387   8.447   3.914
 8407SOL    HW125565   3.324   8.371   3.927
 8407SOL    HW225566   3.435   8.465   4.000
 8408SOL     OW25567   3.049   9.240   5.340
 8408SOL    HW125568   3.073   9.300   5.264
 8408SOL    HW225569   3.056   9.145   5.310
 8409SOL     OW25570   2.179   7.699   5.525
 8409SOL    HW125571   2.250   7.770   5.531
 8409SOL    HW225572   2.091   7.738   5.553
 8410SOL     OW25573   3.328   8.865   4.677
 8410SOL    HW125574   3.269   8.871   4.757
 8410SOL    HW225575   3.313   8.777   4.631
 8411SOL     OW25576   2.460   8.177   3.994
 8411SOL    HW125577   2.484   8.246   3.926
 8411SOL    HW225578   2.382   8.210   4.048
 8412SOL     OW25579   3.143   7.793   4.668
 8412SOL    HW125580   3.057   7.743   4.655
 8412SOL    HW225581   3.205   7.739   4.724
 8413SOL     OW25582   2.669   8.053   5.189
 8413SOL    HW125583   2.622   8.050   5.278
 8413SOL    HW225584   2.618   7.998   5.123
 8414SOL     OW25585   3.256   7.917   5.398
 8414SOL    HW125586   3.236   7.960   5.486
 8414SOL    HW225587   3.334   7.855   5.407
 8415SOL     OW25588   2.835   8.338   5.296
 8415SOL    HW125589   2.881   8.254   5.267
 8415SOL    HW225590   2.779   8.372   5.221
 8416SOL     OW25591   2.853   7.858   4.966
 8416SOL    HW125592   2.776   7.892   5.020
 8416SOL    HW225593   2.819   7.807   4.887
 8417SOL     OW25594   2.903   8.149   4.153
 8417SOL    HW125595   2.929   8.145   4.249
 8417SOL    HW225596   2.818   8.098   4.139
 8418SOL     OW25597   1.938   8.259   4.513
 8418SOL    HW125598   2.037   8.247   4.522
 8418SOL    HW225599   1.914   8.354   4.534
 8419SOL     OW25600   2.727   7.796   3.919
 8419SOL    HW125601   2.786   7.859   3.870
 8419SOL    HW225602   2.746   7.702   3.890
 8420SOL     OW25603   3.581   8.033   5.555
 8420SOL    HW125604   3.555   8.122   5.519
 8420SOL    HW225605   3.579   7.965   5.482
 8421SOL     OW25606   3.224   8.592   4.269
 8421SOL    HW125607   3.307   8.563   4.221
 8421SOL    HW225608   3.175   8.659   4.213
 8422SOL     OW25609   2.412   7.644   4.609
 8422SOL    HW125610   2.407   7.639   4.709
 8422SOL    HW225611   2.414   7.740   4.580
 8423SOL     OW25612   2.870   8.904   4.201
 8423SOL    HW125613   2.824   8.976   4.149
 8423SOL    HW225614   2.866   8.924   4.299
 8424SOL     OW25615   3.657   8.514   4.597
 8424SOL    HW125616   3.595   8.499   4.521
 8424SOL    HW225617   3.605   8.525   4.682
 8425SOL     OW25618   3.089   8.998   5.230
 8425SOL    HW125619   3.095   8.921   5.294
 8425SOL    HW225620   3.037   8.972   5.150
 8426SOL     OW25621   2.183   8.391   3.966
 8426SOL    HW125622   2.265   8.430   3.924
 8426SOL    HW225623   2.156   8.309   3.917
 8427SOL     OW25624   3.320   8.183   4.452
 8427SOL    HW125625   3.315   8.118   4.527
 8427SOL    HW225626   3.400   8.242   4.465
 8428SOL     OW25627   2.323   8.714   5.451
 8428SOL    HW125628   2.273   8.715   5.365
 8428SOL    HW225629   2.260   8.696   5.527
 8429SOL     OW25630   2.064   7.733   5.222
 8429SOL    HW125631   1.984   7.793   5.209
 8429SOL    HW225632   2.054   7.684   5.308
 8430SOL     OW25633   3.262   7.555   4.150
 8430SOL    HW125634   3.238   7.518   4.060
 8430SOL    HW225635   3.361   7.571   4.154
 8431SOL     OW25636   2.802   9.146   4.628
 8431SOL    HW125637   2.882   9.089   4.649
 8431SOL    HW225638   2.753   9.106   4.551
 8432SOL     OW25639   2.244   8.148   4.204
 8432SOL    HW125640   2.289   8.058   4.201
 8432SOL    HW225641   2.150   8.137   4.237
 8433SOL     OW25642   3.409   7.670   5.453
 8433SOL    HW125643   3.404   7.707   5.545
 8433SOL    HW225644   3.337   7.601   5.441
 8434SOL     OW25645   2.476   7.570   3.841
 8434SOL    HW125646   2.574   7.548   3.848
 8434SOL    HW225647   2.445   7.553   3.748
 8435SOL     OW25648   2.643   7.712   5.473
 8435SOL    HW125649   2.710   7.651   5.516
 8435SOL    HW225650   2.570   7.731   5.538
 8436SOL     OW25651   2.750   8.962   4.919
 8436SOL    HW125652   2.727   8.937   4.825
 8436SOL    HW225653   2.811   8.893   4.958
 8437SOL     OW25654   3.213   8.038   5.157
 8437SOL    HW125655   3.241   7.995   5.242
 8437SOL    HW225656   3.238   8.134   5.158
 8438SOL     OW25657   2.665   8.850   4.648
 8438SOL    HW125658   2.755   8.864   4.606
 8438SOL    HW225659   2.594   8.852   4.577
 8439SOL     OW25660   2.784   7.951   4.623
 8439SOL    HW125661   2.759   7.942   4.527
 8439SOL    HW225662   2.832   7.869   4.654
 8440SOL     OW25663   2.401   7.512   4.236
 8440SOL    HW125664   2.320   7.513   4.294
 8440SOL    HW225665   2.404   7.595   4.181
 8441SOL     OW25666   3.296   8.636   3.765
 8441SOL    HW125667   3.328   8.560   3.822
 8441SOL    HW225668   3.204   8.663   3.795
 8442SOL     OW25669   2.159   7.483   3.895
 8442SOL    HW125670   2.208   7.567   3.874
 8442SOL    HW225671   2.221   7.418   3.940
 8443SOL     OW25672   2.797   7.684   4.204
 8443SOL    HW125673   2.749   7.725   4.126
 8443SOL    HW225674   2.896   7.682   4.185
 8444SOL     OW25675   2.938   8.131   5.188
 8444SOL    HW125676   2.858   8.070   5.191
 8444SOL    HW225677   3.019   8.078   5.164
 8445SOL     OW25678   3.089   9.018   4.517
 8445SOL    HW125679   3.110   9.092   4.452
 8445SOL    HW225680   3.157   9.018   4.590
 8446SOL     OW25681   2.321   8.600   4.465
 8446SOL    HW125682   2.250   8.573   4.530
 8446SOL    HW225683   2.295   8.572   4.372
 8447SOL     OW25684   2.894   7.997   3.740
 8447SOL    HW125685   2.853   8.079   3.701
 8447SOL    HW225686   2.958   8.023   3.813
 8448SOL     OW25687   1.940   8.004   5.110
 8448SOL    HW125688   2.032   8.003   5.069
 8448SOL    HW225689   1.934   8.078   5.177
 8449SOL     OW25690   2.423   7.670   4.871
 8449SOL    HW125691   2.461   7.586   4.908
 8449SOL    HW225692   2.335   7.689   4.915
 8450SOL     OW25693   2.728   7.902   4.366
 8450SOL    HW125694   2.696   7.974   4.304
 8450SOL    HW225695   2.752   7.821   4.313
 8451SOL     OW25696   2.879   7.487   4.477
 8451SOL    HW125697   2.807   7.492   4.408
 8451SOL    HW225698   2.855   7.418   4.546
 8452SOL     OW25699   3.291   8.621   4.591
 8452SOL    HW125700   3.236   8.537   4.584
 8452SOL    HW225701   3.317   8.650   4.499
 8453SOL     OW25702   3.328   8.038   4.716
 8453SOL    HW125703   3.298   7.943   4.723
 8453SOL    HW225704   3.401   8.054   4.782
 8454SOL     OW25705   3.719   8.281   4.101
 8454SOL    HW125706   3.761   8.217   4.165
 8454SOL    HW225707   3.681   8.230   4.023
 8455SOL     OW25708   2.350   8.833   3.898
 8455SOL    HW125709   2.263   8.818   3.945
 8455SOL    HW225710   2.333   8.859   3.803
 8456SOL     OW25711   3.252   8.023   3.802
 8456SOL    HW125712   3.198   8.002   3.883
 8456SOL    HW225713   3.343   7.982   3.811
 8457SOL     OW25714   2.389   7.704   4.052
 8457SOL    HW125715   2.416   7.645   3.977
 8457SOL    HW225716   2.389   7.799   4.021
 8458SOL     OW25717   2.926   8.795   5.064
 8458SOL    HW125718   2.846   8.772   5.119
 8458SOL    HW225719   3.009   8.769   5.113
 8459SOL     OW25720   2.973   8.643   4.824
 8459SOL    HW125721   2.933   8.687   4.905
 8459SOL    HW225722   2.932   8.680   4.741
 8460SOL     OW25723   3.500   8.547   4.803
 8460SOL    HW125724   3.505   8.628   4.862
 8460SOL    HW225725   3.414   8.549   4.752
 8461SOL     OW25726   2.777   7.537   5.126
 8461SOL    HW125727   2.802   7.517   5.031
 8461SOL    HW225728   2.849   7.593   5.168
 8462SOL     OW25729   2.842   8.564   5.443
 8462SOL    HW125730   2.743   8.570   5.453
 8462SOL    HW225731   2.865   8.484   5.387
 8463SOL     OW25732   2.567   8.498   4.092
 8463SOL    HW125733   2.553   8.505   4.191
 8463SOL    HW225734   2.651   8.447   4.074
 8464SOL     OW25735   2.272   8.261   4.975
 8464SOL    HW125736   2.358   8.273   5.025
 8464SOL    HW225737   2.230   8.174   5.002
 8465SOL     OW25738   3.136   7.834   4.986
 8465SOL    HW125739   3.157   7.908   5.050
 8465SOL    HW225740   3.047   7.851   4.943
 8466SOL     OW25741   1.926   9.012   5.055
 8466SOL    HW125742   1.880   9.094   5.021
 8466SOL    HW225743   2.024   9.031   5.064
 8467SOL     OW25744   2.229   8.548   4.225
 8467SOL    HW125745   2.222   8.631   4.169
 8467SOL    HW225746   2.233   8.468   4.165
 8468SOL     OW25747   2.428   7.985   4.589
 8468SOL    HW125748   2.440   8.051   4.515
 8468SOL    HW225749   2.474   8.019   4.672
 8469SOL     OW25750   3.114   8.796   4.112
 8469SOL    HW125751   3.164   8.873   4.152
 8469SOL    HW225752   3.019   8.798   4.144
 8470SOL     OW25753   3.134   8.893   4.866
 8470SOL    HW125754   3.181   8.906   4.953
 8470SOL    HW225755   3.068   8.819   4.875
 8471SOL     OW25756   3.444   8.087   4.196
 8471SOL    HW125757   3.413   8.148   4.269
 8471SOL    HW225758   3.494   8.139   4.127
 8472SOL     OW25759   2.216   8.958   5.053
 8472SOL    HW125760   2.195   8.914   4.966
 8472SOL    HW225761   2.313   8.984   5.056
 8473SOL     OW25762   2.264   8.199   5.322
 8473SOL    HW125763   2.332   8.254   5.275
 8473SOL    HW225764   2.304   8.111   5.349
 8474SOL     OW25765   3.449   8.227   5.394
 8474SOL    HW125766   3.357   8.265   5.389
 8474SOL    HW225767   3.509   8.274   5.329
 8475SOL     OW25768   2.875   7.553   5.494
 8475SOL    HW125769   2.881   7.638   5.442
 8475SOL    HW225770   2.907   7.477   5.437
 8476SOL     OW25771   2.366   7.498   5.464
 8476SOL    HW125772   2.324   7.441   5.394
 8476SOL    HW225773   2.300   7.567   5.496
 8477SOL     OW25774   2.435   8.318   4.753
 8477SOL    HW125775   2.479   8.407   4.744
 8477SOL    HW225776   2.372   8.318   4.830
 8478SOL     OW25777   3.222   8.310   4.769
 8478SOL    HW125778   3.147   8.310   4.703
 8478SOL    HW225779   3.259   8.218   4.778
 8479SOL     OW25780   3.071   7.973   3.999
 8479SOL    HW125781   3.084   7.889   4.053
 8479SOL    HW225782   3.042   8.047   4.059
 8480SOL     OW25783   2.169   7.661   4.955
 8480SOL    HW125784   2.146   7.698   5.045
 8480SOL    HW225785   2.139   7.566   4.949
 8481SOL     OW25786   1.899   8.758   5.006
 8481SOL    HW125787   1.952   8.709   5.074
 8481SOL    HW225788   1.921   8.856   5.011
 8482SOL     OW25789   2.594   8.082   4.788
 8482SOL    HW125790   2.653   8.056   4.712
 8482SOL    HW225791   2.566   8.178   4.777
 8483SOL     OW25792   3.590   8.383   5.578
 8483SOL    HW125793   3.544   8.376   5.489
 8483SOL    HW225794   3.528   8.427   5.644
 8484SOL     OW25795   2.169   7.511   4.342
 8484SOL    HW125796   2.158   7.605   4.375
 8484SOL    HW225797   2.164   7.448   4.419
 8485SOL     OW25798   3.484   7.815   4.098
 8485SOL    HW125799   3.486   7.739   4.162
 8485SOL    HW225800   3.436   7.892   4.138
 8486SOL     OW25801   2.885   8.214   4.690
 8486SOL    HW125802   2.900   8.235   4.786
 8486SOL    HW225803   2.855   8.119   4.681
 8487SOL     OW25804   2.842   9.021   5.424
 8487SOL    HW125805   2.822   9.065   5.336
 8487SOL    HW225806   2.881   8.930   5.408
 8488SOL     OW25807   2.212   8.346   5.528
 8488SOL    HW125808   2.288   8.390   5.576
 8488SOL    HW225809   2.247   8.299   5.446
 8489SOL     OW25810   3.402   7.722   3.849
 8489SOL    HW125811   3.341   7.647   3.872
 8489SOL    HW225812   3.424   7.774   3.932
 8490SOL     OW25813   3.165   8.286   3.766
 8490SOL    HW125814   3.199   8.193   3.781
 8490SOL    HW225815   3.183   8.313   3.671
 8491SOL     OW25816   2.930   8.781   4.573
 8491SOL    HW125817   2.937   8.697   4.518
 8491SOL    HW225818   2.992   8.850   4.537
 8492SOL     OW25819   2.181   8.258   4.673
 8492SOL    HW125820   2.274   8.294   4.678
 8492SOL    HW225821   2.175   8.173   4.725
 8493SOL     OW25822   2.201   7.957   4.730
 8493SOL    HW125823   2.149   7.874   4.713
 8493SOL    HW225824   2.278   7.962   4.666
 8494SOL     OW25825   3.000   7.828   5.402
 8494SOL    HW125826   2.955   7.891   5.466
 8494SOL    HW225827   3.093   7.859   5.385
 8495SOL     OW25828   3.022   7.655   5.201
 8495SOL    HW125829   3.022   7.719   5.278
 8495SOL    HW225830   3.050   7.703   5.118
 8496SOL     OW25831   1.870   8.774   3.924
 8496SOL    HW125832   1.777   8.795   3.893
 8496SOL    HW225833   1.880   8.675   3.937
 8497SOL     OW25834   2.366   9.016   4.634
 8497SOL    HW125835   2.432   9.090   4.643
 8497SOL    HW225836   2.410   8.937   4.592
 8498SOL     OW25837   2.864   8.244   4.962
 8498SOL    HW125838   2.905   8.212   5.048
 8498SOL    HW225839   2.768   8.217   4.959
 8499SOL     OW25840   1.902   7.992   4.838
 8499SOL    HW125841   1.987   7.959   4.797
 8499SOL    HW225842   1.915   8.007   4.936
 8500SOL     OW25843   2.051   7.968   5.446
 8500SOL    HW125844   2.110   7.928   5.376
 8500SOL    HW225845   1.993   8.039   5.405
 8501SOL     OW25846   3.231   8.398   5.384
 8501SOL    HW125847   3.270   8.487   5.404
 8501SOL    HW225848   3.241   8.378   5.287
 8502SOL     OW25849   2.677   8.020   4.049
 8502SOL    HW125850   2.684   7.931   4.003
 8502SOL    HW225851   2.583   8.054   4.041
 8503SOL     OW25852   3.519   8.052   4.930
 8503SOL    HW125853   3.481   7.983   4.992
 8503SOL    HW225854   3.601   8.016   4.886
 8504SOL     OW25855   2.114   9.012   5.468
 8504SOL    HW125856   2.084   9.069   5.544
 8504SOL    HW225857   2.107   8.915   5.494
 8505SOL     OW25858   2.533   7.912   4.993
 8505SOL    HW125859   2.499   7.823   4.963
 8505SOL    HW225860   2.559   7.966   4.913
 8506SOL     OW25861   2.792   9.126   5.189
 8506SOL    HW125862   2.768   9.108   5.094
 8506SOL    HW225863   2.822   9.220   5.199
 8507SOL     OW25864   2.335   7.948   3.915
 8507SOL    HW125865   2.396   8.028   3.919
 8507SOL    HW225866   2.240   7.979   3.922
 8508SOL     OW25867   2.021   8.585   5.190
 8508SOL    HW125868   2.043   8.524   5.266
 8508SOL    HW225869   2.031   8.536   5.104
 8509SOL     OW25870   3.209   8.507   4.958
 8509SOL    HW125871   3.233   8.444   4.884
 8509SOL    HW225872   3.119   8.547   4.940
 8510SOL     OW25873   3.164   8.303   4.033
 8510SOL    HW125874   3.078   8.272   4.075
 8510SOL    HW225875   3.160   8.289   3.934
 8511SOL     OW25876   1.945   8.706   4.746
 8511SOL    HW125877   1.940   8.705   4.846
 8511SOL    HW225878   1.862   8.665   4.708
 8512SOL     OW25879   2.550   9.110   5.440
 8512SOL    HW125880   2.494   9.191   5.449
 8512SOL    HW225881   2.602   9.114   5.354
 8513SOL     OW25882   3.588   7.583   4.247
 8513SOL    HW125883   3.661   7.566   4.180
 8513SOL    HW225884   3.557   7.496   4.285
 8514SOL     OW25885   3.142   8.375   4.396
 8514SOL    HW125886   3.202   8.294   4.398
 8514SOL    HW225887   3.182   8.444   4.336
 8515SOL     OW25888   2.692   8.721   5.146
 8515SOL    HW125889   2.687   8.754   5.241
 8515SOL    HW225890   2.606   8.740   5.100
 8516SOL     OW25891   2.534   9.064   3.878
 8516SOL    HW125892   2.543   9.074   3.779
 8516SOL    HW225893   2.494   8.975   3.899
 8517SOL     OW25894   2.125   7.774   4.444
 8517SOL    HW125895   2.046   7.825   4.410
 8517SOL    HW225896   2.116   7.759   4.542
 8518SOL     OW25897   3.056   9.060   3.755
 8518SOL    HW125898   3.062   8.967   3.792
 8518SOL    HW225899   2.997   9.060   3.675
 8519SOL     OW25900   2.684   8.450   5.096
 8519SOL    HW125901   2.724   8.449   5.004
 8519SOL    HW225902   2.694   8.542   5.136
 8520SOL     OW25903   2.778   8.358   4.015
 8520SOL    HW125904   2.841   8.396   3.947
 8520SOL    HW225905   2.818   8.275   4.054
 8521SOL     OW25906   2.234   8.736   5.214
 8521SOL    HW125907   2.221   8.829   5.180
 8521SOL    HW225908   2.150   8.684   5.201
 8522SOL     OW25909   3.476   8.740   5.013
 8522SOL    HW125910   3.536   8.743   5.093
 8522SOL    HW225911   3.401   8.804   5.026
 8523SOL     OW25912   2.901   8.546   4.420
 8523SOL    HW125913   2.831   8.499   4.474
 8523SOL    HW225914   2.960   8.478   4.377
 8524SOL     OW25915   2.876   7.684   4.695
 8524SOL    HW125916   2.868   7.648   4.602
 8524SOL    HW225917   2.874   7.608   4.760
 8525SOL     OW25918   2.452   8.935   4.215
 8525SOL    HW125919   2.494   8.877   4.145
 8525SOL    HW225920   2.408   9.014   4.171
 8526SOL     OW25921   3.571   7.833   5.105
 8526SOL    HW125922   3.644   7.902   5.109
 8526SOL    HW225923   3.599   7.758   5.046
 8527SOL     OW25924   2.117   8.796   4.014
 8527SOL    HW125925   2.021   8.797   3.987
 8527SOL    HW225926   2.129   8.849   4.098
 8528SOL     OW25927   1.967   8.461   5.450
 8528SOL    HW125928   1.890   8.428   5.504
 8528SOL    HW225929   2.052   8.431   5.492
 8529SOL     OW25930   2.534   7.651   5.213
 8529SOL    HW125931   2.624   7.635   5.173
 8529SOL    HW225932   2.542   7.656   5.312
 8530SOL     OW25933   1.937   7.793   3.757
 8530SOL    HW125934   1.845   7.765   3.728
 8530SOL    HW225935   1.968   7.870   3.701
 8531SOL     OW25936   3.302   8.304   5.122
 8531SOL    HW125937   3.245   8.356   5.059
 8531SOL    HW225938   3.398   8.316   5.098
 8532SOL     OW25939   1.934   7.614   4.042
 8532SOL    HW125940   1.917   7.697   3.988
 8532SOL    HW225941   2.024   7.577   4.020
 8533SOL     OW25942   3.045   8.783   3.843
 8533SOL    HW125943   2.946   8.772   3.845
 8533SOL    HW225944   3.079   8.798   3.936
 8534SOL     OW25945   2.475   8.290   5.155
 8534SOL    HW125946   2.531   8.371   5.138
 8534SOL    HW225947   2.534   8.210   5.158
 8535SOL     OW25948   2.578   8.013   5.432
 8535SOL    HW125949   2.597   8.078   5.506
 8535SOL    HW225950   2.638   7.933   5.441
 8536SOL     OW25951   3.312   8.668   5.357
 8536SOL    HW125952   3.303   8.658   5.456
 8536SOL    HW225953   3.408   8.661   5.331
 8537SOL     OW25954   2.252   9.189   5.284
 8537SOL    HW125955   2.161   9.230   5.282
 8537SOL    HW225956   2.245   9.095   5.316
 8538SOL     OW25957   3.536   8.331   4.978
 8538SOL    HW125958   3.509   8.242   4.941
 8538SOL    HW225959   3.537   8.399   4.905
 8539SOL     OW25960   3.087   7.773   4.173
 8539SOL    HW125961   3.152   7.699   4.162
 8539SOL    HW225962   3.107   7.823   4.257
 8540SOL     OW25963   2.456   8.193   4.376
 8540SOL    HW125964   2.506   8.278   4.357
 8540SOL    HW225965   2.368   8.195   4.328
 8541SOL     OW25966   3.639   7.790   5.366
 8541SOL    HW125967   3.622   7.821   5.272
 8541SOL    HW225968   3.555   7.753   5.404
 8542SOL     OW25969   3.592   8.382   5.241
 8542SOL    HW125970   3.630   8.473   5.256
 8542SOL    HW225971   3.584   8.365   5.142
 8543SOL     OW25972   2.721   8.822   3.740
 8543SOL    HW125973   2.675   8.837   3.828
 8543SOL    HW225974   2.765   8.907   3.710
 8544SOL     OW25975   2.721   8.404   4.585
 8544SOL    HW125976   2.775   8.335   4.633
 8544SOL    HW225977   2.689   8.473   4.651
 8545SOL     OW25978   2.945   8.432   3.811
 8545SOL    HW125979   2.922   8.485   3.729
 8545SOL    HW225980   3.026   8.376   3.792
 8546SOL     OW25981   2.083   8.762   5.568
 8546SOL    HW125982   2.018   8.689   5.547
 8546SOL    HW225983   2.087   8.776   5.666
 8547SOL     OW25984   1.941   8.688   4.377
 8547SOL    HW125985   1.940   8.641   4.465
 8547SOL    HW225986   2.023   8.660   4.326
 8548SOL     OW25987   2.534   8.839   5.348
 8548SOL    HW125988   2.456   8.789   5.386
 8548SOL    HW225989   2.531   8.934   5.379
 8549SOL     OW25990   3.686   7.640   4.951
 8549SOL    HW125991   3.682   7.550   4.995
 8549SOL    HW225992   3.689   7.629   4.852
 8550SOL     OW25993   2.290   7.872   4.244
 8550SOL    HW125994   2.320   7.800   4.182
 8550SOL    HW225995   2.251   7.832   4.327
 8551SOL     OW25996   3.567   8.935   4.828
 8551SOL    HW125997   3.474   8.910   4.801
 8551SOL    HW225998   3.593   8.885   4.910
 8552SOL     OW25999   2.179   7.995   5.004
 8552SOL    HW126000   2.217   7.936   5.076
 8552SOL    HW226001   2.219   7.969   4.916
 8553SOL     OW26002   2.674   9.034   4.411
 8553SOL    HW126003   2.706   9.044   4.317
 8553SOL    HW226004   2.595   8.972   4.413
 8554SOL     OW26005   3.286   7.662   4.836
 8554SOL    HW126006   3.338   7.597   4.891
 8554SOL    HW226007   3.237   7.725   4.897
 8555SOL     OW26008   2.863   7.482   4.878
 8555SOL    HW126009   2.800   7.410   4.847
 8555SOL    HW226010   2.956   7.446   4.878
 8556SOL     OW26011   2.632   8.778   4.025
 8556SOL    HW126012   2.586   8.691   4.042
 8556SOL    HW226013   2.723   8.775   4.066
 8557SOL     OW26014   2.480   9.015   5.008
 8557SOL    HW126015   2.475   9.097   5.065
 8557SOL    HW226016   2.569   9.012   4.963
 8558SOL     OW26017   3.214   7.500   3.892
 8558SOL    HW126018   3.249   7.459   3.808
 8558SOL    HW226019   3.124   7.462   3.912
 8559SOL     OW26020   3.162   7.901   4.415
 8559SOL    HW126021   3.103   7.981   4.419
 8559SOL    HW226022   3.177   7.866   4.508
 8560SOL     OW26023   3.455   7.669   4.606
 8560SOL    HW126024   3.371   7.668   4.660
 8560SOL    HW226025   3.457   7.752   4.550
 8561SOL     OW26026   1.901   8.525   4.024
 8561SOL    HW126027   2.000   8.514   4.015
 8561SOL    HW226028   1.861   8.439   4.056
 8562SOL     OW26029   2.737   9.094   4.061
 8562SOL    HW126030   2.660   9.059   4.007
 8562SOL    HW226031   2.705   9.165   4.123
 8563SOL     OW26032   2.092   8.076   5.699
 8563SOL    HW126033   1.999   8.074   5.736
 8563SOL    HW226034   2.093   8.037   5.607
 8564SOL     OW26035   2.087   7.723   6.582
 8564SOL    HW126036   2.122   7.706   6.674
 8564SOL    HW226037   1.999   7.678   6.570
 8565SOL     OW26038   1.881   7.816   6.233
 8565SOL    HW126039   1.799   7.859   6.272
 8565SOL    HW226040   1.853   7.743   6.170
 8566SOL     OW26041   2.431   8.723   6.751
 8566SOL    HW126042   2.338   8.716   6.714
 8566SOL    HW226043   2.442   8.812   6.795
 8567SOL     OW26044   2.997   8.151   6.303
 8567SOL    HW126045   3.054   8.229   6.278
 8567SOL    HW226046   2.937   8.177   6.379
 8568SOL     OW26047   3.617   8.055   5.817
 8568SOL    HW126048   3.605   8.042   5.718
 8568SOL    HW226049   3.587   7.974   5.866
 8569SOL     OW26050   2.630   8.592   6.609
 8569SOL    HW126051   2.552   8.609   6.669
 8569SOL    HW226052   2.664   8.679   6.573
 8570SOL     OW26053   2.712   8.246   7.409
 8570SOL    HW126054   2.708   8.322   7.474
 8570SOL    HW226055   2.734   8.282   7.318
 8571SOL     OW26056   2.547   8.460   6.251
 8571SOL    HW126057   2.616   8.444   6.321
 8571SOL    HW226058   2.474   8.517   6.289
 8572SOL     OW26059   2.548   8.609   7.389
 8572SOL    HW126060   2.608   8.688   7.403
 8572SOL    HW226061   2.462   8.640   7.348
 8573SOL     OW26062   2.197   8.883   6.647
 8573SOL    HW126063   2.119   8.852   6.594
 8573SOL    HW226064   2.255   8.941   6.590
 8574SOL     OW26065   2.300   7.840   7.085
 8574SOL    HW126066   2.382   7.784   7.094
 8574SOL    HW226067   2.219   7.782   7.089
 8575SOL     OW26068   2.989   8.789   7.276
 8575SOL    HW126069   3.036   8.789   7.364
 8575SOL    HW226070   2.941   8.702   7.265
 8576SOL     OW26071   2.092   8.882   6.124
 8576SOL    HW126072   2.066   8.978   6.124
 8576SOL    HW226073   2.021   8.828   6.169
 8577SOL     OW26074   2.102   8.539   6.472
 8577SOL    HW126075   2.116   8.455   6.524
 8577SOL    HW226076   2.047   8.603   6.527
 8578SOL     OW26077   2.468   8.412   5.709
 8578SOL    HW126078   2.475   8.496   5.655
 8578SOL    HW226079   2.514   8.425   5.797
 8579SOL     OW26080   3.456   7.562   7.066
 8579SOL    HW126081   3.438   7.629   6.994
 8579SOL    HW226082   3.453   7.608   7.155
 8580SOL     OW26083   1.984   8.091   6.149
 8580SOL    HW126084   1.939   8.003   6.166
 8580SOL    HW226085   1.983   8.145   6.233
 8581SOL     OW26086   1.889   9.044   5.703
 8581SOL    HW126087   1.870   8.948   5.724
 8581SOL    HW226088   1.856   9.102   5.778
 8582SOL     OW26089   3.551   8.370   6.198
 8582SOL    HW126090   3.646   8.341   6.206
 8582SOL    HW226091   3.543   8.435   6.123
 8583SOL     OW26092   3.503   8.556   6.018
 8583SOL    HW126093   3.589   8.558   5.966
 8583SOL    HW226094   3.517   8.603   6.106
 8584SOL     OW26095   1.975   8.185   7.183
 8584SOL    HW126096   2.063   8.172   7.228
 8584SOL    HW226097   1.962   8.282   7.161
 8585SOL     OW26098   2.475   8.813   6.312
 8585SOL    HW126099   2.426   8.726   6.321
 8585SOL    HW226100   2.452   8.856   6.225
 8586SOL     OW26101   3.155   8.676   7.009
 8586SOL    HW126102   3.192   8.603   6.951
 8586SOL    HW226103   3.207   8.681   7.094
 8587SOL     OW26104   2.671   7.452   6.088
 8587SOL    HW126105   2.711   7.543   6.079
 8587SOL    HW226106   2.571   7.460   6.094
 8588SOL     OW26107   2.059   8.424   6.850
 8588SOL    HW126108   2.148   8.379   6.836
 8588SOL    HW226109   1.986   8.359   6.831
 8589SOL     OW26110   3.387   8.447   5.776
 8589SOL    HW126111   3.324   8.371   5.789
 8589SOL    HW226112   3.435   8.465   5.862
 8590SOL     OW26113   3.049   9.240   7.202
 8590SOL    HW126114   3.073   9.300   7.126
 8590SOL    HW226115   3.056   9.145   7.172
 8591SOL     OW26116   2.179   7.699   7.387
 8591SOL    HW126117   2.250   7.770   7.393
 8591SOL    HW226118   2.091   7.738   7.415
 8592SOL     OW26119   3.328   8.865   6.539
 8592SOL    HW126120   3.269   8.871   6.619
 8592SOL    HW226121   3.313   8.777   6.493
 8593SOL     OW26122   2.460   8.177   5.856
 8593SOL    HW126123   2.484   8.246   5.788
 8593SOL    HW226124   2.382   8.210   5.910
 8594SOL     OW26125   3.143   7.793   6.530
 8594SOL    HW126126   3.057   7.743   6.517
 8594SOL    HW226127   3.205   7.739   6.586
 8595SOL     OW26128   2.669   8.053   7.051
 8595SOL    HW126129   2.622   8.050   7.140
 8595SOL    HW226130   2.618   7.998   6.985
 8596SOL     OW26131   3.256   7.917   7.260
 8596SOL    HW126132   3.236   7.960   7.348
 8596SOL    HW226133   3.334   7.855   7.269
 8597SOL     OW26134   2.835   8.338   7.158
 8597SOL    HW126135   2.881   8.254   7.129
 8597SOL    HW226136   2.779   8.372   7.083
 8598SOL     OW26137   2.853   7.858   6.828
 8598SOL    HW126138   2.776   7.892   6.882
 8598SOL    HW226139   2.819   7.807   6.749
 8599SOL     OW26140   2.903   8.149   6.015
 8599SOL    HW126141   2.929   8.145   6.111
 8599SOL    HW226142   2.818   8.098   6.001
 8600SOL     OW26143   1.938   8.259   6.375
 8600SOL    HW126144   2.037   8.247   6.384
 8600SOL    HW226145   1.914   8.354   6.396
 8601SOL     OW26146   2.727   7.796   5.781
 8601SOL    HW126147   2.786   7.859   5.732
 8601SOL    HW226148   2.746   7.702   5.752
 8602SOL     OW26149   3.581   8.033   7.417
 8602SOL    HW126150   3.555   8.122   7.381
 8602SOL    HW226151   3.579   7.965   7.344
 8603SOL     OW26152   3.224   8.592   6.131
 8603SOL    HW126153   3.307   8.563   6.083
 8603SOL    HW226154   3.175   8.659   6.075
 8604SOL     OW26155   2.412   7.644   6.471
 8604SOL    HW126156   2.407   7.639   6.571
 8604SOL    HW226157   2.414   7.740   6.442
 8605SOL     OW26158   2.870   8.904   6.063
 8605SOL    HW126159   2.824   8.976   6.011
 8605SOL    HW226160   2.866   8.924   6.161
 8606SOL     OW26161   3.657   8.514   6.459
 8606SOL    HW126162   3.595   8.499   6.383
 8606SOL    HW226163   3.605   8.525   6.544
 8607SOL     OW26164   3.089   8.998   7.092
 8607SOL    HW126165   3.095   8.921   7.156
 8607SOL    HW226166   3.037   8.972   7.012
 8608SOL     OW26167   2.183   8.391   5.828
 8608SOL    HW126168   2.265   8.430   5.786
 8608SOL    HW226169   2.156   8.309   5.779
 8609SOL     OW26170   3.320   8.183   6.314
 8609SOL    HW126171   3.315   8.118   6.389
 8609SOL    HW226172   3.400   8.242   6.327
 8610SOL     OW26173   2.323   8.714   7.313
 8610SOL    HW126174   2.273   8.715   7.227
 8610SOL    HW226175   2.260   8.696   7.389
 8611SOL     OW26176   2.064   7.733   7.084
 8611SOL    HW126177   1.984   7.793   7.071
 8611SOL    HW226178   2.054   7.684   7.170
 8612SOL     OW26179   3.262   7.555   6.012
 8612SOL    HW126180   3.238   7.518   5.922
 8612SOL    HW226181   3.361   7.571   6.016
 8613SOL     OW26182   2.802   9.146   6.490
 8613SOL    HW126183   2.882   9.089   6.511
 8613SOL    HW226184   2.753   9.106   6.413
 8614SOL     OW26185   2.244   8.148   6.066
 8614SOL    HW126186   2.289   8.058   6.063
 8614SOL    HW226187   2.150   8.137   6.099
 8615SOL     OW26188   3.409   7.670   7.315
 8615SOL    HW126189   3.404   7.707   7.407
 8615SOL    HW226190   3.337   7.601   7.303
 8616SOL     OW26191   2.476   7.570   5.703
 8616SOL    HW126192   2.574   7.548   5.710
 8616SOL    HW226193   2.445   7.553   5.610
 8617SOL     OW26194   2.643   7.712   7.335
 8617SOL    HW126195   2.710   7.651   7.378
 8617SOL    HW226196   2.570   7.731   7.400
 8618SOL     OW26197   2.750   8.962   6.781
 8618SOL    HW126198   2.727   8.937   6.687
 8618SOL    HW226199   2.811   8.893   6.820
 8619SOL     OW26200   3.213   8.038   7.019
 8619SOL    HW126201   3.241   7.995   7.104
 8619SOL    HW226202   3.238   8.134   7.020
 8620SOL     OW26203   2.665   8.850   6.510
 8620SOL    HW126204   2.755   8.864   6.468
 8620SOL    HW226205   2.594   8.852   6.439
 8621SOL     OW26206   2.784   7.951   6.485
 8621SOL    HW126207   2.759   7.942   6.389
 8621SOL    HW226208   2.832   7.869   6.516
 8622SOL     OW26209   2.401   7.512   6.098
 8622SOL    HW126210   2.320   7.513   6.156
 8622SOL    HW226211   2.404   7.595   6.043
 8623SOL     OW26212   3.296   8.636   5.627
 8623SOL    HW126213   3.328   8.560   5.684
 8623SOL    HW226214   3.204   8.663   5.657
 8624SOL     OW26215   2.159   7.483   5.757
 8624SOL    HW126216   2.208   7.567   5.736
 8624SOL    HW226217   2.221   7.418   5.802
 8625SOL     OW26218   2.797   7.684   6.066
 8625SOL    HW126219   2.749   7.725   5.988
 8625SOL    HW226220   2.896   7.682   6.047
 8626SOL     OW26221   2.938   8.131   7.050
 8626SOL    HW126222   2.858   8.070   7.053
 8626SOL    HW226223   3.019   8.078   7.026
 8627SOL     OW26224   3.089   9.018   6.379
 8627SOL    HW126225   3.110   9.092   6.314
 8627SOL    HW226226   3.157   9.018   6.452
 8628SOL     OW26227   2.321   8.600   6.327
 8628SOL    HW126228   2.250   8.573   6.392
 8628SOL    HW226229   2.295   8.572   6.234
 8629SOL     OW26230   2.894   7.997   5.602
 8629SOL    HW126231   2.853   8.079   5.563
 8629SOL    HW226232   2.958   8.023   5.675
 8630SOL     OW26233   1.940   8.004   6.972
 8630SOL    HW126234   2.032   8.003   6.931
 8630SOL    HW226235   1.934   8.078   7.039
 8631SOL     OW26236   2.423   7.670   6.733
 8631SOL    HW126237   2.461   7.586   6.770
 8631SOL    HW226238   2.335   7.689   6.777
 8632SOL     OW26239   2.728   7.902   6.228
 8632SOL    HW126240   2.696   7.974   6.166
 8632SOL    HW226241   2.752   7.821   6.175
 8633SOL     OW26242   2.879   7.487   6.339
 8633SOL    HW126243   2.807   7.492   6.270
 8633SOL    HW226244   2.855   7.418   6.408
 8634SOL     OW26245   3.291   8.621   6.453
 8634SOL    HW126246   3.236   8.537   6.446
 8634SOL    HW226247   3.317   8.650   6.361
 8635SOL     OW26248   3.328   8.038   6.578
 8635SOL    HW126249   3.298   7.943   6.585
 8635SOL    HW226250   3.401   8.054   6.644
 8636SOL     OW26251   3.719   8.281   5.963
 8636SOL    HW126252   3.761   8.217   6.027
 8636SOL    HW226253   3.681   8.230   5.885
 8637SOL     OW26254   2.350   8.833   5.760
 8637SOL    HW126255   2.263   8.818   5.807
 8637SOL    HW226256   2.333   8.859   5.665
 8638SOL     OW26257   3.252   8.023   5.664
 8638SOL    HW126258   3.198   8.002   5.745
 8638SOL    HW226259   3.343   7.982   5.673
 8639SOL     OW26260   2.389   7.704   5.914
 8639SOL    HW126261   2.416   7.645   5.839
 8639SOL    HW226262   2.389   7.799   5.883
 8640SOL     OW26263   2.926   8.795   6.926
 8640SOL    HW126264   2.846   8.772   6.981
 8640SOL    HW226265   3.009   8.769   6.975
 8641SOL     OW26266   2.973   8.643   6.686
 8641SOL    HW126267   2.933   8.687   6.767
 8641SOL    HW226268   2.932   8.680   6.603
 8642SOL     OW26269   3.500   8.547   6.665
 8642SOL    HW126270   3.505   8.628   6.724
 8642SOL    HW226271   3.414   8.549   6.614
 8643SOL     OW26272   2.777   7.537   6.988
 8643SOL    HW126273   2.802   7.517   6.893
 8643SOL    HW226274   2.849   7.593   7.030
 8644SOL     OW26275   2.842   8.564   7.305
 8644SOL    HW126276   2.743   8.570   7.315
 8644SOL    HW226277   2.865   8.484   7.249
 8645SOL     OW26278   2.567   8.498   5.954
 8645SOL    HW126279   2.553   8.505   6.053
 8645SOL    HW226280   2.651   8.447   5.936
 8646SOL     OW26281   2.272   8.261   6.837
 8646SOL    HW126282   2.358   8.273   6.887
 8646SOL    HW226283   2.230   8.174   6.864
 8647SOL     OW26284   3.136   7.834   6.848
 8647SOL    HW126285   3.157   7.908   6.912
 8647SOL    HW226286   3.047   7.851   6.805
 8648SOL     OW26287   1.926   9.012   6.917
 8648SOL    HW126288   1.880   9.094   6.883
 8648SOL    HW226289   2.024   9.031   6.926
 8649SOL     OW26290   2.229   8.548   6.087
 8649SOL    HW126291   2.222   8.631   6.031
 8649SOL    HW226292   2.233   8.468   6.027
 8650SOL     OW26293   2.428   7.985   6.451
 8650SOL    HW126294   2.440   8.051   6.377
 8650SOL    HW226295   2.474   8.019   6.534
 8651SOL     OW26296   3.114   8.796   5.974
 8651SOL    HW126297   3.164   8.873   6.014
 8651SOL    HW226298   3.019   8.798   6.006
 8652SOL     OW26299   3.134   8.893   6.728
 8652SOL    HW126300   3.181   8.906   6.815
 8652SOL    HW226301   3.068   8.819   6.737
 8653SOL     OW26302   3.444   8.087   6.058
 8653SOL    HW126303   3.413   8.148   6.131
 8653SOL    HW226304   3.494   8.139   5.989
 8654SOL     OW26305   2.216   8.958   6.915
 8654SOL    HW126306   2.195   8.914   6.828
 8654SOL    HW226307   2.313   8.984   6.918
 8655SOL     OW26308   2.264   8.199   7.184
 8655SOL    HW126309   2.332   8.254   7.137
 8655SOL    HW226310   2.304   8.111   7.211
 8656SOL     OW26311   3.449   8.227   7.256
 8656SOL    HW126312   3.357   8.265   7.251
 8656SOL    HW226313   3.509   8.274   7.191
 8657SOL     OW26314   2.875   7.553   7.356
 8657SOL    HW126315   2.881   7.638   7.304
 8657SOL    HW226316   2.907   7.477   7.299
 8658SOL     OW26317   2.366   7.498   7.326
 8658SOL    HW126318   2.324   7.441   7.256
 8658SOL    HW226319   2.300   7.567   7.358
 8659SOL     OW26320   2.435   8.318   6.615
 8659SOL    HW126321   2.479   8.407   6.606
 8659SOL    HW226322   2.372   8.318   6.692
 8660SOL     OW26323   3.222   8.310   6.631
 8660SOL    HW126324   3.147   8.310   6.565
 8660SOL    HW226325   3.259   8.218   6.640
 8661SOL     OW26326   3.071   7.973   5.861
 8661SOL    HW126327   3.084   7.889   5.915
 8661SOL    HW226328   3.042   8.047   5.921
 8662SOL     OW26329   2.169   7.661   6.817
 8662SOL    HW126330   2.146   7.698   6.907
 8662SOL    HW226331   2.139   7.566   6.811
 8663SOL     OW26332   1.899   8.758   6.868
 8663SOL    HW126333   1.952   8.709   6.936
 8663SOL    HW226334   1.921   8.856   6.873
 8664SOL     OW26335   2.594   8.082   6.650
 8664SOL    HW126336   2.653   8.056   6.574
 8664SOL    HW226337   2.566   8.178   6.639
 8665SOL     OW26338   3.590   8.383   7.440
 8665SOL    HW126339   3.544   8.376   7.351
 8665SOL    HW226340   3.528   8.427   7.506
 8666SOL     OW26341   2.169   7.511   6.204
 8666SOL    HW126342   2.158   7.605   6.237
 8666SOL    HW226343   2.164   7.448   6.281
 8667SOL     OW26344   3.484   7.815   5.960
 8667SOL    HW126345   3.486   7.739   6.024
 8667SOL    HW226346   3.436   7.892   6.000
 8668SOL     OW26347   2.885   8.214   6.552
 8668SOL    HW126348   2.900   8.235   6.648
 8668SOL    HW226349   2.855   8.119   6.543
 8669SOL     OW26350   2.842   9.021   7.286
 8669SOL    HW126351   2.822   9.065   7.198
 8669SOL    HW226352   2.881   8.930   7.270
 8670SOL     OW26353   2.212   8.346   7.390
 8670SOL    HW126354   2.288   8.390   7.438
 8670SOL    HW226355   2.247   8.299   7.308
 8671SOL     OW26356   3.402   7.722   5.711
 8671SOL    HW126357   3.341   7.647   5.734
 8671SOL    HW226358   3.424   7.774   5.794
 8672SOL     OW26359   3.165   8.286   5.628
 8672SOL    HW126360   3.199   8.193   5.643
 8672SOL    HW226361   3.183   8.313   5.533
 8673SOL     OW26362   2.930   8.781   6.435
 8673SOL    HW126363   2.937   8.697   6.380
 8673SOL    HW226364   2.992   8.850   6.399
 8674SOL     OW26365   2.181   8.258   6.535
 8674SOL    HW126366   2.274   8.294   6.540
 8674SOL    HW226367   2.175   8.173   6.587
 8675SOL     OW26368   2.201   7.957   6.592
 8675SOL    HW126369   2.149   7.874   6.575
 8675SOL    HW226370   2.278   7.962   6.528
 8676SOL     OW26371   3.000   7.828   7.264
 8676SOL    HW126372   2.955   7.891   7.328
 8676SOL    HW226373   3.093   7.859   7.247
 8677SOL     OW26374   3.022   7.655   7.063
 8677SOL    HW126375   3.022   7.719   7.140
 8677SOL    HW226376   3.050   7.703   6.980
 8678SOL     OW26377   1.870   8.774   5.786
 8678SOL    HW126378   1.777   8.795   5.755
 8678SOL    HW226379   1.880   8.675   5.799
 8679SOL     OW26380   2.366   9.016   6.496
 8679SOL    HW126381   2.432   9.090   6.505
 8679SOL    HW226382   2.410   8.937   6.454
 8680SOL     OW26383   2.864   8.244   6.824
 8680SOL    HW126384   2.905   8.212   6.910
 8680SOL    HW226385   2.768   8.217   6.821
 8681SOL     OW26386   1.902   7.992   6.700
 8681SOL    HW126387   1.987   7.959   6.659
 8681SOL    HW226388   1.915   8.007   6.798
 8682SOL     OW26389   2.051   7.968   7.308
 8682SOL    HW126390   2.110   7.928   7.238
 8682SOL    HW226391   1.993   8.039   7.267
 8683SOL     OW26392   3.231   8.398   7.246
 8683SOL    HW126393   3.270   8.487   7.266
 8683SOL    HW226394   3.241   8.378   7.149
 8684SOL     OW26395   2.677   8.020   5.911
 8684SOL    HW126396   2.684   7.931   5.865
 8684SOL    HW226397   2.583   8.054   5.903
 8685SOL     OW26398   3.519   8.052   6.792
 8685SOL    HW126399   3.481   7.983   6.854
 8685SOL    HW226400   3.601   8.016   6.748
 8686SOL     OW26401   2.114   9.012   7.330
 8686SOL    HW126402   2.084   9.069   7.406
 8686SOL    HW226403   2.107   8.915   7.356
 8687SOL     OW26404   2.533   7.912   6.855
 8687SOL    HW126405   2.499   7.823   6.825
 8687SOL    HW226406   2.559   7.966   6.775
 8688SOL     OW26407   2.792   9.126   7.051
 8688SOL    HW126408   2.768   9.108   6.956
 8688SOL    HW226409   2.822   9.220   7.061
 8689SOL     OW26410   2.335   7.948   5.777
 8689SOL    HW126411   2.396   8.028   5.781
 8689SOL    HW226412   2.240   7.979   5.784
 8690SOL     OW26413   2.021   8.585   7.052
 8690SOL    HW126414   2.043   8.524   7.128
 8690SOL    HW226415   2.031   8.536   6.966
 8691SOL     OW26416   3.209   8.507   6.820
 8691SOL    HW126417   3.233   8.444   6.746
 8691SOL    HW226418   3.119   8.547   6.802
 8692SOL     OW26419   3.164   8.303   5.895
 8692SOL    HW126420   3.078   8.272   5.937
 8692SOL    HW226421   3.160   8.289   5.796
 8693SOL     OW26422   1.945   8.706   6.608
 8693SOL    HW126423   1.940   8.705   6.708
 8693SOL    HW226424   1.862   8.665   6.570
 8694SOL     OW26425   2.550   9.110   7.302
 8694SOL    HW126426   2.494   9.191   7.311
 8694SOL    HW226427   2.602   9.114   7.216
 8695SOL     OW26428   3.588   7.583   6.109
 8695SOL    HW126429   3.661   7.566   6.042
 8695SOL    HW226430   3.557   7.496   6.147
 8696SOL     OW26431   3.142   8.375   6.258
 8696SOL    HW126432   3.202   8.294   6.260
 8696SOL    HW226433   3.182   8.444   6.198
 8697SOL     OW26434   2.692   8.721   7.008
 8697SOL    HW126435   2.687   8.754   7.103
 8697SOL    HW226436   2.606   8.740   6.962
 8698SOL     OW26437   2.534   9.064   5.740
 8698SOL    HW126438   2.543   9.074   5.641
 8698SOL    HW226439   2.494   8.975   5.761
 8699SOL     OW26440   3.703   7.623   6.549
 8699SOL    HW126441   3.742   7.538   6.513
 8699SOL    HW226442   3.605   7.625   6.530
 8700SOL     OW26443   2.125   7.774   6.306
 8700SOL    HW126444   2.046   7.825   6.272
 8700SOL    HW226445   2.116   7.759   6.404
 8701SOL     OW26446   3.056   9.060   5.617
 8701SOL    HW126447   3.062   8.967   5.654
 8701SOL    HW226448   2.997   9.060   5.537
 8702SOL     OW26449   2.684   8.450   6.958
 8702SOL    HW126450   2.724   8.449   6.866
 8702SOL    HW226451   2.694   8.542   6.998
 8703SOL     OW26452   2.778   8.358   5.877
 8703SOL    HW126453   2.841   8.396   5.809
 8703SOL    HW226454   2.818   8.275   5.916
 8704SOL     OW26455   2.234   8.736   7.076
 8704SOL    HW126456   2.221   8.829   7.042
 8704SOL    HW226457   2.150   8.684   7.063
 8705SOL     OW26458   3.476   8.740   6.875
 8705SOL    HW126459   3.536   8.743   6.955
 8705SOL    HW226460   3.401   8.804   6.888
 8706SOL     OW26461   2.901   8.546   6.282
 8706SOL    HW126462   2.831   8.499   6.336
 8706SOL    HW226463   2.960   8.478   6.239
 8707SOL     OW26464   2.876   7.684   6.557
 8707SOL    HW126465   2.868   7.648   6.464
 8707SOL    HW226466   2.874   7.608   6.622
 8708SOL     OW26467   2.452   8.935   6.077
 8708SOL    HW126468   2.494   8.877   6.007
 8708SOL    HW226469   2.408   9.014   6.033
 8709SOL     OW26470   3.571   7.833   6.967
 8709SOL    HW126471   3.644   7.902   6.971
 8709SOL    HW226472   3.599   7.758   6.908
 8710SOL     OW26473   2.117   8.796   5.876
 8710SOL    HW126474   2.021   8.797   5.849
 8710SOL    HW226475   2.129   8.849   5.960
 8711SOL     OW26476   1.967   8.461   7.312
 8711SOL    HW126477   1.890   8.428   7.366
 8711SOL    HW226478   2.052   8.431   7.354
 8712SOL     OW26479   2.534   7.651   7.075
 8712SOL    HW126480   2.624   7.635   7.035
 8712SOL    HW226481   2.542   7.656   7.174
 8713SOL     OW26482   1.937   7.793   5.619
 8713SOL    HW126483   1.845   7.765   5.590
 8713SOL    HW226484   1.968   7.870   5.563
 8714SOL     OW26485   3.302   8.304   6.984
 8714SOL    HW126486   3.245   8.356   6.921
 8714SOL    HW226487   3.398   8.316   6.960
 8715SOL     OW26488   1.934   7.614   5.904
 8715SOL    HW126489   1.917   7.697   5.850
 8715SOL    HW226490   2.024   7.577   5.882
 8716SOL     OW26491   3.045   8.783   5.705
 8716SOL    HW126492   2.946   8.772   5.707
 8716SOL    HW226493   3.079   8.798   5.798
 8717SOL     OW26494   2.475   8.290   7.017
 8717SOL    HW126495   2.531   8.371   7.000
 8717SOL    HW226496   2.534   8.210   7.020
 8718SOL     OW26497   2.578   8.013   7.294
 8718SOL    HW126498   2.597   8.078   7.368
 8718SOL    HW226499   2.638   7.933   7.303
 8719SOL     OW26500   3.312   8.668   7.219
 8719SOL    HW126501   3.303   8.658   7.318
 8719SOL    HW226502   3.408   8.661   7.193
 8720SOL     OW26503   2.252   9.189   7.146
 8720SOL    HW126504   2.161   9.230   7.144
 8720SOL    HW226505   2.245   9.095   7.178
 8721SOL     OW26506   3.536   8.331   6.840
 8721SOL    HW126507   3.509   8.242   6.803
 8721SOL    HW226508   3.537   8.399   6.767
 8722SOL     OW26509   3.087   7.773   6.035
 8722SOL    HW126510   3.152   7.699   6.024
 8722SOL    HW226511   3.107   7.823   6.119
 8723SOL     OW26512   2.456   8.193   6.238
 8723SOL    HW126513   2.506   8.278   6.219
 8723SOL    HW226514   2.368   8.195   6.190
 8724SOL     OW26515   3.639   7.790   7.228
 8724SOL    HW126516   3.622   7.821   7.134
 8724SOL    HW226517   3.555   7.753   7.266
 8725SOL     OW26518   3.592   8.382   7.103
 8725SOL    HW126519   3.630   8.473   7.118
 8725SOL    HW226520   3.584   8.365   7.004
 8726SOL     OW26521   2.721   8.822   5.602
 8726SOL    HW126522   2.675   8.837   5.690
 8726SOL    HW226523   2.765   8.907   5.572
 8727SOL     OW26524   2.721   8.404   6.447
 8727SOL    HW126525   2.775   8.335   6.495
 8727SOL    HW226526   2.689   8.473   6.513
 8728SOL     OW26527   2.945   8.432   5.673
 8728SOL    HW126528   2.922   8.485   5.591
 8728SOL    HW226529   3.026   8.376   5.654
 8729SOL     OW26530   2.083   8.762   7.430
 8729SOL    HW126531   2.018   8.689   7.409
 8729SOL    HW226532   2.087   8.776   7.528
 8730SOL     OW26533   1.941   8.688   6.239
 8730SOL    HW126534   1.940   8.641   6.327
 8730SOL    HW226535   2.023   8.660   6.188
 8731SOL     OW26536   2.534   8.839   7.210
 8731SOL    HW126537   2.456   8.789   7.248
 8731SOL    HW226538   2.531   8.934   7.241
 8732SOL     OW26539   3.686   7.640   6.813
 8732SOL    HW126540   3.682   7.550   6.857
 8732SOL    HW226541   3.689   7.629   6.714
 8733SOL     OW26542   2.290   7.872   6.106
 8733SOL    HW126543   2.320   7.800   6.044
 8733SOL    HW226544   2.251   7.832   6.189
 8734SOL     OW26545   3.567   8.935   6.690
 8734SOL    HW126546   3.474   8.910   6.663
 8734SOL    HW226547   3.593   8.885   6.772
 8735SOL     OW26548   2.179   7.995   6.866
 8735SOL    HW126549   2.217   7.936   6.938
 8735SOL    HW226550   2.219   7.969   6.778
 8736SOL     OW26551   2.674   9.034   6.273
 8736SOL    HW126552   2.706   9.044   6.179
 8736SOL    HW226553   2.595   8.972   6.275
 8737SOL     OW26554   3.286   7.662   6.698
 8737SOL    HW126555   3.338   7.597   6.753
 8737SOL    HW226556   3.237   7.725   6.759
 8738SOL     OW26557   2.863   7.482   6.740
 8738SOL    HW126558   2.800   7.410   6.709
 8738SOL    HW226559   2.956   7.446   6.740
 8739SOL     OW26560   2.480   9.015   6.870
 8739SOL    HW126561   2.475   9.097   6.927
 8739SOL    HW226562   2.569   9.012   6.825
 8740SOL     OW26563   3.214   7.500   5.754
 8740SOL    HW126564   3.249   7.459   5.670
 8740SOL    HW226565   3.124   7.462   5.774
 8741SOL     OW26566   3.162   7.901   6.277
 8741SOL    HW126567   3.103   7.981   6.281
 8741SOL    HW226568   3.177   7.866   6.370
 8742SOL     OW26569   3.455   7.669   6.468
 8742SOL    HW126570   3.371   7.668   6.522
 8742SOL    HW226571   3.457   7.752   6.412
 8743SOL     OW26572   1.901   8.525   5.886
 8743SOL    HW126573   2.000   8.514   5.877
 8743SOL    HW226574   1.861   8.439   5.918
 8744SOL     OW26575   2.737   9.094   5.923
 8744SOL    HW126576   2.660   9.059   5.869
 8744SOL    HW226577   2.705   9.165   5.985
 8745SOL     OW26578   2.092   8.076   7.561
 8745SOL    HW126579   1.999   8.074   7.598
 8745SOL    HW226580   2.093   8.037   7.469
 8746SOL     OW26581   3.617   8.055   7.679
 8746SOL    HW126582   3.605   8.042   7.580
 8746SOL    HW226583   3.587   7.974   7.728
 8747SOL     OW26584   2.468   8.412   7.571
 8747SOL    HW126585   2.475   8.496   7.517
 8747SOL    HW226586   2.514   8.425   7.659
 8748SOL     OW26587   1.889   9.044   7.565
 8748SOL    HW126588   1.870   8.948   7.586
 8748SOL    HW226589   1.856   9.102   7.640
 8749SOL     OW26590   3.503   8.556   7.880
 8749SOL    HW126591   3.589   8.558   7.828
 8749SOL    HW226592   3.517   8.603   7.968
 8750SOL     OW26593   2.671   7.452   7.950
 8750SOL    HW126594   2.711   7.543   7.941
 8750SOL    HW226595   2.571   7.460   7.956
 8751SOL     OW26596   3.387   8.447   7.638
 8751SOL    HW126597   3.324   8.371   7.651
 8751SOL    HW226598   3.435   8.465   7.724
 8752SOL     OW26599   2.460   8.177   7.718
 8752SOL    HW126600   2.484   8.246   7.650
 8752SOL    HW226601   2.382   8.210   7.772
 8753SOL     OW26602   2.903   8.149   7.877
 8753SOL    HW126603   2.929   8.145   7.973
 8753SOL    HW226604   2.818   8.098   7.863
 8754SOL     OW26605   2.727   7.796   7.643
 8754SOL    HW126606   2.786   7.859   7.594
 8754SOL    HW226607   2.746   7.702   7.614
 8755SOL     OW26608   3.224   8.592   7.993
 8755SOL    HW126609   3.307   8.563   7.945
 8755SOL    HW226610   3.175   8.659   7.937
 8756SOL     OW26611   2.870   8.904   7.925
 8756SOL    HW126612   2.824   8.976   7.873
 8756SOL    HW226613   2.866   8.924   8.023
 8757SOL     OW26614   2.183   8.391   7.690
 8757SOL    HW126615   2.265   8.430   7.648
 8757SOL    HW226616   2.156   8.309   7.641
 8758SOL     OW26617   3.262   7.555   7.874
 8758SOL    HW126618   3.238   7.518   7.784
 8758SOL    HW226619   3.361   7.571   7.878
 8759SOL     OW26620   2.244   8.148   7.928
 8759SOL    HW126621   2.289   8.058   7.925
 8759SOL    HW226622   2.150   8.137   7.961
 8760SOL     OW26623   2.476   7.570   7.565
 8760SOL    HW126624   2.574   7.548   7.572
 8760SOL    HW226625   2.445   7.553   7.472
 8761SOL     OW26626   2.401   7.512   7.960
 8761SOL    HW126627   2.320   7.513   8.018
 8761SOL    HW226628   2.404   7.595   7.905
 8762SOL     OW26629   3.296   8.636   7.489
 8762SOL    HW126630   3.328   8.560   7.546
 8762SOL    HW226631   3.204   8.663   7.519
 8763SOL     OW26632   2.159   7.483   7.619
 8763SOL    HW126633   2.208   7.567   7.598
 8763SOL    HW226634   2.221   7.418   7.664
 8764SOL     OW26635   2.797   7.684   7.928
 8764SOL    HW126636   2.749   7.725   7.850
 8764SOL    HW226637   2.896   7.682   7.909
 8765SOL     OW26638   2.894   7.997   7.464
 8765SOL    HW126639   2.853   8.079   7.425
 8765SOL    HW226640   2.958   8.023   7.537
 8766SOL     OW26641   3.719   8.281   7.825
 8766SOL    HW126642   3.761   8.217   7.889
 8766SOL    HW226643   3.681   8.230   7.747
 8767SOL     OW26644   2.350   8.833   7.622
 8767SOL    HW126645   2.263   8.818   7.669
 8767SOL    HW226646   2.333   8.859   7.527
 8768SOL     OW26647   3.252   8.023   7.526
 8768SOL    HW126648   3.198   8.002   7.607
 8768SOL    HW226649   3.343   7.982   7.535
 8769SOL     OW26650   2.389   7.704   7.776
 8769SOL    HW126651   2.416   7.645   7.701
 8769SOL    HW226652   2.389   7.799   7.745
 8770SOL     OW26653   2.567   8.498   7.816
 8770SOL    HW126654   2.553   8.505   7.915
 8770SOL    HW226655   2.651   8.447   7.798
 8771SOL     OW26656   2.229   8.548   7.949
 8771SOL    HW126657   2.222   8.631   7.893
 8771SOL    HW226658   2.233   8.468   7.889
 8772SOL     OW26659   3.114   8.796   7.836
 8772SOL    HW126660   3.164   8.873   7.876
 8772SOL    HW226661   3.019   8.798   7.868
 8773SOL     OW26662   3.444   8.087   7.920
 8773SOL    HW126663   3.413   8.148   7.993
 8773SOL    HW226664   3.494   8.139   7.851
 8774SOL     OW26665   3.071   7.973   7.723
 8774SOL    HW126666   3.084   7.889   7.777
 8774SOL    HW226667   3.042   8.047   7.783
 8775SOL     OW26668   3.484   7.815   7.822
 8775SOL    HW126669   3.486   7.739   7.886
 8775SOL    HW226670   3.436   7.892   7.862
 8776SOL     OW26671   3.402   7.722   7.573
 8776SOL    HW126672   3.341   7.647   7.596
 8776SOL    HW226673   3.424   7.774   7.656
 8777SOL     OW26674   3.165   8.286   7.490
 8777SOL    HW126675   3.199   8.193   7.505
 8777SOL    HW226676   3.183   8.313   7.395
 8778SOL     OW26677   1.870   8.774   7.648
 8778SOL    HW126678   1.777   8.795   7.617
 8778SOL    HW226679   1.880   8.675   7.661
 8779SOL     OW26680   2.677   8.020   7.773
 8779SOL    HW126681   2.684   7.931   7.727
 8779SOL    HW226682   2.583   8.054   7.765
 8780SOL     OW26683   2.335   7.948   7.639
 8780SOL    HW126684   2.396   8.028   7.643
 8780SOL    HW226685   2.240   7.979   7.646
 8781SOL     OW26686   3.164   8.303   7.757
 8781SOL    HW126687   3.078   8.272   7.799
 8781SOL    HW226688   3.160   8.289   7.658
 8782SOL     OW26689   3.588   7.583   7.971
 8782SOL    HW126690   3.661   7.566   7.904
 8782SOL    HW226691   3.557   7.496   8.009
 8783SOL     OW26692   2.534   9.064   7.602
 8783SOL    HW126693   2.543   9.074   7.503
 8783SOL    HW226694   2.494   8.975   7.623
 8784SOL     OW26695   3.056   9.060   7.479
 8784SOL    HW126696   3.062   8.967   7.516
 8784SOL    HW226697   2.997   9.060   7.399
 8785SOL     OW26698   2.778   8.358   7.739
 8785SOL    HW126699   2.841   8.396   7.671
 8785SOL    HW226700   2.818   8.275   7.778
 8786SOL     OW26701   2.452   8.935   7.939
 8786SOL    HW126702   2.494   8.877   7.869
 8786SOL    HW226703   2.408   9.014   7.895
 8787SOL     OW26704   2.117   8.796   7.738
 8787SOL    HW126705   2.021   8.797   7.711
 8787SOL    HW226706   2.129   8.849   7.822
 8788SOL     OW26707   1.937   7.793   7.481
 8788SOL    HW126708   1.845   7.765   7.452
 8788SOL    HW226709   1.968   7.870   7.425
 8789SOL     OW26710   1.934   7.614   7.766
 8789SOL    HW126711   1.917   7.697   7.712
 8789SOL    HW226712   2.024   7.577   7.744
 8790SOL     OW26713   3.045   8.783   7.567
 8790SOL    HW126714   2.946   8.772   7.569
 8790SOL    HW226715   3.079   8.798   7.660
 8791SOL     OW26716   3.087   7.773   7.897
 8791SOL    HW126717   3.152   7.699   7.886
 8791SOL    HW226718   3.107   7.823   7.981
 8792SOL     OW26719   2.721   8.822   7.464
 8792SOL    HW126720   2.675   8.837   7.552
 8792SOL    HW226721   2.765   8.907   7.434
 8793SOL     OW26722   2.945   8.432   7.535
 8793SOL    HW126723   2.922   8.485   7.453
 8793SOL    HW226724   3.026   8.376   7.516
 8794SOL     OW26725   2.632   8.778   7.749
 8794SOL    HW126726   2.586   8.691   7.766
 8794SOL    HW226727   2.723   8.775   7.790
 8795SOL     OW26728   3.214   7.500   7.616
 8795SOL    HW126729   3.249   7.459   7.532
 8795SOL    HW226730   3.124   7.462   7.636
 8796SOL     OW26731   1.901   8.525   7.748
 8796SOL    HW126732   2.000   8.514   7.739
 8796SOL    HW226733   1.861   8.439   7.780
 8797SOL     OW26734   2.737   9.094   7.785
 8797SOL    HW126735   2.660   9.059   7.731
 8797SOL    HW226736   2.705   9.165   7.847
 8798SOL     OW26737   3.949   0.275   0.996
 8798SOL    HW126738   3.984   0.258   1.088
 8798SOL    HW226739   3.861   0.230   0.984
 8799SOL     OW26740   3.743   0.368   0.647
 8799SOL    HW126741   3.661   0.411   0.686
 8799SOL    HW226742   3.715   0.295   0.584
 8800SOL     OW26743   4.293   1.275   1.165
 8800SOL    HW126744   4.200   1.268   1.128
 8800SOL    HW226745   4.304   1.364   1.209
 8801SOL     OW26746   5.279   1.511   0.703
 8801SOL    HW126747   5.222   1.495   0.784
 8801SOL    HW226748   5.220   1.521   0.623
 8802SOL     OW26749   4.859   0.703   0.717
 8802SOL    HW126750   4.916   0.781   0.692
 8802SOL    HW226751   4.799   0.729   0.793
 8803SOL     OW26752   5.479   0.607   0.231
 8803SOL    HW126753   5.467   0.594   0.132
 8803SOL    HW226754   5.449   0.526   0.280
 8804SOL     OW26755   4.492   1.144   1.023
 8804SOL    HW126756   4.414   1.161   1.083
 8804SOL    HW226757   4.526   1.231   0.987
 8805SOL     OW26758   4.574   0.798   1.823
 8805SOL    HW126759   4.570   0.874   1.888
 8805SOL    HW226760   4.596   0.834   1.732
 8806SOL     OW26761   4.409   1.012   0.665
 8806SOL    HW126762   4.478   0.996   0.735
 8806SOL    HW226763   4.336   1.069   0.703
 8807SOL     OW26764   4.410   1.161   1.803
 8807SOL    HW126765   4.470   1.240   1.817
 8807SOL    HW226766   4.324   1.192   1.762
 8808SOL     OW26767   4.059   1.435   1.061
 8808SOL    HW126768   3.981   1.404   1.008
 8808SOL    HW226769   4.117   1.493   1.004
 8809SOL     OW26770   5.184   1.505   1.339
 8809SOL    HW126771   5.208   1.599   1.365
 8809SOL    HW226772   5.168   1.451   1.421
 8810SOL     OW26773   5.327   0.447   0.737
 8810SOL    HW126774   5.253   0.493   0.687
 8810SOL    HW226775   5.378   0.515   0.790
 8811SOL     OW26776   3.955   1.713   0.483
 8811SOL    HW126777   3.989   1.790   0.537
 8811SOL    HW226778   3.999   1.713   0.393
 8812SOL     OW26779   4.851   1.341   1.690
 8812SOL    HW126780   4.898   1.341   1.778
 8812SOL    HW226781   4.803   1.254   1.679
 8813SOL     OW26782   3.954   1.434   0.538
 8813SOL    HW126783   3.928   1.530   0.538
 8813SOL    HW226784   3.883   1.380   0.583
 8814SOL     OW26785   3.964   1.091   0.886
 8814SOL    HW126786   3.978   1.007   0.938
 8814SOL    HW226787   3.909   1.155   0.941
 8815SOL     OW26788   4.344   1.786   1.439
 8815SOL    HW126789   4.252   1.769   1.474
 8815SOL    HW226790   4.372   1.878   1.465
 8816SOL     OW26791   5.318   0.114   1.480
 8816SOL    HW126792   5.300   0.181   1.408
 8816SOL    HW226793   5.315   0.160   1.569
 8817SOL     OW26794   3.846   0.643   0.563
 8817SOL    HW126795   3.801   0.555   0.580
 8817SOL    HW226796   3.845   0.697   0.647
 8818SOL     OW26797   5.566   1.767   0.359
 8818SOL    HW126798   5.620   1.738   0.439
 8818SOL    HW226799   5.596   1.857   0.330
 8819SOL     OW26800   5.413   0.922   0.612
 8819SOL    HW126801   5.508   0.893   0.620
 8819SOL    HW226802   5.405   0.987   0.537
 8820SOL     OW26803   3.837   0.737   1.597
 8820SOL    HW126804   3.925   0.724   1.642
 8820SOL    HW226805   3.824   0.834   1.575
 8821SOL     OW26806   4.337   1.365   0.726
 8821SOL    HW126807   4.288   1.278   0.735
 8821SOL    HW226808   4.314   1.408   0.639
 8822SOL     OW26809   5.017   1.228   1.423
 8822SOL    HW126810   5.054   1.155   1.365
 8822SOL    HW226811   5.069   1.233   1.508
 8823SOL     OW26812   4.533   0.004   0.502
 8823SOL    HW126813   4.573   0.095   0.493
 8823SOL    HW226814   4.433   0.012   0.508
 8824SOL     OW26815   3.921   0.976   1.264
 8824SOL    HW126816   4.010   0.931   1.250
 8824SOL    HW226817   3.848   0.911   1.245
 8825SOL     OW26818   4.911   1.792   1.616
 8825SOL    HW126819   4.935   1.852   1.540
 8825SOL    HW226820   4.918   1.697   1.586
 8826SOL     OW26821   4.041   0.251   1.801
 8826SOL    HW126822   4.112   0.322   1.807
 8826SOL    HW226823   3.953   0.290   1.829
 8827SOL     OW26824   5.190   1.417   0.953
 8827SOL    HW126825   5.131   1.423   1.033
 8827SOL    HW226826   5.175   1.329   0.907
 8828SOL     OW26827   5.391   1.714   0.572
 8828SOL    HW126828   5.350   1.691   0.484
 8828SOL    HW226829   5.373   1.640   0.637
 8829SOL     OW26830   5.005   0.345   0.944
 8829SOL    HW126831   4.919   0.295   0.931
 8829SOL    HW226832   5.067   0.291   1.000
 8830SOL     OW26833   4.531   0.605   1.465
 8830SOL    HW126834   4.484   0.602   1.554
 8830SOL    HW226835   4.480   0.550   1.399
 8831SOL     OW26836   5.118   0.469   1.674
 8831SOL    HW126837   5.098   0.512   1.762
 8831SOL    HW226838   5.196   0.407   1.683
 8832SOL     OW26839   4.697   0.890   1.572
 8832SOL    HW126840   4.743   0.806   1.543
 8832SOL    HW226841   4.641   0.924   1.497
 8833SOL     OW26842   4.715   0.410   1.242
 8833SOL    HW126843   4.638   0.444   1.296
 8833SOL    HW226844   4.681   0.359   1.163
 8834SOL     OW26845   4.765   0.701   0.429
 8834SOL    HW126846   4.791   0.697   0.525
 8834SOL    HW226847   4.680   0.650   0.415
 8835SOL     OW26848   3.800   0.811   0.789
 8835SOL    HW126849   3.899   0.799   0.798
 8835SOL    HW226850   3.776   0.906   0.810
 8836SOL     OW26851   3.854   1.821   1.571
 8836SOL    HW126852   3.844   1.806   1.670
 8836SOL    HW226853   3.768   1.857   1.535
 8837SOL     OW26854   5.443   0.585   1.831
 8837SOL    HW126855   5.417   0.674   1.795
 8837SOL    HW226856   5.441   0.517   1.758
 8838SOL     OW26857   5.086   1.144   0.545
 8838SOL    HW126858   5.169   1.115   0.497
 8838SOL    HW226859   5.037   1.211   0.489
 8839SOL     OW26860   4.274   0.196   0.885
 8839SOL    HW126861   4.269   0.191   0.985
 8839SOL    HW226862   4.276   0.292   0.856
 8840SOL     OW26863   4.732   1.456   0.477
 8840SOL    HW126864   4.686   1.528   0.425
 8840SOL    HW226865   4.728   1.476   0.575
 8841SOL     OW26866   4.075   1.801   0.853
 8841SOL    HW126867   4.125   1.715   0.859
 8841SOL    HW226868   4.140   1.878   0.850
 8842SOL     OW26869   5.519   1.066   0.873
 8842SOL    HW126870   5.457   1.051   0.797
 8842SOL    HW226871   5.467   1.077   0.958
 8843SOL     OW26872   4.951   1.550   1.506
 8843SOL    HW126873   4.957   1.473   1.570
 8843SOL    HW226874   4.899   1.524   1.426
 8844SOL     OW26875   5.182   0.735   0.728
 8844SOL    HW126876   5.177   0.670   0.803
 8844SOL    HW226877   5.262   0.794   0.741
 8845SOL     OW26878   4.185   1.266   1.727
 8845SOL    HW126879   4.135   1.267   1.641
 8845SOL    HW226880   4.122   1.248   1.803
 8846SOL     OW26881   3.926   0.285   1.498
 8846SOL    HW126882   3.846   0.345   1.485
 8846SOL    HW226883   3.916   0.236   1.584
 8847SOL     OW26884   5.124   0.107   0.426
 8847SOL    HW126885   5.100   0.070   0.336
 8847SOL    HW226886   5.223   0.123   0.430
 8848SOL     OW26887   3.973   1.785   1.241
 8848SOL    HW126888   4.030   1.720   1.291
 8848SOL    HW226889   3.957   1.752   1.148
 8849SOL     OW26890   4.664   1.698   0.904
 8849SOL    HW126891   4.744   1.641   0.925
 8849SOL    HW226892   4.615   1.658   0.827
 8850SOL     OW26893   4.106   0.700   0.480
 8850SOL    HW126894   4.151   0.610   0.477
 8850SOL    HW226895   4.012   0.689   0.513
 8851SOL     OW26896   5.271   0.222   1.729
 8851SOL    HW126897   5.266   0.259   1.821
 8851SOL    HW226898   5.199   0.153   1.717
 8852SOL     OW26899   4.505   0.264   1.749
 8852SOL    HW126900   4.572   0.203   1.792
 8852SOL    HW226901   4.432   0.283   1.814
 8853SOL     OW26902   4.612   1.514   1.195
 8853SOL    HW126903   4.589   1.489   1.101
 8853SOL    HW226904   4.673   1.445   1.234
 8854SOL     OW26905   5.075   0.590   1.433
 8854SOL    HW126906   5.103   0.547   1.518
 8854SOL    HW226907   5.100   0.686   1.434
 8855SOL     OW26908   4.527   1.402   0.924
 8855SOL    HW126909   4.617   1.416   0.882
 8855SOL    HW226910   4.456   1.404   0.853
 8856SOL     OW26911   4.646   0.503   0.899
 8856SOL    HW126912   4.621   0.494   0.803
 8856SOL    HW226913   4.694   0.421   0.930
 8857SOL     OW26914   4.263   0.064   0.512
 8857SOL    HW126915   4.182   0.065   0.570
 8857SOL    HW226916   4.266   0.147   0.457
 8858SOL     OW26917   4.659   0.236   0.480
 8858SOL    HW126918   4.611   0.277   0.402
 8858SOL    HW226919   4.758   0.234   0.461
 8859SOL     OW26920   4.800   0.683   1.464
 8859SOL    HW126921   4.720   0.622   1.467
 8859SOL    HW226922   4.881   0.630   1.440
 8860SOL     OW26923   4.951   1.570   0.793
 8860SOL    HW126924   4.972   1.644   0.728
 8860SOL    HW226925   5.019   1.570   0.866
 8861SOL     OW26926   4.183   1.152   0.741
 8861SOL    HW126927   4.112   1.125   0.806
 8861SOL    HW226928   4.157   1.124   0.648
 8862SOL     OW26929   4.995   1.797   0.591
 8862SOL    HW126930   5.039   1.861   0.527
 8862SOL    HW226931   4.945   1.849   0.661
 8863SOL     OW26932   4.756   0.549   0.016
 8863SOL    HW126933   4.715   0.631  -0.023
 8863SOL    HW226934   4.820   0.575   0.089
 8864SOL     OW26935   3.802   0.556   1.386
 8864SOL    HW126936   3.894   0.555   1.345
 8864SOL    HW226937   3.796   0.630   1.453
 8865SOL     OW26938   4.285   0.222   1.147
 8865SOL    HW126939   4.323   0.138   1.184
 8865SOL    HW226940   4.197   0.241   1.191
 8866SOL     OW26941   4.590   0.454   0.642
 8866SOL    HW126942   4.558   0.526   0.580
 8866SOL    HW226943   4.614   0.373   0.589
 8867SOL     OW26944   4.741   0.039   0.753
 8867SOL    HW126945   4.669   0.044   0.684
 8867SOL    HW226946   4.717  -0.030   0.822
 8868SOL     OW26947   5.153   1.173   0.867
 8868SOL    HW126948   5.098   1.089   0.860
 8868SOL    HW226949   5.179   1.202   0.775
 8869SOL     OW26950   5.190   0.590   0.992
 8869SOL    HW126951   5.160   0.495   0.999
 8869SOL    HW226952   5.263   0.606   1.058
 8870SOL     OW26953   5.388   1.280   0.657
 8870SOL    HW126954   5.487   1.288   0.671
 8870SOL    HW226955   5.343   1.364   0.688
 8871SOL     OW26956   4.251   0.256   0.328
 8871SOL    HW126957   4.278   0.197   0.253
 8871SOL    HW226958   4.251   0.351   0.297
 8872SOL     OW26959   5.478   1.223   1.588
 8872SOL    HW126960   5.569   1.184   1.575
 8872SOL    HW226961   5.486   1.319   1.612
 8873SOL     OW26962   4.788   1.347   1.340
 8873SOL    HW126963   4.708   1.324   1.395
 8873SOL    HW226964   4.871   1.321   1.389
 8874SOL     OW26965   4.835   1.195   1.100
 8874SOL    HW126966   4.795   1.239   1.181
 8874SOL    HW226967   4.794   1.232   1.017
 8875SOL     OW26968   5.362   1.099   1.079
 8875SOL    HW126969   5.367   1.180   1.138
 8875SOL    HW226970   5.276   1.101   1.028
 8876SOL     OW26971   4.639   0.089   1.402
 8876SOL    HW126972   4.664   0.069   1.307
 8876SOL    HW226973   4.711   0.145   1.444
 8877SOL     OW26974   4.704   1.116   1.719
 8877SOL    HW126975   4.605   1.122   1.729
 8877SOL    HW226976   4.727   1.036   1.663
 8878SOL     OW26977   4.134   0.813   1.251
 8878SOL    HW126978   4.220   0.825   1.301
 8878SOL    HW226979   4.092   0.726   1.278
 8879SOL     OW26980   4.998   0.386   1.262
 8879SOL    HW126981   5.019   0.460   1.326
 8879SOL    HW226982   4.909   0.403   1.219
 8880SOL     OW26983   3.788   1.564   1.331
 8880SOL    HW126984   3.742   1.646   1.297
 8880SOL    HW226985   3.886   1.583   1.340
 8881SOL     OW26986   4.091   1.100   0.501
 8881SOL    HW126987   4.084   1.183   0.445
 8881SOL    HW226988   4.095   1.020   0.441
 8882SOL     OW26989   4.290   0.537   0.865
 8882SOL    HW126990   4.302   0.603   0.791
 8882SOL    HW226991   4.336   0.571   0.948
 8883SOL     OW26992   4.976   1.348   0.388
 8883SOL    HW126993   5.026   1.425   0.428
 8883SOL    HW226994   4.881   1.350   0.420
 8884SOL     OW26995   4.996   1.445   1.142
 8884SOL    HW126996   5.043   1.458   1.229
 8884SOL    HW226997   4.930   1.371   1.151
 8885SOL     OW26998   5.306   0.639   0.472
 8885SOL    HW126999   5.275   0.700   0.545
 8885SOL    HW227000   5.356   0.691   0.403
 8886SOL     OW27001   4.078   1.510   1.329
 8886SOL    HW127002   4.057   1.466   1.242
 8886SOL    HW227003   4.175   1.536   1.332
 8887SOL     OW27004   4.126   0.751   1.598
 8887SOL    HW127005   4.194   0.806   1.551
 8887SOL    HW227006   4.166   0.663   1.625
 8888SOL     OW27007   5.311   0.779   1.670
 8888SOL    HW127008   5.219   0.817   1.665
 8888SOL    HW227009   5.371   0.826   1.605
 8889SOL     OW27010   4.737   0.105   1.770
 8889SOL    HW127011   4.743   0.190   1.718
 8889SOL    HW227012   4.769   0.029   1.713
 8890SOL     OW27013   4.228   0.050   1.740
 8890SOL    HW127014   4.186  -0.007   1.670
 8890SOL    HW227015   4.162   0.119   1.772
 8891SOL     OW27016   4.297   0.870   1.029
 8891SOL    HW127017   4.341   0.959   1.020
 8891SOL    HW227018   4.234   0.870   1.106
 8892SOL     OW27019   5.084   0.862   1.045
 8892SOL    HW127020   5.009   0.862   0.979
 8892SOL    HW227021   5.121   0.770   1.054
 8893SOL     OW27022   4.933   0.525   0.275
 8893SOL    HW127023   4.946   0.441   0.329
 8893SOL    HW227024   4.904   0.599   0.335
 8894SOL     OW27025   4.031   0.213   1.231
 8894SOL    HW127026   4.008   0.250   1.321
 8894SOL    HW227027   4.001   0.118   1.225
 8895SOL     OW27028   3.761   1.310   1.282
 8895SOL    HW127029   3.814   1.261   1.350
 8895SOL    HW227030   3.783   1.408   1.287
 8896SOL     OW27031   4.456   0.634   1.064
 8896SOL    HW127032   4.515   0.608   0.988
 8896SOL    HW227033   4.428   0.730   1.053
 8897SOL     OW27034   5.452   0.935   1.854
 8897SOL    HW127035   5.406   0.928   1.765
 8897SOL    HW227036   5.390   0.979   1.920
 8898SOL     OW27037   4.031   0.063   0.618
 8898SOL    HW127038   4.020   0.157   0.651
 8898SOL    HW227039   4.026   0.000   0.695
 8899SOL     OW27040   4.747   0.766   0.966
 8899SOL    HW127041   4.762   0.787   1.062
 8899SOL    HW227042   4.717   0.671   0.957
 8900SOL     OW27043   4.704   1.573   1.700
 8900SOL    HW127044   4.684   1.617   1.612
 8900SOL    HW227045   4.743   1.482   1.684
 8901SOL     OW27046   5.583   1.518   1.605
 8901SOL    HW127047   5.597   1.545   1.510
 8901SOL    HW227048   5.666   1.540   1.658
 8902SOL     OW27049   4.074   0.898   1.804
 8902SOL    HW127050   4.150   0.942   1.852
 8902SOL    HW227051   4.109   0.851   1.722
 8903SOL     OW27052   4.792   1.333   0.849
 8903SOL    HW127053   4.799   1.249   0.794
 8903SOL    HW227054   4.854   1.402   0.813
 8904SOL     OW27055   4.043   0.810   0.949
 8904SOL    HW127056   4.136   0.846   0.954
 8904SOL    HW227057   4.037   0.725   1.001
 8905SOL     OW27058   4.063   0.509   1.006
 8905SOL    HW127059   4.011   0.426   0.989
 8905SOL    HW227060   4.140   0.514   0.942
 8906SOL     OW27061   4.862   0.380   1.678
 8906SOL    HW127062   4.817   0.443   1.742
 8906SOL    HW227063   4.955   0.411   1.661
 8907SOL     OW27064   4.884   0.207   1.477
 8907SOL    HW127065   4.884   0.271   1.554
 8907SOL    HW227066   4.912   0.255   1.394
 8908SOL     OW27067   3.812   1.801   0.927
 8908SOL    HW127068   3.770   1.715   0.900
 8908SOL    HW227069   3.906   1.804   0.893
 8909SOL     OW27070   4.228   1.568   0.910
 8909SOL    HW127071   4.294   1.642   0.919
 8909SOL    HW227072   4.272   1.489   0.868
 8910SOL     OW27073   4.726   0.796   1.238
 8910SOL    HW127074   4.767   0.764   1.324
 8910SOL    HW227075   4.630   0.769   1.235
 8911SOL     OW27076   3.764   0.544   1.114
 8911SOL    HW127077   3.849   0.511   1.073
 8911SOL    HW227078   3.777   0.559   1.212
 8912SOL     OW27079   3.913   0.520   1.722
 8912SOL    HW127080   3.972   0.480   1.652
 8912SOL    HW227081   3.855   0.591   1.681
 8913SOL     OW27082   5.093   0.950   1.660
 8913SOL    HW127083   5.132   1.039   1.680
 8913SOL    HW227084   5.103   0.930   1.563
 8914SOL     OW27085   5.381   0.604   1.206
 8914SOL    HW127086   5.343   0.535   1.268
 8914SOL    HW227087   5.463   0.568   1.162
 8915SOL     OW27088   3.976   1.564   1.744
 8915SOL    HW127089   3.946   1.621   1.820
 8915SOL    HW227090   3.969   1.467   1.770
 8916SOL     OW27091   4.395   0.464   1.269
 8916SOL    HW127092   4.361   0.375   1.239
 8916SOL    HW227093   4.421   0.518   1.189
 8917SOL     OW27094   4.654   1.678   1.465
 8917SOL    HW127095   4.630   1.660   1.370
 8917SOL    HW227096   4.684   1.772   1.475
 8918SOL     OW27097   3.883   1.137   1.466
 8918SOL    HW127098   3.905   1.076   1.542
 8918SOL    HW227099   3.893   1.088   1.380
 8919SOL     OW27100   5.071   1.059   1.234
 8919SOL    HW127101   5.095   0.996   1.160
 8919SOL    HW227102   4.981   1.099   1.216
 8920SOL     OW27103   5.026   0.855   0.309
 8920SOL    HW127104   4.940   0.824   0.351
 8920SOL    HW227105   5.022   0.841   0.210
 8921SOL     OW27106   5.483   1.747   1.154
 8921SOL    HW127107   5.544   1.777   1.081
 8921SOL    HW227108   5.445   1.658   1.132
 8922SOL     OW27109   4.976   1.731   1.128
 8922SOL    HW127110   5.060   1.736   1.074
 8922SOL    HW227111   4.953   1.635   1.146
 8923SOL     OW27112   3.807   1.258   1.022
 8923SOL    HW127113   3.802   1.257   1.122
 8923SOL    HW227114   3.724   1.217   0.984
 8924SOL     OW27115   4.412   1.662   1.716
 8924SOL    HW127116   4.356   1.743   1.725
 8924SOL    HW227117   4.464   1.666   1.630
 8925SOL     OW27118   5.450   0.135   0.523
 8925SOL    HW127119   5.523   0.118   0.456
 8925SOL    HW227120   5.419   0.048   0.561
 8926SOL     OW27121   5.112   1.573   0.477
 8926SOL    HW127122   5.179   1.585   0.403
 8926SOL    HW227123   5.072   1.662   0.500
 8927SOL     OW27124   3.854   1.794   1.851
 8927SOL    HW127125   3.813   1.720   1.904
 8927SOL    HW227126   3.918   1.845   1.909
 8928SOL     OW27127   5.004   0.927   0.672
 8928SOL    HW127128   5.064   0.846   0.674
 8928SOL    HW227129   5.044   0.996   0.612
 8929SOL     OW27130   4.554   1.273   1.422
 8929SOL    HW127131   4.549   1.306   1.517
 8929SOL    HW227132   4.468   1.292   1.376
 8930SOL     OW27133   5.374   1.720   1.394
 8930SOL    HW127134   5.427   1.730   1.310
 8930SOL    HW227135   5.347   1.810   1.428
 8931SOL     OW27136   5.565   0.175   0.963
 8931SOL    HW127137   5.604   0.090   0.927
 8931SOL    HW227138   5.467   0.177   0.944
 8932SOL     OW27139   3.987   0.326   0.720
 8932SOL    HW127140   3.908   0.377   0.686
 8932SOL    HW227141   3.978   0.311   0.818
 8933SOL     OW27142   4.546   1.002   1.372
 8933SOL    HW127143   4.586   1.001   1.280
 8933SOL    HW227144   4.556   1.094   1.412
 8934SOL     OW27145   4.096   1.288   1.490
 8934SOL    HW127146   4.083   1.381   1.456
 8934SOL    HW227147   4.012   1.236   1.477
 8935SOL     OW27148   5.338   1.292   1.289
 8935SOL    HW127149   5.398   1.295   1.369
 8935SOL    HW227150   5.263   1.356   1.302
 8936SOL     OW27151   4.763   1.098   0.696
 8936SOL    HW127152   4.693   1.051   0.750
 8936SOL    HW227153   4.822   1.030   0.653
 8937SOL     OW27154   4.738   0.236   0.971
 8937SOL    HW127155   4.730   0.200   0.878
 8937SOL    HW227156   4.736   0.160   1.036
 8938SOL     OW27157   4.314   1.487   0.491
 8938SOL    HW127158   4.356   1.429   0.421
 8938SOL    HW227159   4.270   1.566   0.447
 8939SOL     OW27160   5.433   0.385   1.381
 8939SOL    HW127161   5.506   0.454   1.385
 8939SOL    HW227162   5.461   0.310   1.322
 8940SOL     OW27163   3.829   1.013   1.726
 8940SOL    HW127164   3.752   0.980   1.780
 8940SOL    HW227165   3.914   0.983   1.768
 8941SOL     OW27166   4.396   0.203   1.489
 8941SOL    HW127167   4.486   0.187   1.449
 8941SOL    HW227168   4.404   0.208   1.588
 8942SOL     OW27169   5.164   0.856   1.398
 8942SOL    HW127170   5.107   0.908   1.335
 8942SOL    HW227171   5.260   0.868   1.374
 8943SOL     OW27172   4.337   0.842   1.431
 8943SOL    HW127173   4.393   0.923   1.414
 8943SOL    HW227174   4.396   0.762   1.434
 8944SOL     OW27175   5.217   1.767   0.959
 8944SOL    HW127176   5.250   1.831   0.890
 8944SOL    HW227177   5.283   1.761   1.034
 8945SOL     OW27178   4.440   0.565   1.708
 8945SOL    HW127179   4.459   0.630   1.782
 8945SOL    HW227180   4.500   0.485   1.717
 8946SOL     OW27181   5.174   1.220   1.633
 8946SOL    HW127182   5.165   1.210   1.732
 8946SOL    HW227183   5.270   1.213   1.607
 8947SOL     OW27184   4.114   1.741   1.560
 8947SOL    HW127185   4.023   1.782   1.558
 8947SOL    HW227186   4.107   1.647   1.592
 8948SOL     OW27187   5.398   0.883   1.254
 8948SOL    HW127188   5.371   0.794   1.217
 8948SOL    HW227189   5.399   0.951   1.181
 8949SOL     OW27190   4.949   0.325   0.449
 8949SOL    HW127191   5.014   0.251   0.438
 8949SOL    HW227192   4.969   0.375   0.533
 8950SOL     OW27193   4.318   0.745   0.652
 8950SOL    HW127194   4.368   0.830   0.633
 8950SOL    HW227195   4.230   0.747   0.604
 8951SOL     OW27196   5.501   0.342   1.642
 8951SOL    HW127197   5.484   0.373   1.548
 8951SOL    HW227198   5.417   0.305   1.680
 8952SOL     OW27199   5.454   0.934   1.517
 8952SOL    HW127200   5.492   1.025   1.532
 8952SOL    HW227201   5.446   0.917   1.418
 8953SOL     OW27202   4.385   1.790   0.953
 8953SOL    HW127203   4.339   1.878   0.940
 8953SOL    HW227204   4.484   1.802   0.946
 8954SOL     OW27205   4.583   0.956   0.861
 8954SOL    HW127206   4.637   0.887   0.909
 8954SOL    HW227207   4.551   1.025   0.927
 8955SOL     OW27208   5.585   1.569   0.851
 8955SOL    HW127209   5.514   1.557   0.781
 8955SOL    HW227210   5.586   1.490   0.911
 8956SOL     OW27211   3.945   1.314   1.844
 8956SOL    HW127212   3.880   1.241   1.823
 8956SOL    HW227213   3.949   1.328   1.942
 8957SOL     OW27214   3.803   1.240   0.653
 8957SOL    HW127215   3.802   1.193   0.741
 8957SOL    HW227216   3.885   1.212   0.602
 8958SOL     OW27217   4.396   1.391   1.624
 8958SOL    HW127218   4.318   1.341   1.662
 8958SOL    HW227219   4.393   1.486   1.655
 8959SOL     OW27220   5.548   0.192   1.227
 8959SOL    HW127221   5.544   0.102   1.271
 8959SOL    HW227222   5.551   0.181   1.128
 8960SOL     OW27223   4.152   0.424   0.520
 8960SOL    HW127224   4.182   0.352   0.458
 8960SOL    HW227225   4.113   0.384   0.603
 8961SOL     OW27226   5.429   1.487   1.104
 8961SOL    HW127227   5.336   1.462   1.077
 8961SOL    HW227228   5.455   1.437   1.186
 8962SOL     OW27229   4.041   0.547   1.280
 8962SOL    HW127230   4.079   0.488   1.352
 8962SOL    HW227231   4.081   0.521   1.192
 8963SOL     OW27232   4.536   1.586   0.687
 8963SOL    HW127233   4.568   1.596   0.593
 8963SOL    HW227234   4.457   1.524   0.689
 8964SOL     OW27235   5.148   0.214   1.112
 8964SOL    HW127236   5.200   0.149   1.167
 8964SOL    HW227237   5.099   0.277   1.173
 8965SOL     OW27238   4.725   0.034   1.154
 8965SOL    HW127239   4.662  -0.038   1.123
 8965SOL    HW227240   4.818  -0.002   1.154
 8966SOL     OW27241   4.342   1.567   1.284
 8966SOL    HW127242   4.337   1.649   1.341
 8966SOL    HW227243   4.431   1.564   1.239
 8967SOL     OW27244   5.024   0.453   0.691
 8967SOL    HW127245   4.965   0.533   0.695
 8967SOL    HW227246   5.039   0.418   0.784
 8968SOL     OW27247   5.317   0.221   0.882
 8968SOL    HW127248   5.233   0.220   0.936
 8968SOL    HW227249   5.319   0.304   0.826
 8969SOL     OW27250   4.599   1.646   0.337
 8969SOL    HW127251   4.522   1.611   0.283
 8969SOL    HW227252   4.567   1.717   0.399
 8970SOL     OW27253   3.954   0.628   1.975
 8970SOL    HW127254   3.861   0.626   2.012
 8970SOL    HW227255   3.955   0.589   1.883
 8971SOL     OW27256   3.949   0.275   2.858
 8971SOL    HW127257   3.984   0.258   2.950
 8971SOL    HW227258   3.861   0.230   2.846
 8972SOL     OW27259   3.743   0.368   2.509
 8972SOL    HW127260   3.661   0.411   2.548
 8972SOL    HW227261   3.715   0.295   2.446
 8973SOL     OW27262   4.293   1.275   3.027
 8973SOL    HW127263   4.200   1.268   2.990
 8973SOL    HW227264   4.304   1.364   3.071
 8974SOL     OW27265   5.279   1.511   2.565
 8974SOL    HW127266   5.222   1.495   2.646
 8974SOL    HW227267   5.220   1.521   2.485
 8975SOL     OW27268   4.859   0.703   2.579
 8975SOL    HW127269   4.916   0.781   2.554
 8975SOL    HW227270   4.799   0.729   2.655
 8976SOL     OW27271   5.479   0.607   2.093
 8976SOL    HW127272   5.467   0.594   1.994
 8976SOL    HW227273   5.449   0.526   2.142
 8977SOL     OW27274   4.492   1.144   2.885
 8977SOL    HW127275   4.414   1.161   2.945
 8977SOL    HW227276   4.526   1.231   2.849
 8978SOL     OW27277   4.574   0.798   3.685
 8978SOL    HW127278   4.570   0.874   3.750
 8978SOL    HW227279   4.596   0.834   3.594
 8979SOL     OW27280   4.409   1.012   2.527
 8979SOL    HW127281   4.478   0.996   2.597
 8979SOL    HW227282   4.336   1.069   2.565
 8980SOL     OW27283   4.410   1.161   3.665
 8980SOL    HW127284   4.470   1.240   3.679
 8980SOL    HW227285   4.324   1.192   3.624
 8981SOL     OW27286   4.059   1.435   2.923
 8981SOL    HW127287   3.981   1.404   2.870
 8981SOL    HW227288   4.117   1.493   2.866
 8982SOL     OW27289   5.184   1.505   3.201
 8982SOL    HW127290   5.208   1.599   3.227
 8982SOL    HW227291   5.168   1.451   3.283
 8983SOL     OW27292   4.162   0.392   3.361
 8983SOL    HW127293   4.244   0.336   3.370
 8983SOL    HW227294   4.081   0.334   3.365
 8984SOL     OW27295   5.327   0.447   2.599
 8984SOL    HW127296   5.253   0.493   2.549
 8984SOL    HW227297   5.378   0.515   2.652
 8985SOL     OW27298   3.955   1.713   2.345
 8985SOL    HW127299   3.989   1.790   2.399
 8985SOL    HW227300   3.999   1.713   2.255
 8986SOL     OW27301   4.851   1.341   3.552
 8986SOL    HW127302   4.898   1.341   3.640
 8986SOL    HW227303   4.803   1.254   3.541
 8987SOL     OW27304   3.954   1.434   2.400
 8987SOL    HW127305   3.928   1.530   2.400
 8987SOL    HW227306   3.883   1.380   2.445
 8988SOL     OW27307   3.964   1.091   2.748
 8988SOL    HW127308   3.978   1.007   2.800
 8988SOL    HW227309   3.909   1.155   2.803
 8989SOL     OW27310   4.344   1.786   3.301
 8989SOL    HW127311   4.252   1.769   3.336
 8989SOL    HW227312   4.372   1.878   3.327
 8990SOL     OW27313   4.330   0.964   1.985
 8990SOL    HW127314   4.337   1.048   1.931
 8990SOL    HW227315   4.376   0.977   2.073
 8991SOL     OW27316   5.318   0.114   3.342
 8991SOL    HW127317   5.300   0.181   3.270
 8991SOL    HW227318   5.315   0.160   3.431
 8992SOL     OW27319   3.846   0.643   2.425
 8992SOL    HW127320   3.801   0.555   2.442
 8992SOL    HW227321   3.845   0.697   2.509
 8993SOL     OW27322   5.566   1.767   2.221
 8993SOL    HW127323   5.620   1.738   2.301
 8993SOL    HW227324   5.596   1.857   2.192
 8994SOL     OW27325   3.751   1.596   1.979
 8994SOL    HW127326   3.732   1.500   2.000
 8994SOL    HW227327   3.718   1.654   2.054
 8995SOL     OW27328   5.413   0.922   2.474
 8995SOL    HW127329   5.508   0.893   2.482
 8995SOL    HW227330   5.405   0.987   2.399
 8996SOL     OW27331   5.365   1.108   2.294
 8996SOL    HW127332   5.451   1.110   2.242
 8996SOL    HW227333   5.379   1.155   2.382
 8997SOL     OW27334   3.837   0.737   3.459
 8997SOL    HW127335   3.925   0.724   3.504
 8997SOL    HW227336   3.824   0.834   3.437
 8998SOL     OW27337   4.337   1.365   2.588
 8998SOL    HW127338   4.288   1.278   2.597
 8998SOL    HW227339   4.314   1.408   2.501
 8999SOL     OW27340   5.017   1.228   3.285
 8999SOL    HW127341   5.054   1.155   3.227
 8999SOL    HW227342   5.069   1.233   3.370
 9000SOL     OW27343   4.533   0.004   2.364
 9000SOL    HW127344   4.573   0.095   2.355
 9000SOL    HW227345   4.433   0.012   2.370
 9001SOL     OW27346   3.921   0.976   3.126
 9001SOL    HW127347   4.010   0.931   3.112
 9001SOL    HW227348   3.848   0.911   3.107
 9002SOL     OW27349   5.249   0.999   2.052
 9002SOL    HW127350   5.186   0.923   2.065
 9002SOL    HW227351   5.297   1.017   2.138
 9003SOL     OW27352   4.911   1.792   3.478
 9003SOL    HW127353   4.935   1.852   3.402
 9003SOL    HW227354   4.918   1.697   3.448
 9004SOL     OW27355   4.041   0.251   3.663
 9004SOL    HW127356   4.112   0.322   3.669
 9004SOL    HW227357   3.953   0.290   3.691
 9005SOL     OW27358   5.190   1.417   2.815
 9005SOL    HW127359   5.131   1.423   2.895
 9005SOL    HW227360   5.175   1.329   2.769
 9006SOL     OW27361   5.391   1.714   2.434
 9006SOL    HW127362   5.350   1.691   2.346
 9006SOL    HW227363   5.373   1.640   2.499
 9007SOL     OW27364   4.322   0.729   2.132
 9007SOL    HW127365   4.346   0.798   2.064
 9007SOL    HW227366   4.244   0.762   2.186
 9008SOL     OW27367   5.005   0.345   2.806
 9008SOL    HW127368   4.919   0.295   2.793
 9008SOL    HW227369   5.067   0.291   2.862
 9009SOL     OW27370   5.300   1.662   2.169
 9009SOL    HW127371   5.389   1.708   2.172
 9009SOL    HW227372   5.279   1.638   2.074
 9010SOL     OW27373   4.531   0.605   3.327
 9010SOL    HW127374   4.484   0.602   3.416
 9010SOL    HW227375   4.480   0.550   3.261
 9011SOL     OW27376   5.118   0.469   3.536
 9011SOL    HW127377   5.098   0.512   3.624
 9011SOL    HW227378   5.196   0.407   3.545
 9012SOL     OW27379   4.697   0.890   3.434
 9012SOL    HW127380   4.743   0.806   3.405
 9012SOL    HW227381   4.641   0.924   3.359
 9013SOL     OW27382   4.715   0.410   3.104
 9013SOL    HW127383   4.638   0.444   3.158
 9013SOL    HW227384   4.681   0.359   3.025
 9014SOL     OW27385   4.765   0.701   2.291
 9014SOL    HW127386   4.791   0.697   2.387
 9014SOL    HW227387   4.680   0.650   2.277
 9015SOL     OW27388   3.800   0.811   2.651
 9015SOL    HW127389   3.899   0.799   2.660
 9015SOL    HW227390   3.776   0.906   2.672
 9016SOL     OW27391   3.854   1.821   3.433
 9016SOL    HW127392   3.844   1.806   3.532
 9016SOL    HW227393   3.768   1.857   3.397
 9017SOL     OW27394   4.589   0.348   2.057
 9017SOL    HW127395   4.648   0.411   2.008
 9017SOL    HW227396   4.608   0.254   2.028
 9018SOL     OW27397   5.443   0.585   3.693
 9018SOL    HW127398   5.417   0.674   3.657
 9018SOL    HW227399   5.441   0.517   3.620
 9019SOL     OW27400   5.086   1.144   2.407
 9019SOL    HW127401   5.169   1.115   2.359
 9019SOL    HW227402   5.037   1.211   2.351
 9020SOL     OW27403   4.274   0.196   2.747
 9020SOL    HW127404   4.269   0.191   2.847
 9020SOL    HW227405   4.276   0.292   2.718
 9021SOL     OW27406   4.732   1.456   2.339
 9021SOL    HW127407   4.686   1.528   2.287
 9021SOL    HW227408   4.728   1.476   2.437
 9022SOL     OW27409   4.075   1.801   2.715
 9022SOL    HW127410   4.125   1.715   2.721
 9022SOL    HW227411   4.140   1.878   2.712
 9023SOL     OW27412   5.519   1.066   2.735
 9023SOL    HW127413   5.457   1.051   2.659
 9023SOL    HW227414   5.467   1.077   2.820
 9024SOL     OW27415   4.951   1.550   3.368
 9024SOL    HW127416   4.957   1.473   3.432
 9024SOL    HW227417   4.899   1.524   3.288
 9025SOL     OW27418   4.045   0.943   2.104
 9025SOL    HW127419   4.127   0.982   2.062
 9025SOL    HW227420   4.018   0.861   2.055
 9026SOL     OW27421   5.182   0.735   2.590
 9026SOL    HW127422   5.177   0.670   2.665
 9026SOL    HW227423   5.262   0.794   2.603
 9027SOL     OW27424   4.185   1.266   3.589
 9027SOL    HW127425   4.135   1.267   3.503
 9027SOL    HW227426   4.122   1.248   3.665
 9028SOL     OW27427   4.835   1.776   2.099
 9028SOL    HW127428   4.775   1.714   2.149
 9028SOL    HW227429   4.866   1.732   2.014
 9029SOL     OW27430   3.926   0.285   3.360
 9029SOL    HW127431   3.846   0.345   3.347
 9029SOL    HW227432   3.916   0.236   3.446
 9030SOL     OW27433   5.356   1.377   1.943
 9030SOL    HW127434   5.324   1.471   1.933
 9030SOL    HW227435   5.280   1.314   1.931
 9031SOL     OW27436   4.188   1.743   2.185
 9031SOL    HW127437   4.221   1.782   2.271
 9031SOL    HW227438   4.264   1.736   2.120
 9032SOL     OW27439   5.124   0.107   2.288
 9032SOL    HW127440   5.100   0.070   2.198
 9032SOL    HW227441   5.223   0.123   2.292
 9033SOL     OW27442   3.973   1.785   3.103
 9033SOL    HW127443   4.030   1.720   3.153
 9033SOL    HW227444   3.957   1.752   3.010
 9034SOL     OW27445   4.664   1.698   2.766
 9034SOL    HW127446   4.744   1.641   2.787
 9034SOL    HW227447   4.615   1.658   2.689
 9035SOL     OW27448   4.106   0.700   2.342
 9035SOL    HW127449   4.151   0.610   2.339
 9035SOL    HW227450   4.012   0.689   2.375
 9036SOL     OW27451   5.271   0.222   3.591
 9036SOL    HW127452   5.266   0.259   3.683
 9036SOL    HW227453   5.199   0.153   3.579
 9037SOL     OW27454   4.338   0.122   1.979
 9037SOL    HW127455   4.436   0.100   1.986
 9037SOL    HW227456   4.307   0.105   1.886
 9038SOL     OW27457   4.505   0.264   3.611
 9038SOL    HW127458   4.572   0.203   3.654
 9038SOL    HW227459   4.432   0.283   3.676
 9039SOL     OW27460   4.612   1.514   3.057
 9039SOL    HW127461   4.589   1.489   2.963
 9039SOL    HW227462   4.673   1.445   3.096
 9040SOL     OW27463   5.075   0.590   3.295
 9040SOL    HW127464   5.103   0.547   3.380
 9040SOL    HW227465   5.100   0.686   3.296
 9041SOL     OW27466   4.527   1.402   2.786
 9041SOL    HW127467   4.617   1.416   2.744
 9041SOL    HW227468   4.456   1.404   2.715
 9042SOL     OW27469   4.646   0.503   2.761
 9042SOL    HW127470   4.621   0.494   2.665
 9042SOL    HW227471   4.694   0.421   2.792
 9043SOL     OW27472   4.263   0.064   2.374
 9043SOL    HW127473   4.182   0.065   2.432
 9043SOL    HW227474   4.266   0.147   2.319
 9044SOL     OW27475   5.158   1.188   1.903
 9044SOL    HW127476   5.190   1.112   1.960
 9044SOL    HW227477   5.066   1.215   1.933
 9045SOL     OW27478   4.021   0.035   2.033
 9045SOL    HW127479   4.070   0.119   2.012
 9045SOL    HW227480   4.083  -0.030   2.078
 9046SOL     OW27481   4.659   0.236   2.342
 9046SOL    HW127482   4.611   0.277   2.264
 9046SOL    HW227483   4.758   0.234   2.323
 9047SOL     OW27484   4.800   0.683   3.326
 9047SOL    HW127485   4.720   0.622   3.329
 9047SOL    HW227486   4.881   0.630   3.302
 9048SOL     OW27487   4.951   1.570   2.655
 9048SOL    HW127488   4.972   1.644   2.590
 9048SOL    HW227489   5.019   1.570   2.728
 9049SOL     OW27490   4.183   1.152   2.603
 9049SOL    HW127491   4.112   1.125   2.668
 9049SOL    HW227492   4.157   1.124   2.510
 9050SOL     OW27493   4.995   1.797   2.453
 9050SOL    HW127494   5.039   1.861   2.389
 9050SOL    HW227495   4.945   1.849   2.523
 9051SOL     OW27496   4.756   0.549   1.878
 9051SOL    HW127497   4.715   0.631   1.839
 9051SOL    HW227498   4.820   0.575   1.951
 9052SOL     OW27499   3.802   0.556   3.248
 9052SOL    HW127500   3.894   0.555   3.207
 9052SOL    HW227501   3.796   0.630   3.315
 9053SOL     OW27502   4.285   0.222   3.009
 9053SOL    HW127503   4.323   0.138   3.046
 9053SOL    HW227504   4.197   0.241   3.053
 9054SOL     OW27505   4.590   0.454   2.504
 9054SOL    HW127506   4.558   0.526   2.442
 9054SOL    HW227507   4.614   0.373   2.451
 9055SOL     OW27508   4.741   0.039   2.615
 9055SOL    HW127509   4.669   0.044   2.546
 9055SOL    HW227510   4.717  -0.030   2.684
 9056SOL     OW27511   5.153   1.173   2.729
 9056SOL    HW127512   5.098   1.089   2.722
 9056SOL    HW227513   5.179   1.202   2.637
 9057SOL     OW27514   5.190   0.590   2.854
 9057SOL    HW127515   5.160   0.495   2.861
 9057SOL    HW227516   5.263   0.606   2.920
 9058SOL     OW27517   5.581   0.833   2.239
 9058SOL    HW127518   5.623   0.769   2.303
 9058SOL    HW227519   5.543   0.782   2.161
 9059SOL     OW27520   4.212   1.385   2.036
 9059SOL    HW127521   4.125   1.370   2.083
 9059SOL    HW227522   4.195   1.411   1.941
 9060SOL     OW27523   5.388   1.280   2.519
 9060SOL    HW127524   5.487   1.288   2.533
 9060SOL    HW227525   5.343   1.364   2.550
 9061SOL     OW27526   5.114   0.575   1.940
 9061SOL    HW127527   5.060   0.554   2.021
 9061SOL    HW227528   5.205   0.534   1.949
 9062SOL     OW27529   4.251   0.256   2.190
 9062SOL    HW127530   4.278   0.197   2.115
 9062SOL    HW227531   4.251   0.351   2.159
 9063SOL     OW27532   5.478   1.223   3.450
 9063SOL    HW127533   5.569   1.184   3.437
 9063SOL    HW227534   5.486   1.319   3.474
 9064SOL     OW27535   4.788   1.347   3.202
 9064SOL    HW127536   4.708   1.324   3.257
 9064SOL    HW227537   4.871   1.321   3.251
 9065SOL     OW27538   5.316   1.629   3.487
 9065SOL    HW127539   5.343   1.663   3.397
 9065SOL    HW227540   5.395   1.591   3.533
 9066SOL     OW27541   4.835   1.195   2.962
 9066SOL    HW127542   4.795   1.239   3.043
 9066SOL    HW227543   4.794   1.232   2.879
 9067SOL     OW27544   5.362   1.099   2.941
 9067SOL    HW127545   5.367   1.180   3.000
 9067SOL    HW227546   5.276   1.101   2.890
 9068SOL     OW27547   4.639   0.089   3.264
 9068SOL    HW127548   4.664   0.069   3.169
 9068SOL    HW227549   4.711   0.145   3.306
 9069SOL     OW27550   4.704   1.116   3.581
 9069SOL    HW127551   4.605   1.122   3.591
 9069SOL    HW227552   4.727   1.036   3.525
 9070SOL     OW27553   4.429   1.050   2.230
 9070SOL    HW127554   4.415   1.057   2.329
 9070SOL    HW227555   4.513   0.999   2.212
 9071SOL     OW27556   4.134   0.813   3.113
 9071SOL    HW127557   4.220   0.825   3.163
 9071SOL    HW227558   4.092   0.726   3.140
 9072SOL     OW27559   4.998   0.386   3.124
 9072SOL    HW127560   5.019   0.460   3.188
 9072SOL    HW227561   4.909   0.403   3.081
 9073SOL     OW27562   3.788   1.564   3.193
 9073SOL    HW127563   3.742   1.646   3.159
 9073SOL    HW227564   3.886   1.583   3.202
 9074SOL     OW27565   4.091   1.100   2.363
 9074SOL    HW127566   4.084   1.183   2.307
 9074SOL    HW227567   4.095   1.020   2.303
 9075SOL     OW27568   4.290   0.537   2.727
 9075SOL    HW127569   4.302   0.603   2.653
 9075SOL    HW227570   4.336   0.571   2.810
 9076SOL     OW27571   4.976   1.348   2.250
 9076SOL    HW127572   5.026   1.425   2.290
 9076SOL    HW227573   4.881   1.350   2.282
 9077SOL     OW27574   4.996   1.445   3.004
 9077SOL    HW127575   5.043   1.458   3.091
 9077SOL    HW227576   4.930   1.371   3.013
 9078SOL     OW27577   5.306   0.639   2.334
 9078SOL    HW127578   5.275   0.700   2.407
 9078SOL    HW227579   5.356   0.691   2.265
 9079SOL     OW27580   4.078   1.510   3.191
 9079SOL    HW127581   4.057   1.466   3.104
 9079SOL    HW227582   4.175   1.536   3.194
 9080SOL     OW27583   4.126   0.751   3.460
 9080SOL    HW127584   4.194   0.806   3.413
 9080SOL    HW227585   4.166   0.663   3.487
 9081SOL     OW27586   5.311   0.779   3.532
 9081SOL    HW127587   5.219   0.817   3.527
 9081SOL    HW227588   5.371   0.826   3.467
 9082SOL     OW27589   4.737   0.105   3.632
 9082SOL    HW127590   4.743   0.190   3.580
 9082SOL    HW227591   4.769   0.029   3.575
 9083SOL     OW27592   4.228   0.050   3.602
 9083SOL    HW127593   4.186  -0.007   3.532
 9083SOL    HW227594   4.162   0.119   3.634
 9084SOL     OW27595   4.297   0.870   2.891
 9084SOL    HW127596   4.341   0.959   2.882
 9084SOL    HW227597   4.234   0.870   2.968
 9085SOL     OW27598   5.084   0.862   2.907
 9085SOL    HW127599   5.009   0.862   2.841
 9085SOL    HW227600   5.121   0.770   2.916
 9086SOL     OW27601   4.933   0.525   2.137
 9086SOL    HW127602   4.946   0.441   2.191
 9086SOL    HW227603   4.904   0.599   2.197
 9087SOL     OW27604   4.031   0.213   3.093
 9087SOL    HW127605   4.008   0.250   3.183
 9087SOL    HW227606   4.001   0.118   3.087
 9088SOL     OW27607   3.761   1.310   3.144
 9088SOL    HW127608   3.814   1.261   3.212
 9088SOL    HW227609   3.783   1.408   3.149
 9089SOL     OW27610   4.456   0.634   2.926
 9089SOL    HW127611   4.515   0.608   2.850
 9089SOL    HW227612   4.428   0.730   2.915
 9090SOL     OW27613   5.452   0.935   3.716
 9090SOL    HW127614   5.406   0.928   3.627
 9090SOL    HW227615   5.390   0.979   3.782
 9091SOL     OW27616   4.031   0.063   2.480
 9091SOL    HW127617   4.020   0.157   2.513
 9091SOL    HW227618   4.026   0.000   2.557
 9092SOL     OW27619   5.346   0.367   2.236
 9092SOL    HW127620   5.348   0.291   2.300
 9092SOL    HW227621   5.298   0.444   2.276
 9093SOL     OW27622   4.747   0.766   2.828
 9093SOL    HW127623   4.762   0.787   2.924
 9093SOL    HW227624   4.717   0.671   2.819
 9094SOL     OW27625   4.704   1.573   3.562
 9094SOL    HW127626   4.684   1.617   3.474
 9094SOL    HW227627   4.743   1.482   3.546
 9095SOL     OW27628   5.583   1.518   3.467
 9095SOL    HW127629   5.597   1.545   3.372
 9095SOL    HW227630   5.666   1.540   3.520
 9096SOL     OW27631   4.074   0.898   3.666
 9096SOL    HW127632   4.150   0.942   3.714
 9096SOL    HW227633   4.109   0.851   3.584
 9097SOL     OW27634   5.264   0.274   1.987
 9097SOL    HW127635   5.203   0.199   2.010
 9097SOL    HW227636   5.286   0.326   2.070
 9098SOL     OW27637   5.027   0.838   1.904
 9098SOL    HW127638   5.061   0.745   1.919
 9098SOL    HW227639   5.045   0.865   1.809
 9099SOL     OW27640   4.792   1.333   2.711
 9099SOL    HW127641   4.799   1.249   2.656
 9099SOL    HW227642   4.854   1.402   2.675
 9100SOL     OW27643   4.043   0.810   2.811
 9100SOL    HW127644   4.136   0.846   2.816
 9100SOL    HW227645   4.037   0.725   2.863
 9101SOL     OW27646   4.063   0.509   2.868
 9101SOL    HW127647   4.011   0.426   2.851
 9101SOL    HW227648   4.140   0.514   2.804
 9102SOL     OW27649   4.862   0.380   3.540
 9102SOL    HW127650   4.817   0.443   3.604
 9102SOL    HW227651   4.955   0.411   3.523
 9103SOL     OW27652   4.884   0.207   3.339
 9103SOL    HW127653   4.884   0.271   3.416
 9103SOL    HW227654   4.912   0.255   3.256
 9104SOL     OW27655   3.732   1.326   2.062
 9104SOL    HW127656   3.639   1.347   2.031
 9104SOL    HW227657   3.742   1.227   2.075
 9105SOL     OW27658   3.812   1.801   2.789
 9105SOL    HW127659   3.770   1.715   2.762
 9105SOL    HW227660   3.906   1.804   2.755
 9106SOL     OW27661   4.228   1.568   2.772
 9106SOL    HW127662   4.294   1.642   2.781
 9106SOL    HW227663   4.272   1.489   2.730
 9107SOL     OW27664   4.726   0.796   3.100
 9107SOL    HW127665   4.767   0.764   3.186
 9107SOL    HW227666   4.630   0.769   3.097
 9108SOL     OW27667   3.764   0.544   2.976
 9108SOL    HW127668   3.849   0.511   2.935
 9108SOL    HW227669   3.777   0.559   3.074
 9109SOL     OW27670   3.913   0.520   3.584
 9109SOL    HW127671   3.972   0.480   3.514
 9109SOL    HW227672   3.855   0.591   3.543
 9110SOL     OW27673   5.093   0.950   3.522
 9110SOL    HW127674   5.132   1.039   3.542
 9110SOL    HW227675   5.103   0.930   3.425
 9111SOL     OW27676   4.539   0.572   2.187
 9111SOL    HW127677   4.546   0.483   2.141
 9111SOL    HW227678   4.445   0.606   2.179
 9112SOL     OW27679   5.381   0.604   3.068
 9112SOL    HW127680   5.343   0.535   3.130
 9112SOL    HW227681   5.463   0.568   3.024
 9113SOL     OW27682   3.976   1.564   3.606
 9113SOL    HW127683   3.946   1.621   3.682
 9113SOL    HW227684   3.969   1.467   3.632
 9114SOL     OW27685   4.395   0.464   3.131
 9114SOL    HW127686   4.361   0.375   3.101
 9114SOL    HW227687   4.421   0.518   3.051
 9115SOL     OW27688   4.654   1.678   3.327
 9115SOL    HW127689   4.630   1.660   3.232
 9115SOL    HW227690   4.684   1.772   3.337
 9116SOL     OW27691   4.197   0.500   2.053
 9116SOL    HW127692   4.258   0.580   2.057
 9116SOL    HW227693   4.102   0.531   2.060
 9117SOL     OW27694   3.883   1.137   3.328
 9117SOL    HW127695   3.905   1.076   3.404
 9117SOL    HW227696   3.893   1.088   3.242
 9118SOL     OW27697   5.071   1.059   3.096
 9118SOL    HW127698   5.095   0.996   3.022
 9118SOL    HW227699   4.981   1.099   3.078
 9119SOL     OW27700   5.026   0.855   2.171
 9119SOL    HW127701   4.940   0.824   2.213
 9119SOL    HW227702   5.022   0.841   2.072
 9120SOL     OW27703   5.483   1.747   3.016
 9120SOL    HW127704   5.544   1.777   2.943
 9120SOL    HW227705   5.445   1.658   2.994
 9121SOL     OW27706   4.976   1.731   2.990
 9121SOL    HW127707   5.060   1.736   2.936
 9121SOL    HW227708   4.953   1.635   3.008
 9122SOL     OW27709   3.807   1.258   2.884
 9122SOL    HW127710   3.802   1.257   2.984
 9122SOL    HW227711   3.724   1.217   2.846
 9123SOL     OW27712   4.412   1.662   3.578
 9123SOL    HW127713   4.356   1.743   3.587
 9123SOL    HW227714   4.464   1.666   3.492
 9124SOL     OW27715   5.450   0.135   2.385
 9124SOL    HW127716   5.523   0.118   2.318
 9124SOL    HW227717   5.419   0.048   2.423
 9125SOL     OW27718   5.112   1.573   2.339
 9125SOL    HW127719   5.179   1.585   2.265
 9125SOL    HW227720   5.072   1.662   2.362
 9126SOL     OW27721   3.854   1.794   3.713
 9126SOL    HW127722   3.813   1.720   3.766
 9126SOL    HW227723   3.918   1.845   3.771
 9127SOL     OW27724   5.004   0.927   2.534
 9127SOL    HW127725   5.064   0.846   2.536
 9127SOL    HW227726   5.044   0.996   2.474
 9128SOL     OW27727   4.554   1.273   3.284
 9128SOL    HW127728   4.549   1.306   3.379
 9128SOL    HW227729   4.468   1.292   3.238
 9129SOL     OW27730   4.396   1.616   2.016
 9129SOL    HW127731   4.405   1.626   1.917
 9129SOL    HW227732   4.356   1.527   2.037
 9130SOL     OW27733   5.374   1.720   3.256
 9130SOL    HW127734   5.427   1.730   3.172
 9130SOL    HW227735   5.347   1.810   3.290
 9131SOL     OW27736   5.565   0.175   2.825
 9131SOL    HW127737   5.604   0.090   2.789
 9131SOL    HW227738   5.467   0.177   2.806
 9132SOL     OW27739   3.987   0.326   2.582
 9132SOL    HW127740   3.908   0.377   2.548
 9132SOL    HW227741   3.978   0.311   2.680
 9133SOL     OW27742   4.918   1.612   1.893
 9133SOL    HW127743   4.924   1.519   1.930
 9133SOL    HW227744   4.859   1.612   1.813
 9134SOL     OW27745   4.546   1.002   3.234
 9134SOL    HW127746   4.586   1.001   3.142
 9134SOL    HW227747   4.556   1.094   3.274
 9135SOL     OW27748   4.640   0.910   2.153
 9135SOL    HW127749   4.703   0.948   2.085
 9135SOL    HW227750   4.680   0.827   2.192
 9136SOL     OW27751   5.228   1.607   1.906
 9136SOL    HW127752   5.136   1.644   1.913
 9136SOL    HW227753   5.266   1.627   1.816
 9137SOL     OW27754   4.096   1.288   3.352
 9137SOL    HW127755   4.083   1.381   3.318
 9137SOL    HW227756   4.012   1.236   3.339
 9138SOL     OW27757   5.338   1.292   3.151
 9138SOL    HW127758   5.398   1.295   3.231
 9138SOL    HW227759   5.263   1.356   3.164
 9139SOL     OW27760   4.763   1.098   2.558
 9139SOL    HW127761   4.693   1.051   2.612
 9139SOL    HW227762   4.822   1.030   2.515
 9140SOL     OW27763   4.738   0.236   2.833
 9140SOL    HW127764   4.730   0.200   2.740
 9140SOL    HW227765   4.736   0.160   2.898
 9141SOL     OW27766   4.314   1.487   2.353
 9141SOL    HW127767   4.356   1.429   2.283
 9141SOL    HW227768   4.270   1.566   2.309
 9142SOL     OW27769   5.433   0.385   3.243
 9142SOL    HW127770   5.506   0.454   3.247
 9142SOL    HW227771   5.461   0.310   3.184
 9143SOL     OW27772   3.979   1.348   2.152
 9143SOL    HW127773   3.883   1.349   2.125
 9143SOL    HW227774   3.991   1.401   2.236
 9144SOL     OW27775   3.829   1.013   3.588
 9144SOL    HW127776   3.752   0.980   3.642
 9144SOL    HW227777   3.914   0.983   3.630
 9145SOL     OW27778   4.396   0.203   3.351
 9145SOL    HW127779   4.486   0.187   3.311
 9145SOL    HW227780   4.404   0.208   3.450
 9146SOL     OW27781   3.799   0.345   1.895
 9146SOL    HW127782   3.707   0.317   1.866
 9146SOL    HW227783   3.830   0.422   1.839
 9147SOL     OW27784   5.164   0.856   3.260
 9147SOL    HW127785   5.107   0.908   3.197
 9147SOL    HW227786   5.260   0.868   3.236
 9148SOL     OW27787   3.796   0.166   2.180
 9148SOL    HW127788   3.779   0.249   2.126
 9148SOL    HW227789   3.886   0.129   2.158
 9149SOL     OW27790   4.907   1.335   1.981
 9149SOL    HW127791   4.808   1.324   1.983
 9149SOL    HW227792   4.941   1.350   2.074
 9150SOL     OW27793   4.337   0.842   3.293
 9150SOL    HW127794   4.393   0.923   3.276
 9150SOL    HW227795   4.396   0.762   3.296
 9151SOL     OW27796   5.217   1.767   2.821
 9151SOL    HW127797   5.250   1.831   2.752
 9151SOL    HW227798   5.283   1.761   2.896
 9152SOL     OW27799   4.440   0.565   3.570
 9152SOL    HW127800   4.459   0.630   3.644
 9152SOL    HW227801   4.500   0.485   3.579
 9153SOL     OW27802   5.174   1.220   3.495
 9153SOL    HW127803   5.165   1.210   3.594
 9153SOL    HW227804   5.270   1.213   3.469
 9154SOL     OW27805   4.114   1.741   3.422
 9154SOL    HW127806   4.023   1.782   3.420
 9154SOL    HW227807   4.107   1.647   3.454
 9155SOL     OW27808   5.398   0.883   3.116
 9155SOL    HW127809   5.371   0.794   3.079
 9155SOL    HW227810   5.399   0.951   3.043
 9156SOL     OW27811   4.949   0.325   2.311
 9156SOL    HW127812   5.014   0.251   2.300
 9156SOL    HW227813   4.969   0.375   2.395
 9157SOL     OW27814   4.318   0.745   2.514
 9157SOL    HW127815   4.368   0.830   2.495
 9157SOL    HW227816   4.230   0.747   2.466
 9158SOL     OW27817   5.501   0.342   3.504
 9158SOL    HW127818   5.484   0.373   3.410
 9158SOL    HW227819   5.417   0.305   3.542
 9159SOL     OW27820   5.454   0.934   3.379
 9159SOL    HW127821   5.492   1.025   3.394
 9159SOL    HW227822   5.446   0.917   3.280
 9160SOL     OW27823   4.583   1.374   1.878
 9160SOL    HW127824   4.537   1.389   1.966
 9160SOL    HW227825   4.627   1.459   1.848
 9161SOL     OW27826   4.385   1.790   2.815
 9161SOL    HW127827   4.339   1.878   2.802
 9161SOL    HW227828   4.484   1.802   2.808
 9162SOL     OW27829   4.583   0.956   2.723
 9162SOL    HW127830   4.637   0.887   2.771
 9162SOL    HW227831   4.551   1.025   2.789
 9163SOL     OW27832   4.807   0.984   1.949
 9163SOL    HW127833   4.784   1.037   1.867
 9163SOL    HW227834   4.888   0.928   1.930
 9164SOL     OW27835   5.585   1.569   2.713
 9164SOL    HW127836   5.514   1.557   2.643
 9164SOL    HW227837   5.586   1.490   2.773
 9165SOL     OW27838   3.945   1.314   3.706
 9165SOL    HW127839   3.880   1.241   3.685
 9165SOL    HW227840   3.949   1.328   3.804
 9166SOL     OW27841   3.803   1.240   2.515
 9166SOL    HW127842   3.802   1.193   2.603
 9166SOL    HW227843   3.885   1.212   2.464
 9167SOL     OW27844   4.396   1.391   3.486
 9167SOL    HW127845   4.318   1.341   3.524
 9167SOL    HW227846   4.393   1.486   3.517
 9168SOL     OW27847   5.548   0.192   3.089
 9168SOL    HW127848   5.544   0.102   3.133
 9168SOL    HW227849   5.551   0.181   2.990
 9169SOL     OW27850   4.152   0.424   2.382
 9169SOL    HW127851   4.182   0.352   2.320
 9169SOL    HW227852   4.113   0.384   2.465
 9170SOL     OW27853   5.429   1.487   2.966
 9170SOL    HW127854   5.336   1.462   2.939
 9170SOL    HW227855   5.455   1.437   3.048
 9171SOL     OW27856   4.041   0.547   3.142
 9171SOL    HW127857   4.079   0.488   3.214
 9171SOL    HW227858   4.081   0.521   3.054
 9172SOL     OW27859   4.536   1.586   2.549
 9172SOL    HW127860   4.568   1.596   2.455
 9172SOL    HW227861   4.457   1.524   2.551
 9173SOL     OW27862   5.148   0.214   2.974
 9173SOL    HW127863   5.200   0.149   3.029
 9173SOL    HW227864   5.099   0.277   3.035
 9174SOL     OW27865   4.725   0.034   3.016
 9174SOL    HW127866   4.662  -0.038   2.985
 9174SOL    HW227867   4.818  -0.002   3.016
 9175SOL     OW27868   4.494   1.330   2.163
 9175SOL    HW127869   4.448   1.243   2.180
 9175SOL    HW227870   4.585   1.327   2.204
 9176SOL     OW27871   4.342   1.567   3.146
 9176SOL    HW127872   4.337   1.649   3.203
 9176SOL    HW227873   4.431   1.564   3.101
 9177SOL     OW27874   5.076   0.052   2.030
 9177SOL    HW127875   5.111   0.011   1.946
 9177SOL    HW227876   4.986   0.014   2.050
 9178SOL     OW27877   5.024   0.453   2.553
 9178SOL    HW127878   4.965   0.533   2.557
 9178SOL    HW227879   5.039   0.418   2.646
 9179SOL     OW27880   5.317   0.221   2.744
 9179SOL    HW127881   5.233   0.220   2.798
 9179SOL    HW227882   5.319   0.304   2.688
 9180SOL     OW27883   3.763   1.077   2.162
 9180SOL    HW127884   3.862   1.066   2.153
 9180SOL    HW227885   3.723   0.991   2.194
 9181SOL     OW27886   4.599   1.646   2.199
 9181SOL    HW127887   4.522   1.611   2.145
 9181SOL    HW227888   4.567   1.717   2.261
 9182SOL     OW27889   3.954   0.628   3.837
 9182SOL    HW127890   3.861   0.626   3.874
 9182SOL    HW227891   3.955   0.589   3.745
 9183SOL     OW27892   3.949   0.275   4.720
 9183SOL    HW127893   3.984   0.258   4.812
 9183SOL    HW227894   3.861   0.230   4.708
 9184SOL     OW27895   3.743   0.368   4.371
 9184SOL    HW127896   3.661   0.411   4.410
 9184SOL    HW227897   3.715   0.295   4.308
 9185SOL     OW27898   4.293   1.275   4.889
 9185SOL    HW127899   4.200   1.268   4.852
 9185SOL    HW227900   4.304   1.364   4.933
 9186SOL     OW27901   5.279   1.511   4.427
 9186SOL    HW127902   5.222   1.495   4.508
 9186SOL    HW227903   5.220   1.521   4.347
 9187SOL     OW27904   4.859   0.703   4.441
 9187SOL    HW127905   4.916   0.781   4.416
 9187SOL    HW227906   4.799   0.729   4.517
 9188SOL     OW27907   5.479   0.607   3.955
 9188SOL    HW127908   5.467   0.594   3.856
 9188SOL    HW227909   5.449   0.526   4.004
 9189SOL     OW27910   4.492   1.144   4.747
 9189SOL    HW127911   4.414   1.161   4.807
 9189SOL    HW227912   4.526   1.231   4.711
 9190SOL     OW27913   4.574   0.798   5.547
 9190SOL    HW127914   4.570   0.874   5.612
 9190SOL    HW227915   4.596   0.834   5.456
 9191SOL     OW27916   4.409   1.012   4.389
 9191SOL    HW127917   4.478   0.996   4.459
 9191SOL    HW227918   4.336   1.069   4.427
 9192SOL     OW27919   4.410   1.161   5.527
 9192SOL    HW127920   4.470   1.240   5.541
 9192SOL    HW227921   4.324   1.192   5.486
 9193SOL     OW27922   4.059   1.435   4.785
 9193SOL    HW127923   3.981   1.404   4.732
 9193SOL    HW227924   4.117   1.493   4.728
 9194SOL     OW27925   5.184   1.505   5.063
 9194SOL    HW127926   5.208   1.599   5.089
 9194SOL    HW227927   5.168   1.451   5.145
 9195SOL     OW27928   4.162   0.392   5.223
 9195SOL    HW127929   4.244   0.336   5.232
 9195SOL    HW227930   4.081   0.334   5.227
 9196SOL     OW27931   5.327   0.447   4.461
 9196SOL    HW127932   5.253   0.493   4.411
 9196SOL    HW227933   5.378   0.515   4.514
 9197SOL     OW27934   3.955   1.713   4.207
 9197SOL    HW127935   3.989   1.790   4.261
 9197SOL    HW227936   3.999   1.713   4.117
 9198SOL     OW27937   4.851   1.341   5.414
 9198SOL    HW127938   4.898   1.341   5.502
 9198SOL    HW227939   4.803   1.254   5.403
 9199SOL     OW27940   3.954   1.434   4.262
 9199SOL    HW127941   3.928   1.530   4.262
 9199SOL    HW227942   3.883   1.380   4.307
 9200SOL     OW27943   3.964   1.091   4.610
 9200SOL    HW127944   3.978   1.007   4.662
 9200SOL    HW227945   3.909   1.155   4.665
 9201SOL     OW27946   4.344   1.786   5.163
 9201SOL    HW127947   4.252   1.769   5.198
 9201SOL    HW227948   4.372   1.878   5.189
 9202SOL     OW27949   4.330   0.964   3.847
 9202SOL    HW127950   4.337   1.048   3.793
 9202SOL    HW227951   4.376   0.977   3.935
 9203SOL     OW27952   5.318   0.114   5.204
 9203SOL    HW127953   5.300   0.181   5.132
 9203SOL    HW227954   5.315   0.160   5.293
 9204SOL     OW27955   3.846   0.643   4.287
 9204SOL    HW127956   3.801   0.555   4.304
 9204SOL    HW227957   3.845   0.697   4.371
 9205SOL     OW27958   5.566   1.767   4.083
 9205SOL    HW127959   5.620   1.738   4.163
 9205SOL    HW227960   5.596   1.857   4.054
 9206SOL     OW27961   3.751   1.596   3.841
 9206SOL    HW127962   3.732   1.500   3.862
 9206SOL    HW227963   3.718   1.654   3.916
 9207SOL     OW27964   5.413   0.922   4.336
 9207SOL    HW127965   5.508   0.893   4.344
 9207SOL    HW227966   5.405   0.987   4.261
 9208SOL     OW27967   5.365   1.108   4.156
 9208SOL    HW127968   5.451   1.110   4.104
 9208SOL    HW227969   5.379   1.155   4.244
 9209SOL     OW27970   3.837   0.737   5.321
 9209SOL    HW127971   3.925   0.724   5.366
 9209SOL    HW227972   3.824   0.834   5.299
 9210SOL     OW27973   4.337   1.365   4.450
 9210SOL    HW127974   4.288   1.278   4.459
 9210SOL    HW227975   4.314   1.408   4.363
 9211SOL     OW27976   5.017   1.228   5.147
 9211SOL    HW127977   5.054   1.155   5.089
 9211SOL    HW227978   5.069   1.233   5.232
 9212SOL     OW27979   4.533   0.004   4.226
 9212SOL    HW127980   4.573   0.095   4.217
 9212SOL    HW227981   4.433   0.012   4.232
 9213SOL     OW27982   3.921   0.976   4.988
 9213SOL    HW127983   4.010   0.931   4.974
 9213SOL    HW227984   3.848   0.911   4.969
 9214SOL     OW27985   5.249   0.999   3.914
 9214SOL    HW127986   5.186   0.923   3.927
 9214SOL    HW227987   5.297   1.017   4.000
 9215SOL     OW27988   4.911   1.792   5.340
 9215SOL    HW127989   4.935   1.852   5.264
 9215SOL    HW227990   4.918   1.697   5.310
 9216SOL     OW27991   4.041   0.251   5.525
 9216SOL    HW127992   4.112   0.322   5.531
 9216SOL    HW227993   3.953   0.290   5.553
 9217SOL     OW27994   5.190   1.417   4.677
 9217SOL    HW127995   5.131   1.423   4.757
 9217SOL    HW227996   5.175   1.329   4.631
 9218SOL     OW27997   5.391   1.714   4.296
 9218SOL    HW127998   5.350   1.691   4.208
 9218SOL    HW227999   5.373   1.640   4.361
 9219SOL     OW28000   4.322   0.729   3.994
 9219SOL    HW128001   4.346   0.798   3.926
 9219SOL    HW228002   4.244   0.762   4.048
 9220SOL     OW28003   5.005   0.345   4.668
 9220SOL    HW128004   4.919   0.295   4.655
 9220SOL    HW228005   5.067   0.291   4.724
 9221SOL     OW28006   5.300   1.662   4.031
 9221SOL    HW128007   5.389   1.708   4.034
 9221SOL    HW228008   5.279   1.638   3.936
 9222SOL     OW28009   4.531   0.605   5.189
 9222SOL    HW128010   4.484   0.602   5.278
 9222SOL    HW228011   4.480   0.550   5.123
 9223SOL     OW28012   5.118   0.469   5.398
 9223SOL    HW128013   5.098   0.512   5.486
 9223SOL    HW228014   5.196   0.407   5.407
 9224SOL     OW28015   4.697   0.890   5.296
 9224SOL    HW128016   4.743   0.806   5.267
 9224SOL    HW228017   4.641   0.924   5.221
 9225SOL     OW28018   4.715   0.410   4.966
 9225SOL    HW128019   4.638   0.444   5.020
 9225SOL    HW228020   4.681   0.359   4.887
 9226SOL     OW28021   4.765   0.701   4.153
 9226SOL    HW128022   4.791   0.697   4.249
 9226SOL    HW228023   4.680   0.650   4.139
 9227SOL     OW28024   3.800   0.811   4.513
 9227SOL    HW128025   3.899   0.799   4.522
 9227SOL    HW228026   3.776   0.906   4.534
 9228SOL     OW28027   3.854   1.821   5.295
 9228SOL    HW128028   3.844   1.806   5.394
 9228SOL    HW228029   3.768   1.857   5.259
 9229SOL     OW28030   4.589   0.348   3.919
 9229SOL    HW128031   4.648   0.411   3.870
 9229SOL    HW228032   4.608   0.254   3.890
 9230SOL     OW28033   5.443   0.585   5.555
 9230SOL    HW128034   5.417   0.674   5.519
 9230SOL    HW228035   5.441   0.517   5.482
 9231SOL     OW28036   5.086   1.144   4.269
 9231SOL    HW128037   5.169   1.115   4.221
 9231SOL    HW228038   5.037   1.211   4.213
 9232SOL     OW28039   4.274   0.196   4.609
 9232SOL    HW128040   4.269   0.191   4.709
 9232SOL    HW228041   4.276   0.292   4.580
 9233SOL     OW28042   4.732   1.456   4.201
 9233SOL    HW128043   4.686   1.528   4.149
 9233SOL    HW228044   4.728   1.476   4.299
 9234SOL     OW28045   4.075   1.801   4.577
 9234SOL    HW128046   4.125   1.715   4.583
 9234SOL    HW228047   4.140   1.878   4.574
 9235SOL     OW28048   5.519   1.066   4.597
 9235SOL    HW128049   5.457   1.051   4.521
 9235SOL    HW228050   5.467   1.077   4.682
 9236SOL     OW28051   4.951   1.550   5.230
 9236SOL    HW128052   4.957   1.473   5.294
 9236SOL    HW228053   4.899   1.524   5.150
 9237SOL     OW28054   4.045   0.943   3.966
 9237SOL    HW128055   4.127   0.982   3.924
 9237SOL    HW228056   4.018   0.861   3.917
 9238SOL     OW28057   5.182   0.735   4.452
 9238SOL    HW128058   5.177   0.670   4.527
 9238SOL    HW228059   5.262   0.794   4.465
 9239SOL     OW28060   4.185   1.266   5.451
 9239SOL    HW128061   4.135   1.267   5.365
 9239SOL    HW228062   4.122   1.248   5.527
 9240SOL     OW28063   4.835   1.776   3.961
 9240SOL    HW128064   4.775   1.714   4.011
 9240SOL    HW228065   4.866   1.732   3.876
 9241SOL     OW28066   3.926   0.285   5.222
 9241SOL    HW128067   3.846   0.345   5.209
 9241SOL    HW228068   3.916   0.236   5.308
 9242SOL     OW28069   5.356   1.377   3.805
 9242SOL    HW128070   5.324   1.471   3.795
 9242SOL    HW228071   5.280   1.314   3.793
 9243SOL     OW28072   4.188   1.743   4.047
 9243SOL    HW128073   4.221   1.782   4.133
 9243SOL    HW228074   4.264   1.736   3.982
 9244SOL     OW28075   5.124   0.107   4.150
 9244SOL    HW128076   5.100   0.070   4.060
 9244SOL    HW228077   5.223   0.123   4.154
 9245SOL     OW28078   3.973   1.785   4.965
 9245SOL    HW128079   4.030   1.720   5.015
 9245SOL    HW228080   3.957   1.752   4.872
 9246SOL     OW28081   4.664   1.698   4.628
 9246SOL    HW128082   4.744   1.641   4.649
 9246SOL    HW228083   4.615   1.658   4.551
 9247SOL     OW28084   4.106   0.700   4.204
 9247SOL    HW128085   4.151   0.610   4.201
 9247SOL    HW228086   4.012   0.689   4.237
 9248SOL     OW28087   5.271   0.222   5.453
 9248SOL    HW128088   5.266   0.259   5.545
 9248SOL    HW228089   5.199   0.153   5.441
 9249SOL     OW28090   4.338   0.122   3.841
 9249SOL    HW128091   4.436   0.100   3.848
 9249SOL    HW228092   4.307   0.105   3.748
 9250SOL     OW28093   4.505   0.264   5.473
 9250SOL    HW128094   4.572   0.203   5.516
 9250SOL    HW228095   4.432   0.283   5.538
 9251SOL     OW28096   4.612   1.514   4.919
 9251SOL    HW128097   4.589   1.489   4.825
 9251SOL    HW228098   4.673   1.445   4.958
 9252SOL     OW28099   5.075   0.590   5.157
 9252SOL    HW128100   5.103   0.547   5.242
 9252SOL    HW228101   5.100   0.686   5.158
 9253SOL     OW28102   4.527   1.402   4.648
 9253SOL    HW128103   4.617   1.416   4.606
 9253SOL    HW228104   4.456   1.404   4.577
 9254SOL     OW28105   4.646   0.503   4.623
 9254SOL    HW128106   4.621   0.494   4.527
 9254SOL    HW228107   4.694   0.421   4.654
 9255SOL     OW28108   4.263   0.064   4.236
 9255SOL    HW128109   4.182   0.065   4.294
 9255SOL    HW228110   4.266   0.147   4.181
 9256SOL     OW28111   5.158   1.188   3.765
 9256SOL    HW128112   5.190   1.112   3.822
 9256SOL    HW228113   5.066   1.215   3.795
 9257SOL     OW28114   4.021   0.035   3.895
 9257SOL    HW128115   4.070   0.119   3.874
 9257SOL    HW228116   4.083  -0.030   3.940
 9258SOL     OW28117   4.659   0.236   4.204
 9258SOL    HW128118   4.611   0.277   4.126
 9258SOL    HW228119   4.758   0.234   4.185
 9259SOL     OW28120   4.800   0.683   5.188
 9259SOL    HW128121   4.720   0.622   5.191
 9259SOL    HW228122   4.881   0.630   5.164
 9260SOL     OW28123   4.951   1.570   4.517
 9260SOL    HW128124   4.972   1.644   4.452
 9260SOL    HW228125   5.019   1.570   4.590
 9261SOL     OW28126   4.183   1.152   4.465
 9261SOL    HW128127   4.112   1.125   4.530
 9261SOL    HW228128   4.157   1.124   4.372
 9262SOL     OW28129   4.995   1.797   4.315
 9262SOL    HW128130   5.039   1.861   4.251
 9262SOL    HW228131   4.945   1.849   4.385
 9263SOL     OW28132   4.756   0.549   3.740
 9263SOL    HW128133   4.715   0.631   3.701
 9263SOL    HW228134   4.820   0.575   3.813
 9264SOL     OW28135   3.802   0.556   5.110
 9264SOL    HW128136   3.894   0.555   5.069
 9264SOL    HW228137   3.796   0.630   5.177
 9265SOL     OW28138   4.285   0.222   4.871
 9265SOL    HW128139   4.323   0.138   4.908
 9265SOL    HW228140   4.197   0.241   4.915
 9266SOL     OW28141   4.590   0.454   4.366
 9266SOL    HW128142   4.558   0.526   4.304
 9266SOL    HW228143   4.614   0.373   4.313
 9267SOL     OW28144   4.741   0.039   4.477
 9267SOL    HW128145   4.669   0.044   4.408
 9267SOL    HW228146   4.717  -0.030   4.546
 9268SOL     OW28147   5.153   1.173   4.591
 9268SOL    HW128148   5.098   1.089   4.584
 9268SOL    HW228149   5.179   1.202   4.499
 9269SOL     OW28150   5.190   0.590   4.716
 9269SOL    HW128151   5.160   0.495   4.723
 9269SOL    HW228152   5.263   0.606   4.782
 9270SOL     OW28153   5.581   0.833   4.101
 9270SOL    HW128154   5.623   0.769   4.165
 9270SOL    HW228155   5.543   0.782   4.023
 9271SOL     OW28156   4.212   1.385   3.898
 9271SOL    HW128157   4.125   1.370   3.945
 9271SOL    HW228158   4.195   1.411   3.803
 9272SOL     OW28159   5.388   1.280   4.381
 9272SOL    HW128160   5.487   1.288   4.395
 9272SOL    HW228161   5.343   1.364   4.412
 9273SOL     OW28162   5.114   0.575   3.802
 9273SOL    HW128163   5.060   0.554   3.883
 9273SOL    HW228164   5.205   0.534   3.811
 9274SOL     OW28165   4.251   0.256   4.052
 9274SOL    HW128166   4.278   0.197   3.977
 9274SOL    HW228167   4.251   0.351   4.021
 9275SOL     OW28168   5.478   1.223   5.312
 9275SOL    HW128169   5.569   1.184   5.299
 9275SOL    HW228170   5.486   1.319   5.336
 9276SOL     OW28171   4.788   1.347   5.064
 9276SOL    HW128172   4.708   1.324   5.119
 9276SOL    HW228173   4.871   1.321   5.113
 9277SOL     OW28174   5.316   1.629   5.349
 9277SOL    HW128175   5.343   1.663   5.259
 9277SOL    HW228176   5.395   1.591   5.395
 9278SOL     OW28177   4.835   1.195   4.824
 9278SOL    HW128178   4.795   1.239   4.905
 9278SOL    HW228179   4.794   1.232   4.741
 9279SOL     OW28180   5.362   1.099   4.803
 9279SOL    HW128181   5.367   1.180   4.862
 9279SOL    HW228182   5.276   1.101   4.752
 9280SOL     OW28183   4.639   0.089   5.126
 9280SOL    HW128184   4.664   0.069   5.031
 9280SOL    HW228185   4.711   0.145   5.168
 9281SOL     OW28186   4.704   1.116   5.443
 9281SOL    HW128187   4.605   1.122   5.453
 9281SOL    HW228188   4.727   1.036   5.387
 9282SOL     OW28189   4.429   1.050   4.092
 9282SOL    HW128190   4.415   1.057   4.191
 9282SOL    HW228191   4.513   0.999   4.074
 9283SOL     OW28192   4.134   0.813   4.975
 9283SOL    HW128193   4.220   0.825   5.025
 9283SOL    HW228194   4.092   0.726   5.002
 9284SOL     OW28195   4.998   0.386   4.986
 9284SOL    HW128196   5.019   0.460   5.050
 9284SOL    HW228197   4.909   0.403   4.943
 9285SOL     OW28198   3.788   1.564   5.055
 9285SOL    HW128199   3.742   1.646   5.021
 9285SOL    HW228200   3.886   1.583   5.064
 9286SOL     OW28201   4.091   1.100   4.225
 9286SOL    HW128202   4.084   1.183   4.169
 9286SOL    HW228203   4.095   1.020   4.165
 9287SOL     OW28204   4.290   0.537   4.589
 9287SOL    HW128205   4.302   0.603   4.515
 9287SOL    HW228206   4.336   0.571   4.672
 9288SOL     OW28207   4.976   1.348   4.112
 9288SOL    HW128208   5.026   1.425   4.152
 9288SOL    HW228209   4.881   1.350   4.144
 9289SOL     OW28210   4.996   1.445   4.866
 9289SOL    HW128211   5.043   1.458   4.953
 9289SOL    HW228212   4.930   1.371   4.875
 9290SOL     OW28213   5.306   0.639   4.196
 9290SOL    HW128214   5.275   0.700   4.269
 9290SOL    HW228215   5.356   0.691   4.127
 9291SOL     OW28216   4.078   1.510   5.053
 9291SOL    HW128217   4.057   1.466   4.966
 9291SOL    HW228218   4.175   1.536   5.056
 9292SOL     OW28219   4.126   0.751   5.322
 9292SOL    HW128220   4.194   0.806   5.275
 9292SOL    HW228221   4.166   0.663   5.349
 9293SOL     OW28222   5.311   0.779   5.394
 9293SOL    HW128223   5.219   0.817   5.389
 9293SOL    HW228224   5.371   0.826   5.329
 9294SOL     OW28225   4.737   0.105   5.494
 9294SOL    HW128226   4.743   0.190   5.442
 9294SOL    HW228227   4.769   0.029   5.437
 9295SOL     OW28228   4.228   0.050   5.464
 9295SOL    HW128229   4.186  -0.007   5.394
 9295SOL    HW228230   4.162   0.119   5.496
 9296SOL     OW28231   4.297   0.870   4.753
 9296SOL    HW128232   4.341   0.959   4.744
 9296SOL    HW228233   4.234   0.870   4.830
 9297SOL     OW28234   5.084   0.862   4.769
 9297SOL    HW128235   5.009   0.862   4.703
 9297SOL    HW228236   5.121   0.770   4.778
 9298SOL     OW28237   4.933   0.525   3.999
 9298SOL    HW128238   4.946   0.441   4.053
 9298SOL    HW228239   4.904   0.599   4.059
 9299SOL     OW28240   4.031   0.213   4.955
 9299SOL    HW128241   4.008   0.250   5.045
 9299SOL    HW228242   4.001   0.118   4.949
 9300SOL     OW28243   3.761   1.310   5.006
 9300SOL    HW128244   3.814   1.261   5.074
 9300SOL    HW228245   3.783   1.408   5.011
 9301SOL     OW28246   4.456   0.634   4.788
 9301SOL    HW128247   4.515   0.608   4.712
 9301SOL    HW228248   4.428   0.730   4.777
 9302SOL     OW28249   5.452   0.935   5.578
 9302SOL    HW128250   5.406   0.928   5.489
 9302SOL    HW228251   5.390   0.979   5.644
 9303SOL     OW28252   4.031   0.063   4.342
 9303SOL    HW128253   4.020   0.157   4.375
 9303SOL    HW228254   4.026   0.000   4.419
 9304SOL     OW28255   5.346   0.367   4.098
 9304SOL    HW128256   5.348   0.291   4.162
 9304SOL    HW228257   5.298   0.444   4.138
 9305SOL     OW28258   4.747   0.766   4.690
 9305SOL    HW128259   4.762   0.787   4.786
 9305SOL    HW228260   4.717   0.671   4.681
 9306SOL     OW28261   4.704   1.573   5.424
 9306SOL    HW128262   4.684   1.617   5.336
 9306SOL    HW228263   4.743   1.482   5.408
 9307SOL     OW28264   5.583   1.518   5.329
 9307SOL    HW128265   5.597   1.545   5.234
 9307SOL    HW228266   5.666   1.540   5.382
 9308SOL     OW28267   4.074   0.898   5.528
 9308SOL    HW128268   4.150   0.942   5.576
 9308SOL    HW228269   4.109   0.851   5.446
 9309SOL     OW28270   5.264   0.274   3.849
 9309SOL    HW128271   5.203   0.199   3.872
 9309SOL    HW228272   5.286   0.326   3.932
 9310SOL     OW28273   5.027   0.838   3.766
 9310SOL    HW128274   5.061   0.745   3.781
 9310SOL    HW228275   5.045   0.865   3.671
 9311SOL     OW28276   4.792   1.333   4.573
 9311SOL    HW128277   4.799   1.249   4.518
 9311SOL    HW228278   4.854   1.402   4.537
 9312SOL     OW28279   4.043   0.810   4.673
 9312SOL    HW128280   4.136   0.846   4.678
 9312SOL    HW228281   4.037   0.725   4.725
 9313SOL     OW28282   4.063   0.509   4.730
 9313SOL    HW128283   4.011   0.426   4.713
 9313SOL    HW228284   4.140   0.514   4.666
 9314SOL     OW28285   4.862   0.380   5.402
 9314SOL    HW128286   4.817   0.443   5.466
 9314SOL    HW228287   4.955   0.411   5.385
 9315SOL     OW28288   4.884   0.207   5.201
 9315SOL    HW128289   4.884   0.271   5.278
 9315SOL    HW228290   4.912   0.255   5.118
 9316SOL     OW28291   3.732   1.326   3.924
 9316SOL    HW128292   3.639   1.347   3.893
 9316SOL    HW228293   3.742   1.227   3.937
 9317SOL     OW28294   3.812   1.801   4.651
 9317SOL    HW128295   3.770   1.715   4.624
 9317SOL    HW228296   3.906   1.804   4.617
 9318SOL     OW28297   4.228   1.568   4.634
 9318SOL    HW128298   4.294   1.642   4.643
 9318SOL    HW228299   4.272   1.489   4.592
 9319SOL     OW28300   4.726   0.796   4.962
 9319SOL    HW128301   4.767   0.764   5.048
 9319SOL    HW228302   4.630   0.769   4.959
 9320SOL     OW28303   3.764   0.544   4.838
 9320SOL    HW128304   3.849   0.511   4.797
 9320SOL    HW228305   3.777   0.559   4.936
 9321SOL     OW28306   3.913   0.520   5.446
 9321SOL    HW128307   3.972   0.480   5.376
 9321SOL    HW228308   3.855   0.591   5.405
 9322SOL     OW28309   5.093   0.950   5.384
 9322SOL    HW128310   5.132   1.039   5.404
 9322SOL    HW228311   5.103   0.930   5.287
 9323SOL     OW28312   4.539   0.572   4.049
 9323SOL    HW128313   4.546   0.483   4.003
 9323SOL    HW228314   4.445   0.606   4.041
 9324SOL     OW28315   5.381   0.604   4.930
 9324SOL    HW128316   5.343   0.535   4.992
 9324SOL    HW228317   5.463   0.568   4.886
 9325SOL     OW28318   3.976   1.564   5.468
 9325SOL    HW128319   3.946   1.621   5.544
 9325SOL    HW228320   3.969   1.467   5.494
 9326SOL     OW28321   4.395   0.464   4.993
 9326SOL    HW128322   4.361   0.375   4.963
 9326SOL    HW228323   4.421   0.518   4.913
 9327SOL     OW28324   4.654   1.678   5.189
 9327SOL    HW128325   4.630   1.660   5.094
 9327SOL    HW228326   4.684   1.772   5.199
 9328SOL     OW28327   4.197   0.500   3.915
 9328SOL    HW128328   4.258   0.580   3.919
 9328SOL    HW228329   4.102   0.531   3.922
 9329SOL     OW28330   3.883   1.137   5.190
 9329SOL    HW128331   3.905   1.076   5.266
 9329SOL    HW228332   3.893   1.088   5.104
 9330SOL     OW28333   5.071   1.059   4.958
 9330SOL    HW128334   5.095   0.996   4.884
 9330SOL    HW228335   4.981   1.099   4.940
 9331SOL     OW28336   5.026   0.855   4.033
 9331SOL    HW128337   4.940   0.824   4.075
 9331SOL    HW228338   5.022   0.841   3.934
 9332SOL     OW28339   5.483   1.747   4.878
 9332SOL    HW128340   5.544   1.777   4.805
 9332SOL    HW228341   5.445   1.658   4.856
 9333SOL     OW28342   4.976   1.731   4.852
 9333SOL    HW128343   5.060   1.736   4.798
 9333SOL    HW228344   4.953   1.635   4.870
 9334SOL     OW28345   3.807   1.258   4.746
 9334SOL    HW128346   3.802   1.257   4.846
 9334SOL    HW228347   3.724   1.217   4.708
 9335SOL     OW28348   4.412   1.662   5.440
 9335SOL    HW128349   4.356   1.743   5.449
 9335SOL    HW228350   4.464   1.666   5.354
 9336SOL     OW28351   5.450   0.135   4.247
 9336SOL    HW128352   5.523   0.118   4.180
 9336SOL    HW228353   5.419   0.048   4.285
 9337SOL     OW28354   5.112   1.573   4.201
 9337SOL    HW128355   5.179   1.585   4.127
 9337SOL    HW228356   5.072   1.662   4.224
 9338SOL     OW28357   3.854   1.794   5.575
 9338SOL    HW128358   3.813   1.720   5.628
 9338SOL    HW228359   3.918   1.845   5.633
 9339SOL     OW28360   5.004   0.927   4.396
 9339SOL    HW128361   5.064   0.846   4.398
 9339SOL    HW228362   5.044   0.996   4.336
 9340SOL     OW28363   4.554   1.273   5.146
 9340SOL    HW128364   4.549   1.306   5.241
 9340SOL    HW228365   4.468   1.292   5.100
 9341SOL     OW28366   4.396   1.616   3.878
 9341SOL    HW128367   4.405   1.626   3.779
 9341SOL    HW228368   4.356   1.527   3.899
 9342SOL     OW28369   5.374   1.720   5.118
 9342SOL    HW128370   5.427   1.730   5.034
 9342SOL    HW228371   5.347   1.810   5.152
 9343SOL     OW28372   5.565   0.175   4.687
 9343SOL    HW128373   5.604   0.090   4.651
 9343SOL    HW228374   5.467   0.177   4.668
 9344SOL     OW28375   3.987   0.326   4.444
 9344SOL    HW128376   3.908   0.377   4.410
 9344SOL    HW228377   3.978   0.311   4.542
 9345SOL     OW28378   4.918   1.612   3.755
 9345SOL    HW128379   4.924   1.519   3.792
 9345SOL    HW228380   4.859   1.612   3.675
 9346SOL     OW28381   4.546   1.002   5.096
 9346SOL    HW128382   4.586   1.001   5.004
 9346SOL    HW228383   4.556   1.094   5.136
 9347SOL     OW28384   4.640   0.910   4.015
 9347SOL    HW128385   4.703   0.948   3.947
 9347SOL    HW228386   4.680   0.827   4.054
 9348SOL     OW28387   5.228   1.607   3.768
 9348SOL    HW128388   5.136   1.644   3.775
 9348SOL    HW228389   5.266   1.627   3.678
 9349SOL     OW28390   4.096   1.288   5.214
 9349SOL    HW128391   4.083   1.381   5.180
 9349SOL    HW228392   4.012   1.236   5.201
 9350SOL     OW28393   5.338   1.292   5.013
 9350SOL    HW128394   5.398   1.295   5.093
 9350SOL    HW228395   5.263   1.356   5.026
 9351SOL     OW28396   4.763   1.098   4.420
 9351SOL    HW128397   4.693   1.051   4.474
 9351SOL    HW228398   4.822   1.030   4.377
 9352SOL     OW28399   4.738   0.236   4.695
 9352SOL    HW128400   4.730   0.200   4.602
 9352SOL    HW228401   4.736   0.160   4.760
 9353SOL     OW28402   4.314   1.487   4.215
 9353SOL    HW128403   4.356   1.429   4.145
 9353SOL    HW228404   4.270   1.566   4.171
 9354SOL     OW28405   5.433   0.385   5.105
 9354SOL    HW128406   5.506   0.454   5.109
 9354SOL    HW228407   5.461   0.310   5.046
 9355SOL     OW28408   3.979   1.348   4.014
 9355SOL    HW128409   3.883   1.349   3.987
 9355SOL    HW228410   3.991   1.401   4.098
 9356SOL     OW28411   3.829   1.013   5.450
 9356SOL    HW128412   3.752   0.980   5.504
 9356SOL    HW228413   3.914   0.983   5.492
 9357SOL     OW28414   4.396   0.203   5.213
 9357SOL    HW128415   4.486   0.187   5.173
 9357SOL    HW228416   4.404   0.208   5.312
 9358SOL     OW28417   3.799   0.345   3.757
 9358SOL    HW128418   3.707   0.317   3.728
 9358SOL    HW228419   3.830   0.422   3.701
 9359SOL     OW28420   5.164   0.856   5.122
 9359SOL    HW128421   5.107   0.908   5.059
 9359SOL    HW228422   5.260   0.868   5.098
 9360SOL     OW28423   3.796   0.166   4.042
 9360SOL    HW128424   3.779   0.249   3.988
 9360SOL    HW228425   3.886   0.129   4.020
 9361SOL     OW28426   4.907   1.335   3.843
 9361SOL    HW128427   4.808   1.324   3.845
 9361SOL    HW228428   4.941   1.350   3.936
 9362SOL     OW28429   4.337   0.842   5.155
 9362SOL    HW128430   4.393   0.923   5.138
 9362SOL    HW228431   4.396   0.762   5.158
 9363SOL     OW28432   5.217   1.767   4.683
 9363SOL    HW128433   5.250   1.831   4.614
 9363SOL    HW228434   5.283   1.761   4.758
 9364SOL     OW28435   4.440   0.565   5.432
 9364SOL    HW128436   4.459   0.630   5.506
 9364SOL    HW228437   4.500   0.485   5.441
 9365SOL     OW28438   5.174   1.220   5.357
 9365SOL    HW128439   5.165   1.210   5.456
 9365SOL    HW228440   5.270   1.213   5.331
 9366SOL     OW28441   4.114   1.741   5.284
 9366SOL    HW128442   4.023   1.782   5.282
 9366SOL    HW228443   4.107   1.647   5.316
 9367SOL     OW28444   5.398   0.883   4.978
 9367SOL    HW128445   5.371   0.794   4.941
 9367SOL    HW228446   5.399   0.951   4.905
 9368SOL     OW28447   4.949   0.325   4.173
 9368SOL    HW128448   5.014   0.251   4.162
 9368SOL    HW228449   4.969   0.375   4.257
 9369SOL     OW28450   4.318   0.745   4.376
 9369SOL    HW128451   4.368   0.830   4.357
 9369SOL    HW228452   4.230   0.747   4.328
 9370SOL     OW28453   5.501   0.342   5.366
 9370SOL    HW128454   5.484   0.373   5.272
 9370SOL    HW228455   5.417   0.305   5.404
 9371SOL     OW28456   5.454   0.934   5.241
 9371SOL    HW128457   5.492   1.025   5.256
 9371SOL    HW228458   5.446   0.917   5.142
 9372SOL     OW28459   4.583   1.374   3.740
 9372SOL    HW128460   4.537   1.389   3.828
 9372SOL    HW228461   4.627   1.459   3.710
 9373SOL     OW28462   4.385   1.790   4.677
 9373SOL    HW128463   4.339   1.878   4.664
 9373SOL    HW228464   4.484   1.802   4.670
 9374SOL     OW28465   4.583   0.956   4.585
 9374SOL    HW128466   4.637   0.887   4.633
 9374SOL    HW228467   4.551   1.025   4.651
 9375SOL     OW28468   4.807   0.984   3.811
 9375SOL    HW128469   4.784   1.037   3.729
 9375SOL    HW228470   4.888   0.928   3.792
 9376SOL     OW28471   5.585   1.569   4.575
 9376SOL    HW128472   5.514   1.557   4.505
 9376SOL    HW228473   5.586   1.490   4.635
 9377SOL     OW28474   3.945   1.314   5.568
 9377SOL    HW128475   3.880   1.241   5.547
 9377SOL    HW228476   3.949   1.328   5.666
 9378SOL     OW28477   3.803   1.240   4.377
 9378SOL    HW128478   3.802   1.193   4.465
 9378SOL    HW228479   3.885   1.212   4.326
 9379SOL     OW28480   4.396   1.391   5.348
 9379SOL    HW128481   4.318   1.341   5.386
 9379SOL    HW228482   4.393   1.486   5.379
 9380SOL     OW28483   5.548   0.192   4.951
 9380SOL    HW128484   5.544   0.102   4.995
 9380SOL    HW228485   5.551   0.181   4.852
 9381SOL     OW28486   4.152   0.424   4.244
 9381SOL    HW128487   4.182   0.352   4.182
 9381SOL    HW228488   4.113   0.384   4.327
 9382SOL     OW28489   5.429   1.487   4.828
 9382SOL    HW128490   5.336   1.462   4.801
 9382SOL    HW228491   5.455   1.437   4.910
 9383SOL     OW28492   4.041   0.547   5.004
 9383SOL    HW128493   4.079   0.488   5.076
 9383SOL    HW228494   4.081   0.521   4.916
 9384SOL     OW28495   4.536   1.586   4.411
 9384SOL    HW128496   4.568   1.596   4.317
 9384SOL    HW228497   4.457   1.524   4.413
 9385SOL     OW28498   5.148   0.214   4.836
 9385SOL    HW128499   5.200   0.149   4.891
 9385SOL    HW228500   5.099   0.277   4.897
 9386SOL     OW28501   4.725   0.034   4.878
 9386SOL    HW128502   4.662  -0.038   4.847
 9386SOL    HW228503   4.818  -0.002   4.878
 9387SOL     OW28504   4.494   1.330   4.025
 9387SOL    HW128505   4.448   1.243   4.042
 9387SOL    HW228506   4.585   1.327   4.066
 9388SOL     OW28507   4.342   1.567   5.008
 9388SOL    HW128508   4.337   1.649   5.065
 9388SOL    HW228509   4.431   1.564   4.963
 9389SOL     OW28510   5.076   0.052   3.892
 9389SOL    HW128511   5.111   0.011   3.808
 9389SOL    HW228512   4.986   0.014   3.912
 9390SOL     OW28513   5.024   0.453   4.415
 9390SOL    HW128514   4.965   0.533   4.419
 9390SOL    HW228515   5.039   0.418   4.508
 9391SOL     OW28516   5.317   0.221   4.606
 9391SOL    HW128517   5.233   0.220   4.660
 9391SOL    HW228518   5.319   0.304   4.550
 9392SOL     OW28519   3.763   1.077   4.024
 9392SOL    HW128520   3.862   1.066   4.015
 9392SOL    HW228521   3.723   0.991   4.056
 9393SOL     OW28522   4.599   1.646   4.061
 9393SOL    HW128523   4.522   1.611   4.007
 9393SOL    HW228524   4.567   1.717   4.123
 9394SOL     OW28525   3.954   0.628   5.699
 9394SOL    HW128526   3.861   0.626   5.736
 9394SOL    HW228527   3.955   0.589   5.607
 9395SOL     OW28528   3.949   0.275   6.582
 9395SOL    HW128529   3.984   0.258   6.674
 9395SOL    HW228530   3.861   0.230   6.570
 9396SOL     OW28531   3.743   0.368   6.233
 9396SOL    HW128532   3.661   0.411   6.272
 9396SOL    HW228533   3.715   0.295   6.170
 9397SOL     OW28534   4.293   1.275   6.751
 9397SOL    HW128535   4.200   1.268   6.714
 9397SOL    HW228536   4.304   1.364   6.795
 9398SOL     OW28537   5.279   1.511   6.289
 9398SOL    HW128538   5.222   1.495   6.370
 9398SOL    HW228539   5.220   1.521   6.209
 9399SOL     OW28540   4.859   0.703   6.303
 9399SOL    HW128541   4.916   0.781   6.278
 9399SOL    HW228542   4.799   0.729   6.379
 9400SOL     OW28543   5.479   0.607   5.817
 9400SOL    HW128544   5.467   0.594   5.718
 9400SOL    HW228545   5.449   0.526   5.866
 9401SOL     OW28546   4.492   1.144   6.609
 9401SOL    HW128547   4.414   1.161   6.669
 9401SOL    HW228548   4.526   1.231   6.573
 9402SOL     OW28549   4.574   0.798   7.409
 9402SOL    HW128550   4.570   0.874   7.474
 9402SOL    HW228551   4.596   0.834   7.318
 9403SOL     OW28552   4.409   1.012   6.251
 9403SOL    HW128553   4.478   0.996   6.321
 9403SOL    HW228554   4.336   1.069   6.289
 9404SOL     OW28555   4.410   1.161   7.389
 9404SOL    HW128556   4.470   1.240   7.403
 9404SOL    HW228557   4.324   1.192   7.348
 9405SOL     OW28558   4.059   1.435   6.647
 9405SOL    HW128559   3.981   1.404   6.594
 9405SOL    HW228560   4.117   1.493   6.590
 9406SOL     OW28561   5.184   1.505   6.925
 9406SOL    HW128562   5.208   1.599   6.951
 9406SOL    HW228563   5.168   1.451   7.007
 9407SOL     OW28564   4.162   0.392   7.085
 9407SOL    HW128565   4.244   0.336   7.094
 9407SOL    HW228566   4.081   0.334   7.089
 9408SOL     OW28567   5.327   0.447   6.323
 9408SOL    HW128568   5.253   0.493   6.273
 9408SOL    HW228569   5.378   0.515   6.376
 9409SOL     OW28570   3.955   1.713   6.069
 9409SOL    HW128571   3.989   1.790   6.123
 9409SOL    HW228572   3.999   1.713   5.979
 9410SOL     OW28573   4.851   1.341   7.276
 9410SOL    HW128574   4.898   1.341   7.364
 9410SOL    HW228575   4.803   1.254   7.265
 9411SOL     OW28576   3.954   1.434   6.124
 9411SOL    HW128577   3.928   1.530   6.124
 9411SOL    HW228578   3.883   1.380   6.169
 9412SOL     OW28579   3.964   1.091   6.472
 9412SOL    HW128580   3.978   1.007   6.524
 9412SOL    HW228581   3.909   1.155   6.527
 9413SOL     OW28582   4.344   1.786   7.025
 9413SOL    HW128583   4.252   1.769   7.060
 9413SOL    HW228584   4.372   1.878   7.051
 9414SOL     OW28585   4.330   0.964   5.709
 9414SOL    HW128586   4.337   1.048   5.655
 9414SOL    HW228587   4.376   0.977   5.797
 9415SOL     OW28588   5.318   0.114   7.066
 9415SOL    HW128589   5.300   0.181   6.994
 9415SOL    HW228590   5.315   0.160   7.155
 9416SOL     OW28591   3.846   0.643   6.149
 9416SOL    HW128592   3.801   0.555   6.166
 9416SOL    HW228593   3.845   0.697   6.233
 9417SOL     OW28594   5.566   1.767   5.945
 9417SOL    HW128595   5.620   1.738   6.025
 9417SOL    HW228596   5.596   1.857   5.916
 9418SOL     OW28597   3.751   1.596   5.703
 9418SOL    HW128598   3.732   1.500   5.724
 9418SOL    HW228599   3.718   1.654   5.778
 9419SOL     OW28600   5.413   0.922   6.198
 9419SOL    HW128601   5.508   0.893   6.206
 9419SOL    HW228602   5.405   0.987   6.123
 9420SOL     OW28603   5.365   1.108   6.018
 9420SOL    HW128604   5.451   1.110   5.966
 9420SOL    HW228605   5.379   1.155   6.106
 9421SOL     OW28606   3.837   0.737   7.183
 9421SOL    HW128607   3.925   0.724   7.228
 9421SOL    HW228608   3.824   0.834   7.161
 9422SOL     OW28609   4.337   1.365   6.312
 9422SOL    HW128610   4.288   1.278   6.321
 9422SOL    HW228611   4.314   1.408   6.225
 9423SOL     OW28612   5.017   1.228   7.009
 9423SOL    HW128613   5.054   1.155   6.951
 9423SOL    HW228614   5.069   1.233   7.094
 9424SOL     OW28615   4.533   0.004   6.088
 9424SOL    HW128616   4.573   0.095   6.079
 9424SOL    HW228617   4.433   0.012   6.094
 9425SOL     OW28618   3.921   0.976   6.850
 9425SOL    HW128619   4.010   0.931   6.836
 9425SOL    HW228620   3.848   0.911   6.831
 9426SOL     OW28621   5.249   0.999   5.776
 9426SOL    HW128622   5.186   0.923   5.789
 9426SOL    HW228623   5.297   1.017   5.862
 9427SOL     OW28624   4.911   1.792   7.202
 9427SOL    HW128625   4.935   1.852   7.126
 9427SOL    HW228626   4.918   1.697   7.172
 9428SOL     OW28627   4.041   0.251   7.387
 9428SOL    HW128628   4.112   0.322   7.393
 9428SOL    HW228629   3.953   0.290   7.415
 9429SOL     OW28630   5.190   1.417   6.539
 9429SOL    HW128631   5.131   1.423   6.619
 9429SOL    HW228632   5.175   1.329   6.493
 9430SOL     OW28633   5.391   1.714   6.158
 9430SOL    HW128634   5.350   1.691   6.070
 9430SOL    HW228635   5.373   1.640   6.223
 9431SOL     OW28636   4.322   0.729   5.856
 9431SOL    HW128637   4.346   0.798   5.788
 9431SOL    HW228638   4.244   0.762   5.910
 9432SOL     OW28639   5.005   0.345   6.530
 9432SOL    HW128640   4.919   0.295   6.517
 9432SOL    HW228641   5.067   0.291   6.586
 9433SOL     OW28642   5.300   1.662   5.893
 9433SOL    HW128643   5.389   1.708   5.896
 9433SOL    HW228644   5.279   1.638   5.798
 9434SOL     OW28645   4.531   0.605   7.051
 9434SOL    HW128646   4.484   0.602   7.140
 9434SOL    HW228647   4.480   0.550   6.985
 9435SOL     OW28648   5.118   0.469   7.260
 9435SOL    HW128649   5.098   0.512   7.348
 9435SOL    HW228650   5.196   0.407   7.269
 9436SOL     OW28651   4.697   0.890   7.158
 9436SOL    HW128652   4.743   0.806   7.129
 9436SOL    HW228653   4.641   0.924   7.083
 9437SOL     OW28654   4.715   0.410   6.828
 9437SOL    HW128655   4.638   0.444   6.882
 9437SOL    HW228656   4.681   0.359   6.749
 9438SOL     OW28657   4.765   0.701   6.015
 9438SOL    HW128658   4.791   0.697   6.111
 9438SOL    HW228659   4.680   0.650   6.001
 9439SOL     OW28660   3.800   0.811   6.375
 9439SOL    HW128661   3.899   0.799   6.384
 9439SOL    HW228662   3.776   0.906   6.396
 9440SOL     OW28663   3.854   1.821   7.157
 9440SOL    HW128664   3.844   1.806   7.256
 9440SOL    HW228665   3.768   1.857   7.121
 9441SOL     OW28666   4.589   0.348   5.781
 9441SOL    HW128667   4.648   0.411   5.732
 9441SOL    HW228668   4.608   0.254   5.752
 9442SOL     OW28669   5.443   0.585   7.417
 9442SOL    HW128670   5.417   0.674   7.381
 9442SOL    HW228671   5.441   0.517   7.344
 9443SOL     OW28672   5.086   1.144   6.131
 9443SOL    HW128673   5.169   1.115   6.083
 9443SOL    HW228674   5.037   1.211   6.075
 9444SOL     OW28675   4.274   0.196   6.471
 9444SOL    HW128676   4.269   0.191   6.571
 9444SOL    HW228677   4.276   0.292   6.442
 9445SOL     OW28678   4.732   1.456   6.063
 9445SOL    HW128679   4.686   1.528   6.011
 9445SOL    HW228680   4.728   1.476   6.161
 9446SOL     OW28681   4.075   1.801   6.439
 9446SOL    HW128682   4.125   1.715   6.445
 9446SOL    HW228683   4.140   1.878   6.436
 9447SOL     OW28684   5.519   1.066   6.459
 9447SOL    HW128685   5.457   1.051   6.383
 9447SOL    HW228686   5.467   1.077   6.544
 9448SOL     OW28687   4.951   1.550   7.092
 9448SOL    HW128688   4.957   1.473   7.156
 9448SOL    HW228689   4.899   1.524   7.012
 9449SOL     OW28690   4.045   0.943   5.828
 9449SOL    HW128691   4.127   0.982   5.786
 9449SOL    HW228692   4.018   0.861   5.779
 9450SOL     OW28693   5.182   0.735   6.314
 9450SOL    HW128694   5.177   0.670   6.389
 9450SOL    HW228695   5.262   0.794   6.327
 9451SOL     OW28696   4.185   1.266   7.313
 9451SOL    HW128697   4.135   1.267   7.227
 9451SOL    HW228698   4.122   1.248   7.389
 9452SOL     OW28699   4.835   1.776   5.823
 9452SOL    HW128700   4.775   1.714   5.873
 9452SOL    HW228701   4.866   1.732   5.738
 9453SOL     OW28702   3.926   0.285   7.084
 9453SOL    HW128703   3.846   0.345   7.071
 9453SOL    HW228704   3.916   0.236   7.170
 9454SOL     OW28705   5.356   1.377   5.667
 9454SOL    HW128706   5.324   1.471   5.657
 9454SOL    HW228707   5.280   1.314   5.655
 9455SOL     OW28708   4.188   1.743   5.909
 9455SOL    HW128709   4.221   1.782   5.995
 9455SOL    HW228710   4.264   1.736   5.844
 9456SOL     OW28711   5.124   0.107   6.012
 9456SOL    HW128712   5.100   0.070   5.922
 9456SOL    HW228713   5.223   0.123   6.016
 9457SOL     OW28714   3.973   1.785   6.827
 9457SOL    HW128715   4.030   1.720   6.877
 9457SOL    HW228716   3.957   1.752   6.734
 9458SOL     OW28717   4.664   1.698   6.490
 9458SOL    HW128718   4.744   1.641   6.511
 9458SOL    HW228719   4.615   1.658   6.413
 9459SOL     OW28720   4.106   0.700   6.066
 9459SOL    HW128721   4.151   0.610   6.063
 9459SOL    HW228722   4.012   0.689   6.099
 9460SOL     OW28723   5.271   0.222   7.315
 9460SOL    HW128724   5.266   0.259   7.407
 9460SOL    HW228725   5.199   0.153   7.303
 9461SOL     OW28726   4.338   0.122   5.703
 9461SOL    HW128727   4.436   0.100   5.710
 9461SOL    HW228728   4.307   0.105   5.610
 9462SOL     OW28729   4.505   0.264   7.335
 9462SOL    HW128730   4.572   0.203   7.378
 9462SOL    HW228731   4.432   0.283   7.400
 9463SOL     OW28732   4.612   1.514   6.781
 9463SOL    HW128733   4.589   1.489   6.687
 9463SOL    HW228734   4.673   1.445   6.820
 9464SOL     OW28735   5.075   0.590   7.019
 9464SOL    HW128736   5.103   0.547   7.104
 9464SOL    HW228737   5.100   0.686   7.020
 9465SOL     OW28738   4.527   1.402   6.510
 9465SOL    HW128739   4.617   1.416   6.468
 9465SOL    HW228740   4.456   1.404   6.439
 9466SOL     OW28741   4.646   0.503   6.485
 9466SOL    HW128742   4.621   0.494   6.389
 9466SOL    HW228743   4.694   0.421   6.516
 9467SOL     OW28744   4.263   0.064   6.098
 9467SOL    HW128745   4.182   0.065   6.156
 9467SOL    HW228746   4.266   0.147   6.043
 9468SOL     OW28747   5.158   1.188   5.627
 9468SOL    HW128748   5.190   1.112   5.684
 9468SOL    HW228749   5.066   1.215   5.657
 9469SOL     OW28750   4.021   0.035   5.757
 9469SOL    HW128751   4.070   0.119   5.736
 9469SOL    HW228752   4.083  -0.030   5.802
 9470SOL     OW28753   4.659   0.236   6.066
 9470SOL    HW128754   4.611   0.277   5.988
 9470SOL    HW228755   4.758   0.234   6.047
 9471SOL     OW28756   4.800   0.683   7.050
 9471SOL    HW128757   4.720   0.622   7.053
 9471SOL    HW228758   4.881   0.630   7.026
 9472SOL     OW28759   4.951   1.570   6.379
 9472SOL    HW128760   4.972   1.644   6.314
 9472SOL    HW228761   5.019   1.570   6.452
 9473SOL     OW28762   4.183   1.152   6.327
 9473SOL    HW128763   4.112   1.125   6.392
 9473SOL    HW228764   4.157   1.124   6.234
 9474SOL     OW28765   4.995   1.797   6.177
 9474SOL    HW128766   5.039   1.861   6.113
 9474SOL    HW228767   4.945   1.849   6.247
 9475SOL     OW28768   4.756   0.549   5.602
 9475SOL    HW128769   4.715   0.631   5.563
 9475SOL    HW228770   4.820   0.575   5.675
 9476SOL     OW28771   3.802   0.556   6.972
 9476SOL    HW128772   3.894   0.555   6.931
 9476SOL    HW228773   3.796   0.630   7.039
 9477SOL     OW28774   4.285   0.222   6.733
 9477SOL    HW128775   4.323   0.138   6.770
 9477SOL    HW228776   4.197   0.241   6.777
 9478SOL     OW28777   4.590   0.454   6.228
 9478SOL    HW128778   4.558   0.526   6.166
 9478SOL    HW228779   4.614   0.373   6.175
 9479SOL     OW28780   4.741   0.039   6.339
 9479SOL    HW128781   4.669   0.044   6.270
 9479SOL    HW228782   4.717  -0.030   6.408
 9480SOL     OW28783   5.153   1.173   6.453
 9480SOL    HW128784   5.098   1.089   6.446
 9480SOL    HW228785   5.179   1.202   6.361
 9481SOL     OW28786   5.190   0.590   6.578
 9481SOL    HW128787   5.160   0.495   6.585
 9481SOL    HW228788   5.263   0.606   6.644
 9482SOL     OW28789   5.581   0.833   5.963
 9482SOL    HW128790   5.623   0.769   6.027
 9482SOL    HW228791   5.543   0.782   5.885
 9483SOL     OW28792   4.212   1.385   5.760
 9483SOL    HW128793   4.125   1.370   5.807
 9483SOL    HW228794   4.195   1.411   5.665
 9484SOL     OW28795   5.388   1.280   6.243
 9484SOL    HW128796   5.487   1.288   6.257
 9484SOL    HW228797   5.343   1.364   6.274
 9485SOL     OW28798   5.114   0.575   5.664
 9485SOL    HW128799   5.060   0.554   5.745
 9485SOL    HW228800   5.205   0.534   5.673
 9486SOL     OW28801   4.251   0.256   5.914
 9486SOL    HW128802   4.278   0.197   5.839
 9486SOL    HW228803   4.251   0.351   5.883
 9487SOL     OW28804   5.478   1.223   7.174
 9487SOL    HW128805   5.569   1.184   7.161
 9487SOL    HW228806   5.486   1.319   7.198
 9488SOL     OW28807   4.788   1.347   6.926
 9488SOL    HW128808   4.708   1.324   6.981
 9488SOL    HW228809   4.871   1.321   6.975
 9489SOL     OW28810   5.316   1.629   7.211
 9489SOL    HW128811   5.343   1.663   7.121
 9489SOL    HW228812   5.395   1.591   7.257
 9490SOL     OW28813   4.835   1.195   6.686
 9490SOL    HW128814   4.795   1.239   6.767
 9490SOL    HW228815   4.794   1.232   6.603
 9491SOL     OW28816   5.362   1.099   6.665
 9491SOL    HW128817   5.367   1.180   6.724
 9491SOL    HW228818   5.276   1.101   6.614
 9492SOL     OW28819   4.639   0.089   6.988
 9492SOL    HW128820   4.664   0.069   6.893
 9492SOL    HW228821   4.711   0.145   7.030
 9493SOL     OW28822   4.704   1.116   7.305
 9493SOL    HW128823   4.605   1.122   7.315
 9493SOL    HW228824   4.727   1.036   7.249
 9494SOL     OW28825   4.429   1.050   5.954
 9494SOL    HW128826   4.415   1.057   6.053
 9494SOL    HW228827   4.513   0.999   5.936
 9495SOL     OW28828   4.134   0.813   6.837
 9495SOL    HW128829   4.220   0.825   6.887
 9495SOL    HW228830   4.092   0.726   6.864
 9496SOL     OW28831   4.998   0.386   6.848
 9496SOL    HW128832   5.019   0.460   6.912
 9496SOL    HW228833   4.909   0.403   6.805
 9497SOL     OW28834   3.788   1.564   6.917
 9497SOL    HW128835   3.742   1.646   6.883
 9497SOL    HW228836   3.886   1.583   6.926
 9498SOL     OW28837   4.091   1.100   6.087
 9498SOL    HW128838   4.084   1.183   6.031
 9498SOL    HW228839   4.095   1.020   6.027
 9499SOL     OW28840   4.290   0.537   6.451
 9499SOL    HW128841   4.302   0.603   6.377
 9499SOL    HW228842   4.336   0.571   6.534
 9500SOL     OW28843   4.976   1.348   5.974
 9500SOL    HW128844   5.026   1.425   6.014
 9500SOL    HW228845   4.881   1.350   6.006
 9501SOL     OW28846   4.996   1.445   6.728
 9501SOL    HW128847   5.043   1.458   6.815
 9501SOL    HW228848   4.930   1.371   6.737
 9502SOL     OW28849   5.306   0.639   6.058
 9502SOL    HW128850   5.275   0.700   6.131
 9502SOL    HW228851   5.356   0.691   5.989
 9503SOL     OW28852   4.126   0.751   7.184
 9503SOL    HW128853   4.194   0.806   7.137
 9503SOL    HW228854   4.166   0.663   7.211
 9504SOL     OW28855   5.311   0.779   7.256
 9504SOL    HW128856   5.219   0.817   7.251
 9504SOL    HW228857   5.371   0.826   7.191
 9505SOL     OW28858   4.737   0.105   7.356
 9505SOL    HW128859   4.743   0.190   7.304
 9505SOL    HW228860   4.769   0.029   7.299
 9506SOL     OW28861   4.228   0.050   7.326
 9506SOL    HW128862   4.186  -0.007   7.256
 9506SOL    HW228863   4.162   0.119   7.358
 9507SOL     OW28864   4.297   0.870   6.615
 9507SOL    HW128865   4.341   0.959   6.606
 9507SOL    HW228866   4.234   0.870   6.692
 9508SOL     OW28867   5.084   0.862   6.631
 9508SOL    HW128868   5.009   0.862   6.565
 9508SOL    HW228869   5.121   0.770   6.640
 9509SOL     OW28870   4.933   0.525   5.861
 9509SOL    HW128871   4.946   0.441   5.915
 9509SOL    HW228872   4.904   0.599   5.921
 9510SOL     OW28873   4.031   0.213   6.817
 9510SOL    HW128874   4.008   0.250   6.907
 9510SOL    HW228875   4.001   0.118   6.811
 9511SOL     OW28876   3.761   1.310   6.868
 9511SOL    HW128877   3.814   1.261   6.936
 9511SOL    HW228878   3.783   1.408   6.873
 9512SOL     OW28879   4.456   0.634   6.650
 9512SOL    HW128880   4.515   0.608   6.574
 9512SOL    HW228881   4.428   0.730   6.639
 9513SOL     OW28882   5.452   0.935   7.440
 9513SOL    HW128883   5.406   0.928   7.351
 9513SOL    HW228884   5.390   0.979   7.506
 9514SOL     OW28885   4.031   0.063   6.204
 9514SOL    HW128886   4.020   0.157   6.237
 9514SOL    HW228887   4.026   0.000   6.281
 9515SOL     OW28888   5.346   0.367   5.960
 9515SOL    HW128889   5.348   0.291   6.024
 9515SOL    HW228890   5.298   0.444   6.000
 9516SOL     OW28891   4.747   0.766   6.552
 9516SOL    HW128892   4.762   0.787   6.648
 9516SOL    HW228893   4.717   0.671   6.543
 9517SOL     OW28894   4.704   1.573   7.286
 9517SOL    HW128895   4.684   1.617   7.198
 9517SOL    HW228896   4.743   1.482   7.270
 9518SOL     OW28897   5.583   1.518   7.191
 9518SOL    HW128898   5.597   1.545   7.096
 9518SOL    HW228899   5.666   1.540   7.244
 9519SOL     OW28900   4.074   0.898   7.390
 9519SOL    HW128901   4.150   0.942   7.438
 9519SOL    HW228902   4.109   0.851   7.308
 9520SOL     OW28903   5.264   0.274   5.711
 9520SOL    HW128904   5.203   0.199   5.734
 9520SOL    HW228905   5.286   0.326   5.794
 9521SOL     OW28906   5.027   0.838   5.628
 9521SOL    HW128907   5.061   0.745   5.643
 9521SOL    HW228908   5.045   0.865   5.533
 9522SOL     OW28909   4.792   1.333   6.435
 9522SOL    HW128910   4.799   1.249   6.380
 9522SOL    HW228911   4.854   1.402   6.399
 9523SOL     OW28912   4.043   0.810   6.535
 9523SOL    HW128913   4.136   0.846   6.540
 9523SOL    HW228914   4.037   0.725   6.587
 9524SOL     OW28915   4.063   0.509   6.592
 9524SOL    HW128916   4.011   0.426   6.575
 9524SOL    HW228917   4.140   0.514   6.528
 9525SOL     OW28918   4.862   0.380   7.264
 9525SOL    HW128919   4.817   0.443   7.328
 9525SOL    HW228920   4.955   0.411   7.247
 9526SOL     OW28921   4.884   0.207   7.063
 9526SOL    HW128922   4.884   0.271   7.140
 9526SOL    HW228923   4.912   0.255   6.980
 9527SOL     OW28924   3.732   1.326   5.786
 9527SOL    HW128925   3.639   1.347   5.755
 9527SOL    HW228926   3.742   1.227   5.799
 9528SOL     OW28927   3.812   1.801   6.513
 9528SOL    HW128928   3.770   1.715   6.486
 9528SOL    HW228929   3.906   1.804   6.479
 9529SOL     OW28930   4.228   1.568   6.496
 9529SOL    HW128931   4.294   1.642   6.505
 9529SOL    HW228932   4.272   1.489   6.454
 9530SOL     OW28933   4.726   0.796   6.824
 9530SOL    HW128934   4.767   0.764   6.910
 9530SOL    HW228935   4.630   0.769   6.821
 9531SOL     OW28936   3.764   0.544   6.700
 9531SOL    HW128937   3.849   0.511   6.659
 9531SOL    HW228938   3.777   0.559   6.798
 9532SOL     OW28939   3.913   0.520   7.308
 9532SOL    HW128940   3.972   0.480   7.238
 9532SOL    HW228941   3.855   0.591   7.267
 9533SOL     OW28942   5.093   0.950   7.246
 9533SOL    HW128943   5.132   1.039   7.266
 9533SOL    HW228944   5.103   0.930   7.149
 9534SOL     OW28945   4.539   0.572   5.911
 9534SOL    HW128946   4.546   0.483   5.865
 9534SOL    HW228947   4.445   0.606   5.903
 9535SOL     OW28948   5.381   0.604   6.792
 9535SOL    HW128949   5.343   0.535   6.854
 9535SOL    HW228950   5.463   0.568   6.748
 9536SOL     OW28951   3.976   1.564   7.330
 9536SOL    HW128952   3.946   1.621   7.406
 9536SOL    HW228953   3.969   1.467   7.356
 9537SOL     OW28954   4.395   0.464   6.855
 9537SOL    HW128955   4.361   0.375   6.825
 9537SOL    HW228956   4.421   0.518   6.775
 9538SOL     OW28957   4.654   1.678   7.051
 9538SOL    HW128958   4.630   1.660   6.956
 9538SOL    HW228959   4.684   1.772   7.061
 9539SOL     OW28960   4.197   0.500   5.777
 9539SOL    HW128961   4.258   0.580   5.781
 9539SOL    HW228962   4.102   0.531   5.784
 9540SOL     OW28963   3.883   1.137   7.052
 9540SOL    HW128964   3.905   1.076   7.128
 9540SOL    HW228965   3.893   1.088   6.966
 9541SOL     OW28966   5.071   1.059   6.820
 9541SOL    HW128967   5.095   0.996   6.746
 9541SOL    HW228968   4.981   1.099   6.802
 9542SOL     OW28969   5.026   0.855   5.895
 9542SOL    HW128970   4.940   0.824   5.937
 9542SOL    HW228971   5.022   0.841   5.796
 9543SOL     OW28972   5.483   1.747   6.740
 9543SOL    HW128973   5.544   1.777   6.667
 9543SOL    HW228974   5.445   1.658   6.718
 9544SOL     OW28975   4.976   1.731   6.714
 9544SOL    HW128976   5.060   1.736   6.660
 9544SOL    HW228977   4.953   1.635   6.732
 9545SOL     OW28978   3.807   1.258   6.608
 9545SOL    HW128979   3.802   1.257   6.708
 9545SOL    HW228980   3.724   1.217   6.570
 9546SOL     OW28981   4.412   1.662   7.302
 9546SOL    HW128982   4.356   1.743   7.311
 9546SOL    HW228983   4.464   1.666   7.216
 9547SOL     OW28984   5.450   0.135   6.109
 9547SOL    HW128985   5.523   0.118   6.042
 9547SOL    HW228986   5.419   0.048   6.147
 9548SOL     OW28987   5.112   1.573   6.063
 9548SOL    HW128988   5.179   1.585   5.989
 9548SOL    HW228989   5.072   1.662   6.086
 9549SOL     OW28990   3.854   1.794   7.437
 9549SOL    HW128991   3.813   1.720   7.490
 9549SOL    HW228992   3.918   1.845   7.495
 9550SOL     OW28993   5.004   0.927   6.258
 9550SOL    HW128994   5.064   0.846   6.260
 9550SOL    HW228995   5.044   0.996   6.198
 9551SOL     OW28996   4.554   1.273   7.008
 9551SOL    HW128997   4.549   1.306   7.103
 9551SOL    HW228998   4.468   1.292   6.962
 9552SOL     OW28999   4.396   1.616   5.740
 9552SOL    HW129000   4.405   1.626   5.641
 9552SOL    HW229001   4.356   1.527   5.761
 9553SOL     OW29002   5.374   1.720   6.980
 9553SOL    HW129003   5.427   1.730   6.896
 9553SOL    HW229004   5.347   1.810   7.014
 9554SOL     OW29005   5.565   0.175   6.549
 9554SOL    HW129006   5.604   0.090   6.513
 9554SOL    HW229007   5.467   0.177   6.530
 9555SOL     OW29008   3.987   0.326   6.306
 9555SOL    HW129009   3.908   0.377   6.272
 9555SOL    HW229010   3.978   0.311   6.404
 9556SOL     OW29011   4.918   1.612   5.617
 9556SOL    HW129012   4.924   1.519   5.654
 9556SOL    HW229013   4.859   1.612   5.537
 9557SOL     OW29014   4.546   1.002   6.958
 9557SOL    HW129015   4.586   1.001   6.866
 9557SOL    HW229016   4.556   1.094   6.998
 9558SOL     OW29017   4.640   0.910   5.877
 9558SOL    HW129018   4.703   0.948   5.809
 9558SOL    HW229019   4.680   0.827   5.916
 9559SOL     OW29020   5.228   1.607   5.630
 9559SOL    HW129021   5.136   1.644   5.637
 9559SOL    HW229022   5.266   1.627   5.540
 9560SOL     OW29023   4.096   1.288   7.076
 9560SOL    HW129024   4.083   1.381   7.042
 9560SOL    HW229025   4.012   1.236   7.063
 9561SOL     OW29026   5.338   1.292   6.875
 9561SOL    HW129027   5.398   1.295   6.955
 9561SOL    HW229028   5.263   1.356   6.888
 9562SOL     OW29029   4.763   1.098   6.282
 9562SOL    HW129030   4.693   1.051   6.336
 9562SOL    HW229031   4.822   1.030   6.239
 9563SOL     OW29032   4.738   0.236   6.557
 9563SOL    HW129033   4.730   0.200   6.464
 9563SOL    HW229034   4.736   0.160   6.622
 9564SOL     OW29035   4.314   1.487   6.077
 9564SOL    HW129036   4.356   1.429   6.007
 9564SOL    HW229037   4.270   1.566   6.033
 9565SOL     OW29038   5.433   0.385   6.967
 9565SOL    HW129039   5.506   0.454   6.971
 9565SOL    HW229040   5.461   0.310   6.908
 9566SOL     OW29041   3.979   1.348   5.876
 9566SOL    HW129042   3.883   1.349   5.849
 9566SOL    HW229043   3.991   1.401   5.960
 9567SOL     OW29044   3.829   1.013   7.312
 9567SOL    HW129045   3.752   0.980   7.366
 9567SOL    HW229046   3.914   0.983   7.354
 9568SOL     OW29047   4.396   0.203   7.075
 9568SOL    HW129048   4.486   0.187   7.035
 9568SOL    HW229049   4.404   0.208   7.174
 9569SOL     OW29050   3.799   0.345   5.619
 9569SOL    HW129051   3.707   0.317   5.590
 9569SOL    HW229052   3.830   0.422   5.563
 9570SOL     OW29053   5.164   0.856   6.984
 9570SOL    HW129054   5.107   0.908   6.921
 9570SOL    HW229055   5.260   0.868   6.960
 9571SOL     OW29056   3.796   0.166   5.904
 9571SOL    HW129057   3.779   0.249   5.850
 9571SOL    HW229058   3.886   0.129   5.882
 9572SOL     OW29059   4.907   1.335   5.705
 9572SOL    HW129060   4.808   1.324   5.707
 9572SOL    HW229061   4.941   1.350   5.798
 9573SOL     OW29062   4.337   0.842   7.017
 9573SOL    HW129063   4.393   0.923   7.000
 9573SOL    HW229064   4.396   0.762   7.020
 9574SOL     OW29065   5.217   1.767   6.545
 9574SOL    HW129066   5.250   1.831   6.476
 9574SOL    HW229067   5.283   1.761   6.620
 9575SOL     OW29068   4.440   0.565   7.294
 9575SOL    HW129069   4.459   0.630   7.368
 9575SOL    HW229070   4.500   0.485   7.303
 9576SOL     OW29071   5.174   1.220   7.219
 9576SOL    HW129072   5.165   1.210   7.318
 9576SOL    HW229073   5.270   1.213   7.193
 9577SOL     OW29074   4.114   1.741   7.146
 9577SOL    HW129075   4.023   1.782   7.144
 9577SOL    HW229076   4.107   1.647   7.178
 9578SOL     OW29077   5.398   0.883   6.840
 9578SOL    HW129078   5.371   0.794   6.803
 9578SOL    HW229079   5.399   0.951   6.767
 9579SOL     OW29080   4.949   0.325   6.035
 9579SOL    HW129081   5.014   0.251   6.024
 9579SOL    HW229082   4.969   0.375   6.119
 9580SOL     OW29083   4.318   0.745   6.238
 9580SOL    HW129084   4.368   0.830   6.219
 9580SOL    HW229085   4.230   0.747   6.190
 9581SOL     OW29086   5.501   0.342   7.228
 9581SOL    HW129087   5.484   0.373   7.134
 9581SOL    HW229088   5.417   0.305   7.266
 9582SOL     OW29089   5.454   0.934   7.103
 9582SOL    HW129090   5.492   1.025   7.118
 9582SOL    HW229091   5.446   0.917   7.004
 9583SOL     OW29092   4.583   1.374   5.602
 9583SOL    HW129093   4.537   1.389   5.690
 9583SOL    HW229094   4.627   1.459   5.572
 9584SOL     OW29095   4.385   1.790   6.539
 9584SOL    HW129096   4.339   1.878   6.526
 9584SOL    HW229097   4.484   1.802   6.532
 9585SOL     OW29098   4.583   0.956   6.447
 9585SOL    HW129099   4.637   0.887   6.495
 9585SOL    HW229100   4.551   1.025   6.513
 9586SOL     OW29101   4.807   0.984   5.673
 9586SOL    HW129102   4.784   1.037   5.591
 9586SOL    HW229103   4.888   0.928   5.654
 9587SOL     OW29104   5.585   1.569   6.437
 9587SOL    HW129105   5.514   1.557   6.367
 9587SOL    HW229106   5.586   1.490   6.497
 9588SOL     OW29107   3.945   1.314   7.430
 9588SOL    HW129108   3.880   1.241   7.409
 9588SOL    HW229109   3.949   1.328   7.528
 9589SOL     OW29110   3.803   1.240   6.239
 9589SOL    HW129111   3.802   1.193   6.327
 9589SOL    HW229112   3.885   1.212   6.188
 9590SOL     OW29113   4.396   1.391   7.210
 9590SOL    HW129114   4.318   1.341   7.248
 9590SOL    HW229115   4.393   1.486   7.241
 9591SOL     OW29116   5.548   0.192   6.813
 9591SOL    HW129117   5.544   0.102   6.857
 9591SOL    HW229118   5.551   0.181   6.714
 9592SOL     OW29119   4.152   0.424   6.106
 9592SOL    HW129120   4.182   0.352   6.044
 9592SOL    HW229121   4.113   0.384   6.189
 9593SOL     OW29122   5.429   1.487   6.690
 9593SOL    HW129123   5.336   1.462   6.663
 9593SOL    HW229124   5.455   1.437   6.772
 9594SOL     OW29125   4.041   0.547   6.866
 9594SOL    HW129126   4.079   0.488   6.938
 9594SOL    HW229127   4.081   0.521   6.778
 9595SOL     OW29128   4.536   1.586   6.273
 9595SOL    HW129129   4.568   1.596   6.179
 9595SOL    HW229130   4.457   1.524   6.275
 9596SOL     OW29131   5.148   0.214   6.698
 9596SOL    HW129132   5.200   0.149   6.753
 9596SOL    HW229133   5.099   0.277   6.759
 9597SOL     OW29134   4.725   0.034   6.740
 9597SOL    HW129135   4.662  -0.038   6.709
 9597SOL    HW229136   4.818  -0.002   6.740
 9598SOL     OW29137   4.494   1.330   5.887
 9598SOL    HW129138   4.448   1.243   5.904
 9598SOL    HW229139   4.585   1.327   5.928
 9599SOL     OW29140   4.342   1.567   6.870
 9599SOL    HW129141   4.337   1.649   6.927
 9599SOL    HW229142   4.431   1.564   6.825
 9600SOL     OW29143   5.076   0.052   5.754
 9600SOL    HW129144   5.111   0.011   5.670
 9600SOL    HW229145   4.986   0.014   5.774
 9601SOL     OW29146   5.024   0.453   6.277
 9601SOL    HW129147   4.965   0.533   6.281
 9601SOL    HW229148   5.039   0.418   6.370
 9602SOL     OW29149   5.317   0.221   6.468
 9602SOL    HW129150   5.233   0.220   6.522
 9602SOL    HW229151   5.319   0.304   6.412
 9603SOL     OW29152   3.763   1.077   5.886
 9603SOL    HW129153   3.862   1.066   5.877
 9603SOL    HW229154   3.723   0.991   5.918
 9604SOL     OW29155   4.599   1.646   5.923
 9604SOL    HW129156   4.522   1.611   5.869
 9604SOL    HW229157   4.567   1.717   5.985
 9605SOL     OW29158   3.751   1.596   7.565
 9605SOL    HW129159   3.732   1.500   7.586
 9605SOL    HW229160   3.718   1.654   7.640
 9606SOL     OW29161   5.249   0.999   7.638
 9606SOL    HW129162   5.186   0.923   7.651
 9606SOL    HW229163   5.297   1.017   7.724
 9607SOL     OW29164   4.045   0.943   7.690
 9607SOL    HW129165   4.127   0.982   7.648
 9607SOL    HW229166   4.018   0.861   7.641
 9608SOL     OW29167   4.835   1.776   7.685
 9608SOL    HW129168   4.775   1.714   7.735
 9608SOL    HW229169   4.866   1.732   7.600
 9609SOL     OW29170   5.356   1.377   7.529
 9609SOL    HW129171   5.324   1.471   7.519
 9609SOL    HW229172   5.280   1.314   7.517
 9610SOL     OW29173   5.158   1.188   7.489
 9610SOL    HW129174   5.190   1.112   7.546
 9610SOL    HW229175   5.066   1.215   7.519
 9611SOL     OW29176   4.756   0.549   7.464
 9611SOL    HW129177   4.715   0.631   7.425
 9611SOL    HW229178   4.820   0.575   7.537
 9612SOL     OW29179   4.212   1.385   7.622
 9612SOL    HW129180   4.125   1.370   7.669
 9612SOL    HW229181   4.195   1.411   7.527
 9613SOL     OW29182   5.114   0.575   7.526
 9613SOL    HW129183   5.060   0.554   7.607
 9613SOL    HW229184   5.205   0.534   7.535
 9614SOL     OW29185   5.264   0.274   7.573
 9614SOL    HW129186   5.203   0.199   7.596
 9614SOL    HW229187   5.286   0.326   7.656
 9615SOL     OW29188   5.027   0.838   7.490
 9615SOL    HW129189   5.061   0.745   7.505
 9615SOL    HW229190   5.045   0.865   7.395
 9616SOL     OW29191   4.197   0.500   7.639
 9616SOL    HW129192   4.258   0.580   7.643
 9616SOL    HW229193   4.102   0.531   7.646
 9617SOL     OW29194   5.112   1.573   7.925
 9617SOL    HW129195   5.179   1.585   7.851
 9617SOL    HW229196   5.072   1.662   7.948
 9618SOL     OW29197   4.396   1.616   7.602
 9618SOL    HW129198   4.405   1.626   7.503
 9618SOL    HW229199   4.356   1.527   7.623
 9619SOL     OW29200   4.918   1.612   7.479
 9619SOL    HW129201   4.924   1.519   7.516
 9619SOL    HW229202   4.859   1.612   7.399
 9620SOL     OW29203   5.228   1.607   7.492
 9620SOL    HW129204   5.136   1.644   7.499
 9620SOL    HW229205   5.266   1.627   7.402
 9621SOL     OW29206   3.799   0.345   7.481
 9621SOL    HW129207   3.707   0.317   7.452
 9621SOL    HW229208   3.830   0.422   7.425
 9622SOL     OW29209   4.583   1.374   7.464
 9622SOL    HW129210   4.537   1.389   7.552
 9622SOL    HW229211   4.627   1.459   7.434
 9623SOL     OW29212   4.807   0.984   7.535
 9623SOL    HW129213   4.784   1.037   7.453
 9623SOL    HW229214   4.888   0.928   7.516
 9624SOL     OW29215   5.076   0.052   7.616
 9624SOL    HW129216   5.111   0.011   7.532
 9624SOL    HW229217   4.986   0.014   7.636
 9625SOL     OW29218   3.763   1.077   7.748
 9625SOL    HW129219   3.862   1.066   7.739
 9625SOL    HW229220   3.723   0.991   7.780
 9626SOL     OW29221   3.949   2.137   0.996
 9626SOL    HW129222   3.984   2.120   1.088
 9626SOL    HW229223   3.861   2.092   0.984
 9627SOL     OW29224   3.743   2.230   0.647
 9627SOL    HW129225   3.661   2.273   0.686
 9627SOL    HW229226   3.715   2.157   0.584
 9628SOL     OW29227   4.293   3.137   1.165
 9628SOL    HW129228   4.200   3.130   1.128
 9628SOL    HW229229   4.304   3.226   1.209
 9629SOL     OW29230   5.279   3.373   0.703
 9629SOL    HW129231   5.222   3.357   0.784
 9629SOL    HW229232   5.220   3.383   0.623
 9630SOL     OW29233   4.859   2.565   0.717
 9630SOL    HW129234   4.916   2.643   0.692
 9630SOL    HW229235   4.799   2.591   0.793
 9631SOL     OW29236   5.479   2.469   0.231
 9631SOL    HW129237   5.467   2.456   0.132
 9631SOL    HW229238   5.449   2.388   0.280
 9632SOL     OW29239   4.492   3.006   1.023
 9632SOL    HW129240   4.414   3.023   1.083
 9632SOL    HW229241   4.526   3.093   0.987
 9633SOL     OW29242   4.574   2.660   1.823
 9633SOL    HW129243   4.570   2.736   1.888
 9633SOL    HW229244   4.596   2.696   1.732
 9634SOL     OW29245   4.409   2.874   0.665
 9634SOL    HW129246   4.478   2.858   0.735
 9634SOL    HW229247   4.336   2.931   0.703
 9635SOL     OW29248   4.410   3.023   1.803
 9635SOL    HW129249   4.470   3.102   1.817
 9635SOL    HW229250   4.324   3.054   1.762
 9636SOL     OW29251   4.059   3.297   1.061
 9636SOL    HW129252   3.981   3.266   1.008
 9636SOL    HW229253   4.117   3.355   1.004
 9637SOL     OW29254   5.184   3.367   1.339
 9637SOL    HW129255   5.208   3.461   1.365
 9637SOL    HW229256   5.168   3.313   1.421
 9638SOL     OW29257   4.162   2.254   1.499
 9638SOL    HW129258   4.244   2.198   1.508
 9638SOL    HW229259   4.081   2.196   1.503
 9639SOL     OW29260   5.327   2.309   0.737
 9639SOL    HW129261   5.253   2.355   0.687
 9639SOL    HW229262   5.378   2.377   0.790
 9640SOL     OW29263   3.955   3.575   0.483
 9640SOL    HW129264   3.989   3.652   0.537
 9640SOL    HW229265   3.999   3.575   0.393
 9641SOL     OW29266   4.851   3.203   1.690
 9641SOL    HW129267   4.898   3.203   1.778
 9641SOL    HW229268   4.803   3.116   1.679
 9642SOL     OW29269   3.954   3.296   0.538
 9642SOL    HW129270   3.928   3.392   0.538
 9642SOL    HW229271   3.883   3.242   0.583
 9643SOL     OW29272   3.964   2.953   0.886
 9643SOL    HW129273   3.978   2.869   0.938
 9643SOL    HW229274   3.909   3.017   0.941
 9644SOL     OW29275   4.344   3.648   1.439
 9644SOL    HW129276   4.252   3.631   1.474
 9644SOL    HW229277   4.372   3.740   1.465
 9645SOL     OW29278   5.318   1.976   1.480
 9645SOL    HW129279   5.300   2.043   1.408
 9645SOL    HW229280   5.315   2.022   1.569
 9646SOL     OW29281   3.846   2.505   0.563
 9646SOL    HW129282   3.801   2.417   0.580
 9646SOL    HW229283   3.845   2.559   0.647
 9647SOL     OW29284   5.566   3.629   0.359
 9647SOL    HW129285   5.620   3.600   0.439
 9647SOL    HW229286   5.596   3.719   0.330
 9648SOL     OW29287   5.413   2.784   0.612
 9648SOL    HW129288   5.508   2.755   0.620
 9648SOL    HW229289   5.405   2.849   0.537
 9649SOL     OW29290   3.837   2.599   1.597
 9649SOL    HW129291   3.925   2.586   1.642
 9649SOL    HW229292   3.824   2.696   1.575
 9650SOL     OW29293   4.337   3.227   0.726
 9650SOL    HW129294   4.288   3.140   0.735
 9650SOL    HW229295   4.314   3.270   0.639
 9651SOL     OW29296   5.017   3.090   1.423
 9651SOL    HW129297   5.054   3.017   1.365
 9651SOL    HW229298   5.069   3.095   1.508
 9652SOL     OW29299   4.533   1.866   0.502
 9652SOL    HW129300   4.573   1.957   0.493
 9652SOL    HW229301   4.433   1.874   0.508
 9653SOL     OW29302   3.921   2.838   1.264
 9653SOL    HW129303   4.010   2.793   1.250
 9653SOL    HW229304   3.848   2.773   1.245
 9654SOL     OW29305   4.911   3.654   1.616
 9654SOL    HW129306   4.935   3.714   1.540
 9654SOL    HW229307   4.918   3.559   1.586
 9655SOL     OW29308   4.041   2.113   1.801
 9655SOL    HW129309   4.112   2.184   1.807
 9655SOL    HW229310   3.953   2.152   1.829
 9656SOL     OW29311   5.190   3.279   0.953
 9656SOL    HW129312   5.131   3.285   1.033
 9656SOL    HW229313   5.175   3.191   0.907
 9657SOL     OW29314   5.391   3.576   0.572
 9657SOL    HW129315   5.350   3.553   0.484
 9657SOL    HW229316   5.373   3.502   0.637
 9658SOL     OW29317   5.005   2.207   0.944
 9658SOL    HW129318   4.919   2.157   0.931
 9658SOL    HW229319   5.067   2.153   1.000
 9659SOL     OW29320   4.531   2.467   1.465
 9659SOL    HW129321   4.484   2.464   1.554
 9659SOL    HW229322   4.480   2.412   1.399
 9660SOL     OW29323   5.118   2.331   1.674
 9660SOL    HW129324   5.098   2.374   1.762
 9660SOL    HW229325   5.196   2.269   1.683
 9661SOL     OW29326   4.697   2.752   1.572
 9661SOL    HW129327   4.743   2.668   1.543
 9661SOL    HW229328   4.641   2.786   1.497
 9662SOL     OW29329   4.715   2.272   1.242
 9662SOL    HW129330   4.638   2.306   1.296
 9662SOL    HW229331   4.681   2.221   1.163
 9663SOL     OW29332   4.765   2.563   0.429
 9663SOL    HW129333   4.791   2.559   0.525
 9663SOL    HW229334   4.680   2.512   0.415
 9664SOL     OW29335   3.800   2.673   0.789
 9664SOL    HW129336   3.899   2.661   0.798
 9664SOL    HW229337   3.776   2.768   0.810
 9665SOL     OW29338   3.854   3.683   1.571
 9665SOL    HW129339   3.844   3.668   1.670
 9665SOL    HW229340   3.768   3.719   1.535
 9666SOL     OW29341   5.443   2.447   1.831
 9666SOL    HW129342   5.417   2.536   1.795
 9666SOL    HW229343   5.441   2.379   1.758
 9667SOL     OW29344   5.086   3.006   0.545
 9667SOL    HW129345   5.169   2.977   0.497
 9667SOL    HW229346   5.037   3.073   0.489
 9668SOL     OW29347   4.274   2.058   0.885
 9668SOL    HW129348   4.269   2.053   0.985
 9668SOL    HW229349   4.276   2.154   0.856
 9669SOL     OW29350   4.732   3.318   0.477
 9669SOL    HW129351   4.686   3.390   0.425
 9669SOL    HW229352   4.728   3.338   0.575
 9670SOL     OW29353   4.075   3.663   0.853
 9670SOL    HW129354   4.125   3.577   0.859
 9670SOL    HW229355   4.140   3.740   0.850
 9671SOL     OW29356   5.519   2.928   0.873
 9671SOL    HW129357   5.457   2.913   0.797
 9671SOL    HW229358   5.467   2.939   0.958
 9672SOL     OW29359   4.951   3.412   1.506
 9672SOL    HW129360   4.957   3.335   1.570
 9672SOL    HW229361   4.899   3.386   1.426
 9673SOL     OW29362   5.182   2.597   0.728
 9673SOL    HW129363   5.177   2.532   0.803
 9673SOL    HW229364   5.262   2.656   0.741
 9674SOL     OW29365   3.926   2.147   1.498
 9674SOL    HW129366   3.846   2.207   1.485
 9674SOL    HW229367   3.916   2.098   1.584
 9675SOL     OW29368   5.124   1.969   0.426
 9675SOL    HW129369   5.100   1.932   0.336
 9675SOL    HW229370   5.223   1.985   0.430
 9676SOL     OW29371   3.973   3.647   1.241
 9676SOL    HW129372   4.030   3.582   1.291
 9676SOL    HW229373   3.957   3.614   1.148
 9677SOL     OW29374   4.664   3.560   0.904
 9677SOL    HW129375   4.744   3.503   0.925
 9677SOL    HW229376   4.615   3.520   0.827
 9678SOL     OW29377   4.106   2.562   0.480
 9678SOL    HW129378   4.151   2.472   0.477
 9678SOL    HW229379   4.012   2.551   0.513
 9679SOL     OW29380   5.271   2.084   1.729
 9679SOL    HW129381   5.266   2.121   1.821
 9679SOL    HW229382   5.199   2.015   1.717
 9680SOL     OW29383   4.505   2.126   1.749
 9680SOL    HW129384   4.572   2.065   1.792
 9680SOL    HW229385   4.432   2.145   1.814
 9681SOL     OW29386   4.612   3.376   1.195
 9681SOL    HW129387   4.589   3.351   1.101
 9681SOL    HW229388   4.673   3.307   1.234
 9682SOL     OW29389   5.075   2.452   1.433
 9682SOL    HW129390   5.103   2.409   1.518
 9682SOL    HW229391   5.100   2.548   1.434
 9683SOL     OW29392   4.527   3.264   0.924
 9683SOL    HW129393   4.617   3.278   0.882
 9683SOL    HW229394   4.456   3.266   0.853
 9684SOL     OW29395   4.646   2.365   0.899
 9684SOL    HW129396   4.621   2.356   0.803
 9684SOL    HW229397   4.694   2.283   0.930
 9685SOL     OW29398   4.263   1.926   0.512
 9685SOL    HW129399   4.182   1.927   0.570
 9685SOL    HW229400   4.266   2.009   0.457
 9686SOL     OW29401   4.659   2.098   0.480
 9686SOL    HW129402   4.611   2.139   0.402
 9686SOL    HW229403   4.758   2.096   0.461
 9687SOL     OW29404   4.800   2.545   1.464
 9687SOL    HW129405   4.720   2.484   1.467
 9687SOL    HW229406   4.881   2.492   1.440
 9688SOL     OW29407   4.951   3.432   0.793
 9688SOL    HW129408   4.972   3.506   0.728
 9688SOL    HW229409   5.019   3.432   0.866
 9689SOL     OW29410   4.183   3.014   0.741
 9689SOL    HW129411   4.112   2.987   0.806
 9689SOL    HW229412   4.157   2.986   0.648
 9690SOL     OW29413   4.995   3.659   0.591
 9690SOL    HW129414   5.039   3.723   0.527
 9690SOL    HW229415   4.945   3.711   0.661
 9691SOL     OW29416   4.756   2.411   0.016
 9691SOL    HW129417   4.715   2.493  -0.023
 9691SOL    HW229418   4.820   2.437   0.089
 9692SOL     OW29419   3.802   2.418   1.386
 9692SOL    HW129420   3.894   2.417   1.345
 9692SOL    HW229421   3.796   2.492   1.453
 9693SOL     OW29422   4.285   2.084   1.147
 9693SOL    HW129423   4.323   2.000   1.184
 9693SOL    HW229424   4.197   2.103   1.191
 9694SOL     OW29425   4.590   2.316   0.642
 9694SOL    HW129426   4.558   2.388   0.580
 9694SOL    HW229427   4.614   2.235   0.589
 9695SOL     OW29428   4.741   1.901   0.753
 9695SOL    HW129429   4.669   1.906   0.684
 9695SOL    HW229430   4.717   1.832   0.822
 9696SOL     OW29431   5.153   3.035   0.867
 9696SOL    HW129432   5.098   2.951   0.860
 9696SOL    HW229433   5.179   3.064   0.775
 9697SOL     OW29434   5.190   2.452   0.992
 9697SOL    HW129435   5.160   2.357   0.999
 9697SOL    HW229436   5.263   2.468   1.058
 9698SOL     OW29437   5.388   3.142   0.657
 9698SOL    HW129438   5.487   3.150   0.671
 9698SOL    HW229439   5.343   3.226   0.688
 9699SOL     OW29440   4.251   2.118   0.328
 9699SOL    HW129441   4.278   2.059   0.253
 9699SOL    HW229442   4.251   2.213   0.297
 9700SOL     OW29443   5.478   3.085   1.588
 9700SOL    HW129444   5.569   3.046   1.575
 9700SOL    HW229445   5.486   3.181   1.612
 9701SOL     OW29446   4.788   3.209   1.340
 9701SOL    HW129447   4.708   3.186   1.395
 9701SOL    HW229448   4.871   3.183   1.389
 9702SOL     OW29449   5.316   3.491   1.625
 9702SOL    HW129450   5.343   3.525   1.535
 9702SOL    HW229451   5.395   3.453   1.671
 9703SOL     OW29452   4.835   3.057   1.100
 9703SOL    HW129453   4.795   3.101   1.181
 9703SOL    HW229454   4.794   3.094   1.017
 9704SOL     OW29455   5.362   2.961   1.079
 9704SOL    HW129456   5.367   3.042   1.138
 9704SOL    HW229457   5.276   2.963   1.028
 9705SOL     OW29458   4.639   1.951   1.402
 9705SOL    HW129459   4.664   1.931   1.307
 9705SOL    HW229460   4.711   2.007   1.444
 9706SOL     OW29461   4.704   2.978   1.719
 9706SOL    HW129462   4.605   2.984   1.729
 9706SOL    HW229463   4.727   2.898   1.663
 9707SOL     OW29464   4.134   2.675   1.251
 9707SOL    HW129465   4.220   2.687   1.301
 9707SOL    HW229466   4.092   2.588   1.278
 9708SOL     OW29467   4.998   2.248   1.262
 9708SOL    HW129468   5.019   2.322   1.326
 9708SOL    HW229469   4.909   2.265   1.219
 9709SOL     OW29470   3.788   3.426   1.331
 9709SOL    HW129471   3.742   3.508   1.297
 9709SOL    HW229472   3.886   3.445   1.340
 9710SOL     OW29473   4.091   2.962   0.501
 9710SOL    HW129474   4.084   3.045   0.445
 9710SOL    HW229475   4.095   2.882   0.441
 9711SOL     OW29476   4.290   2.399   0.865
 9711SOL    HW129477   4.302   2.465   0.791
 9711SOL    HW229478   4.336   2.433   0.948
 9712SOL     OW29479   4.976   3.210   0.388
 9712SOL    HW129480   5.026   3.287   0.428
 9712SOL    HW229481   4.881   3.212   0.420
 9713SOL     OW29482   4.996   3.307   1.142
 9713SOL    HW129483   5.043   3.320   1.229
 9713SOL    HW229484   4.930   3.233   1.151
 9714SOL     OW29485   5.306   2.501   0.472
 9714SOL    HW129486   5.275   2.562   0.545
 9714SOL    HW229487   5.356   2.553   0.403
 9715SOL     OW29488   4.078   3.372   1.329
 9715SOL    HW129489   4.057   3.328   1.242
 9715SOL    HW229490   4.175   3.398   1.332
 9716SOL     OW29491   4.126   2.613   1.598
 9716SOL    HW129492   4.194   2.668   1.551
 9716SOL    HW229493   4.166   2.525   1.625
 9717SOL     OW29494   5.311   2.641   1.670
 9717SOL    HW129495   5.219   2.679   1.665
 9717SOL    HW229496   5.371   2.688   1.605
 9718SOL     OW29497   4.737   1.967   1.770
 9718SOL    HW129498   4.743   2.052   1.718
 9718SOL    HW229499   4.769   1.891   1.713
 9719SOL     OW29500   4.228   1.912   1.740
 9719SOL    HW129501   4.186   1.855   1.670
 9719SOL    HW229502   4.162   1.981   1.772
 9720SOL     OW29503   4.297   2.732   1.029
 9720SOL    HW129504   4.341   2.821   1.020
 9720SOL    HW229505   4.234   2.732   1.106
 9721SOL     OW29506   5.084   2.724   1.045
 9721SOL    HW129507   5.009   2.724   0.979
 9721SOL    HW229508   5.121   2.632   1.054
 9722SOL     OW29509   4.933   2.387   0.275
 9722SOL    HW129510   4.946   2.303   0.329
 9722SOL    HW229511   4.904   2.461   0.335
 9723SOL     OW29512   4.031   2.075   1.231
 9723SOL    HW129513   4.008   2.112   1.321
 9723SOL    HW229514   4.001   1.980   1.225
 9724SOL     OW29515   3.761   3.172   1.282
 9724SOL    HW129516   3.814   3.123   1.350
 9724SOL    HW229517   3.783   3.270   1.287
 9725SOL     OW29518   4.456   2.496   1.064
 9725SOL    HW129519   4.515   2.470   0.988
 9725SOL    HW229520   4.428   2.592   1.053
 9726SOL     OW29521   5.452   2.797   1.854
 9726SOL    HW129522   5.406   2.790   1.765
 9726SOL    HW229523   5.390   2.841   1.920
 9727SOL     OW29524   4.031   1.925   0.618
 9727SOL    HW129525   4.020   2.019   0.651
 9727SOL    HW229526   4.026   1.862   0.695
 9728SOL     OW29527   4.747   2.628   0.966
 9728SOL    HW129528   4.762   2.649   1.062
 9728SOL    HW229529   4.717   2.533   0.957
 9729SOL     OW29530   4.704   3.435   1.700
 9729SOL    HW129531   4.684   3.479   1.612
 9729SOL    HW229532   4.743   3.344   1.684
 9730SOL     OW29533   5.583   3.380   1.605
 9730SOL    HW129534   5.597   3.407   1.510
 9730SOL    HW229535   5.666   3.402   1.658
 9731SOL     OW29536   4.074   2.760   1.804
 9731SOL    HW129537   4.150   2.804   1.852
 9731SOL    HW229538   4.109   2.713   1.722
 9732SOL     OW29539   4.792   3.195   0.849
 9732SOL    HW129540   4.799   3.111   0.794
 9732SOL    HW229541   4.854   3.264   0.813
 9733SOL     OW29542   4.043   2.672   0.949
 9733SOL    HW129543   4.136   2.708   0.954
 9733SOL    HW229544   4.037   2.587   1.001
 9734SOL     OW29545   4.063   2.371   1.006
 9734SOL    HW129546   4.011   2.288   0.989
 9734SOL    HW229547   4.140   2.376   0.942
 9735SOL     OW29548   4.862   2.242   1.678
 9735SOL    HW129549   4.817   2.305   1.742
 9735SOL    HW229550   4.955   2.273   1.661
 9736SOL     OW29551   4.884   2.069   1.477
 9736SOL    HW129552   4.884   2.133   1.554
 9736SOL    HW229553   4.912   2.117   1.394
 9737SOL     OW29554   3.812   3.663   0.927
 9737SOL    HW129555   3.770   3.577   0.900
 9737SOL    HW229556   3.906   3.666   0.893
 9738SOL     OW29557   4.228   3.430   0.910
 9738SOL    HW129558   4.294   3.504   0.919
 9738SOL    HW229559   4.272   3.351   0.868
 9739SOL     OW29560   4.726   2.658   1.238
 9739SOL    HW129561   4.767   2.626   1.324
 9739SOL    HW229562   4.630   2.631   1.235
 9740SOL     OW29563   3.764   2.406   1.114
 9740SOL    HW129564   3.849   2.373   1.073
 9740SOL    HW229565   3.777   2.421   1.212
 9741SOL     OW29566   3.913   2.382   1.722
 9741SOL    HW129567   3.972   2.342   1.652
 9741SOL    HW229568   3.855   2.453   1.681
 9742SOL     OW29569   5.093   2.812   1.660
 9742SOL    HW129570   5.132   2.901   1.680
 9742SOL    HW229571   5.103   2.792   1.563
 9743SOL     OW29572   5.381   2.466   1.206
 9743SOL    HW129573   5.343   2.397   1.268
 9743SOL    HW229574   5.463   2.430   1.162
 9744SOL     OW29575   3.976   3.426   1.744
 9744SOL    HW129576   3.946   3.483   1.820
 9744SOL    HW229577   3.969   3.329   1.770
 9745SOL     OW29578   4.395   2.326   1.269
 9745SOL    HW129579   4.361   2.237   1.239
 9745SOL    HW229580   4.421   2.380   1.189
 9746SOL     OW29581   4.654   3.540   1.465
 9746SOL    HW129582   4.630   3.522   1.370
 9746SOL    HW229583   4.684   3.634   1.475
 9747SOL     OW29584   3.883   2.999   1.466
 9747SOL    HW129585   3.905   2.938   1.542
 9747SOL    HW229586   3.893   2.950   1.380
 9748SOL     OW29587   5.071   2.921   1.234
 9748SOL    HW129588   5.095   2.858   1.160
 9748SOL    HW229589   4.981   2.961   1.216
 9749SOL     OW29590   5.026   2.717   0.309
 9749SOL    HW129591   4.940   2.686   0.351
 9749SOL    HW229592   5.022   2.703   0.210
 9750SOL     OW29593   5.483   3.609   1.154
 9750SOL    HW129594   5.544   3.639   1.081
 9750SOL    HW229595   5.445   3.520   1.132
 9751SOL     OW29596   4.976   3.593   1.128
 9751SOL    HW129597   5.060   3.598   1.074
 9751SOL    HW229598   4.953   3.497   1.146
 9752SOL     OW29599   3.807   3.120   1.022
 9752SOL    HW129600   3.802   3.119   1.122
 9752SOL    HW229601   3.724   3.079   0.984
 9753SOL     OW29602   4.412   3.524   1.716
 9753SOL    HW129603   4.356   3.605   1.725
 9753SOL    HW229604   4.464   3.528   1.630
 9754SOL     OW29605   5.450   1.997   0.523
 9754SOL    HW129606   5.523   1.980   0.456
 9754SOL    HW229607   5.419   1.910   0.561
 9755SOL     OW29608   5.112   3.435   0.477
 9755SOL    HW129609   5.179   3.447   0.403
 9755SOL    HW229610   5.072   3.524   0.500
 9756SOL     OW29611   3.854   3.656   1.851
 9756SOL    HW129612   3.813   3.582   1.904
 9756SOL    HW229613   3.918   3.707   1.909
 9757SOL     OW29614   5.004   2.789   0.672
 9757SOL    HW129615   5.064   2.708   0.674
 9757SOL    HW229616   5.044   2.858   0.612
 9758SOL     OW29617   4.554   3.135   1.422
 9758SOL    HW129618   4.549   3.168   1.517
 9758SOL    HW229619   4.468   3.154   1.376
 9759SOL     OW29620   5.374   3.582   1.394
 9759SOL    HW129621   5.427   3.592   1.310
 9759SOL    HW229622   5.347   3.672   1.428
 9760SOL     OW29623   5.565   2.037   0.963
 9760SOL    HW129624   5.604   1.952   0.927
 9760SOL    HW229625   5.467   2.039   0.944
 9761SOL     OW29626   3.987   2.188   0.720
 9761SOL    HW129627   3.908   2.239   0.686
 9761SOL    HW229628   3.978   2.173   0.818
 9762SOL     OW29629   4.546   2.864   1.372
 9762SOL    HW129630   4.586   2.863   1.280
 9762SOL    HW229631   4.556   2.956   1.412
 9763SOL     OW29632   4.096   3.150   1.490
 9763SOL    HW129633   4.083   3.243   1.456
 9763SOL    HW229634   4.012   3.098   1.477
 9764SOL     OW29635   4.763   2.960   0.696
 9764SOL    HW129636   4.693   2.913   0.750
 9764SOL    HW229637   4.822   2.892   0.653
 9765SOL     OW29638   4.738   2.098   0.971
 9765SOL    HW129639   4.730   2.062   0.878
 9765SOL    HW229640   4.736   2.022   1.036
 9766SOL     OW29641   4.314   3.349   0.491
 9766SOL    HW129642   4.356   3.291   0.421
 9766SOL    HW229643   4.270   3.428   0.447
 9767SOL     OW29644   5.433   2.247   1.381
 9767SOL    HW129645   5.506   2.316   1.385
 9767SOL    HW229646   5.461   2.172   1.322
 9768SOL     OW29647   3.829   2.875   1.726
 9768SOL    HW129648   3.752   2.842   1.780
 9768SOL    HW229649   3.914   2.845   1.768
 9769SOL     OW29650   4.396   2.065   1.489
 9769SOL    HW129651   4.486   2.049   1.449
 9769SOL    HW229652   4.404   2.070   1.588
 9770SOL     OW29653   5.164   2.718   1.398
 9770SOL    HW129654   5.107   2.770   1.335
 9770SOL    HW229655   5.260   2.730   1.374
 9771SOL     OW29656   4.337   2.704   1.431
 9771SOL    HW129657   4.393   2.785   1.414
 9771SOL    HW229658   4.396   2.624   1.434
 9772SOL     OW29659   5.217   3.629   0.959
 9772SOL    HW129660   5.250   3.693   0.890
 9772SOL    HW229661   5.283   3.623   1.034
 9773SOL     OW29662   4.440   2.427   1.708
 9773SOL    HW129663   4.459   2.492   1.782
 9773SOL    HW229664   4.500   2.347   1.717
 9774SOL     OW29665   5.174   3.082   1.633
 9774SOL    HW129666   5.165   3.072   1.732
 9774SOL    HW229667   5.270   3.075   1.607
 9775SOL     OW29668   4.114   3.603   1.560
 9775SOL    HW129669   4.023   3.644   1.558
 9775SOL    HW229670   4.107   3.509   1.592
 9776SOL     OW29671   5.398   2.745   1.254
 9776SOL    HW129672   5.371   2.656   1.217
 9776SOL    HW229673   5.399   2.813   1.181
 9777SOL     OW29674   4.949   2.187   0.449
 9777SOL    HW129675   5.014   2.113   0.438
 9777SOL    HW229676   4.969   2.237   0.533
 9778SOL     OW29677   4.318   2.607   0.652
 9778SOL    HW129678   4.368   2.692   0.633
 9778SOL    HW229679   4.230   2.609   0.604
 9779SOL     OW29680   5.501   2.204   1.642
 9779SOL    HW129681   5.484   2.235   1.548
 9779SOL    HW229682   5.417   2.167   1.680
 9780SOL     OW29683   5.454   2.796   1.517
 9780SOL    HW129684   5.492   2.887   1.532
 9780SOL    HW229685   5.446   2.779   1.418
 9781SOL     OW29686   4.385   3.652   0.953
 9781SOL    HW129687   4.339   3.740   0.940
 9781SOL    HW229688   4.484   3.664   0.946
 9782SOL     OW29689   4.583   2.818   0.861
 9782SOL    HW129690   4.637   2.749   0.909
 9782SOL    HW229691   4.551   2.887   0.927
 9783SOL     OW29692   5.585   3.431   0.851
 9783SOL    HW129693   5.514   3.419   0.781
 9783SOL    HW229694   5.586   3.352   0.911
 9784SOL     OW29695   3.945   3.176   1.844
 9784SOL    HW129696   3.880   3.103   1.823
 9784SOL    HW229697   3.949   3.190   1.942
 9785SOL     OW29698   3.803   3.102   0.653
 9785SOL    HW129699   3.802   3.055   0.741
 9785SOL    HW229700   3.885   3.074   0.602
 9786SOL     OW29701   4.396   3.253   1.624
 9786SOL    HW129702   4.318   3.203   1.662
 9786SOL    HW229703   4.393   3.348   1.655
 9787SOL     OW29704   5.548   2.054   1.227
 9787SOL    HW129705   5.544   1.964   1.271
 9787SOL    HW229706   5.551   2.043   1.128
 9788SOL     OW29707   4.152   2.286   0.520
 9788SOL    HW129708   4.182   2.214   0.458
 9788SOL    HW229709   4.113   2.246   0.603
 9789SOL     OW29710   5.429   3.349   1.104
 9789SOL    HW129711   5.336   3.324   1.077
 9789SOL    HW229712   5.455   3.299   1.186
 9790SOL     OW29713   4.041   2.409   1.280
 9790SOL    HW129714   4.079   2.350   1.352
 9790SOL    HW229715   4.081   2.383   1.192
 9791SOL     OW29716   4.536   3.448   0.687
 9791SOL    HW129717   4.568   3.458   0.593
 9791SOL    HW229718   4.457   3.386   0.689
 9792SOL     OW29719   5.148   2.076   1.112
 9792SOL    HW129720   5.200   2.011   1.167
 9792SOL    HW229721   5.099   2.139   1.173
 9793SOL     OW29722   4.725   1.896   1.154
 9793SOL    HW129723   4.662   1.824   1.123
 9793SOL    HW229724   4.818   1.860   1.154
 9794SOL     OW29725   4.342   3.429   1.284
 9794SOL    HW129726   4.337   3.511   1.341
 9794SOL    HW229727   4.431   3.426   1.239
 9795SOL     OW29728   5.024   2.315   0.691
 9795SOL    HW129729   4.965   2.395   0.695
 9795SOL    HW229730   5.039   2.280   0.784
 9796SOL     OW29731   5.317   2.083   0.882
 9796SOL    HW129732   5.233   2.082   0.936
 9796SOL    HW229733   5.319   2.166   0.826
 9797SOL     OW29734   4.599   3.508   0.337
 9797SOL    HW129735   4.522   3.473   0.283
 9797SOL    HW229736   4.567   3.579   0.399
 9798SOL     OW29737   3.954   2.490   1.975
 9798SOL    HW129738   3.861   2.488   2.012
 9798SOL    HW229739   3.955   2.451   1.883
 9799SOL     OW29740   3.949   2.137   2.858
 9799SOL    HW129741   3.984   2.120   2.950
 9799SOL    HW229742   3.861   2.092   2.846
 9800SOL     OW29743   3.743   2.230   2.509
 9800SOL    HW129744   3.661   2.273   2.548
 9800SOL    HW229745   3.715   2.157   2.446
 9801SOL     OW29746   4.293   3.137   3.027
 9801SOL    HW129747   4.200   3.130   2.990
 9801SOL    HW229748   4.304   3.226   3.071
 9802SOL     OW29749   5.279   3.373   2.565
 9802SOL    HW129750   5.222   3.357   2.646
 9802SOL    HW229751   5.220   3.383   2.485
 9803SOL     OW29752   4.859   2.565   2.579
 9803SOL    HW129753   4.916   2.643   2.554
 9803SOL    HW229754   4.799   2.591   2.655
 9804SOL     OW29755   5.479   2.469   2.093
 9804SOL    HW129756   5.467   2.456   1.994
 9804SOL    HW229757   5.449   2.388   2.142
 9805SOL     OW29758   4.492   3.006   2.885
 9805SOL    HW129759   4.414   3.023   2.945
 9805SOL    HW229760   4.526   3.093   2.849
 9806SOL     OW29761   4.574   2.660   3.685
 9806SOL    HW129762   4.570   2.736   3.750
 9806SOL    HW229763   4.596   2.696   3.594
 9807SOL     OW29764   4.409   2.874   2.527
 9807SOL    HW129765   4.478   2.858   2.597
 9807SOL    HW229766   4.336   2.931   2.565
 9808SOL     OW29767   4.410   3.023   3.665
 9808SOL    HW129768   4.470   3.102   3.679
 9808SOL    HW229769   4.324   3.054   3.624
 9809SOL     OW29770   4.059   3.297   2.923
 9809SOL    HW129771   3.981   3.266   2.870
 9809SOL    HW229772   4.117   3.355   2.866
 9810SOL     OW29773   5.184   3.367   3.201
 9810SOL    HW129774   5.208   3.461   3.227
 9810SOL    HW229775   5.168   3.313   3.283
 9811SOL     OW29776   4.162   2.254   3.361
 9811SOL    HW129777   4.244   2.198   3.370
 9811SOL    HW229778   4.081   2.196   3.365
 9812SOL     OW29779   5.327   2.309   2.599
 9812SOL    HW129780   5.253   2.355   2.549
 9812SOL    HW229781   5.378   2.377   2.652
 9813SOL     OW29782   3.955   3.575   2.345
 9813SOL    HW129783   3.989   3.652   2.399
 9813SOL    HW229784   3.999   3.575   2.255
 9814SOL     OW29785   4.851   3.203   3.552
 9814SOL    HW129786   4.898   3.203   3.640
 9814SOL    HW229787   4.803   3.116   3.541
 9815SOL     OW29788   3.954   3.296   2.400
 9815SOL    HW129789   3.928   3.392   2.400
 9815SOL    HW229790   3.883   3.242   2.445
 9816SOL     OW29791   3.964   2.953   2.748
 9816SOL    HW129792   3.978   2.869   2.800
 9816SOL    HW229793   3.909   3.017   2.803
 9817SOL     OW29794   4.344   3.648   3.301
 9817SOL    HW129795   4.252   3.631   3.336
 9817SOL    HW229796   4.372   3.740   3.327
 9818SOL     OW29797   4.330   2.826   1.985
 9818SOL    HW129798   4.337   2.910   1.931
 9818SOL    HW229799   4.376   2.839   2.073
 9819SOL     OW29800   5.318   1.976   3.342
 9819SOL    HW129801   5.300   2.043   3.270
 9819SOL    HW229802   5.315   2.022   3.431
 9820SOL     OW29803   3.846   2.505   2.425
 9820SOL    HW129804   3.801   2.417   2.442
 9820SOL    HW229805   3.845   2.559   2.509
 9821SOL     OW29806   5.566   3.629   2.221
 9821SOL    HW129807   5.620   3.600   2.301
 9821SOL    HW229808   5.596   3.719   2.192
 9822SOL     OW29809   3.751   3.458   1.979
 9822SOL    HW129810   3.732   3.362   2.000
 9822SOL    HW229811   3.718   3.516   2.054
 9823SOL     OW29812   5.413   2.784   2.474
 9823SOL    HW129813   5.508   2.755   2.482
 9823SOL    HW229814   5.405   2.849   2.399
 9824SOL     OW29815   5.365   2.970   2.294
 9824SOL    HW129816   5.451   2.972   2.242
 9824SOL    HW229817   5.379   3.017   2.382
 9825SOL     OW29818   3.837   2.599   3.459
 9825SOL    HW129819   3.925   2.586   3.504
 9825SOL    HW229820   3.824   2.696   3.437
 9826SOL     OW29821   4.337   3.227   2.588
 9826SOL    HW129822   4.288   3.140   2.597
 9826SOL    HW229823   4.314   3.270   2.501
 9827SOL     OW29824   5.017   3.090   3.285
 9827SOL    HW129825   5.054   3.017   3.227
 9827SOL    HW229826   5.069   3.095   3.370
 9828SOL     OW29827   4.533   1.866   2.364
 9828SOL    HW129828   4.573   1.957   2.355
 9828SOL    HW229829   4.433   1.874   2.370
 9829SOL     OW29830   3.921   2.838   3.126
 9829SOL    HW129831   4.010   2.793   3.112
 9829SOL    HW229832   3.848   2.773   3.107
 9830SOL     OW29833   5.249   2.861   2.052
 9830SOL    HW129834   5.186   2.785   2.065
 9830SOL    HW229835   5.297   2.879   2.138
 9831SOL     OW29836   4.911   3.654   3.478
 9831SOL    HW129837   4.935   3.714   3.402
 9831SOL    HW229838   4.918   3.559   3.448
 9832SOL     OW29839   4.041   2.113   3.663
 9832SOL    HW129840   4.112   2.184   3.669
 9832SOL    HW229841   3.953   2.152   3.691
 9833SOL     OW29842   5.190   3.279   2.815
 9833SOL    HW129843   5.131   3.285   2.895
 9833SOL    HW229844   5.175   3.191   2.769
 9834SOL     OW29845   5.391   3.576   2.434
 9834SOL    HW129846   5.350   3.553   2.346
 9834SOL    HW229847   5.373   3.502   2.499
 9835SOL     OW29848   4.322   2.591   2.132
 9835SOL    HW129849   4.346   2.660   2.064
 9835SOL    HW229850   4.244   2.624   2.186
 9836SOL     OW29851   5.005   2.207   2.806
 9836SOL    HW129852   4.919   2.157   2.793
 9836SOL    HW229853   5.067   2.153   2.862
 9837SOL     OW29854   5.300   3.524   2.169
 9837SOL    HW129855   5.389   3.570   2.172
 9837SOL    HW229856   5.279   3.500   2.074
 9838SOL     OW29857   4.531   2.467   3.327
 9838SOL    HW129858   4.484   2.464   3.416
 9838SOL    HW229859   4.480   2.412   3.261
 9839SOL     OW29860   5.118   2.331   3.536
 9839SOL    HW129861   5.098   2.374   3.624
 9839SOL    HW229862   5.196   2.269   3.545
 9840SOL     OW29863   4.697   2.752   3.434
 9840SOL    HW129864   4.743   2.668   3.405
 9840SOL    HW229865   4.641   2.786   3.359
 9841SOL     OW29866   4.715   2.272   3.104
 9841SOL    HW129867   4.638   2.306   3.158
 9841SOL    HW229868   4.681   2.221   3.025
 9842SOL     OW29869   4.765   2.563   2.291
 9842SOL    HW129870   4.791   2.559   2.387
 9842SOL    HW229871   4.680   2.512   2.277
 9843SOL     OW29872   3.800   2.673   2.651
 9843SOL    HW129873   3.899   2.661   2.660
 9843SOL    HW229874   3.776   2.768   2.672
 9844SOL     OW29875   3.854   3.683   3.433
 9844SOL    HW129876   3.844   3.668   3.532
 9844SOL    HW229877   3.768   3.719   3.397
 9845SOL     OW29878   4.589   2.210   2.057
 9845SOL    HW129879   4.648   2.273   2.008
 9845SOL    HW229880   4.608   2.116   2.028
 9846SOL     OW29881   5.443   2.447   3.693
 9846SOL    HW129882   5.417   2.536   3.657
 9846SOL    HW229883   5.441   2.379   3.620
 9847SOL     OW29884   5.086   3.006   2.407
 9847SOL    HW129885   5.169   2.977   2.359
 9847SOL    HW229886   5.037   3.073   2.351
 9848SOL     OW29887   4.274   2.058   2.747
 9848SOL    HW129888   4.269   2.053   2.847
 9848SOL    HW229889   4.276   2.154   2.718
 9849SOL     OW29890   4.732   3.318   2.339
 9849SOL    HW129891   4.686   3.390   2.287
 9849SOL    HW229892   4.728   3.338   2.437
 9850SOL     OW29893   4.075   3.663   2.715
 9850SOL    HW129894   4.125   3.577   2.721
 9850SOL    HW229895   4.140   3.740   2.712
 9851SOL     OW29896   5.519   2.928   2.735
 9851SOL    HW129897   5.457   2.913   2.659
 9851SOL    HW229898   5.467   2.939   2.820
 9852SOL     OW29899   4.951   3.412   3.368
 9852SOL    HW129900   4.957   3.335   3.432
 9852SOL    HW229901   4.899   3.386   3.288
 9853SOL     OW29902   4.045   2.805   2.104
 9853SOL    HW129903   4.127   2.844   2.062
 9853SOL    HW229904   4.018   2.723   2.055
 9854SOL     OW29905   5.182   2.597   2.590
 9854SOL    HW129906   5.177   2.532   2.665
 9854SOL    HW229907   5.262   2.656   2.603
 9855SOL     OW29908   4.185   3.128   3.589
 9855SOL    HW129909   4.135   3.129   3.503
 9855SOL    HW229910   4.122   3.110   3.665
 9856SOL     OW29911   4.835   3.638   2.099
 9856SOL    HW129912   4.775   3.576   2.149
 9856SOL    HW229913   4.866   3.594   2.014
 9857SOL     OW29914   3.926   2.147   3.360
 9857SOL    HW129915   3.846   2.207   3.347
 9857SOL    HW229916   3.916   2.098   3.446
 9858SOL     OW29917   5.356   3.239   1.943
 9858SOL    HW129918   5.324   3.333   1.933
 9858SOL    HW229919   5.280   3.176   1.931
 9859SOL     OW29920   4.188   3.605   2.185
 9859SOL    HW129921   4.221   3.644   2.271
 9859SOL    HW229922   4.264   3.598   2.120
 9860SOL     OW29923   5.124   1.969   2.288
 9860SOL    HW129924   5.100   1.932   2.198
 9860SOL    HW229925   5.223   1.985   2.292
 9861SOL     OW29926   3.973   3.647   3.103
 9861SOL    HW129927   4.030   3.582   3.153
 9861SOL    HW229928   3.957   3.614   3.010
 9862SOL     OW29929   4.664   3.560   2.766
 9862SOL    HW129930   4.744   3.503   2.787
 9862SOL    HW229931   4.615   3.520   2.689
 9863SOL     OW29932   4.106   2.562   2.342
 9863SOL    HW129933   4.151   2.472   2.339
 9863SOL    HW229934   4.012   2.551   2.375
 9864SOL     OW29935   5.271   2.084   3.591
 9864SOL    HW129936   5.266   2.121   3.683
 9864SOL    HW229937   5.199   2.015   3.579
 9865SOL     OW29938   4.338   1.984   1.979
 9865SOL    HW129939   4.436   1.962   1.986
 9865SOL    HW229940   4.307   1.967   1.886
 9866SOL     OW29941   4.505   2.126   3.611
 9866SOL    HW129942   4.572   2.065   3.654
 9866SOL    HW229943   4.432   2.145   3.676
 9867SOL     OW29944   4.612   3.376   3.057
 9867SOL    HW129945   4.589   3.351   2.963
 9867SOL    HW229946   4.673   3.307   3.096
 9868SOL     OW29947   5.075   2.452   3.295
 9868SOL    HW129948   5.103   2.409   3.380
 9868SOL    HW229949   5.100   2.548   3.296
 9869SOL     OW29950   4.527   3.264   2.786
 9869SOL    HW129951   4.617   3.278   2.744
 9869SOL    HW229952   4.456   3.266   2.715
 9870SOL     OW29953   4.646   2.365   2.761
 9870SOL    HW129954   4.621   2.356   2.665
 9870SOL    HW229955   4.694   2.283   2.792
 9871SOL     OW29956   4.263   1.926   2.374
 9871SOL    HW129957   4.182   1.927   2.432
 9871SOL    HW229958   4.266   2.009   2.319
 9872SOL     OW29959   5.158   3.050   1.903
 9872SOL    HW129960   5.190   2.974   1.960
 9872SOL    HW229961   5.066   3.077   1.933
 9873SOL     OW29962   4.021   1.897   2.033
 9873SOL    HW129963   4.070   1.981   2.012
 9873SOL    HW229964   4.083   1.832   2.078
 9874SOL     OW29965   4.659   2.098   2.342
 9874SOL    HW129966   4.611   2.139   2.264
 9874SOL    HW229967   4.758   2.096   2.323
 9875SOL     OW29968   4.800   2.545   3.326
 9875SOL    HW129969   4.720   2.484   3.329
 9875SOL    HW229970   4.881   2.492   3.302
 9876SOL     OW29971   4.951   3.432   2.655
 9876SOL    HW129972   4.972   3.506   2.590
 9876SOL    HW229973   5.019   3.432   2.728
 9877SOL     OW29974   4.183   3.014   2.603
 9877SOL    HW129975   4.112   2.987   2.668
 9877SOL    HW229976   4.157   2.986   2.510
 9878SOL     OW29977   4.995   3.659   2.453
 9878SOL    HW129978   5.039   3.723   2.389
 9878SOL    HW229979   4.945   3.711   2.523
 9879SOL     OW29980   4.756   2.411   1.878
 9879SOL    HW129981   4.715   2.493   1.839
 9879SOL    HW229982   4.820   2.437   1.951
 9880SOL     OW29983   3.802   2.418   3.248
 9880SOL    HW129984   3.894   2.417   3.207
 9880SOL    HW229985   3.796   2.492   3.315
 9881SOL     OW29986   4.285   2.084   3.009
 9881SOL    HW129987   4.323   2.000   3.046
 9881SOL    HW229988   4.197   2.103   3.053
 9882SOL     OW29989   4.590   2.316   2.504
 9882SOL    HW129990   4.558   2.388   2.442
 9882SOL    HW229991   4.614   2.235   2.451
 9883SOL     OW29992   5.153   3.035   2.729
 9883SOL    HW129993   5.098   2.951   2.722
 9883SOL    HW229994   5.179   3.064   2.637
 9884SOL     OW29995   5.190   2.452   2.854
 9884SOL    HW129996   5.160   2.357   2.861
 9884SOL    HW229997   5.263   2.468   2.920
 9885SOL     OW29998   5.581   2.695   2.239
 9885SOL    HW129999   5.623   2.631   2.303
 9885SOL    HW230000   5.543   2.644   2.161
 9886SOL     OW30001   4.212   3.247   2.036
 9886SOL    HW130002   4.125   3.232   2.083
 9886SOL    HW230003   4.195   3.273   1.941
 9887SOL     OW30004   5.388   3.142   2.519
 9887SOL    HW130005   5.487   3.150   2.533
 9887SOL    HW230006   5.343   3.226   2.550
 9888SOL     OW30007   5.114   2.437   1.940
 9888SOL    HW130008   5.060   2.416   2.021
 9888SOL    HW230009   5.205   2.396   1.949
 9889SOL     OW30010   4.251   2.118   2.190
 9889SOL    HW130011   4.278   2.059   2.115
 9889SOL    HW230012   4.251   2.213   2.159
 9890SOL     OW30013   5.478   3.085   3.450
 9890SOL    HW130014   5.569   3.046   3.437
 9890SOL    HW230015   5.486   3.181   3.474
 9891SOL     OW30016   4.788   3.209   3.202
 9891SOL    HW130017   4.708   3.186   3.257
 9891SOL    HW230018   4.871   3.183   3.251
 9892SOL     OW30019   5.316   3.491   3.487
 9892SOL    HW130020   5.343   3.525   3.397
 9892SOL    HW230021   5.395   3.453   3.533
 9893SOL     OW30022   4.835   3.057   2.962
 9893SOL    HW130023   4.795   3.101   3.043
 9893SOL    HW230024   4.794   3.094   2.879
 9894SOL     OW30025   5.362   2.961   2.941
 9894SOL    HW130026   5.367   3.042   3.000
 9894SOL    HW230027   5.276   2.963   2.890
 9895SOL     OW30028   4.639   1.951   3.264
 9895SOL    HW130029   4.664   1.931   3.169
 9895SOL    HW230030   4.711   2.007   3.306
 9896SOL     OW30031   4.704   2.978   3.581
 9896SOL    HW130032   4.605   2.984   3.591
 9896SOL    HW230033   4.727   2.898   3.525
 9897SOL     OW30034   4.429   2.912   2.230
 9897SOL    HW130035   4.415   2.919   2.329
 9897SOL    HW230036   4.513   2.861   2.212
 9898SOL     OW30037   4.134   2.675   3.113
 9898SOL    HW130038   4.220   2.687   3.163
 9898SOL    HW230039   4.092   2.588   3.140
 9899SOL     OW30040   4.998   2.248   3.124
 9899SOL    HW130041   5.019   2.322   3.188
 9899SOL    HW230042   4.909   2.265   3.081
 9900SOL     OW30043   3.788   3.426   3.193
 9900SOL    HW130044   3.742   3.508   3.159
 9900SOL    HW230045   3.886   3.445   3.202
 9901SOL     OW30046   4.091   2.962   2.363
 9901SOL    HW130047   4.084   3.045   2.307
 9901SOL    HW230048   4.095   2.882   2.303
 9902SOL     OW30049   4.290   2.399   2.727
 9902SOL    HW130050   4.302   2.465   2.653
 9902SOL    HW230051   4.336   2.433   2.810
 9903SOL     OW30052   4.976   3.210   2.250
 9903SOL    HW130053   5.026   3.287   2.290
 9903SOL    HW230054   4.881   3.212   2.282
 9904SOL     OW30055   4.996   3.307   3.004
 9904SOL    HW130056   5.043   3.320   3.091
 9904SOL    HW230057   4.930   3.233   3.013
 9905SOL     OW30058   5.306   2.501   2.334
 9905SOL    HW130059   5.275   2.562   2.407
 9905SOL    HW230060   5.356   2.553   2.265
 9906SOL     OW30061   4.078   3.372   3.191
 9906SOL    HW130062   4.057   3.328   3.104
 9906SOL    HW230063   4.175   3.398   3.194
 9907SOL     OW30064   4.126   2.613   3.460
 9907SOL    HW130065   4.194   2.668   3.413
 9907SOL    HW230066   4.166   2.525   3.487
 9908SOL     OW30067   5.311   2.641   3.532
 9908SOL    HW130068   5.219   2.679   3.527
 9908SOL    HW230069   5.371   2.688   3.467
 9909SOL     OW30070   4.737   1.967   3.632
 9909SOL    HW130071   4.743   2.052   3.580
 9909SOL    HW230072   4.769   1.891   3.575
 9910SOL     OW30073   4.228   1.912   3.602
 9910SOL    HW130074   4.186   1.855   3.532
 9910SOL    HW230075   4.162   1.981   3.634
 9911SOL     OW30076   4.297   2.732   2.891
 9911SOL    HW130077   4.341   2.821   2.882
 9911SOL    HW230078   4.234   2.732   2.968
 9912SOL     OW30079   5.084   2.724   2.907
 9912SOL    HW130080   5.009   2.724   2.841
 9912SOL    HW230081   5.121   2.632   2.916
 9913SOL     OW30082   4.933   2.387   2.137
 9913SOL    HW130083   4.946   2.303   2.191
 9913SOL    HW230084   4.904   2.461   2.197
 9914SOL     OW30085   4.031   2.075   3.093
 9914SOL    HW130086   4.008   2.112   3.183
 9914SOL    HW230087   4.001   1.980   3.087
 9915SOL     OW30088   3.761   3.172   3.144
 9915SOL    HW130089   3.814   3.123   3.212
 9915SOL    HW230090   3.783   3.270   3.149
 9916SOL     OW30091   4.456   2.496   2.926
 9916SOL    HW130092   4.515   2.470   2.850
 9916SOL    HW230093   4.428   2.592   2.915
 9917SOL     OW30094   5.452   2.797   3.716
 9917SOL    HW130095   5.406   2.790   3.627
 9917SOL    HW230096   5.390   2.841   3.782
 9918SOL     OW30097   4.031   1.925   2.480
 9918SOL    HW130098   4.020   2.019   2.513
 9918SOL    HW230099   4.026   1.862   2.557
 9919SOL     OW30100   5.346   2.229   2.236
 9919SOL    HW130101   5.348   2.153   2.300
 9919SOL    HW230102   5.298   2.306   2.276
 9920SOL     OW30103   4.747   2.628   2.828
 9920SOL    HW130104   4.762   2.649   2.924
 9920SOL    HW230105   4.717   2.533   2.819
 9921SOL     OW30106   4.704   3.435   3.562
 9921SOL    HW130107   4.684   3.479   3.474
 9921SOL    HW230108   4.743   3.344   3.546
 9922SOL     OW30109   5.583   3.380   3.467
 9922SOL    HW130110   5.597   3.407   3.372
 9922SOL    HW230111   5.666   3.402   3.520
 9923SOL     OW30112   4.074   2.760   3.666
 9923SOL    HW130113   4.150   2.804   3.714
 9923SOL    HW230114   4.109   2.713   3.584
 9924SOL     OW30115   5.264   2.136   1.987
 9924SOL    HW130116   5.203   2.061   2.010
 9924SOL    HW230117   5.286   2.188   2.070
 9925SOL     OW30118   5.027   2.700   1.904
 9925SOL    HW130119   5.061   2.607   1.919
 9925SOL    HW230120   5.045   2.727   1.809
 9926SOL     OW30121   4.792   3.195   2.711
 9926SOL    HW130122   4.799   3.111   2.656
 9926SOL    HW230123   4.854   3.264   2.675
 9927SOL     OW30124   4.043   2.672   2.811
 9927SOL    HW130125   4.136   2.708   2.816
 9927SOL    HW230126   4.037   2.587   2.863
 9928SOL     OW30127   4.063   2.371   2.868
 9928SOL    HW130128   4.011   2.288   2.851
 9928SOL    HW230129   4.140   2.376   2.804
 9929SOL     OW30130   4.862   2.242   3.540
 9929SOL    HW130131   4.817   2.305   3.604
 9929SOL    HW230132   4.955   2.273   3.523
 9930SOL     OW30133   4.884   2.069   3.339
 9930SOL    HW130134   4.884   2.133   3.416
 9930SOL    HW230135   4.912   2.117   3.256
 9931SOL     OW30136   3.732   3.188   2.062
 9931SOL    HW130137   3.639   3.209   2.031
 9931SOL    HW230138   3.742   3.089   2.075
 9932SOL     OW30139   3.812   3.663   2.789
 9932SOL    HW130140   3.770   3.577   2.762
 9932SOL    HW230141   3.906   3.666   2.755
 9933SOL     OW30142   4.228   3.430   2.772
 9933SOL    HW130143   4.294   3.504   2.781
 9933SOL    HW230144   4.272   3.351   2.730
 9934SOL     OW30145   4.726   2.658   3.100
 9934SOL    HW130146   4.767   2.626   3.186
 9934SOL    HW230147   4.630   2.631   3.097
 9935SOL     OW30148   3.764   2.406   2.976
 9935SOL    HW130149   3.849   2.373   2.935
 9935SOL    HW230150   3.777   2.421   3.074
 9936SOL     OW30151   3.913   2.382   3.584
 9936SOL    HW130152   3.972   2.342   3.514
 9936SOL    HW230153   3.855   2.453   3.543
 9937SOL     OW30154   5.093   2.812   3.522
 9937SOL    HW130155   5.132   2.901   3.542
 9937SOL    HW230156   5.103   2.792   3.425
 9938SOL     OW30157   4.539   2.434   2.187
 9938SOL    HW130158   4.546   2.345   2.141
 9938SOL    HW230159   4.445   2.468   2.179
 9939SOL     OW30160   5.381   2.466   3.068
 9939SOL    HW130161   5.343   2.397   3.130
 9939SOL    HW230162   5.463   2.430   3.024
 9940SOL     OW30163   3.976   3.426   3.606
 9940SOL    HW130164   3.946   3.483   3.682
 9940SOL    HW230165   3.969   3.329   3.632
 9941SOL     OW30166   4.395   2.326   3.131
 9941SOL    HW130167   4.361   2.237   3.101
 9941SOL    HW230168   4.421   2.380   3.051
 9942SOL     OW30169   4.654   3.540   3.327
 9942SOL    HW130170   4.630   3.522   3.232
 9942SOL    HW230171   4.684   3.634   3.337
 9943SOL     OW30172   4.197   2.362   2.053
 9943SOL    HW130173   4.258   2.442   2.057
 9943SOL    HW230174   4.102   2.393   2.060
 9944SOL     OW30175   3.883   2.999   3.328
 9944SOL    HW130176   3.905   2.938   3.404
 9944SOL    HW230177   3.893   2.950   3.242
 9945SOL     OW30178   5.071   2.921   3.096
 9945SOL    HW130179   5.095   2.858   3.022
 9945SOL    HW230180   4.981   2.961   3.078
 9946SOL     OW30181   5.026   2.717   2.171
 9946SOL    HW130182   4.940   2.686   2.213
 9946SOL    HW230183   5.022   2.703   2.072
 9947SOL     OW30184   5.483   3.609   3.016
 9947SOL    HW130185   5.544   3.639   2.943
 9947SOL    HW230186   5.445   3.520   2.994
 9948SOL     OW30187   4.976   3.593   2.990
 9948SOL    HW130188   5.060   3.598   2.936
 9948SOL    HW230189   4.953   3.497   3.008
 9949SOL     OW30190   3.807   3.120   2.884
 9949SOL    HW130191   3.802   3.119   2.984
 9949SOL    HW230192   3.724   3.079   2.846
 9950SOL     OW30193   4.412   3.524   3.578
 9950SOL    HW130194   4.356   3.605   3.587
 9950SOL    HW230195   4.464   3.528   3.492
 9951SOL     OW30196   5.450   1.997   2.385
 9951SOL    HW130197   5.523   1.980   2.318
 9951SOL    HW230198   5.419   1.910   2.423
 9952SOL     OW30199   5.112   3.435   2.339
 9952SOL    HW130200   5.179   3.447   2.265
 9952SOL    HW230201   5.072   3.524   2.362
 9953SOL     OW30202   3.854   3.656   3.713
 9953SOL    HW130203   3.813   3.582   3.766
 9953SOL    HW230204   3.918   3.707   3.771
 9954SOL     OW30205   5.004   2.789   2.534
 9954SOL    HW130206   5.064   2.708   2.536
 9954SOL    HW230207   5.044   2.858   2.474
 9955SOL     OW30208   4.554   3.135   3.284
 9955SOL    HW130209   4.549   3.168   3.379
 9955SOL    HW230210   4.468   3.154   3.238
 9956SOL     OW30211   4.396   3.478   2.016
 9956SOL    HW130212   4.405   3.488   1.917
 9956SOL    HW230213   4.356   3.389   2.037
 9957SOL     OW30214   5.374   3.582   3.256
 9957SOL    HW130215   5.427   3.592   3.172
 9957SOL    HW230216   5.347   3.672   3.290
 9958SOL     OW30217   5.565   2.037   2.825
 9958SOL    HW130218   5.604   1.952   2.789
 9958SOL    HW230219   5.467   2.039   2.806
 9959SOL     OW30220   3.987   2.188   2.582
 9959SOL    HW130221   3.908   2.239   2.548
 9959SOL    HW230222   3.978   2.173   2.680
 9960SOL     OW30223   4.918   3.474   1.893
 9960SOL    HW130224   4.924   3.381   1.930
 9960SOL    HW230225   4.859   3.474   1.813
 9961SOL     OW30226   4.546   2.864   3.234
 9961SOL    HW130227   4.586   2.863   3.142
 9961SOL    HW230228   4.556   2.956   3.274
 9962SOL     OW30229   4.640   2.772   2.153
 9962SOL    HW130230   4.703   2.810   2.085
 9962SOL    HW230231   4.680   2.689   2.192
 9963SOL     OW30232   5.228   3.469   1.906
 9963SOL    HW130233   5.136   3.506   1.913
 9963SOL    HW230234   5.266   3.489   1.816
 9964SOL     OW30235   4.096   3.150   3.352
 9964SOL    HW130236   4.083   3.243   3.318
 9964SOL    HW230237   4.012   3.098   3.339
 9965SOL     OW30238   5.338   3.154   3.151
 9965SOL    HW130239   5.398   3.157   3.231
 9965SOL    HW230240   5.263   3.218   3.164
 9966SOL     OW30241   4.763   2.960   2.558
 9966SOL    HW130242   4.693   2.913   2.612
 9966SOL    HW230243   4.822   2.892   2.515
 9967SOL     OW30244   4.738   2.098   2.833
 9967SOL    HW130245   4.730   2.062   2.740
 9967SOL    HW230246   4.736   2.022   2.898
 9968SOL     OW30247   4.314   3.349   2.353
 9968SOL    HW130248   4.356   3.291   2.283
 9968SOL    HW230249   4.270   3.428   2.309
 9969SOL     OW30250   5.433   2.247   3.243
 9969SOL    HW130251   5.506   2.316   3.247
 9969SOL    HW230252   5.461   2.172   3.184
 9970SOL     OW30253   3.979   3.210   2.152
 9970SOL    HW130254   3.883   3.211   2.125
 9970SOL    HW230255   3.991   3.263   2.236
 9971SOL     OW30256   3.829   2.875   3.588
 9971SOL    HW130257   3.752   2.842   3.642
 9971SOL    HW230258   3.914   2.845   3.630
 9972SOL     OW30259   4.396   2.065   3.351
 9972SOL    HW130260   4.486   2.049   3.311
 9972SOL    HW230261   4.404   2.070   3.450
 9973SOL     OW30262   3.799   2.207   1.895
 9973SOL    HW130263   3.707   2.179   1.866
 9973SOL    HW230264   3.830   2.284   1.839
 9974SOL     OW30265   5.164   2.718   3.260
 9974SOL    HW130266   5.107   2.770   3.197
 9974SOL    HW230267   5.260   2.730   3.236
 9975SOL     OW30268   3.796   2.028   2.180
 9975SOL    HW130269   3.779   2.111   2.126
 9975SOL    HW230270   3.886   1.991   2.158
 9976SOL     OW30271   4.907   3.197   1.981
 9976SOL    HW130272   4.808   3.186   1.983
 9976SOL    HW230273   4.941   3.212   2.074
 9977SOL     OW30274   4.337   2.704   3.293
 9977SOL    HW130275   4.393   2.785   3.276
 9977SOL    HW230276   4.396   2.624   3.296
 9978SOL     OW30277   5.217   3.629   2.821
 9978SOL    HW130278   5.250   3.693   2.752
 9978SOL    HW230279   5.283   3.623   2.896
 9979SOL     OW30280   4.440   2.427   3.570
 9979SOL    HW130281   4.459   2.492   3.644
 9979SOL    HW230282   4.500   2.347   3.579
 9980SOL     OW30283   5.174   3.082   3.495
 9980SOL    HW130284   5.165   3.072   3.594
 9980SOL    HW230285   5.270   3.075   3.469
 9981SOL     OW30286   4.114   3.603   3.422
 9981SOL    HW130287   4.023   3.644   3.420
 9981SOL    HW230288   4.107   3.509   3.454
 9982SOL     OW30289   5.398   2.745   3.116
 9982SOL    HW130290   5.371   2.656   3.079
 9982SOL    HW230291   5.399   2.813   3.043
 9983SOL     OW30292   4.949   2.187   2.311
 9983SOL    HW130293   5.014   2.113   2.300
 9983SOL    HW230294   4.969   2.237   2.395
 9984SOL     OW30295   4.318   2.607   2.514
 9984SOL    HW130296   4.368   2.692   2.495
 9984SOL    HW230297   4.230   2.609   2.466
 9985SOL     OW30298   5.501   2.204   3.504
 9985SOL    HW130299   5.484   2.235   3.410
 9985SOL    HW230300   5.417   2.167   3.542
 9986SOL     OW30301   5.454   2.796   3.379
 9986SOL    HW130302   5.492   2.887   3.394
 9986SOL    HW230303   5.446   2.779   3.280
 9987SOL     OW30304   4.583   3.236   1.878
 9987SOL    HW130305   4.537   3.251   1.966
 9987SOL    HW230306   4.627   3.321   1.848
 9988SOL     OW30307   4.385   3.652   2.815
 9988SOL    HW130308   4.339   3.740   2.802
 9988SOL    HW230309   4.484   3.664   2.808
 9989SOL     OW30310   4.583   2.818   2.723
 9989SOL    HW130311   4.637   2.749   2.771
 9989SOL    HW230312   4.551   2.887   2.789
 9990SOL     OW30313   4.807   2.846   1.949
 9990SOL    HW130314   4.784   2.899   1.867
 9990SOL    HW230315   4.888   2.790   1.930
 9991SOL     OW30316   5.585   3.431   2.713
 9991SOL    HW130317   5.514   3.419   2.643
 9991SOL    HW230318   5.586   3.352   2.773
 9992SOL     OW30319   3.945   3.176   3.706
 9992SOL    HW130320   3.880   3.103   3.685
 9992SOL    HW230321   3.949   3.190   3.804
 9993SOL     OW30322   3.803   3.102   2.515
 9993SOL    HW130323   3.802   3.055   2.603
 9993SOL    HW230324   3.885   3.074   2.464
 9994SOL     OW30325   4.396   3.253   3.486
 9994SOL    HW130326   4.318   3.203   3.524
 9994SOL    HW230327   4.393   3.348   3.517
 9995SOL     OW30328   5.548   2.054   3.089
 9995SOL    HW130329   5.544   1.964   3.133
 9995SOL    HW230330   5.551   2.043   2.990
 9996SOL     OW30331   4.152   2.286   2.382
 9996SOL    HW130332   4.182   2.214   2.320
 9996SOL    HW230333   4.113   2.246   2.465
 9997SOL     OW30334   5.429   3.349   2.966
 9997SOL    HW130335   5.336   3.324   2.939
 9997SOL    HW230336   5.455   3.299   3.048
 9998SOL     OW30337   4.041   2.409   3.142
 9998SOL    HW130338   4.079   2.350   3.214
 9998SOL    HW230339   4.081   2.383   3.054
 9999SOL     OW30340   4.536   3.448   2.549
 9999SOL    HW130341   4.568   3.458   2.455
 9999SOL    HW230342   4.457   3.386   2.551
10000SOL     OW30343   5.148   2.076   2.974
10000SOL    HW130344   5.200   2.011   3.029
10000SOL    HW230345   5.099   2.139   3.035
10001SOL     OW30346   4.725   1.896   3.016
10001SOL    HW130347   4.662   1.824   2.985
10001SOL    HW230348   4.818   1.860   3.016
10002SOL     OW30349   4.494   3.192   2.163
10002SOL    HW130350   4.448   3.105   2.180
10002SOL    HW230351   4.585   3.189   2.204
10003SOL     OW30352   4.342   3.429   3.146
10003SOL    HW130353   4.337   3.511   3.203
10003SOL    HW230354   4.431   3.426   3.101
10004SOL     OW30355   5.076   1.914   2.030
10004SOL    HW130356   5.111   1.873   1.946
10004SOL    HW230357   4.986   1.876   2.050
10005SOL     OW30358   5.024   2.315   2.553
10005SOL    HW130359   4.965   2.395   2.557
10005SOL    HW230360   5.039   2.280   2.646
10006SOL     OW30361   5.317   2.083   2.744
10006SOL    HW130362   5.233   2.082   2.798
10006SOL    HW230363   5.319   2.166   2.688
10007SOL     OW30364   3.763   2.939   2.162
10007SOL    HW130365   3.862   2.928   2.153
10007SOL    HW230366   3.723   2.853   2.194
10008SOL     OW30367   4.599   3.508   2.199
10008SOL    HW130368   4.522   3.473   2.145
10008SOL    HW230369   4.567   3.579   2.261
10009SOL     OW30370   3.954   2.490   3.837
10009SOL    HW130371   3.861   2.488   3.874
10009SOL    HW230372   3.955   2.451   3.745
10010SOL     OW30373   3.949   2.137   4.720
10010SOL    HW130374   3.984   2.120   4.812
10010SOL    HW230375   3.861   2.092   4.708
10011SOL     OW30376   3.743   2.230   4.371
10011SOL    HW130377   3.661   2.273   4.410
10011SOL    HW230378   3.715   2.157   4.308
10012SOL     OW30379   4.293   3.137   4.889
10012SOL    HW130380   4.200   3.130   4.852
10012SOL    HW230381   4.304   3.226   4.933
10013SOL     OW30382   5.279   3.373   4.427
10013SOL    HW130383   5.222   3.357   4.508
10013SOL    HW230384   5.220   3.383   4.347
10014SOL     OW30385   4.859   2.565   4.441
10014SOL    HW130386   4.916   2.643   4.416
10014SOL    HW230387   4.799   2.591   4.517
10015SOL     OW30388   5.479   2.469   3.955
10015SOL    HW130389   5.467   2.456   3.856
10015SOL    HW230390   5.449   2.388   4.004
10016SOL     OW30391   4.492   3.006   4.747
10016SOL    HW130392   4.414   3.023   4.807
10016SOL    HW230393   4.526   3.093   4.711
10017SOL     OW30394   4.574   2.660   5.547
10017SOL    HW130395   4.570   2.736   5.612
10017SOL    HW230396   4.596   2.696   5.456
10018SOL     OW30397   4.409   2.874   4.389
10018SOL    HW130398   4.478   2.858   4.459
10018SOL    HW230399   4.336   2.931   4.427
10019SOL     OW30400   4.410   3.023   5.527
10019SOL    HW130401   4.470   3.102   5.541
10019SOL    HW230402   4.324   3.054   5.486
10020SOL     OW30403   4.059   3.297   4.785
10020SOL    HW130404   3.981   3.266   4.732
10020SOL    HW230405   4.117   3.355   4.728
10021SOL     OW30406   5.184   3.367   5.063
10021SOL    HW130407   5.208   3.461   5.089
10021SOL    HW230408   5.168   3.313   5.145
10022SOL     OW30409   4.162   2.254   5.223
10022SOL    HW130410   4.244   2.198   5.232
10022SOL    HW230411   4.081   2.196   5.227
10023SOL     OW30412   5.327   2.309   4.461
10023SOL    HW130413   5.253   2.355   4.411
10023SOL    HW230414   5.378   2.377   4.514
10024SOL     OW30415   3.955   3.575   4.207
10024SOL    HW130416   3.989   3.652   4.261
10024SOL    HW230417   3.999   3.575   4.117
10025SOL     OW30418   4.851   3.203   5.414
10025SOL    HW130419   4.898   3.203   5.502
10025SOL    HW230420   4.803   3.116   5.403
10026SOL     OW30421   3.954   3.296   4.262
10026SOL    HW130422   3.928   3.392   4.262
10026SOL    HW230423   3.883   3.242   4.307
10027SOL     OW30424   3.964   2.953   4.610
10027SOL    HW130425   3.978   2.869   4.662
10027SOL    HW230426   3.909   3.017   4.665
10028SOL     OW30427   4.344   3.648   5.163
10028SOL    HW130428   4.252   3.631   5.198
10028SOL    HW230429   4.372   3.740   5.189
10029SOL     OW30430   4.330   2.826   3.847
10029SOL    HW130431   4.337   2.910   3.793
10029SOL    HW230432   4.376   2.839   3.935
10030SOL     OW30433   5.318   1.976   5.204
10030SOL    HW130434   5.300   2.043   5.132
10030SOL    HW230435   5.315   2.022   5.293
10031SOL     OW30436   3.846   2.505   4.287
10031SOL    HW130437   3.801   2.417   4.304
10031SOL    HW230438   3.845   2.559   4.371
10032SOL     OW30439   5.566   3.629   4.083
10032SOL    HW130440   5.620   3.600   4.163
10032SOL    HW230441   5.596   3.719   4.054
10033SOL     OW30442   3.751   3.458   3.841
10033SOL    HW130443   3.732   3.362   3.862
10033SOL    HW230444   3.718   3.516   3.916
10034SOL     OW30445   5.413   2.784   4.336
10034SOL    HW130446   5.508   2.755   4.344
10034SOL    HW230447   5.405   2.849   4.261
10035SOL     OW30448   5.365   2.970   4.156
10035SOL    HW130449   5.451   2.972   4.104
10035SOL    HW230450   5.379   3.017   4.244
10036SOL     OW30451   3.837   2.599   5.321
10036SOL    HW130452   3.925   2.586   5.366
10036SOL    HW230453   3.824   2.696   5.299
10037SOL     OW30454   4.337   3.227   4.450
10037SOL    HW130455   4.288   3.140   4.459
10037SOL    HW230456   4.314   3.270   4.363
10038SOL     OW30457   5.017   3.090   5.147
10038SOL    HW130458   5.054   3.017   5.089
10038SOL    HW230459   5.069   3.095   5.232
10039SOL     OW30460   4.533   1.866   4.226
10039SOL    HW130461   4.573   1.957   4.217
10039SOL    HW230462   4.433   1.874   4.232
10040SOL     OW30463   3.921   2.838   4.988
10040SOL    HW130464   4.010   2.793   4.974
10040SOL    HW230465   3.848   2.773   4.969
10041SOL     OW30466   5.249   2.861   3.914
10041SOL    HW130467   5.186   2.785   3.927
10041SOL    HW230468   5.297   2.879   4.000
10042SOL     OW30469   4.911   3.654   5.340
10042SOL    HW130470   4.935   3.714   5.264
10042SOL    HW230471   4.918   3.559   5.310
10043SOL     OW30472   4.041   2.113   5.525
10043SOL    HW130473   4.112   2.184   5.531
10043SOL    HW230474   3.953   2.152   5.553
10044SOL     OW30475   5.190   3.279   4.677
10044SOL    HW130476   5.131   3.285   4.757
10044SOL    HW230477   5.175   3.191   4.631
10045SOL     OW30478   5.391   3.576   4.296
10045SOL    HW130479   5.350   3.553   4.208
10045SOL    HW230480   5.373   3.502   4.361
10046SOL     OW30481   4.322   2.591   3.994
10046SOL    HW130482   4.346   2.660   3.926
10046SOL    HW230483   4.244   2.624   4.048
10047SOL     OW30484   5.005   2.207   4.668
10047SOL    HW130485   4.919   2.157   4.655
10047SOL    HW230486   5.067   2.153   4.724
10048SOL     OW30487   5.300   3.524   4.031
10048SOL    HW130488   5.389   3.570   4.034
10048SOL    HW230489   5.279   3.500   3.936
10049SOL     OW30490   4.531   2.467   5.189
10049SOL    HW130491   4.484   2.464   5.278
10049SOL    HW230492   4.480   2.412   5.123
10050SOL     OW30493   5.118   2.331   5.398
10050SOL    HW130494   5.098   2.374   5.486
10050SOL    HW230495   5.196   2.269   5.407
10051SOL     OW30496   4.697   2.752   5.296
10051SOL    HW130497   4.743   2.668   5.267
10051SOL    HW230498   4.641   2.786   5.221
10052SOL     OW30499   4.715   2.272   4.966
10052SOL    HW130500   4.638   2.306   5.020
10052SOL    HW230501   4.681   2.221   4.887
10053SOL     OW30502   4.765   2.563   4.153
10053SOL    HW130503   4.791   2.559   4.249
10053SOL    HW230504   4.680   2.512   4.139
10054SOL     OW30505   3.800   2.673   4.513
10054SOL    HW130506   3.899   2.661   4.522
10054SOL    HW230507   3.776   2.768   4.534
10055SOL     OW30508   3.854   3.683   5.295
10055SOL    HW130509   3.844   3.668   5.394
10055SOL    HW230510   3.768   3.719   5.259
10056SOL     OW30511   4.589   2.210   3.919
10056SOL    HW130512   4.648   2.273   3.870
10056SOL    HW230513   4.608   2.116   3.890
10057SOL     OW30514   5.443   2.447   5.555
10057SOL    HW130515   5.417   2.536   5.519
10057SOL    HW230516   5.441   2.379   5.482
10058SOL     OW30517   5.086   3.006   4.269
10058SOL    HW130518   5.169   2.977   4.221
10058SOL    HW230519   5.037   3.073   4.213
10059SOL     OW30520   4.274   2.058   4.609
10059SOL    HW130521   4.269   2.053   4.709
10059SOL    HW230522   4.276   2.154   4.580
10060SOL     OW30523   4.732   3.318   4.201
10060SOL    HW130524   4.686   3.390   4.149
10060SOL    HW230525   4.728   3.338   4.299
10061SOL     OW30526   4.075   3.663   4.577
10061SOL    HW130527   4.125   3.577   4.583
10061SOL    HW230528   4.140   3.740   4.574
10062SOL     OW30529   5.519   2.928   4.597
10062SOL    HW130530   5.457   2.913   4.521
10062SOL    HW230531   5.467   2.939   4.682
10063SOL     OW30532   4.951   3.412   5.230
10063SOL    HW130533   4.957   3.335   5.294
10063SOL    HW230534   4.899   3.386   5.150
10064SOL     OW30535   4.045   2.805   3.966
10064SOL    HW130536   4.127   2.844   3.924
10064SOL    HW230537   4.018   2.723   3.917
10065SOL     OW30538   5.182   2.597   4.452
10065SOL    HW130539   5.177   2.532   4.527
10065SOL    HW230540   5.262   2.656   4.465
10066SOL     OW30541   4.185   3.128   5.451
10066SOL    HW130542   4.135   3.129   5.365
10066SOL    HW230543   4.122   3.110   5.527
10067SOL     OW30544   4.835   3.638   3.961
10067SOL    HW130545   4.775   3.576   4.011
10067SOL    HW230546   4.866   3.594   3.876
10068SOL     OW30547   3.926   2.147   5.222
10068SOL    HW130548   3.846   2.207   5.209
10068SOL    HW230549   3.916   2.098   5.308
10069SOL     OW30550   5.356   3.239   3.805
10069SOL    HW130551   5.324   3.333   3.795
10069SOL    HW230552   5.280   3.176   3.793
10070SOL     OW30553   4.188   3.605   4.047
10070SOL    HW130554   4.221   3.644   4.133
10070SOL    HW230555   4.264   3.598   3.982
10071SOL     OW30556   5.124   1.969   4.150
10071SOL    HW130557   5.100   1.932   4.060
10071SOL    HW230558   5.223   1.985   4.154
10072SOL     OW30559   3.973   3.647   4.965
10072SOL    HW130560   4.030   3.582   5.015
10072SOL    HW230561   3.957   3.614   4.872
10073SOL     OW30562   4.664   3.560   4.628
10073SOL    HW130563   4.744   3.503   4.649
10073SOL    HW230564   4.615   3.520   4.551
10074SOL     OW30565   4.106   2.562   4.204
10074SOL    HW130566   4.151   2.472   4.201
10074SOL    HW230567   4.012   2.551   4.237
10075SOL     OW30568   5.271   2.084   5.453
10075SOL    HW130569   5.266   2.121   5.545
10075SOL    HW230570   5.199   2.015   5.441
10076SOL     OW30571   4.338   1.984   3.841
10076SOL    HW130572   4.436   1.962   3.848
10076SOL    HW230573   4.307   1.967   3.748
10077SOL     OW30574   4.505   2.126   5.473
10077SOL    HW130575   4.572   2.065   5.516
10077SOL    HW230576   4.432   2.145   5.538
10078SOL     OW30577   4.612   3.376   4.919
10078SOL    HW130578   4.589   3.351   4.825
10078SOL    HW230579   4.673   3.307   4.958
10079SOL     OW30580   5.075   2.452   5.157
10079SOL    HW130581   5.103   2.409   5.242
10079SOL    HW230582   5.100   2.548   5.158
10080SOL     OW30583   4.527   3.264   4.648
10080SOL    HW130584   4.617   3.278   4.606
10080SOL    HW230585   4.456   3.266   4.577
10081SOL     OW30586   4.646   2.365   4.623
10081SOL    HW130587   4.621   2.356   4.527
10081SOL    HW230588   4.694   2.283   4.654
10082SOL     OW30589   4.263   1.926   4.236
10082SOL    HW130590   4.182   1.927   4.294
10082SOL    HW230591   4.266   2.009   4.181
10083SOL     OW30592   5.158   3.050   3.765
10083SOL    HW130593   5.190   2.974   3.822
10083SOL    HW230594   5.066   3.077   3.795
10084SOL     OW30595   4.021   1.897   3.895
10084SOL    HW130596   4.070   1.981   3.874
10084SOL    HW230597   4.083   1.832   3.940
10085SOL     OW30598   4.659   2.098   4.204
10085SOL    HW130599   4.611   2.139   4.126
10085SOL    HW230600   4.758   2.096   4.185
10086SOL     OW30601   4.800   2.545   5.188
10086SOL    HW130602   4.720   2.484   5.191
10086SOL    HW230603   4.881   2.492   5.164
10087SOL     OW30604   4.951   3.432   4.517
10087SOL    HW130605   4.972   3.506   4.452
10087SOL    HW230606   5.019   3.432   4.590
10088SOL     OW30607   4.183   3.014   4.465
10088SOL    HW130608   4.112   2.987   4.530
10088SOL    HW230609   4.157   2.986   4.372
10089SOL     OW30610   4.995   3.659   4.315
10089SOL    HW130611   5.039   3.723   4.251
10089SOL    HW230612   4.945   3.711   4.385
10090SOL     OW30613   4.756   2.411   3.740
10090SOL    HW130614   4.715   2.493   3.701
10090SOL    HW230615   4.820   2.437   3.813
10091SOL     OW30616   3.802   2.418   5.110
10091SOL    HW130617   3.894   2.417   5.069
10091SOL    HW230618   3.796   2.492   5.177
10092SOL     OW30619   4.285   2.084   4.871
10092SOL    HW130620   4.323   2.000   4.908
10092SOL    HW230621   4.197   2.103   4.915
10093SOL     OW30622   4.590   2.316   4.366
10093SOL    HW130623   4.558   2.388   4.304
10093SOL    HW230624   4.614   2.235   4.313
10094SOL     OW30625   4.741   1.901   4.477
10094SOL    HW130626   4.669   1.906   4.408
10094SOL    HW230627   4.717   1.832   4.546
10095SOL     OW30628   5.153   3.035   4.591
10095SOL    HW130629   5.098   2.951   4.584
10095SOL    HW230630   5.179   3.064   4.499
10096SOL     OW30631   5.190   2.452   4.716
10096SOL    HW130632   5.160   2.357   4.723
10096SOL    HW230633   5.263   2.468   4.782
10097SOL     OW30634   5.581   2.695   4.101
10097SOL    HW130635   5.623   2.631   4.165
10097SOL    HW230636   5.543   2.644   4.023
10098SOL     OW30637   4.212   3.247   3.898
10098SOL    HW130638   4.125   3.232   3.945
10098SOL    HW230639   4.195   3.273   3.803
10099SOL     OW30640   5.388   3.142   4.381
10099SOL    HW130641   5.487   3.150   4.395
10099SOL    HW230642   5.343   3.226   4.412
10100SOL     OW30643   5.114   2.437   3.802
10100SOL    HW130644   5.060   2.416   3.883
10100SOL    HW230645   5.205   2.396   3.811
10101SOL     OW30646   4.251   2.118   4.052
10101SOL    HW130647   4.278   2.059   3.977
10101SOL    HW230648   4.251   2.213   4.021
10102SOL     OW30649   5.478   3.085   5.312
10102SOL    HW130650   5.569   3.046   5.299
10102SOL    HW230651   5.486   3.181   5.336
10103SOL     OW30652   4.788   3.209   5.064
10103SOL    HW130653   4.708   3.186   5.119
10103SOL    HW230654   4.871   3.183   5.113
10104SOL     OW30655   5.316   3.491   5.349
10104SOL    HW130656   5.343   3.525   5.259
10104SOL    HW230657   5.395   3.453   5.395
10105SOL     OW30658   4.835   3.057   4.824
10105SOL    HW130659   4.795   3.101   4.905
10105SOL    HW230660   4.794   3.094   4.741
10106SOL     OW30661   5.362   2.961   4.803
10106SOL    HW130662   5.367   3.042   4.862
10106SOL    HW230663   5.276   2.963   4.752
10107SOL     OW30664   4.639   1.951   5.126
10107SOL    HW130665   4.664   1.931   5.031
10107SOL    HW230666   4.711   2.007   5.168
10108SOL     OW30667   4.704   2.978   5.443
10108SOL    HW130668   4.605   2.984   5.453
10108SOL    HW230669   4.727   2.898   5.387
10109SOL     OW30670   4.429   2.912   4.092
10109SOL    HW130671   4.415   2.919   4.191
10109SOL    HW230672   4.513   2.861   4.074
10110SOL     OW30673   4.134   2.675   4.975
10110SOL    HW130674   4.220   2.687   5.025
10110SOL    HW230675   4.092   2.588   5.002
10111SOL     OW30676   4.998   2.248   4.986
10111SOL    HW130677   5.019   2.322   5.050
10111SOL    HW230678   4.909   2.265   4.943
10112SOL     OW30679   4.091   2.962   4.225
10112SOL    HW130680   4.084   3.045   4.169
10112SOL    HW230681   4.095   2.882   4.165
10113SOL     OW30682   4.290   2.399   4.589
10113SOL    HW130683   4.302   2.465   4.515
10113SOL    HW230684   4.336   2.433   4.672
10114SOL     OW30685   4.976   3.210   4.112
10114SOL    HW130686   5.026   3.287   4.152
10114SOL    HW230687   4.881   3.212   4.144
10115SOL     OW30688   4.996   3.307   4.866
10115SOL    HW130689   5.043   3.320   4.953
10115SOL    HW230690   4.930   3.233   4.875
10116SOL     OW30691   5.306   2.501   4.196
10116SOL    HW130692   5.275   2.562   4.269
10116SOL    HW230693   5.356   2.553   4.127
10117SOL     OW30694   4.078   3.372   5.053
10117SOL    HW130695   4.057   3.328   4.966
10117SOL    HW230696   4.175   3.398   5.056
10118SOL     OW30697   4.126   2.613   5.322
10118SOL    HW130698   4.194   2.668   5.275
10118SOL    HW230699   4.166   2.525   5.349
10119SOL     OW30700   5.311   2.641   5.394
10119SOL    HW130701   5.219   2.679   5.389
10119SOL    HW230702   5.371   2.688   5.329
10120SOL     OW30703   4.737   1.967   5.494
10120SOL    HW130704   4.743   2.052   5.442
10120SOL    HW230705   4.769   1.891   5.437
10121SOL     OW30706   4.228   1.912   5.464
10121SOL    HW130707   4.186   1.855   5.394
10121SOL    HW230708   4.162   1.981   5.496
10122SOL     OW30709   4.297   2.732   4.753
10122SOL    HW130710   4.341   2.821   4.744
10122SOL    HW230711   4.234   2.732   4.830
10123SOL     OW30712   5.084   2.724   4.769
10123SOL    HW130713   5.009   2.724   4.703
10123SOL    HW230714   5.121   2.632   4.778
10124SOL     OW30715   4.933   2.387   3.999
10124SOL    HW130716   4.946   2.303   4.053
10124SOL    HW230717   4.904   2.461   4.059
10125SOL     OW30718   4.031   2.075   4.955
10125SOL    HW130719   4.008   2.112   5.045
10125SOL    HW230720   4.001   1.980   4.949
10126SOL     OW30721   3.761   3.172   5.006
10126SOL    HW130722   3.814   3.123   5.074
10126SOL    HW230723   3.783   3.270   5.011
10127SOL     OW30724   4.456   2.496   4.788
10127SOL    HW130725   4.515   2.470   4.712
10127SOL    HW230726   4.428   2.592   4.777
10128SOL     OW30727   5.452   2.797   5.578
10128SOL    HW130728   5.406   2.790   5.489
10128SOL    HW230729   5.390   2.841   5.644
10129SOL     OW30730   4.031   1.925   4.342
10129SOL    HW130731   4.020   2.019   4.375
10129SOL    HW230732   4.026   1.862   4.419
10130SOL     OW30733   4.747   2.628   4.690
10130SOL    HW130734   4.762   2.649   4.786
10130SOL    HW230735   4.717   2.533   4.681
10131SOL     OW30736   4.704   3.435   5.424
10131SOL    HW130737   4.684   3.479   5.336
10131SOL    HW230738   4.743   3.344   5.408
10132SOL     OW30739   5.583   3.380   5.329
10132SOL    HW130740   5.597   3.407   5.234
10132SOL    HW230741   5.666   3.402   5.382
10133SOL     OW30742   4.074   2.760   5.528
10133SOL    HW130743   4.150   2.804   5.576
10133SOL    HW230744   4.109   2.713   5.446
10134SOL     OW30745   5.264   2.136   3.849
10134SOL    HW130746   5.203   2.061   3.872
10134SOL    HW230747   5.286   2.188   3.932
10135SOL     OW30748   5.027   2.700   3.766
10135SOL    HW130749   5.061   2.607   3.781
10135SOL    HW230750   5.045   2.727   3.671
10136SOL     OW30751   4.792   3.195   4.573
10136SOL    HW130752   4.799   3.111   4.518
10136SOL    HW230753   4.854   3.264   4.537
10137SOL     OW30754   4.043   2.672   4.673
10137SOL    HW130755   4.136   2.708   4.678
10137SOL    HW230756   4.037   2.587   4.725
10138SOL     OW30757   4.063   2.371   4.730
10138SOL    HW130758   4.011   2.288   4.713
10138SOL    HW230759   4.140   2.376   4.666
10139SOL     OW30760   4.862   2.242   5.402
10139SOL    HW130761   4.817   2.305   5.466
10139SOL    HW230762   4.955   2.273   5.385
10140SOL     OW30763   4.884   2.069   5.201
10140SOL    HW130764   4.884   2.133   5.278
10140SOL    HW230765   4.912   2.117   5.118
10141SOL     OW30766   3.732   3.188   3.924
10141SOL    HW130767   3.639   3.209   3.893
10141SOL    HW230768   3.742   3.089   3.937
10142SOL     OW30769   3.812   3.663   4.651
10142SOL    HW130770   3.770   3.577   4.624
10142SOL    HW230771   3.906   3.666   4.617
10143SOL     OW30772   4.228   3.430   4.634
10143SOL    HW130773   4.294   3.504   4.643
10143SOL    HW230774   4.272   3.351   4.592
10144SOL     OW30775   4.726   2.658   4.962
10144SOL    HW130776   4.767   2.626   5.048
10144SOL    HW230777   4.630   2.631   4.959
10145SOL     OW30778   3.764   2.406   4.838
10145SOL    HW130779   3.849   2.373   4.797
10145SOL    HW230780   3.777   2.421   4.936
10146SOL     OW30781   3.913   2.382   5.446
10146SOL    HW130782   3.972   2.342   5.376
10146SOL    HW230783   3.855   2.453   5.405
10147SOL     OW30784   5.093   2.812   5.384
10147SOL    HW130785   5.132   2.901   5.404
10147SOL    HW230786   5.103   2.792   5.287
10148SOL     OW30787   4.539   2.434   4.049
10148SOL    HW130788   4.546   2.345   4.003
10148SOL    HW230789   4.445   2.468   4.041
10149SOL     OW30790   5.381   2.466   4.930
10149SOL    HW130791   5.343   2.397   4.992
10149SOL    HW230792   5.463   2.430   4.886
10150SOL     OW30793   3.976   3.426   5.468
10150SOL    HW130794   3.946   3.483   5.544
10150SOL    HW230795   3.969   3.329   5.494
10151SOL     OW30796   4.395   2.326   4.993
10151SOL    HW130797   4.361   2.237   4.963
10151SOL    HW230798   4.421   2.380   4.913
10152SOL     OW30799   4.654   3.540   5.189
10152SOL    HW130800   4.630   3.522   5.094
10152SOL    HW230801   4.684   3.634   5.199
10153SOL     OW30802   4.197   2.362   3.915
10153SOL    HW130803   4.258   2.442   3.919
10153SOL    HW230804   4.102   2.393   3.922
10154SOL     OW30805   3.883   2.999   5.190
10154SOL    HW130806   3.905   2.938   5.266
10154SOL    HW230807   3.893   2.950   5.104
10155SOL     OW30808   5.071   2.921   4.958
10155SOL    HW130809   5.095   2.858   4.884
10155SOL    HW230810   4.981   2.961   4.940
10156SOL     OW30811   5.026   2.717   4.033
10156SOL    HW130812   4.940   2.686   4.075
10156SOL    HW230813   5.022   2.703   3.934
10157SOL     OW30814   5.483   3.609   4.878
10157SOL    HW130815   5.544   3.639   4.805
10157SOL    HW230816   5.445   3.520   4.856
10158SOL     OW30817   4.976   3.593   4.852
10158SOL    HW130818   5.060   3.598   4.798
10158SOL    HW230819   4.953   3.497   4.870
10159SOL     OW30820   3.807   3.120   4.746
10159SOL    HW130821   3.802   3.119   4.846
10159SOL    HW230822   3.724   3.079   4.708
10160SOL     OW30823   4.412   3.524   5.440
10160SOL    HW130824   4.356   3.605   5.449
10160SOL    HW230825   4.464   3.528   5.354
10161SOL     OW30826   5.450   1.997   4.247
10161SOL    HW130827   5.523   1.980   4.180
10161SOL    HW230828   5.419   1.910   4.285
10162SOL     OW30829   5.112   3.435   4.201
10162SOL    HW130830   5.179   3.447   4.127
10162SOL    HW230831   5.072   3.524   4.224
10163SOL     OW30832   3.854   3.656   5.575
10163SOL    HW130833   3.813   3.582   5.628
10163SOL    HW230834   3.918   3.707   5.633
10164SOL     OW30835   5.004   2.789   4.396
10164SOL    HW130836   5.064   2.708   4.398
10164SOL    HW230837   5.044   2.858   4.336
10165SOL     OW30838   4.554   3.135   5.146
10165SOL    HW130839   4.549   3.168   5.241
10165SOL    HW230840   4.468   3.154   5.100
10166SOL     OW30841   4.396   3.478   3.878
10166SOL    HW130842   4.405   3.488   3.779
10166SOL    HW230843   4.356   3.389   3.899
10167SOL     OW30844   5.374   3.582   5.118
10167SOL    HW130845   5.427   3.592   5.034
10167SOL    HW230846   5.347   3.672   5.152
10168SOL     OW30847   5.565   2.037   4.687
10168SOL    HW130848   5.604   1.952   4.651
10168SOL    HW230849   5.467   2.039   4.668
10169SOL     OW30850   3.987   2.188   4.444
10169SOL    HW130851   3.908   2.239   4.410
10169SOL    HW230852   3.978   2.173   4.542
10170SOL     OW30853   4.546   2.864   5.096
10170SOL    HW130854   4.586   2.863   5.004
10170SOL    HW230855   4.556   2.956   5.136
10171SOL     OW30856   4.640   2.772   4.015
10171SOL    HW130857   4.703   2.810   3.947
10171SOL    HW230858   4.680   2.689   4.054
10172SOL     OW30859   5.228   3.469   3.768
10172SOL    HW130860   5.136   3.506   3.775
10172SOL    HW230861   5.266   3.489   3.678
10173SOL     OW30862   4.096   3.150   5.214
10173SOL    HW130863   4.083   3.243   5.180
10173SOL    HW230864   4.012   3.098   5.201
10174SOL     OW30865   5.338   3.154   5.013
10174SOL    HW130866   5.398   3.157   5.093
10174SOL    HW230867   5.263   3.218   5.026
10175SOL     OW30868   4.763   2.960   4.420
10175SOL    HW130869   4.693   2.913   4.474
10175SOL    HW230870   4.822   2.892   4.377
10176SOL     OW30871   4.738   2.098   4.695
10176SOL    HW130872   4.730   2.062   4.602
10176SOL    HW230873   4.736   2.022   4.760
10177SOL     OW30874   4.314   3.349   4.215
10177SOL    HW130875   4.356   3.291   4.145
10177SOL    HW230876   4.270   3.428   4.171
10178SOL     OW30877   5.433   2.247   5.105
10178SOL    HW130878   5.506   2.316   5.109
10178SOL    HW230879   5.461   2.172   5.046
10179SOL     OW30880   3.979   3.210   4.014
10179SOL    HW130881   3.883   3.211   3.987
10179SOL    HW230882   3.991   3.263   4.098
10180SOL     OW30883   3.829   2.875   5.450
10180SOL    HW130884   3.752   2.842   5.504
10180SOL    HW230885   3.914   2.845   5.492
10181SOL     OW30886   4.396   2.065   5.213
10181SOL    HW130887   4.486   2.049   5.173
10181SOL    HW230888   4.404   2.070   5.312
10182SOL     OW30889   3.799   2.207   3.757
10182SOL    HW130890   3.707   2.179   3.728
10182SOL    HW230891   3.830   2.284   3.701
10183SOL     OW30892   5.164   2.718   5.122
10183SOL    HW130893   5.107   2.770   5.059
10183SOL    HW230894   5.260   2.730   5.098
10184SOL     OW30895   3.796   2.028   4.042
10184SOL    HW130896   3.779   2.111   3.988
10184SOL    HW230897   3.886   1.991   4.020
10185SOL     OW30898   4.907   3.197   3.843
10185SOL    HW130899   4.808   3.186   3.845
10185SOL    HW230900   4.941   3.212   3.936
10186SOL     OW30901   4.337   2.704   5.155
10186SOL    HW130902   4.393   2.785   5.138
10186SOL    HW230903   4.396   2.624   5.158
10187SOL     OW30904   5.217   3.629   4.683
10187SOL    HW130905   5.250   3.693   4.614
10187SOL    HW230906   5.283   3.623   4.758
10188SOL     OW30907   4.440   2.427   5.432
10188SOL    HW130908   4.459   2.492   5.506
10188SOL    HW230909   4.500   2.347   5.441
10189SOL     OW30910   5.174   3.082   5.357
10189SOL    HW130911   5.165   3.072   5.456
10189SOL    HW230912   5.270   3.075   5.331
10190SOL     OW30913   4.114   3.603   5.284
10190SOL    HW130914   4.023   3.644   5.282
10190SOL    HW230915   4.107   3.509   5.316
10191SOL     OW30916   5.398   2.745   4.978
10191SOL    HW130917   5.371   2.656   4.941
10191SOL    HW230918   5.399   2.813   4.905
10192SOL     OW30919   4.949   2.187   4.173
10192SOL    HW130920   5.014   2.113   4.162
10192SOL    HW230921   4.969   2.237   4.257
10193SOL     OW30922   4.318   2.607   4.376
10193SOL    HW130923   4.368   2.692   4.357
10193SOL    HW230924   4.230   2.609   4.328
10194SOL     OW30925   5.501   2.204   5.366
10194SOL    HW130926   5.484   2.235   5.272
10194SOL    HW230927   5.417   2.167   5.404
10195SOL     OW30928   5.454   2.796   5.241
10195SOL    HW130929   5.492   2.887   5.256
10195SOL    HW230930   5.446   2.779   5.142
10196SOL     OW30931   4.583   3.236   3.740
10196SOL    HW130932   4.537   3.251   3.828
10196SOL    HW230933   4.627   3.321   3.710
10197SOL     OW30934   4.385   3.652   4.677
10197SOL    HW130935   4.339   3.740   4.664
10197SOL    HW230936   4.484   3.664   4.670
10198SOL     OW30937   4.583   2.818   4.585
10198SOL    HW130938   4.637   2.749   4.633
10198SOL    HW230939   4.551   2.887   4.651
10199SOL     OW30940   4.807   2.846   3.811
10199SOL    HW130941   4.784   2.899   3.729
10199SOL    HW230942   4.888   2.790   3.792
10200SOL     OW30943   5.585   3.431   4.575
10200SOL    HW130944   5.514   3.419   4.505
10200SOL    HW230945   5.586   3.352   4.635
10201SOL     OW30946   3.945   3.176   5.568
10201SOL    HW130947   3.880   3.103   5.547
10201SOL    HW230948   3.949   3.190   5.666
10202SOL     OW30949   3.803   3.102   4.377
10202SOL    HW130950   3.802   3.055   4.465
10202SOL    HW230951   3.885   3.074   4.326
10203SOL     OW30952   4.396   3.253   5.348
10203SOL    HW130953   4.318   3.203   5.386
10203SOL    HW230954   4.393   3.348   5.379
10204SOL     OW30955   5.548   2.054   4.951
10204SOL    HW130956   5.544   1.964   4.995
10204SOL    HW230957   5.551   2.043   4.852
10205SOL     OW30958   4.152   2.286   4.244
10205SOL    HW130959   4.182   2.214   4.182
10205SOL    HW230960   4.113   2.246   4.327
10206SOL     OW30961   5.429   3.349   4.828
10206SOL    HW130962   5.336   3.324   4.801
10206SOL    HW230963   5.455   3.299   4.910
10207SOL     OW30964   4.041   2.409   5.004
10207SOL    HW130965   4.079   2.350   5.076
10207SOL    HW230966   4.081   2.383   4.916
10208SOL     OW30967   4.536   3.448   4.411
10208SOL    HW130968   4.568   3.458   4.317
10208SOL    HW230969   4.457   3.386   4.413
10209SOL     OW30970   5.148   2.076   4.836
10209SOL    HW130971   5.200   2.011   4.891
10209SOL    HW230972   5.099   2.139   4.897
10210SOL     OW30973   4.725   1.896   4.878
10210SOL    HW130974   4.662   1.824   4.847
10210SOL    HW230975   4.818   1.860   4.878
10211SOL     OW30976   4.494   3.192   4.025
10211SOL    HW130977   4.448   3.105   4.042
10211SOL    HW230978   4.585   3.189   4.066
10212SOL     OW30979   4.342   3.429   5.008
10212SOL    HW130980   4.337   3.511   5.065
10212SOL    HW230981   4.431   3.426   4.963
10213SOL     OW30982   5.076   1.914   3.892
10213SOL    HW130983   5.111   1.873   3.808
10213SOL    HW230984   4.986   1.876   3.912
10214SOL     OW30985   5.024   2.315   4.415
10214SOL    HW130986   4.965   2.395   4.419
10214SOL    HW230987   5.039   2.280   4.508
10215SOL     OW30988   5.317   2.083   4.606
10215SOL    HW130989   5.233   2.082   4.660
10215SOL    HW230990   5.319   2.166   4.550
10216SOL     OW30991   3.763   2.939   4.024
10216SOL    HW130992   3.862   2.928   4.015
10216SOL    HW230993   3.723   2.853   4.056
10217SOL     OW30994   4.599   3.508   4.061
10217SOL    HW130995   4.522   3.473   4.007
10217SOL    HW230996   4.567   3.579   4.123
10218SOL     OW30997   3.954   2.490   5.699
10218SOL    HW130998   3.861   2.488   5.736
10218SOL    HW230999   3.955   2.451   5.607
10219SOL     OW31000   3.949   2.137   6.582
10219SOL    HW131001   3.984   2.120   6.674
10219SOL    HW231002   3.861   2.092   6.570
10220SOL     OW31003   3.743   2.230   6.233
10220SOL    HW131004   3.661   2.273   6.272
10220SOL    HW231005   3.715   2.157   6.170
10221SOL     OW31006   4.293   3.137   6.751
10221SOL    HW131007   4.200   3.130   6.714
10221SOL    HW231008   4.304   3.226   6.795
10222SOL     OW31009   5.279   3.373   6.289
10222SOL    HW131010   5.222   3.357   6.370
10222SOL    HW231011   5.220   3.383   6.209
10223SOL     OW31012   5.479   2.469   5.817
10223SOL    HW131013   5.467   2.456   5.718
10223SOL    HW231014   5.449   2.388   5.866
10224SOL     OW31015   4.492   3.006   6.609
10224SOL    HW131016   4.414   3.023   6.669
10224SOL    HW231017   4.526   3.093   6.573
10225SOL     OW31018   4.574   2.660   7.409
10225SOL    HW131019   4.570   2.736   7.474
10225SOL    HW231020   4.596   2.696   7.318
10226SOL     OW31021   4.409   2.874   6.251
10226SOL    HW131022   4.478   2.858   6.321
10226SOL    HW231023   4.336   2.931   6.289
10227SOL     OW31024   4.410   3.023   7.389
10227SOL    HW131025   4.470   3.102   7.403
10227SOL    HW231026   4.324   3.054   7.348
10228SOL     OW31027   4.059   3.297   6.647
10228SOL    HW131028   3.981   3.266   6.594
10228SOL    HW231029   4.117   3.355   6.590
10229SOL     OW31030   5.184   3.367   6.925
10229SOL    HW131031   5.208   3.461   6.951
10229SOL    HW231032   5.168   3.313   7.007
10230SOL     OW31033   4.162   2.254   7.085
10230SOL    HW131034   4.244   2.198   7.094
10230SOL    HW231035   4.081   2.196   7.089
10231SOL     OW31036   5.327   2.309   6.323
10231SOL    HW131037   5.253   2.355   6.273
10231SOL    HW231038   5.378   2.377   6.376
10232SOL     OW31039   3.955   3.575   6.069
10232SOL    HW131040   3.989   3.652   6.123
10232SOL    HW231041   3.999   3.575   5.979
10233SOL     OW31042   4.851   3.203   7.276
10233SOL    HW131043   4.898   3.203   7.364
10233SOL    HW231044   4.803   3.116   7.265
10234SOL     OW31045   3.954   3.296   6.124
10234SOL    HW131046   3.928   3.392   6.124
10234SOL    HW231047   3.883   3.242   6.169
10235SOL     OW31048   3.964   2.953   6.472
10235SOL    HW131049   3.978   2.869   6.524
10235SOL    HW231050   3.909   3.017   6.527
10236SOL     OW31051   4.344   3.648   7.025
10236SOL    HW131052   4.252   3.631   7.060
10236SOL    HW231053   4.372   3.740   7.051
10237SOL     OW31054   4.330   2.826   5.709
10237SOL    HW131055   4.337   2.910   5.655
10237SOL    HW231056   4.376   2.839   5.797
10238SOL     OW31057   5.318   1.976   7.066
10238SOL    HW131058   5.300   2.043   6.994
10238SOL    HW231059   5.315   2.022   7.155
10239SOL     OW31060   3.846   2.505   6.149
10239SOL    HW131061   3.801   2.417   6.166
10239SOL    HW231062   3.845   2.559   6.233
10240SOL     OW31063   5.566   3.629   5.945
10240SOL    HW131064   5.620   3.600   6.025
10240SOL    HW231065   5.596   3.719   5.916
10241SOL     OW31066   3.751   3.458   5.703
10241SOL    HW131067   3.732   3.362   5.724
10241SOL    HW231068   3.718   3.516   5.778
10242SOL     OW31069   5.413   2.784   6.198
10242SOL    HW131070   5.508   2.755   6.206
10242SOL    HW231071   5.405   2.849   6.123
10243SOL     OW31072   5.365   2.970   6.018
10243SOL    HW131073   5.451   2.972   5.966
10243SOL    HW231074   5.379   3.017   6.106
10244SOL     OW31075   3.837   2.599   7.183
10244SOL    HW131076   3.925   2.586   7.228
10244SOL    HW231077   3.824   2.696   7.161
10245SOL     OW31078   4.337   3.227   6.312
10245SOL    HW131079   4.288   3.140   6.321
10245SOL    HW231080   4.314   3.270   6.225
10246SOL     OW31081   5.017   3.090   7.009
10246SOL    HW131082   5.054   3.017   6.951
10246SOL    HW231083   5.069   3.095   7.094
10247SOL     OW31084   4.533   1.866   6.088
10247SOL    HW131085   4.573   1.957   6.079
10247SOL    HW231086   4.433   1.874   6.094
10248SOL     OW31087   3.921   2.838   6.850
10248SOL    HW131088   4.010   2.793   6.836
10248SOL    HW231089   3.848   2.773   6.831
10249SOL     OW31090   5.249   2.861   5.776
10249SOL    HW131091   5.186   2.785   5.789
10249SOL    HW231092   5.297   2.879   5.862
10250SOL     OW31093   4.911   3.654   7.202
10250SOL    HW131094   4.935   3.714   7.126
10250SOL    HW231095   4.918   3.559   7.172
10251SOL     OW31096   4.041   2.113   7.387
10251SOL    HW131097   4.112   2.184   7.393
10251SOL    HW231098   3.953   2.152   7.415
10252SOL     OW31099   5.190   3.279   6.539
10252SOL    HW131100   5.131   3.285   6.619
10252SOL    HW231101   5.175   3.191   6.493
10253SOL     OW31102   5.391   3.576   6.158
10253SOL    HW131103   5.350   3.553   6.070
10253SOL    HW231104   5.373   3.502   6.223
10254SOL     OW31105   4.322   2.591   5.856
10254SOL    HW131106   4.346   2.660   5.788
10254SOL    HW231107   4.244   2.624   5.910
10255SOL     OW31108   5.005   2.207   6.530
10255SOL    HW131109   4.919   2.157   6.517
10255SOL    HW231110   5.067   2.153   6.586
10256SOL     OW31111   5.300   3.524   5.893
10256SOL    HW131112   5.389   3.570   5.896
10256SOL    HW231113   5.279   3.500   5.798
10257SOL     OW31114   4.531   2.467   7.051
10257SOL    HW131115   4.484   2.464   7.140
10257SOL    HW231116   4.480   2.412   6.985
10258SOL     OW31117   5.118   2.331   7.260
10258SOL    HW131118   5.098   2.374   7.348
10258SOL    HW231119   5.196   2.269   7.269
10259SOL     OW31120   4.697   2.752   7.158
10259SOL    HW131121   4.743   2.668   7.129
10259SOL    HW231122   4.641   2.786   7.083
10260SOL     OW31123   4.715   2.272   6.828
10260SOL    HW131124   4.638   2.306   6.882
10260SOL    HW231125   4.681   2.221   6.749
10261SOL     OW31126   4.765   2.563   6.015
10261SOL    HW131127   4.791   2.559   6.111
10261SOL    HW231128   4.680   2.512   6.001
10262SOL     OW31129   3.800   2.673   6.375
10262SOL    HW131130   3.899   2.661   6.384
10262SOL    HW231131   3.776   2.768   6.396
10263SOL     OW31132   3.854   3.683   7.157
10263SOL    HW131133   3.844   3.668   7.256
10263SOL    HW231134   3.768   3.719   7.121
10264SOL     OW31135   4.589   2.210   5.781
10264SOL    HW131136   4.648   2.273   5.732
10264SOL    HW231137   4.608   2.116   5.752
10265SOL     OW31138   5.443   2.447   7.417
10265SOL    HW131139   5.417   2.536   7.381
10265SOL    HW231140   5.441   2.379   7.344
10266SOL     OW31141   5.086   3.006   6.131
10266SOL    HW131142   5.169   2.977   6.083
10266SOL    HW231143   5.037   3.073   6.075
10267SOL     OW31144   4.274   2.058   6.471
10267SOL    HW131145   4.269   2.053   6.571
10267SOL    HW231146   4.276   2.154   6.442
10268SOL     OW31147   4.732   3.318   6.063
10268SOL    HW131148   4.686   3.390   6.011
10268SOL    HW231149   4.728   3.338   6.161
10269SOL     OW31150   4.075   3.663   6.439
10269SOL    HW131151   4.125   3.577   6.445
10269SOL    HW231152   4.140   3.740   6.436
10270SOL     OW31153   5.519   2.928   6.459
10270SOL    HW131154   5.457   2.913   6.383
10270SOL    HW231155   5.467   2.939   6.544
10271SOL     OW31156   4.951   3.412   7.092
10271SOL    HW131157   4.957   3.335   7.156
10271SOL    HW231158   4.899   3.386   7.012
10272SOL     OW31159   4.045   2.805   5.828
10272SOL    HW131160   4.127   2.844   5.786
10272SOL    HW231161   4.018   2.723   5.779
10273SOL     OW31162   5.182   2.597   6.314
10273SOL    HW131163   5.177   2.532   6.389
10273SOL    HW231164   5.262   2.656   6.327
10274SOL     OW31165   4.185   3.128   7.313
10274SOL    HW131166   4.135   3.129   7.227
10274SOL    HW231167   4.122   3.110   7.389
10275SOL     OW31168   4.835   3.638   5.823
10275SOL    HW131169   4.775   3.576   5.873
10275SOL    HW231170   4.866   3.594   5.738
10276SOL     OW31171   3.926   2.147   7.084
10276SOL    HW131172   3.846   2.207   7.071
10276SOL    HW231173   3.916   2.098   7.170
10277SOL     OW31174   5.356   3.239   5.667
10277SOL    HW131175   5.324   3.333   5.657
10277SOL    HW231176   5.280   3.176   5.655
10278SOL     OW31177   4.188   3.605   5.909
10278SOL    HW131178   4.221   3.644   5.995
10278SOL    HW231179   4.264   3.598   5.844
10279SOL     OW31180   5.124   1.969   6.012
10279SOL    HW131181   5.100   1.932   5.922
10279SOL    HW231182   5.223   1.985   6.016
10280SOL     OW31183   3.973   3.647   6.827
10280SOL    HW131184   4.030   3.582   6.877
10280SOL    HW231185   3.957   3.614   6.734
10281SOL     OW31186   4.664   3.560   6.490
10281SOL    HW131187   4.744   3.503   6.511
10281SOL    HW231188   4.615   3.520   6.413
10282SOL     OW31189   4.106   2.562   6.066
10282SOL    HW131190   4.151   2.472   6.063
10282SOL    HW231191   4.012   2.551   6.099
10283SOL     OW31192   5.271   2.084   7.315
10283SOL    HW131193   5.266   2.121   7.407
10283SOL    HW231194   5.199   2.015   7.303
10284SOL     OW31195   4.338   1.984   5.703
10284SOL    HW131196   4.436   1.962   5.710
10284SOL    HW231197   4.307   1.967   5.610
10285SOL     OW31198   4.505   2.126   7.335
10285SOL    HW131199   4.572   2.065   7.378
10285SOL    HW231200   4.432   2.145   7.400
10286SOL     OW31201   4.612   3.376   6.781
10286SOL    HW131202   4.589   3.351   6.687
10286SOL    HW231203   4.673   3.307   6.820
10287SOL     OW31204   5.075   2.452   7.019
10287SOL    HW131205   5.103   2.409   7.104
10287SOL    HW231206   5.100   2.548   7.020
10288SOL     OW31207   4.527   3.264   6.510
10288SOL    HW131208   4.617   3.278   6.468
10288SOL    HW231209   4.456   3.266   6.439
10289SOL     OW31210   4.646   2.365   6.485
10289SOL    HW131211   4.621   2.356   6.389
10289SOL    HW231212   4.694   2.283   6.516
10290SOL     OW31213   4.263   1.926   6.098
10290SOL    HW131214   4.182   1.927   6.156
10290SOL    HW231215   4.266   2.009   6.043
10291SOL     OW31216   5.158   3.050   5.627
10291SOL    HW131217   5.190   2.974   5.684
10291SOL    HW231218   5.066   3.077   5.657
10292SOL     OW31219   4.021   1.897   5.757
10292SOL    HW131220   4.070   1.981   5.736
10292SOL    HW231221   4.083   1.832   5.802
10293SOL     OW31222   4.659   2.098   6.066
10293SOL    HW131223   4.611   2.139   5.988
10293SOL    HW231224   4.758   2.096   6.047
10294SOL     OW31225   4.800   2.545   7.050
10294SOL    HW131226   4.720   2.484   7.053
10294SOL    HW231227   4.881   2.492   7.026
10295SOL     OW31228   4.951   3.432   6.379
10295SOL    HW131229   4.972   3.506   6.314
10295SOL    HW231230   5.019   3.432   6.452
10296SOL     OW31231   4.183   3.014   6.327
10296SOL    HW131232   4.112   2.987   6.392
10296SOL    HW231233   4.157   2.986   6.234
10297SOL     OW31234   4.995   3.659   6.177
10297SOL    HW131235   5.039   3.723   6.113
10297SOL    HW231236   4.945   3.711   6.247
10298SOL     OW31237   4.756   2.411   5.602
10298SOL    HW131238   4.715   2.493   5.563
10298SOL    HW231239   4.820   2.437   5.675
10299SOL     OW31240   3.802   2.418   6.972
10299SOL    HW131241   3.894   2.417   6.931
10299SOL    HW231242   3.796   2.492   7.039
10300SOL     OW31243   4.285   2.084   6.733
10300SOL    HW131244   4.323   2.000   6.770
10300SOL    HW231245   4.197   2.103   6.777
10301SOL     OW31246   4.590   2.316   6.228
10301SOL    HW131247   4.558   2.388   6.166
10301SOL    HW231248   4.614   2.235   6.175
10302SOL     OW31249   4.741   1.901   6.339
10302SOL    HW131250   4.669   1.906   6.270
10302SOL    HW231251   4.717   1.832   6.408
10303SOL     OW31252   5.153   3.035   6.453
10303SOL    HW131253   5.098   2.951   6.446
10303SOL    HW231254   5.179   3.064   6.361
10304SOL     OW31255   5.190   2.452   6.578
10304SOL    HW131256   5.160   2.357   6.585
10304SOL    HW231257   5.263   2.468   6.644
10305SOL     OW31258   5.581   2.695   5.963
10305SOL    HW131259   5.623   2.631   6.027
10305SOL    HW231260   5.543   2.644   5.885
10306SOL     OW31261   4.212   3.247   5.760
10306SOL    HW131262   4.125   3.232   5.807
10306SOL    HW231263   4.195   3.273   5.665
10307SOL     OW31264   5.388   3.142   6.243
10307SOL    HW131265   5.487   3.150   6.257
10307SOL    HW231266   5.343   3.226   6.274
10308SOL     OW31267   5.114   2.437   5.664
10308SOL    HW131268   5.060   2.416   5.745
10308SOL    HW231269   5.205   2.396   5.673
10309SOL     OW31270   4.251   2.118   5.914
10309SOL    HW131271   4.278   2.059   5.839
10309SOL    HW231272   4.251   2.213   5.883
10310SOL     OW31273   5.478   3.085   7.174
10310SOL    HW131274   5.569   3.046   7.161
10310SOL    HW231275   5.486   3.181   7.198
10311SOL     OW31276   4.788   3.209   6.926
10311SOL    HW131277   4.708   3.186   6.981
10311SOL    HW231278   4.871   3.183   6.975
10312SOL     OW31279   5.316   3.491   7.211
10312SOL    HW131280   5.343   3.525   7.121
10312SOL    HW231281   5.395   3.453   7.257
10313SOL     OW31282   4.835   3.057   6.686
10313SOL    HW131283   4.795   3.101   6.767
10313SOL    HW231284   4.794   3.094   6.603
10314SOL     OW31285   5.362   2.961   6.665
10314SOL    HW131286   5.367   3.042   6.724
10314SOL    HW231287   5.276   2.963   6.614
10315SOL     OW31288   4.639   1.951   6.988
10315SOL    HW131289   4.664   1.931   6.893
10315SOL    HW231290   4.711   2.007   7.030
10316SOL     OW31291   4.704   2.978   7.305
10316SOL    HW131292   4.605   2.984   7.315
10316SOL    HW231293   4.727   2.898   7.249
10317SOL     OW31294   4.429   2.912   5.954
10317SOL    HW131295   4.415   2.919   6.053
10317SOL    HW231296   4.513   2.861   5.936
10318SOL     OW31297   4.134   2.675   6.837
10318SOL    HW131298   4.220   2.687   6.887
10318SOL    HW231299   4.092   2.588   6.864
10319SOL     OW31300   4.998   2.248   6.848
10319SOL    HW131301   5.019   2.322   6.912
10319SOL    HW231302   4.909   2.265   6.805
10320SOL     OW31303   3.788   3.426   6.917
10320SOL    HW131304   3.742   3.508   6.883
10320SOL    HW231305   3.886   3.445   6.926
10321SOL     OW31306   4.091   2.962   6.087
10321SOL    HW131307   4.084   3.045   6.031
10321SOL    HW231308   4.095   2.882   6.027
10322SOL     OW31309   4.290   2.399   6.451
10322SOL    HW131310   4.302   2.465   6.377
10322SOL    HW231311   4.336   2.433   6.534
10323SOL     OW31312   4.976   3.210   5.974
10323SOL    HW131313   5.026   3.287   6.014
10323SOL    HW231314   4.881   3.212   6.006
10324SOL     OW31315   4.996   3.307   6.728
10324SOL    HW131316   5.043   3.320   6.815
10324SOL    HW231317   4.930   3.233   6.737
10325SOL     OW31318   5.306   2.501   6.058
10325SOL    HW131319   5.275   2.562   6.131
10325SOL    HW231320   5.356   2.553   5.989
10326SOL     OW31321   4.078   3.372   6.915
10326SOL    HW131322   4.057   3.328   6.828
10326SOL    HW231323   4.175   3.398   6.918
10327SOL     OW31324   4.126   2.613   7.184
10327SOL    HW131325   4.194   2.668   7.137
10327SOL    HW231326   4.166   2.525   7.211
10328SOL     OW31327   5.311   2.641   7.256
10328SOL    HW131328   5.219   2.679   7.251
10328SOL    HW231329   5.371   2.688   7.191
10329SOL     OW31330   4.737   1.967   7.356
10329SOL    HW131331   4.743   2.052   7.304
10329SOL    HW231332   4.769   1.891   7.299
10330SOL     OW31333   4.228   1.912   7.326
10330SOL    HW131334   4.186   1.855   7.256
10330SOL    HW231335   4.162   1.981   7.358
10331SOL     OW31336   4.297   2.732   6.615
10331SOL    HW131337   4.341   2.821   6.606
10331SOL    HW231338   4.234   2.732   6.692
10332SOL     OW31339   5.084   2.724   6.631
10332SOL    HW131340   5.009   2.724   6.565
10332SOL    HW231341   5.121   2.632   6.640
10333SOL     OW31342   4.933   2.387   5.861
10333SOL    HW131343   4.946   2.303   5.915
10333SOL    HW231344   4.904   2.461   5.921
10334SOL     OW31345   4.031   2.075   6.817
10334SOL    HW131346   4.008   2.112   6.907
10334SOL    HW231347   4.001   1.980   6.811
10335SOL     OW31348   3.761   3.172   6.868
10335SOL    HW131349   3.814   3.123   6.936
10335SOL    HW231350   3.783   3.270   6.873
10336SOL     OW31351   4.456   2.496   6.650
10336SOL    HW131352   4.515   2.470   6.574
10336SOL    HW231353   4.428   2.592   6.639
10337SOL     OW31354   5.452   2.797   7.440
10337SOL    HW131355   5.406   2.790   7.351
10337SOL    HW231356   5.390   2.841   7.506
10338SOL     OW31357   4.031   1.925   6.204
10338SOL    HW131358   4.020   2.019   6.237
10338SOL    HW231359   4.026   1.862   6.281
10339SOL     OW31360   5.346   2.229   5.960
10339SOL    HW131361   5.348   2.153   6.024
10339SOL    HW231362   5.298   2.306   6.000
10340SOL     OW31363   4.747   2.628   6.552
10340SOL    HW131364   4.762   2.649   6.648
10340SOL    HW231365   4.717   2.533   6.543
10341SOL     OW31366   4.704   3.435   7.286
10341SOL    HW131367   4.684   3.479   7.198
10341SOL    HW231368   4.743   3.344   7.270
10342SOL     OW31369   5.583   3.380   7.191
10342SOL    HW131370   5.597   3.407   7.096
10342SOL    HW231371   5.666   3.402   7.244
10343SOL     OW31372   4.074   2.760   7.390
10343SOL    HW131373   4.150   2.804   7.438
10343SOL    HW231374   4.109   2.713   7.308
10344SOL     OW31375   5.264   2.136   5.711
10344SOL    HW131376   5.203   2.061   5.734
10344SOL    HW231377   5.286   2.188   5.794
10345SOL     OW31378   5.027   2.700   5.628
10345SOL    HW131379   5.061   2.607   5.643
10345SOL    HW231380   5.045   2.727   5.533
10346SOL     OW31381   4.792   3.195   6.435
10346SOL    HW131382   4.799   3.111   6.380
10346SOL    HW231383   4.854   3.264   6.399
10347SOL     OW31384   4.043   2.672   6.535
10347SOL    HW131385   4.136   2.708   6.540
10347SOL    HW231386   4.037   2.587   6.587
10348SOL     OW31387   4.063   2.371   6.592
10348SOL    HW131388   4.011   2.288   6.575
10348SOL    HW231389   4.140   2.376   6.528
10349SOL     OW31390   4.862   2.242   7.264
10349SOL    HW131391   4.817   2.305   7.328
10349SOL    HW231392   4.955   2.273   7.247
10350SOL     OW31393   4.884   2.069   7.063
10350SOL    HW131394   4.884   2.133   7.140
10350SOL    HW231395   4.912   2.117   6.980
10351SOL     OW31396   3.732   3.188   5.786
10351SOL    HW131397   3.639   3.209   5.755
10351SOL    HW231398   3.742   3.089   5.799
10352SOL     OW31399   3.812   3.663   6.513
10352SOL    HW131400   3.770   3.577   6.486
10352SOL    HW231401   3.906   3.666   6.479
10353SOL     OW31402   4.228   3.430   6.496
10353SOL    HW131403   4.294   3.504   6.505
10353SOL    HW231404   4.272   3.351   6.454
10354SOL     OW31405   4.726   2.658   6.824
10354SOL    HW131406   4.767   2.626   6.910
10354SOL    HW231407   4.630   2.631   6.821
10355SOL     OW31408   3.764   2.406   6.700
10355SOL    HW131409   3.849   2.373   6.659
10355SOL    HW231410   3.777   2.421   6.798
10356SOL     OW31411   3.913   2.382   7.308
10356SOL    HW131412   3.972   2.342   7.238
10356SOL    HW231413   3.855   2.453   7.267
10357SOL     OW31414   5.093   2.812   7.246
10357SOL    HW131415   5.132   2.901   7.266
10357SOL    HW231416   5.103   2.792   7.149
10358SOL     OW31417   4.539   2.434   5.911
10358SOL    HW131418   4.546   2.345   5.865
10358SOL    HW231419   4.445   2.468   5.903
10359SOL     OW31420   5.381   2.466   6.792
10359SOL    HW131421   5.343   2.397   6.854
10359SOL    HW231422   5.463   2.430   6.748
10360SOL     OW31423   3.976   3.426   7.330
10360SOL    HW131424   3.946   3.483   7.406
10360SOL    HW231425   3.969   3.329   7.356
10361SOL     OW31426   4.395   2.326   6.855
10361SOL    HW131427   4.361   2.237   6.825
10361SOL    HW231428   4.421   2.380   6.775
10362SOL     OW31429   4.654   3.540   7.051
10362SOL    HW131430   4.630   3.522   6.956
10362SOL    HW231431   4.684   3.634   7.061
10363SOL     OW31432   4.197   2.362   5.777
10363SOL    HW131433   4.258   2.442   5.781
10363SOL    HW231434   4.102   2.393   5.784
10364SOL     OW31435   3.883   2.999   7.052
10364SOL    HW131436   3.905   2.938   7.128
10364SOL    HW231437   3.893   2.950   6.966
10365SOL     OW31438   5.071   2.921   6.820
10365SOL    HW131439   5.095   2.858   6.746
10365SOL    HW231440   4.981   2.961   6.802
10366SOL     OW31441   5.026   2.717   5.895
10366SOL    HW131442   4.940   2.686   5.937
10366SOL    HW231443   5.022   2.703   5.796
10367SOL     OW31444   5.483   3.609   6.740
10367SOL    HW131445   5.544   3.639   6.667
10367SOL    HW231446   5.445   3.520   6.718
10368SOL     OW31447   4.976   3.593   6.714
10368SOL    HW131448   5.060   3.598   6.660
10368SOL    HW231449   4.953   3.497   6.732
10369SOL     OW31450   3.807   3.120   6.608
10369SOL    HW131451   3.802   3.119   6.708
10369SOL    HW231452   3.724   3.079   6.570
10370SOL     OW31453   4.412   3.524   7.302
10370SOL    HW131454   4.356   3.605   7.311
10370SOL    HW231455   4.464   3.528   7.216
10371SOL     OW31456   5.450   1.997   6.109
10371SOL    HW131457   5.523   1.980   6.042
10371SOL    HW231458   5.419   1.910   6.147
10372SOL     OW31459   5.112   3.435   6.063
10372SOL    HW131460   5.179   3.447   5.989
10372SOL    HW231461   5.072   3.524   6.086
10373SOL     OW31462   3.854   3.656   7.437
10373SOL    HW131463   3.813   3.582   7.490
10373SOL    HW231464   3.918   3.707   7.495
10374SOL     OW31465   5.004   2.789   6.258
10374SOL    HW131466   5.064   2.708   6.260
10374SOL    HW231467   5.044   2.858   6.198
10375SOL     OW31468   4.554   3.135   7.008
10375SOL    HW131469   4.549   3.168   7.103
10375SOL    HW231470   4.468   3.154   6.962
10376SOL     OW31471   4.396   3.478   5.740
10376SOL    HW131472   4.405   3.488   5.641
10376SOL    HW231473   4.356   3.389   5.761
10377SOL     OW31474   5.374   3.582   6.980
10377SOL    HW131475   5.427   3.592   6.896
10377SOL    HW231476   5.347   3.672   7.014
10378SOL     OW31477   5.565   2.037   6.549
10378SOL    HW131478   5.604   1.952   6.513
10378SOL    HW231479   5.467   2.039   6.530
10379SOL     OW31480   3.987   2.188   6.306
10379SOL    HW131481   3.908   2.239   6.272
10379SOL    HW231482   3.978   2.173   6.404
10380SOL     OW31483   4.918   3.474   5.617
10380SOL    HW131484   4.924   3.381   5.654
10380SOL    HW231485   4.859   3.474   5.537
10381SOL     OW31486   4.546   2.864   6.958
10381SOL    HW131487   4.586   2.863   6.866
10381SOL    HW231488   4.556   2.956   6.998
10382SOL     OW31489   4.640   2.772   5.877
10382SOL    HW131490   4.703   2.810   5.809
10382SOL    HW231491   4.680   2.689   5.916
10383SOL     OW31492   5.228   3.469   5.630
10383SOL    HW131493   5.136   3.506   5.637
10383SOL    HW231494   5.266   3.489   5.540
10384SOL     OW31495   4.096   3.150   7.076
10384SOL    HW131496   4.083   3.243   7.042
10384SOL    HW231497   4.012   3.098   7.063
10385SOL     OW31498   5.338   3.154   6.875
10385SOL    HW131499   5.398   3.157   6.955
10385SOL    HW231500   5.263   3.218   6.888
10386SOL     OW31501   4.763   2.960   6.282
10386SOL    HW131502   4.693   2.913   6.336
10386SOL    HW231503   4.822   2.892   6.239
10387SOL     OW31504   4.738   2.098   6.557
10387SOL    HW131505   4.730   2.062   6.464
10387SOL    HW231506   4.736   2.022   6.622
10388SOL     OW31507   4.314   3.349   6.077
10388SOL    HW131508   4.356   3.291   6.007
10388SOL    HW231509   4.270   3.428   6.033
10389SOL     OW31510   5.433   2.247   6.967
10389SOL    HW131511   5.506   2.316   6.971
10389SOL    HW231512   5.461   2.172   6.908
10390SOL     OW31513   3.979   3.210   5.876
10390SOL    HW131514   3.883   3.211   5.849
10390SOL    HW231515   3.991   3.263   5.960
10391SOL     OW31516   3.829   2.875   7.312
10391SOL    HW131517   3.752   2.842   7.366
10391SOL    HW231518   3.914   2.845   7.354
10392SOL     OW31519   4.396   2.065   7.075
10392SOL    HW131520   4.486   2.049   7.035
10392SOL    HW231521   4.404   2.070   7.174
10393SOL     OW31522   3.799   2.207   5.619
10393SOL    HW131523   3.707   2.179   5.590
10393SOL    HW231524   3.830   2.284   5.563
10394SOL     OW31525   5.164   2.718   6.984
10394SOL    HW131526   5.107   2.770   6.921
10394SOL    HW231527   5.260   2.730   6.960
10395SOL     OW31528   3.796   2.028   5.904
10395SOL    HW131529   3.779   2.111   5.850
10395SOL    HW231530   3.886   1.991   5.882
10396SOL     OW31531   4.907   3.197   5.705
10396SOL    HW131532   4.808   3.186   5.707
10396SOL    HW231533   4.941   3.212   5.798
10397SOL     OW31534   4.337   2.704   7.017
10397SOL    HW131535   4.393   2.785   7.000
10397SOL    HW231536   4.396   2.624   7.020
10398SOL     OW31537   5.217   3.629   6.545
10398SOL    HW131538   5.250   3.693   6.476
10398SOL    HW231539   5.283   3.623   6.620
10399SOL     OW31540   4.440   2.427   7.294
10399SOL    HW131541   4.459   2.492   7.368
10399SOL    HW231542   4.500   2.347   7.303
10400SOL     OW31543   5.174   3.082   7.219
10400SOL    HW131544   5.165   3.072   7.318
10400SOL    HW231545   5.270   3.075   7.193
10401SOL     OW31546   4.114   3.603   7.146
10401SOL    HW131547   4.023   3.644   7.144
10401SOL    HW231548   4.107   3.509   7.178
10402SOL     OW31549   5.398   2.745   6.840
10402SOL    HW131550   5.371   2.656   6.803
10402SOL    HW231551   5.399   2.813   6.767
10403SOL     OW31552   4.949   2.187   6.035
10403SOL    HW131553   5.014   2.113   6.024
10403SOL    HW231554   4.969   2.237   6.119
10404SOL     OW31555   4.318   2.607   6.238
10404SOL    HW131556   4.368   2.692   6.219
10404SOL    HW231557   4.230   2.609   6.190
10405SOL     OW31558   5.501   2.204   7.228
10405SOL    HW131559   5.484   2.235   7.134
10405SOL    HW231560   5.417   2.167   7.266
10406SOL     OW31561   5.454   2.796   7.103
10406SOL    HW131562   5.492   2.887   7.118
10406SOL    HW231563   5.446   2.779   7.004
10407SOL     OW31564   4.583   3.236   5.602
10407SOL    HW131565   4.537   3.251   5.690
10407SOL    HW231566   4.627   3.321   5.572
10408SOL     OW31567   4.385   3.652   6.539
10408SOL    HW131568   4.339   3.740   6.526
10408SOL    HW231569   4.484   3.664   6.532
10409SOL     OW31570   4.583   2.818   6.447
10409SOL    HW131571   4.637   2.749   6.495
10409SOL    HW231572   4.551   2.887   6.513
10410SOL     OW31573   4.807   2.846   5.673
10410SOL    HW131574   4.784   2.899   5.591
10410SOL    HW231575   4.888   2.790   5.654
10411SOL     OW31576   5.585   3.431   6.437
10411SOL    HW131577   5.514   3.419   6.367
10411SOL    HW231578   5.586   3.352   6.497
10412SOL     OW31579   3.945   3.176   7.430
10412SOL    HW131580   3.880   3.103   7.409
10412SOL    HW231581   3.949   3.190   7.528
10413SOL     OW31582   3.803   3.102   6.239
10413SOL    HW131583   3.802   3.055   6.327
10413SOL    HW231584   3.885   3.074   6.188
10414SOL     OW31585   4.396   3.253   7.210
10414SOL    HW131586   4.318   3.203   7.248
10414SOL    HW231587   4.393   3.348   7.241
10415SOL     OW31588   5.548   2.054   6.813
10415SOL    HW131589   5.544   1.964   6.857
10415SOL    HW231590   5.551   2.043   6.714
10416SOL     OW31591   4.152   2.286   6.106
10416SOL    HW131592   4.182   2.214   6.044
10416SOL    HW231593   4.113   2.246   6.189
10417SOL     OW31594   5.429   3.349   6.690
10417SOL    HW131595   5.336   3.324   6.663
10417SOL    HW231596   5.455   3.299   6.772
10418SOL     OW31597   4.041   2.409   6.866
10418SOL    HW131598   4.079   2.350   6.938
10418SOL    HW231599   4.081   2.383   6.778
10419SOL     OW31600   4.536   3.448   6.273
10419SOL    HW131601   4.568   3.458   6.179
10419SOL    HW231602   4.457   3.386   6.275
10420SOL     OW31603   5.148   2.076   6.698
10420SOL    HW131604   5.200   2.011   6.753
10420SOL    HW231605   5.099   2.139   6.759
10421SOL     OW31606   4.725   1.896   6.740
10421SOL    HW131607   4.662   1.824   6.709
10421SOL    HW231608   4.818   1.860   6.740
10422SOL     OW31609   4.494   3.192   5.887
10422SOL    HW131610   4.448   3.105   5.904
10422SOL    HW231611   4.585   3.189   5.928
10423SOL     OW31612   4.342   3.429   6.870
10423SOL    HW131613   4.337   3.511   6.927
10423SOL    HW231614   4.431   3.426   6.825
10424SOL     OW31615   5.076   1.914   5.754
10424SOL    HW131616   5.111   1.873   5.670
10424SOL    HW231617   4.986   1.876   5.774
10425SOL     OW31618   5.024   2.315   6.277
10425SOL    HW131619   4.965   2.395   6.281
10425SOL    HW231620   5.039   2.280   6.370
10426SOL     OW31621   5.317   2.083   6.468
10426SOL    HW131622   5.233   2.082   6.522
10426SOL    HW231623   5.319   2.166   6.412
10427SOL     OW31624   3.763   2.939   5.886
10427SOL    HW131625   3.862   2.928   5.877
10427SOL    HW231626   3.723   2.853   5.918
10428SOL     OW31627   4.599   3.508   5.923
10428SOL    HW131628   4.522   3.473   5.869
10428SOL    HW231629   4.567   3.579   5.985
10429SOL     OW31630   3.751   3.458   7.565
10429SOL    HW131631   3.732   3.362   7.586
10429SOL    HW231632   3.718   3.516   7.640
10430SOL     OW31633   5.249   2.861   7.638
10430SOL    HW131634   5.186   2.785   7.651
10430SOL    HW231635   5.297   2.879   7.724
10431SOL     OW31636   4.045   2.805   7.690
10431SOL    HW131637   4.127   2.844   7.648
10431SOL    HW231638   4.018   2.723   7.641
10432SOL     OW31639   4.835   3.638   7.685
10432SOL    HW131640   4.775   3.576   7.735
10432SOL    HW231641   4.866   3.594   7.600
10433SOL     OW31642   5.356   3.239   7.529
10433SOL    HW131643   5.324   3.333   7.519
10433SOL    HW231644   5.280   3.176   7.517
10434SOL     OW31645   5.158   3.050   7.489
10434SOL    HW131646   5.190   2.974   7.546
10434SOL    HW231647   5.066   3.077   7.519
10435SOL     OW31648   4.756   2.411   7.464
10435SOL    HW131649   4.715   2.493   7.425
10435SOL    HW231650   4.820   2.437   7.537
10436SOL     OW31651   4.212   3.247   7.622
10436SOL    HW131652   4.125   3.232   7.669
10436SOL    HW231653   4.195   3.273   7.527
10437SOL     OW31654   5.114   2.437   7.526
10437SOL    HW131655   5.060   2.416   7.607
10437SOL    HW231656   5.205   2.396   7.535
10438SOL     OW31657   5.264   2.136   7.573
10438SOL    HW131658   5.203   2.061   7.596
10438SOL    HW231659   5.286   2.188   7.656
10439SOL     OW31660   5.027   2.700   7.490
10439SOL    HW131661   5.061   2.607   7.505
10439SOL    HW231662   5.045   2.727   7.395
10440SOL     OW31663   4.197   2.362   7.639
10440SOL    HW131664   4.258   2.442   7.643
10440SOL    HW231665   4.102   2.393   7.646
10441SOL     OW31666   5.112   3.435   7.925
10441SOL    HW131667   5.179   3.447   7.851
10441SOL    HW231668   5.072   3.524   7.948
10442SOL     OW31669   4.396   3.478   7.602
10442SOL    HW131670   4.405   3.488   7.503
10442SOL    HW231671   4.356   3.389   7.623
10443SOL     OW31672   4.918   3.474   7.479
10443SOL    HW131673   4.924   3.381   7.516
10443SOL    HW231674   4.859   3.474   7.399
10444SOL     OW31675   5.228   3.469   7.492
10444SOL    HW131676   5.136   3.506   7.499
10444SOL    HW231677   5.266   3.489   7.402
10445SOL     OW31678   3.799   2.207   7.481
10445SOL    HW131679   3.707   2.179   7.452
10445SOL    HW231680   3.830   2.284   7.425
10446SOL     OW31681   4.583   3.236   7.464
10446SOL    HW131682   4.537   3.251   7.552
10446SOL    HW231683   4.627   3.321   7.434
10447SOL     OW31684   4.807   2.846   7.535
10447SOL    HW131685   4.784   2.899   7.453
10447SOL    HW231686   4.888   2.790   7.516
10448SOL     OW31687   5.076   1.914   7.616
10448SOL    HW131688   5.111   1.873   7.532
10448SOL    HW231689   4.986   1.876   7.636
10449SOL     OW31690   3.763   2.939   7.748
10449SOL    HW131691   3.862   2.928   7.739
10449SOL    HW231692   3.723   2.853   7.780
10450SOL     OW31693   3.949   3.999   0.996
10450SOL    HW131694   3.984   3.982   1.088
10450SOL    HW231695   3.861   3.954   0.984
10451SOL     OW31696   3.743   4.092   0.647
10451SOL    HW131697   3.661   4.135   0.686
10451SOL    HW231698   3.715   4.019   0.584
10452SOL     OW31699   4.293   4.999   1.165
10452SOL    HW131700   4.200   4.992   1.128
10452SOL    HW231701   4.304   5.088   1.209
10453SOL     OW31702   5.279   5.235   0.703
10453SOL    HW131703   5.222   5.219   0.784
10453SOL    HW231704   5.220   5.245   0.623
10454SOL     OW31705   4.859   4.427   0.717
10454SOL    HW131706   4.916   4.505   0.692
10454SOL    HW231707   4.799   4.453   0.793
10455SOL     OW31708   5.479   4.331   0.231
10455SOL    HW131709   5.467   4.318   0.132
10455SOL    HW231710   5.449   4.250   0.280
10456SOL     OW31711   4.492   4.868   1.023
10456SOL    HW131712   4.414   4.885   1.083
10456SOL    HW231713   4.526   4.955   0.987
10457SOL     OW31714   4.574   4.522   1.823
10457SOL    HW131715   4.570   4.598   1.888
10457SOL    HW231716   4.596   4.558   1.732
10458SOL     OW31717   4.409   4.736   0.665
10458SOL    HW131718   4.478   4.720   0.735
10458SOL    HW231719   4.336   4.793   0.703
10459SOL     OW31720   4.410   4.885   1.803
10459SOL    HW131721   4.470   4.964   1.817
10459SOL    HW231722   4.324   4.916   1.762
10460SOL     OW31723   4.059   5.159   1.061
10460SOL    HW131724   3.981   5.128   1.008
10460SOL    HW231725   4.117   5.217   1.004
10461SOL     OW31726   5.184   5.229   1.339
10461SOL    HW131727   5.208   5.323   1.365
10461SOL    HW231728   5.168   5.175   1.421
10462SOL     OW31729   4.162   4.116   1.499
10462SOL    HW131730   4.244   4.060   1.508
10462SOL    HW231731   4.081   4.058   1.503
10463SOL     OW31732   5.327   4.171   0.737
10463SOL    HW131733   5.253   4.217   0.687
10463SOL    HW231734   5.378   4.239   0.790
10464SOL     OW31735   3.955   5.437   0.483
10464SOL    HW131736   3.989   5.514   0.537
10464SOL    HW231737   3.999   5.437   0.393
10465SOL     OW31738   4.851   5.065   1.690
10465SOL    HW131739   4.898   5.065   1.778
10465SOL    HW231740   4.803   4.978   1.679
10466SOL     OW31741   3.954   5.158   0.538
10466SOL    HW131742   3.928   5.254   0.538
10466SOL    HW231743   3.883   5.104   0.583
10467SOL     OW31744   3.964   4.815   0.886
10467SOL    HW131745   3.978   4.731   0.938
10467SOL    HW231746   3.909   4.879   0.941
10468SOL     OW31747   4.344   5.510   1.439
10468SOL    HW131748   4.252   5.493   1.474
10468SOL    HW231749   4.372   5.602   1.465
10469SOL     OW31750   5.318   3.838   1.480
10469SOL    HW131751   5.300   3.905   1.408
10469SOL    HW231752   5.315   3.884   1.569
10470SOL     OW31753   3.846   4.367   0.563
10470SOL    HW131754   3.801   4.279   0.580
10470SOL    HW231755   3.845   4.421   0.647
10471SOL     OW31756   5.566   5.491   0.359
10471SOL    HW131757   5.620   5.462   0.439
10471SOL    HW231758   5.596   5.581   0.330
10472SOL     OW31759   3.751   5.320   0.117
10472SOL    HW131760   3.732   5.224   0.138
10472SOL    HW231761   3.718   5.378   0.192
10473SOL     OW31762   5.413   4.646   0.612
10473SOL    HW131763   5.508   4.617   0.620
10473SOL    HW231764   5.405   4.711   0.537
10474SOL     OW31765   5.365   4.832   0.432
10474SOL    HW131766   5.451   4.834   0.380
10474SOL    HW231767   5.379   4.879   0.520
10475SOL     OW31768   3.837   4.461   1.597
10475SOL    HW131769   3.925   4.448   1.642
10475SOL    HW231770   3.824   4.558   1.575
10476SOL     OW31771   4.337   5.089   0.726
10476SOL    HW131772   4.288   5.002   0.735
10476SOL    HW231773   4.314   5.132   0.639
10477SOL     OW31774   5.017   4.952   1.423
10477SOL    HW131775   5.054   4.879   1.365
10477SOL    HW231776   5.069   4.957   1.508
10478SOL     OW31777   4.533   3.728   0.502
10478SOL    HW131778   4.573   3.819   0.493
10478SOL    HW231779   4.433   3.736   0.508
10479SOL     OW31780   3.921   4.700   1.264
10479SOL    HW131781   4.010   4.655   1.250
10479SOL    HW231782   3.848   4.635   1.245
10480SOL     OW31783   5.249   4.723   0.190
10480SOL    HW131784   5.186   4.647   0.203
10480SOL    HW231785   5.297   4.741   0.276
10481SOL     OW31786   4.911   5.516   1.616
10481SOL    HW131787   4.935   5.576   1.540
10481SOL    HW231788   4.918   5.421   1.586
10482SOL     OW31789   4.041   3.975   1.801
10482SOL    HW131790   4.112   4.046   1.807
10482SOL    HW231791   3.953   4.014   1.829
10483SOL     OW31792   5.190   5.141   0.953
10483SOL    HW131793   5.131   5.147   1.033
10483SOL    HW231794   5.175   5.053   0.907
10484SOL     OW31795   5.391   5.438   0.572
10484SOL    HW131796   5.350   5.415   0.484
10484SOL    HW231797   5.373   5.364   0.637
10485SOL     OW31798   5.005   4.069   0.944
10485SOL    HW131799   4.919   4.019   0.931
10485SOL    HW231800   5.067   4.015   1.000
10486SOL     OW31801   5.300   5.386   0.307
10486SOL    HW131802   5.389   5.432   0.310
10486SOL    HW231803   5.279   5.362   0.212
10487SOL     OW31804   4.531   4.329   1.465
10487SOL    HW131805   4.484   4.326   1.554
10487SOL    HW231806   4.480   4.274   1.399
10488SOL     OW31807   5.118   4.193   1.674
10488SOL    HW131808   5.098   4.236   1.762
10488SOL    HW231809   5.196   4.131   1.683
10489SOL     OW31810   4.697   4.614   1.572
10489SOL    HW131811   4.743   4.530   1.543
10489SOL    HW231812   4.641   4.648   1.497
10490SOL     OW31813   4.715   4.134   1.242
10490SOL    HW131814   4.638   4.168   1.296
10490SOL    HW231815   4.681   4.083   1.163
10491SOL     OW31816   4.765   4.425   0.429
10491SOL    HW131817   4.791   4.421   0.525
10491SOL    HW231818   4.680   4.374   0.415
10492SOL     OW31819   3.800   4.535   0.789
10492SOL    HW131820   3.899   4.523   0.798
10492SOL    HW231821   3.776   4.630   0.810
10493SOL     OW31822   3.854   5.545   1.571
10493SOL    HW131823   3.844   5.530   1.670
10493SOL    HW231824   3.768   5.581   1.535
10494SOL     OW31825   5.443   4.309   1.831
10494SOL    HW131826   5.417   4.398   1.795
10494SOL    HW231827   5.441   4.241   1.758
10495SOL     OW31828   5.086   4.868   0.545
10495SOL    HW131829   5.169   4.839   0.497
10495SOL    HW231830   5.037   4.935   0.489
10496SOL     OW31831   4.274   3.920   0.885
10496SOL    HW131832   4.269   3.915   0.985
10496SOL    HW231833   4.276   4.016   0.856
10497SOL     OW31834   4.732   5.180   0.477
10497SOL    HW131835   4.686   5.252   0.425
10497SOL    HW231836   4.728   5.200   0.575
10498SOL     OW31837   4.075   5.525   0.853
10498SOL    HW131838   4.125   5.439   0.859
10498SOL    HW231839   4.140   5.602   0.850
10499SOL     OW31840   5.519   4.790   0.873
10499SOL    HW131841   5.457   4.775   0.797
10499SOL    HW231842   5.467   4.801   0.958
10500SOL     OW31843   4.951   5.274   1.506
10500SOL    HW131844   4.957   5.197   1.570
10500SOL    HW231845   4.899   5.248   1.426
10501SOL     OW31846   5.182   4.459   0.728
10501SOL    HW131847   5.177   4.394   0.803
10501SOL    HW231848   5.262   4.518   0.741
10502SOL     OW31849   4.185   4.990   1.727
10502SOL    HW131850   4.135   4.991   1.641
10502SOL    HW231851   4.122   4.972   1.803
10503SOL     OW31852   4.835   5.500   0.237
10503SOL    HW131853   4.775   5.438   0.287
10503SOL    HW231854   4.866   5.456   0.152
10504SOL     OW31855   3.926   4.009   1.498
10504SOL    HW131856   3.846   4.069   1.485
10504SOL    HW231857   3.916   3.960   1.584
10505SOL     OW31858   5.356   5.101   0.081
10505SOL    HW131859   5.324   5.195   0.071
10505SOL    HW231860   5.280   5.038   0.069
10506SOL     OW31861   4.188   5.467   0.323
10506SOL    HW131862   4.221   5.506   0.409
10506SOL    HW231863   4.264   5.460   0.258
10507SOL     OW31864   5.124   3.831   0.426
10507SOL    HW131865   5.100   3.794   0.336
10507SOL    HW231866   5.223   3.847   0.430
10508SOL     OW31867   3.973   5.509   1.241
10508SOL    HW131868   4.030   5.444   1.291
10508SOL    HW231869   3.957   5.476   1.148
10509SOL     OW31870   4.664   5.422   0.904
10509SOL    HW131871   4.744   5.365   0.925
10509SOL    HW231872   4.615   5.382   0.827
10510SOL     OW31873   4.106   4.424   0.480
10510SOL    HW131874   4.151   4.334   0.477
10510SOL    HW231875   4.012   4.413   0.513
10511SOL     OW31876   5.271   3.946   1.729
10511SOL    HW131877   5.266   3.983   1.821
10511SOL    HW231878   5.199   3.877   1.717
10512SOL     OW31879   4.505   3.988   1.749
10512SOL    HW131880   4.572   3.927   1.792
10512SOL    HW231881   4.432   4.007   1.814
10513SOL     OW31882   4.612   5.238   1.195
10513SOL    HW131883   4.589   5.213   1.101
10513SOL    HW231884   4.673   5.169   1.234
10514SOL     OW31885   5.075   4.314   1.433
10514SOL    HW131886   5.103   4.271   1.518
10514SOL    HW231887   5.100   4.410   1.434
10515SOL     OW31888   4.527   5.126   0.924
10515SOL    HW131889   4.617   5.140   0.882
10515SOL    HW231890   4.456   5.128   0.853
10516SOL     OW31891   4.646   4.227   0.899
10516SOL    HW131892   4.621   4.218   0.803
10516SOL    HW231893   4.694   4.145   0.930
10517SOL     OW31894   4.263   3.788   0.512
10517SOL    HW131895   4.182   3.789   0.570
10517SOL    HW231896   4.266   3.871   0.457
10518SOL     OW31897   5.158   4.912   0.041
10518SOL    HW131898   5.190   4.836   0.098
10518SOL    HW231899   5.066   4.939   0.071
10519SOL     OW31900   4.659   3.960   0.480
10519SOL    HW131901   4.611   4.001   0.402
10519SOL    HW231902   4.758   3.958   0.461
10520SOL     OW31903   4.800   4.407   1.464
10520SOL    HW131904   4.720   4.346   1.467
10520SOL    HW231905   4.881   4.354   1.440
10521SOL     OW31906   4.951   5.294   0.793
10521SOL    HW131907   4.972   5.368   0.728
10521SOL    HW231908   5.019   5.294   0.866
10522SOL     OW31909   4.183   4.876   0.741
10522SOL    HW131910   4.112   4.849   0.806
10522SOL    HW231911   4.157   4.848   0.648
10523SOL     OW31912   4.995   5.521   0.591
10523SOL    HW131913   5.039   5.585   0.527
10523SOL    HW231914   4.945   5.573   0.661
10524SOL     OW31915   4.756   4.273   0.016
10524SOL    HW131916   4.715   4.355  -0.023
10524SOL    HW231917   4.820   4.299   0.089
10525SOL     OW31918   3.802   4.280   1.386
10525SOL    HW131919   3.894   4.279   1.345
10525SOL    HW231920   3.796   4.354   1.453
10526SOL     OW31921   4.285   3.946   1.147
10526SOL    HW131922   4.323   3.862   1.184
10526SOL    HW231923   4.197   3.965   1.191
10527SOL     OW31924   4.590   4.178   0.642
10527SOL    HW131925   4.558   4.250   0.580
10527SOL    HW231926   4.614   4.097   0.589
10528SOL     OW31927   4.741   3.763   0.753
10528SOL    HW131928   4.669   3.768   0.684
10528SOL    HW231929   4.717   3.694   0.822
10529SOL     OW31930   5.153   4.897   0.867
10529SOL    HW131931   5.098   4.813   0.860
10529SOL    HW231932   5.179   4.926   0.775
10530SOL     OW31933   5.190   4.314   0.992
10530SOL    HW131934   5.160   4.219   0.999
10530SOL    HW231935   5.263   4.330   1.058
10531SOL     OW31936   4.212   5.109   0.174
10531SOL    HW131937   4.125   5.094   0.221
10531SOL    HW231938   4.195   5.135   0.079
10532SOL     OW31939   5.388   5.004   0.657
10532SOL    HW131940   5.487   5.012   0.671
10532SOL    HW231941   5.343   5.088   0.688
10533SOL     OW31942   4.251   3.980   0.328
10533SOL    HW131943   4.278   3.921   0.253
10533SOL    HW231944   4.251   4.075   0.297
10534SOL     OW31945   5.478   4.947   1.588
10534SOL    HW131946   5.569   4.908   1.575
10534SOL    HW231947   5.486   5.043   1.612
10535SOL     OW31948   4.788   5.071   1.340
10535SOL    HW131949   4.708   5.048   1.395
10535SOL    HW231950   4.871   5.045   1.389
10536SOL     OW31951   4.835   4.919   1.100
10536SOL    HW131952   4.795   4.963   1.181
10536SOL    HW231953   4.794   4.956   1.017
10537SOL     OW31954   5.362   4.823   1.079
10537SOL    HW131955   5.367   4.904   1.138
10537SOL    HW231956   5.276   4.825   1.028
10538SOL     OW31957   4.639   3.813   1.402
10538SOL    HW131958   4.664   3.793   1.307
10538SOL    HW231959   4.711   3.869   1.444
10539SOL     OW31960   4.704   4.840   1.719
10539SOL    HW131961   4.605   4.846   1.729
10539SOL    HW231962   4.727   4.760   1.663
10540SOL     OW31963   4.134   4.537   1.251
10540SOL    HW131964   4.220   4.549   1.301
10540SOL    HW231965   4.092   4.450   1.278
10541SOL     OW31966   4.998   4.110   1.262
10541SOL    HW131967   5.019   4.184   1.326
10541SOL    HW231968   4.909   4.127   1.219
10542SOL     OW31969   3.788   5.288   1.331
10542SOL    HW131970   3.742   5.370   1.297
10542SOL    HW231971   3.886   5.307   1.340
10543SOL     OW31972   4.091   4.824   0.501
10543SOL    HW131973   4.084   4.907   0.445
10543SOL    HW231974   4.095   4.744   0.441
10544SOL     OW31975   4.290   4.261   0.865
10544SOL    HW131976   4.302   4.327   0.791
10544SOL    HW231977   4.336   4.295   0.948
10545SOL     OW31978   4.976   5.072   0.388
10545SOL    HW131979   5.026   5.149   0.428
10545SOL    HW231980   4.881   5.074   0.420
10546SOL     OW31981   4.996   5.169   1.142
10546SOL    HW131982   5.043   5.182   1.229
10546SOL    HW231983   4.930   5.095   1.151
10547SOL     OW31984   5.306   4.363   0.472
10547SOL    HW131985   5.275   4.424   0.545
10547SOL    HW231986   5.356   4.415   0.403
10548SOL     OW31987   4.078   5.234   1.329
10548SOL    HW131988   4.057   5.190   1.242
10548SOL    HW231989   4.175   5.260   1.332
10549SOL     OW31990   4.126   4.475   1.598
10549SOL    HW131991   4.194   4.530   1.551
10549SOL    HW231992   4.166   4.387   1.625
10550SOL     OW31993   5.311   4.503   1.670
10550SOL    HW131994   5.219   4.541   1.665
10550SOL    HW231995   5.371   4.550   1.605
10551SOL     OW31996   4.737   3.829   1.770
10551SOL    HW131997   4.743   3.914   1.718
10551SOL    HW231998   4.769   3.753   1.713
10552SOL     OW31999   4.228   3.774   1.740
10552SOL    HW132000   4.186   3.717   1.670
10552SOL    HW232001   4.162   3.843   1.772
10553SOL     OW32002   4.297   4.594   1.029
10553SOL    HW132003   4.341   4.683   1.020
10553SOL    HW232004   4.234   4.594   1.106
10554SOL     OW32005   5.084   4.586   1.045
10554SOL    HW132006   5.009   4.586   0.979
10554SOL    HW232007   5.121   4.494   1.054
10555SOL     OW32008   4.933   4.249   0.275
10555SOL    HW132009   4.946   4.165   0.329
10555SOL    HW232010   4.904   4.323   0.335
10556SOL     OW32011   4.031   3.937   1.231
10556SOL    HW132012   4.008   3.974   1.321
10556SOL    HW232013   4.001   3.842   1.225
10557SOL     OW32014   3.761   5.034   1.282
10557SOL    HW132015   3.814   4.985   1.350
10557SOL    HW232016   3.783   5.132   1.287
10558SOL     OW32017   4.456   4.358   1.064
10558SOL    HW132018   4.515   4.332   0.988
10558SOL    HW232019   4.428   4.454   1.053
10559SOL     OW32020   5.452   4.659   1.854
10559SOL    HW132021   5.406   4.652   1.765
10559SOL    HW232022   5.390   4.703   1.920
10560SOL     OW32023   4.031   3.787   0.618
10560SOL    HW132024   4.020   3.881   0.651
10560SOL    HW232025   4.026   3.724   0.695
10561SOL     OW32026   4.747   4.490   0.966
10561SOL    HW132027   4.762   4.511   1.062
10561SOL    HW232028   4.717   4.395   0.957
10562SOL     OW32029   4.704   5.297   1.700
10562SOL    HW132030   4.684   5.341   1.612
10562SOL    HW232031   4.743   5.206   1.684
10563SOL     OW32032   5.583   5.242   1.605
10563SOL    HW132033   5.597   5.269   1.510
10563SOL    HW232034   5.666   5.264   1.658
10564SOL     OW32035   4.074   4.622   1.804
10564SOL    HW132036   4.150   4.666   1.852
10564SOL    HW232037   4.109   4.575   1.722
10565SOL     OW32038   4.792   5.057   0.849
10565SOL    HW132039   4.799   4.973   0.794
10565SOL    HW232040   4.854   5.126   0.813
10566SOL     OW32041   4.043   4.534   0.949
10566SOL    HW132042   4.136   4.570   0.954
10566SOL    HW232043   4.037   4.449   1.001
10567SOL     OW32044   4.063   4.233   1.006
10567SOL    HW132045   4.011   4.150   0.989
10567SOL    HW232046   4.140   4.238   0.942
10568SOL     OW32047   4.862   4.104   1.678
10568SOL    HW132048   4.817   4.167   1.742
10568SOL    HW232049   4.955   4.135   1.661
10569SOL     OW32050   4.884   3.931   1.477
10569SOL    HW132051   4.884   3.995   1.554
10569SOL    HW232052   4.912   3.979   1.394
10570SOL     OW32053   3.732   5.050   0.200
10570SOL    HW132054   3.639   5.071   0.169
10570SOL    HW232055   3.742   4.951   0.213
10571SOL     OW32056   3.812   5.525   0.927
10571SOL    HW132057   3.770   5.439   0.900
10571SOL    HW232058   3.906   5.528   0.893
10572SOL     OW32059   4.228   5.292   0.910
10572SOL    HW132060   4.294   5.366   0.919
10572SOL    HW232061   4.272   5.213   0.868
10573SOL     OW32062   4.726   4.520   1.238
10573SOL    HW132063   4.767   4.488   1.324
10573SOL    HW232064   4.630   4.493   1.235
10574SOL     OW32065   3.764   4.268   1.114
10574SOL    HW132066   3.849   4.235   1.073
10574SOL    HW232067   3.777   4.283   1.212
10575SOL     OW32068   3.913   4.244   1.722
10575SOL    HW132069   3.972   4.204   1.652
10575SOL    HW232070   3.855   4.315   1.681
10576SOL     OW32071   5.093   4.674   1.660
10576SOL    HW132072   5.132   4.763   1.680
10576SOL    HW232073   5.103   4.654   1.563
10577SOL     OW32074   5.381   4.328   1.206
10577SOL    HW132075   5.343   4.259   1.268
10577SOL    HW232076   5.463   4.292   1.162
10578SOL     OW32077   3.976   5.288   1.744
10578SOL    HW132078   3.946   5.345   1.820
10578SOL    HW232079   3.969   5.191   1.770
10579SOL     OW32080   4.395   4.188   1.269
10579SOL    HW132081   4.361   4.099   1.239
10579SOL    HW232082   4.421   4.242   1.189
10580SOL     OW32083   4.654   5.402   1.465
10580SOL    HW132084   4.630   5.384   1.370
10580SOL    HW232085   4.684   5.496   1.475
10581SOL     OW32086   3.883   4.861   1.466
10581SOL    HW132087   3.905   4.800   1.542
10581SOL    HW232088   3.893   4.812   1.380
10582SOL     OW32089   5.071   4.783   1.234
10582SOL    HW132090   5.095   4.720   1.160
10582SOL    HW232091   4.981   4.823   1.216
10583SOL     OW32092   5.026   4.579   0.309
10583SOL    HW132093   4.940   4.548   0.351
10583SOL    HW232094   5.022   4.565   0.210
10584SOL     OW32095   5.483   5.471   1.154
10584SOL    HW132096   5.544   5.501   1.081
10584SOL    HW232097   5.445   5.382   1.132
10585SOL     OW32098   4.976   5.455   1.128
10585SOL    HW132099   5.060   5.460   1.074
10585SOL    HW232100   4.953   5.359   1.146
10586SOL     OW32101   3.807   4.982   1.022
10586SOL    HW132102   3.802   4.981   1.122
10586SOL    HW232103   3.724   4.941   0.984
10587SOL     OW32104   4.412   5.386   1.716
10587SOL    HW132105   4.356   5.467   1.725
10587SOL    HW232106   4.464   5.390   1.630
10588SOL     OW32107   5.450   3.859   0.523
10588SOL    HW132108   5.523   3.842   0.456
10588SOL    HW232109   5.419   3.772   0.561
10589SOL     OW32110   5.112   5.297   0.477
10589SOL    HW132111   5.179   5.309   0.403
10589SOL    HW232112   5.072   5.386   0.500
10590SOL     OW32113   3.854   5.518   1.851
10590SOL    HW132114   3.813   5.444   1.904
10590SOL    HW232115   3.918   5.569   1.909
10591SOL     OW32116   5.004   4.651   0.672
10591SOL    HW132117   5.064   4.570   0.674
10591SOL    HW232118   5.044   4.720   0.612
10592SOL     OW32119   4.554   4.997   1.422
10592SOL    HW132120   4.549   5.030   1.517
10592SOL    HW232121   4.468   5.016   1.376
10593SOL     OW32122   4.396   5.340   0.154
10593SOL    HW132123   4.405   5.350   0.055
10593SOL    HW232124   4.356   5.251   0.175
10594SOL     OW32125   5.374   5.444   1.394
10594SOL    HW132126   5.427   5.454   1.310
10594SOL    HW232127   5.347   5.534   1.428
10595SOL     OW32128   5.565   3.899   0.963
10595SOL    HW132129   5.604   3.814   0.927
10595SOL    HW232130   5.467   3.901   0.944
10596SOL     OW32131   3.987   4.050   0.720
10596SOL    HW132132   3.908   4.101   0.686
10596SOL    HW232133   3.978   4.035   0.818
10597SOL     OW32134   4.918   5.336   0.031
10597SOL    HW132135   4.924   5.243   0.068
10597SOL    HW232136   4.859   5.336  -0.049
10598SOL     OW32137   4.546   4.726   1.372
10598SOL    HW132138   4.586   4.725   1.280
10598SOL    HW232139   4.556   4.818   1.412
10599SOL     OW32140   5.228   5.331   0.044
10599SOL    HW132141   5.136   5.368   0.051
10599SOL    HW232142   5.266   5.351  -0.046
10600SOL     OW32143   4.096   5.012   1.490
10600SOL    HW132144   4.083   5.105   1.456
10600SOL    HW232145   4.012   4.960   1.477
10601SOL     OW32146   5.338   5.016   1.289
10601SOL    HW132147   5.398   5.019   1.369
10601SOL    HW232148   5.263   5.080   1.302
10602SOL     OW32149   4.763   4.822   0.696
10602SOL    HW132150   4.693   4.775   0.750
10602SOL    HW232151   4.822   4.754   0.653
10603SOL     OW32152   4.738   3.960   0.971
10603SOL    HW132153   4.730   3.924   0.878
10603SOL    HW232154   4.736   3.884   1.036
10604SOL     OW32155   4.314   5.211   0.491
10604SOL    HW132156   4.356   5.153   0.421
10604SOL    HW232157   4.270   5.290   0.447
10605SOL     OW32158   5.433   4.109   1.381
10605SOL    HW132159   5.506   4.178   1.385
10605SOL    HW232160   5.461   4.034   1.322
10606SOL     OW32161   3.979   5.072   0.290
10606SOL    HW132162   3.883   5.073   0.263
10606SOL    HW232163   3.991   5.125   0.374
10607SOL     OW32164   3.829   4.737   1.726
10607SOL    HW132165   3.752   4.704   1.780
10607SOL    HW232166   3.914   4.707   1.768
10608SOL     OW32167   4.396   3.927   1.489
10608SOL    HW132168   4.486   3.911   1.449
10608SOL    HW232169   4.404   3.932   1.588
10609SOL     OW32170   5.164   4.580   1.398
10609SOL    HW132171   5.107   4.632   1.335
10609SOL    HW232172   5.260   4.592   1.374
10610SOL     OW32173   4.907   5.059   0.119
10610SOL    HW132174   4.808   5.048   0.121
10610SOL    HW232175   4.941   5.074   0.212
10611SOL     OW32176   4.337   4.566   1.431
10611SOL    HW132177   4.393   4.647   1.414
10611SOL    HW232178   4.396   4.486   1.434
10612SOL     OW32179   5.217   5.491   0.959
10612SOL    HW132180   5.250   5.555   0.890
10612SOL    HW232181   5.283   5.485   1.034
10613SOL     OW32182   4.440   4.289   1.708
10613SOL    HW132183   4.459   4.354   1.782
10613SOL    HW232184   4.500   4.209   1.717
10614SOL     OW32185   5.174   4.944   1.633
10614SOL    HW132186   5.165   4.934   1.732
10614SOL    HW232187   5.270   4.937   1.607
10615SOL     OW32188   4.114   5.465   1.560
10615SOL    HW132189   4.023   5.506   1.558
10615SOL    HW232190   4.107   5.371   1.592
10616SOL     OW32191   5.398   4.607   1.254
10616SOL    HW132192   5.371   4.518   1.217
10616SOL    HW232193   5.399   4.675   1.181
10617SOL     OW32194   4.949   4.049   0.449
10617SOL    HW132195   5.014   3.975   0.438
10617SOL    HW232196   4.969   4.099   0.533
10618SOL     OW32197   4.318   4.469   0.652
10618SOL    HW132198   4.368   4.554   0.633
10618SOL    HW232199   4.230   4.471   0.604
10619SOL     OW32200   5.501   4.066   1.642
10619SOL    HW132201   5.484   4.097   1.548
10619SOL    HW232202   5.417   4.029   1.680
10620SOL     OW32203   5.454   4.658   1.517
10620SOL    HW132204   5.492   4.749   1.532
10620SOL    HW232205   5.446   4.641   1.418
10621SOL     OW32206   4.583   5.098   0.016
10621SOL    HW132207   4.537   5.113   0.104
10621SOL    HW232208   4.627   5.183  -0.014
10622SOL     OW32209   4.385   5.514   0.953
10622SOL    HW132210   4.339   5.602   0.940
10622SOL    HW232211   4.484   5.526   0.946
10623SOL     OW32212   4.583   4.680   0.861
10623SOL    HW132213   4.637   4.611   0.909
10623SOL    HW232214   4.551   4.749   0.927
10624SOL     OW32215   5.585   5.293   0.851
10624SOL    HW132216   5.514   5.281   0.781
10624SOL    HW232217   5.586   5.214   0.911
10625SOL     OW32218   3.945   5.038   1.844
10625SOL    HW132219   3.880   4.965   1.823
10625SOL    HW232220   3.949   5.052   1.942
10626SOL     OW32221   3.803   4.964   0.653
10626SOL    HW132222   3.802   4.917   0.741
10626SOL    HW232223   3.885   4.936   0.602
10627SOL     OW32224   4.396   5.115   1.624
10627SOL    HW132225   4.318   5.065   1.662
10627SOL    HW232226   4.393   5.210   1.655
10628SOL     OW32227   5.548   3.916   1.227
10628SOL    HW132228   5.544   3.826   1.271
10628SOL    HW232229   5.551   3.905   1.128
10629SOL     OW32230   4.152   4.148   0.520
10629SOL    HW132231   4.182   4.076   0.458
10629SOL    HW232232   4.113   4.108   0.603
10630SOL     OW32233   5.429   5.211   1.104
10630SOL    HW132234   5.336   5.186   1.077
10630SOL    HW232235   5.455   5.161   1.186
10631SOL     OW32236   4.041   4.271   1.280
10631SOL    HW132237   4.079   4.212   1.352
10631SOL    HW232238   4.081   4.245   1.192
10632SOL     OW32239   4.536   5.310   0.687
10632SOL    HW132240   4.568   5.320   0.593
10632SOL    HW232241   4.457   5.248   0.689
10633SOL     OW32242   5.148   3.938   1.112
10633SOL    HW132243   5.200   3.873   1.167
10633SOL    HW232244   5.099   4.001   1.173
10634SOL     OW32245   4.725   3.758   1.154
10634SOL    HW132246   4.662   3.686   1.123
10634SOL    HW232247   4.818   3.722   1.154
10635SOL     OW32248   4.494   5.054   0.301
10635SOL    HW132249   4.448   4.967   0.318
10635SOL    HW232250   4.585   5.051   0.342
10636SOL     OW32251   4.342   5.291   1.284
10636SOL    HW132252   4.337   5.373   1.341
10636SOL    HW232253   4.431   5.288   1.239
10637SOL     OW32254   5.024   4.177   0.691
10637SOL    HW132255   4.965   4.257   0.695
10637SOL    HW232256   5.039   4.142   0.784
10638SOL     OW32257   5.317   3.945   0.882
10638SOL    HW132258   5.233   3.944   0.936
10638SOL    HW232259   5.319   4.028   0.826
10639SOL     OW32260   3.763   4.801   0.300
10639SOL    HW132261   3.862   4.790   0.291
10639SOL    HW232262   3.723   4.715   0.332
10640SOL     OW32263   4.599   5.370   0.337
10640SOL    HW132264   4.522   5.335   0.283
10640SOL    HW232265   4.567   5.441   0.399
10641SOL     OW32266   3.954   4.352   1.975
10641SOL    HW132267   3.861   4.350   2.012
10641SOL    HW232268   3.955   4.313   1.883
10642SOL     OW32269   3.949   3.999   2.858
10642SOL    HW132270   3.984   3.982   2.950
10642SOL    HW232271   3.861   3.954   2.846
10643SOL     OW32272   3.743   4.092   2.509
10643SOL    HW132273   3.661   4.135   2.548
10643SOL    HW232274   3.715   4.019   2.446
10644SOL     OW32275   4.293   4.999   3.027
10644SOL    HW132276   4.200   4.992   2.990
10644SOL    HW232277   4.304   5.088   3.071
10645SOL     OW32278   5.279   5.235   2.565
10645SOL    HW132279   5.222   5.219   2.646
10645SOL    HW232280   5.220   5.245   2.485
10646SOL     OW32281   4.859   4.427   2.579
10646SOL    HW132282   4.916   4.505   2.554
10646SOL    HW232283   4.799   4.453   2.655
10647SOL     OW32284   5.479   4.331   2.093
10647SOL    HW132285   5.467   4.318   1.994
10647SOL    HW232286   5.449   4.250   2.142
10648SOL     OW32287   4.492   4.868   2.885
10648SOL    HW132288   4.414   4.885   2.945
10648SOL    HW232289   4.526   4.955   2.849
10649SOL     OW32290   4.574   4.522   3.685
10649SOL    HW132291   4.570   4.598   3.750
10649SOL    HW232292   4.596   4.558   3.594
10650SOL     OW32293   4.409   4.736   2.527
10650SOL    HW132294   4.478   4.720   2.597
10650SOL    HW232295   4.336   4.793   2.565
10651SOL     OW32296   4.410   4.885   3.665
10651SOL    HW132297   4.470   4.964   3.679
10651SOL    HW232298   4.324   4.916   3.624
10652SOL     OW32299   4.059   5.159   2.923
10652SOL    HW132300   3.981   5.128   2.870
10652SOL    HW232301   4.117   5.217   2.866
10653SOL     OW32302   5.184   5.229   3.201
10653SOL    HW132303   5.208   5.323   3.227
10653SOL    HW232304   5.168   5.175   3.283
10654SOL     OW32305   4.162   4.116   3.361
10654SOL    HW132306   4.244   4.060   3.370
10654SOL    HW232307   4.081   4.058   3.365
10655SOL     OW32308   5.327   4.171   2.599
10655SOL    HW132309   5.253   4.217   2.549
10655SOL    HW232310   5.378   4.239   2.652
10656SOL     OW32311   3.955   5.437   2.345
10656SOL    HW132312   3.989   5.514   2.399
10656SOL    HW232313   3.999   5.437   2.255
10657SOL     OW32314   4.851   5.065   3.552
10657SOL    HW132315   4.898   5.065   3.640
10657SOL    HW232316   4.803   4.978   3.541
10658SOL     OW32317   3.954   5.158   2.400
10658SOL    HW132318   3.928   5.254   2.400
10658SOL    HW232319   3.883   5.104   2.445
10659SOL     OW32320   3.964   4.815   2.748
10659SOL    HW132321   3.978   4.731   2.800
10659SOL    HW232322   3.909   4.879   2.803
10660SOL     OW32323   4.344   5.510   3.301
10660SOL    HW132324   4.252   5.493   3.336
10660SOL    HW232325   4.372   5.602   3.327
10661SOL     OW32326   4.330   4.688   1.985
10661SOL    HW132327   4.337   4.772   1.931
10661SOL    HW232328   4.376   4.701   2.073
10662SOL     OW32329   5.318   3.838   3.342
10662SOL    HW132330   5.300   3.905   3.270
10662SOL    HW232331   5.315   3.884   3.431
10663SOL     OW32332   3.846   4.367   2.425
10663SOL    HW132333   3.801   4.279   2.442
10663SOL    HW232334   3.845   4.421   2.509
10664SOL     OW32335   5.566   5.491   2.221
10664SOL    HW132336   5.620   5.462   2.301
10664SOL    HW232337   5.596   5.581   2.192
10665SOL     OW32338   3.751   5.320   1.979
10665SOL    HW132339   3.732   5.224   2.000
10665SOL    HW232340   3.718   5.378   2.054
10666SOL     OW32341   5.413   4.646   2.474
10666SOL    HW132342   5.508   4.617   2.482
10666SOL    HW232343   5.405   4.711   2.399
10667SOL     OW32344   5.365   4.832   2.294
10667SOL    HW132345   5.451   4.834   2.242
10667SOL    HW232346   5.379   4.879   2.382
10668SOL     OW32347   3.837   4.461   3.459
10668SOL    HW132348   3.925   4.448   3.504
10668SOL    HW232349   3.824   4.558   3.437
10669SOL     OW32350   4.337   5.089   2.588
10669SOL    HW132351   4.288   5.002   2.597
10669SOL    HW232352   4.314   5.132   2.501
10670SOL     OW32353   5.017   4.952   3.285
10670SOL    HW132354   5.054   4.879   3.227
10670SOL    HW232355   5.069   4.957   3.370
10671SOL     OW32356   4.533   3.728   2.364
10671SOL    HW132357   4.573   3.819   2.355
10671SOL    HW232358   4.433   3.736   2.370
10672SOL     OW32359   3.921   4.700   3.126
10672SOL    HW132360   4.010   4.655   3.112
10672SOL    HW232361   3.848   4.635   3.107
10673SOL     OW32362   5.249   4.723   2.052
10673SOL    HW132363   5.186   4.647   2.065
10673SOL    HW232364   5.297   4.741   2.138
10674SOL     OW32365   4.911   5.516   3.478
10674SOL    HW132366   4.935   5.576   3.402
10674SOL    HW232367   4.918   5.421   3.448
10675SOL     OW32368   4.041   3.975   3.663
10675SOL    HW132369   4.112   4.046   3.669
10675SOL    HW232370   3.953   4.014   3.691
10676SOL     OW32371   5.190   5.141   2.815
10676SOL    HW132372   5.131   5.147   2.895
10676SOL    HW232373   5.175   5.053   2.769
10677SOL     OW32374   5.391   5.438   2.434
10677SOL    HW132375   5.350   5.415   2.346
10677SOL    HW232376   5.373   5.364   2.499
10678SOL     OW32377   4.322   4.453   2.132
10678SOL    HW132378   4.346   4.522   2.064
10678SOL    HW232379   4.244   4.486   2.186
10679SOL     OW32380   5.005   4.069   2.806
10679SOL    HW132381   4.919   4.019   2.793
10679SOL    HW232382   5.067   4.015   2.862
10680SOL     OW32383   5.300   5.386   2.169
10680SOL    HW132384   5.389   5.432   2.172
10680SOL    HW232385   5.279   5.362   2.074
10681SOL     OW32386   4.531   4.329   3.327
10681SOL    HW132387   4.484   4.326   3.416
10681SOL    HW232388   4.480   4.274   3.261
10682SOL     OW32389   5.118   4.193   3.536
10682SOL    HW132390   5.098   4.236   3.624
10682SOL    HW232391   5.196   4.131   3.545
10683SOL     OW32392   4.697   4.614   3.434
10683SOL    HW132393   4.743   4.530   3.405
10683SOL    HW232394   4.641   4.648   3.359
10684SOL     OW32395   4.715   4.134   3.104
10684SOL    HW132396   4.638   4.168   3.158
10684SOL    HW232397   4.681   4.083   3.025
10685SOL     OW32398   4.765   4.425   2.291
10685SOL    HW132399   4.791   4.421   2.387
10685SOL    HW232400   4.680   4.374   2.277
10686SOL     OW32401   3.800   4.535   2.651
10686SOL    HW132402   3.899   4.523   2.660
10686SOL    HW232403   3.776   4.630   2.672
10687SOL     OW32404   3.854   5.545   3.433
10687SOL    HW132405   3.844   5.530   3.532
10687SOL    HW232406   3.768   5.581   3.397
10688SOL     OW32407   4.589   4.072   2.057
10688SOL    HW132408   4.648   4.135   2.008
10688SOL    HW232409   4.608   3.978   2.028
10689SOL     OW32410   5.443   4.309   3.693
10689SOL    HW132411   5.417   4.398   3.657
10689SOL    HW232412   5.441   4.241   3.620
10690SOL     OW32413   5.086   4.868   2.407
10690SOL    HW132414   5.169   4.839   2.359
10690SOL    HW232415   5.037   4.935   2.351
10691SOL     OW32416   4.274   3.920   2.747
10691SOL    HW132417   4.269   3.915   2.847
10691SOL    HW232418   4.276   4.016   2.718
10692SOL     OW32419   4.732   5.180   2.339
10692SOL    HW132420   4.686   5.252   2.287
10692SOL    HW232421   4.728   5.200   2.437
10693SOL     OW32422   4.075   5.525   2.715
10693SOL    HW132423   4.125   5.439   2.721
10693SOL    HW232424   4.140   5.602   2.712
10694SOL     OW32425   5.519   4.790   2.735
10694SOL    HW132426   5.457   4.775   2.659
10694SOL    HW232427   5.467   4.801   2.820
10695SOL     OW32428   4.951   5.274   3.368
10695SOL    HW132429   4.957   5.197   3.432
10695SOL    HW232430   4.899   5.248   3.288
10696SOL     OW32431   4.045   4.667   2.104
10696SOL    HW132432   4.127   4.706   2.062
10696SOL    HW232433   4.018   4.585   2.055
10697SOL     OW32434   5.182   4.459   2.590
10697SOL    HW132435   5.177   4.394   2.665
10697SOL    HW232436   5.262   4.518   2.603
10698SOL     OW32437   4.185   4.990   3.589
10698SOL    HW132438   4.135   4.991   3.503
10698SOL    HW232439   4.122   4.972   3.665
10699SOL     OW32440   4.835   5.500   2.099
10699SOL    HW132441   4.775   5.438   2.149
10699SOL    HW232442   4.866   5.456   2.014
10700SOL     OW32443   3.926   4.009   3.360
10700SOL    HW132444   3.846   4.069   3.347
10700SOL    HW232445   3.916   3.960   3.446
10701SOL     OW32446   5.356   5.101   1.943
10701SOL    HW132447   5.324   5.195   1.933
10701SOL    HW232448   5.280   5.038   1.931
10702SOL     OW32449   4.188   5.467   2.185
10702SOL    HW132450   4.221   5.506   2.271
10702SOL    HW232451   4.264   5.460   2.120
10703SOL     OW32452   5.124   3.831   2.288
10703SOL    HW132453   5.100   3.794   2.198
10703SOL    HW232454   5.223   3.847   2.292
10704SOL     OW32455   3.973   5.509   3.103
10704SOL    HW132456   4.030   5.444   3.153
10704SOL    HW232457   3.957   5.476   3.010
10705SOL     OW32458   4.664   5.422   2.766
10705SOL    HW132459   4.744   5.365   2.787
10705SOL    HW232460   4.615   5.382   2.689
10706SOL     OW32461   4.106   4.424   2.342
10706SOL    HW132462   4.151   4.334   2.339
10706SOL    HW232463   4.012   4.413   2.375
10707SOL     OW32464   5.271   3.946   3.591
10707SOL    HW132465   5.266   3.983   3.683
10707SOL    HW232466   5.199   3.877   3.579
10708SOL     OW32467   4.338   3.846   1.979
10708SOL    HW132468   4.436   3.824   1.986
10708SOL    HW232469   4.307   3.829   1.886
10709SOL     OW32470   4.505   3.988   3.611
10709SOL    HW132471   4.572   3.927   3.654
10709SOL    HW232472   4.432   4.007   3.676
10710SOL     OW32473   4.612   5.238   3.057
10710SOL    HW132474   4.589   5.213   2.963
10710SOL    HW232475   4.673   5.169   3.096
10711SOL     OW32476   5.075   4.314   3.295
10711SOL    HW132477   5.103   4.271   3.380
10711SOL    HW232478   5.100   4.410   3.296
10712SOL     OW32479   4.527   5.126   2.786
10712SOL    HW132480   4.617   5.140   2.744
10712SOL    HW232481   4.456   5.128   2.715
10713SOL     OW32482   4.646   4.227   2.761
10713SOL    HW132483   4.621   4.218   2.665
10713SOL    HW232484   4.694   4.145   2.792
10714SOL     OW32485   4.263   3.788   2.374
10714SOL    HW132486   4.182   3.789   2.432
10714SOL    HW232487   4.266   3.871   2.319
10715SOL     OW32488   5.158   4.912   1.903
10715SOL    HW132489   5.190   4.836   1.960
10715SOL    HW232490   5.066   4.939   1.933
10716SOL     OW32491   4.021   3.759   2.033
10716SOL    HW132492   4.070   3.843   2.012
10716SOL    HW232493   4.083   3.694   2.078
10717SOL     OW32494   4.659   3.960   2.342
10717SOL    HW132495   4.611   4.001   2.264
10717SOL    HW232496   4.758   3.958   2.323
10718SOL     OW32497   4.800   4.407   3.326
10718SOL    HW132498   4.720   4.346   3.329
10718SOL    HW232499   4.881   4.354   3.302
10719SOL     OW32500   4.951   5.294   2.655
10719SOL    HW132501   4.972   5.368   2.590
10719SOL    HW232502   5.019   5.294   2.728
10720SOL     OW32503   4.183   4.876   2.603
10720SOL    HW132504   4.112   4.849   2.668
10720SOL    HW232505   4.157   4.848   2.510
10721SOL     OW32506   4.995   5.521   2.453
10721SOL    HW132507   5.039   5.585   2.389
10721SOL    HW232508   4.945   5.573   2.523
10722SOL     OW32509   4.756   4.273   1.878
10722SOL    HW132510   4.715   4.355   1.839
10722SOL    HW232511   4.820   4.299   1.951
10723SOL     OW32512   3.802   4.280   3.248
10723SOL    HW132513   3.894   4.279   3.207
10723SOL    HW232514   3.796   4.354   3.315
10724SOL     OW32515   4.285   3.946   3.009
10724SOL    HW132516   4.323   3.862   3.046
10724SOL    HW232517   4.197   3.965   3.053
10725SOL     OW32518   4.590   4.178   2.504
10725SOL    HW132519   4.558   4.250   2.442
10725SOL    HW232520   4.614   4.097   2.451
10726SOL     OW32521   4.741   3.763   2.615
10726SOL    HW132522   4.669   3.768   2.546
10726SOL    HW232523   4.717   3.694   2.684
10727SOL     OW32524   5.153   4.897   2.729
10727SOL    HW132525   5.098   4.813   2.722
10727SOL    HW232526   5.179   4.926   2.637
10728SOL     OW32527   5.190   4.314   2.854
10728SOL    HW132528   5.160   4.219   2.861
10728SOL    HW232529   5.263   4.330   2.920
10729SOL     OW32530   5.581   4.557   2.239
10729SOL    HW132531   5.623   4.493   2.303
10729SOL    HW232532   5.543   4.506   2.161
10730SOL     OW32533   4.212   5.109   2.036
10730SOL    HW132534   4.125   5.094   2.083
10730SOL    HW232535   4.195   5.135   1.941
10731SOL     OW32536   5.388   5.004   2.519
10731SOL    HW132537   5.487   5.012   2.533
10731SOL    HW232538   5.343   5.088   2.550
10732SOL     OW32539   5.114   4.299   1.940
10732SOL    HW132540   5.060   4.278   2.021
10732SOL    HW232541   5.205   4.258   1.949
10733SOL     OW32542   4.251   3.980   2.190
10733SOL    HW132543   4.278   3.921   2.115
10733SOL    HW232544   4.251   4.075   2.159
10734SOL     OW32545   5.478   4.947   3.450
10734SOL    HW132546   5.569   4.908   3.437
10734SOL    HW232547   5.486   5.043   3.474
10735SOL     OW32548   4.788   5.071   3.202
10735SOL    HW132549   4.708   5.048   3.257
10735SOL    HW232550   4.871   5.045   3.251
10736SOL     OW32551   5.316   5.353   3.487
10736SOL    HW132552   5.343   5.387   3.397
10736SOL    HW232553   5.395   5.315   3.533
10737SOL     OW32554   4.835   4.919   2.962
10737SOL    HW132555   4.795   4.963   3.043
10737SOL    HW232556   4.794   4.956   2.879
10738SOL     OW32557   5.362   4.823   2.941
10738SOL    HW132558   5.367   4.904   3.000
10738SOL    HW232559   5.276   4.825   2.890
10739SOL     OW32560   4.639   3.813   3.264
10739SOL    HW132561   4.664   3.793   3.169
10739SOL    HW232562   4.711   3.869   3.306
10740SOL     OW32563   4.429   4.774   2.230
10740SOL    HW132564   4.415   4.781   2.329
10740SOL    HW232565   4.513   4.723   2.212
10741SOL     OW32566   4.134   4.537   3.113
10741SOL    HW132567   4.220   4.549   3.163
10741SOL    HW232568   4.092   4.450   3.140
10742SOL     OW32569   4.998   4.110   3.124
10742SOL    HW132570   5.019   4.184   3.188
10742SOL    HW232571   4.909   4.127   3.081
10743SOL     OW32572   3.788   5.288   3.193
10743SOL    HW132573   3.742   5.370   3.159
10743SOL    HW232574   3.886   5.307   3.202
10744SOL     OW32575   4.091   4.824   2.363
10744SOL    HW132576   4.084   4.907   2.307
10744SOL    HW232577   4.095   4.744   2.303
10745SOL     OW32578   4.290   4.261   2.727
10745SOL    HW132579   4.302   4.327   2.653
10745SOL    HW232580   4.336   4.295   2.810
10746SOL     OW32581   4.976   5.072   2.250
10746SOL    HW132582   5.026   5.149   2.290
10746SOL    HW232583   4.881   5.074   2.282
10747SOL     OW32584   4.996   5.169   3.004
10747SOL    HW132585   5.043   5.182   3.091
10747SOL    HW232586   4.930   5.095   3.013
10748SOL     OW32587   5.306   4.363   2.334
10748SOL    HW132588   5.275   4.424   2.407
10748SOL    HW232589   5.356   4.415   2.265
10749SOL     OW32590   4.078   5.234   3.191
10749SOL    HW132591   4.057   5.190   3.104
10749SOL    HW232592   4.175   5.260   3.194
10750SOL     OW32593   4.126   4.475   3.460
10750SOL    HW132594   4.194   4.530   3.413
10750SOL    HW232595   4.166   4.387   3.487
10751SOL     OW32596   5.311   4.503   3.532
10751SOL    HW132597   5.219   4.541   3.527
10751SOL    HW232598   5.371   4.550   3.467
10752SOL     OW32599   4.737   3.829   3.632
10752SOL    HW132600   4.743   3.914   3.580
10752SOL    HW232601   4.769   3.753   3.575
10753SOL     OW32602   4.228   3.774   3.602
10753SOL    HW132603   4.186   3.717   3.532
10753SOL    HW232604   4.162   3.843   3.634
10754SOL     OW32605   4.297   4.594   2.891
10754SOL    HW132606   4.341   4.683   2.882
10754SOL    HW232607   4.234   4.594   2.968
10755SOL     OW32608   5.084   4.586   2.907
10755SOL    HW132609   5.009   4.586   2.841
10755SOL    HW232610   5.121   4.494   2.916
10756SOL     OW32611   4.933   4.249   2.137
10756SOL    HW132612   4.946   4.165   2.191
10756SOL    HW232613   4.904   4.323   2.197
10757SOL     OW32614   4.031   3.937   3.093
10757SOL    HW132615   4.008   3.974   3.183
10757SOL    HW232616   4.001   3.842   3.087
10758SOL     OW32617   3.761   5.034   3.144
10758SOL    HW132618   3.814   4.985   3.212
10758SOL    HW232619   3.783   5.132   3.149
10759SOL     OW32620   4.456   4.358   2.926
10759SOL    HW132621   4.515   4.332   2.850
10759SOL    HW232622   4.428   4.454   2.915
10760SOL     OW32623   5.452   4.659   3.716
10760SOL    HW132624   5.406   4.652   3.627
10760SOL    HW232625   5.390   4.703   3.782
10761SOL     OW32626   4.031   3.787   2.480
10761SOL    HW132627   4.020   3.881   2.513
10761SOL    HW232628   4.026   3.724   2.557
10762SOL     OW32629   5.346   4.091   2.236
10762SOL    HW132630   5.348   4.015   2.300
10762SOL    HW232631   5.298   4.168   2.276
10763SOL     OW32632   4.747   4.490   2.828
10763SOL    HW132633   4.762   4.511   2.924
10763SOL    HW232634   4.717   4.395   2.819
10764SOL     OW32635   4.704   5.297   3.562
10764SOL    HW132636   4.684   5.341   3.474
10764SOL    HW232637   4.743   5.206   3.546
10765SOL     OW32638   5.583   5.242   3.467
10765SOL    HW132639   5.597   5.269   3.372
10765SOL    HW232640   5.666   5.264   3.520
10766SOL     OW32641   4.074   4.622   3.666
10766SOL    HW132642   4.150   4.666   3.714
10766SOL    HW232643   4.109   4.575   3.584
10767SOL     OW32644   5.264   3.998   1.987
10767SOL    HW132645   5.203   3.923   2.010
10767SOL    HW232646   5.286   4.050   2.070
10768SOL     OW32647   5.027   4.562   1.904
10768SOL    HW132648   5.061   4.469   1.919
10768SOL    HW232649   5.045   4.589   1.809
10769SOL     OW32650   4.792   5.057   2.711
10769SOL    HW132651   4.799   4.973   2.656
10769SOL    HW232652   4.854   5.126   2.675
10770SOL     OW32653   4.043   4.534   2.811
10770SOL    HW132654   4.136   4.570   2.816
10770SOL    HW232655   4.037   4.449   2.863
10771SOL     OW32656   4.063   4.233   2.868
10771SOL    HW132657   4.011   4.150   2.851
10771SOL    HW232658   4.140   4.238   2.804
10772SOL     OW32659   4.862   4.104   3.540
10772SOL    HW132660   4.817   4.167   3.604
10772SOL    HW232661   4.955   4.135   3.523
10773SOL     OW32662   4.884   3.931   3.339
10773SOL    HW132663   4.884   3.995   3.416
10773SOL    HW232664   4.912   3.979   3.256
10774SOL     OW32665   3.732   5.050   2.062
10774SOL    HW132666   3.639   5.071   2.031
10774SOL    HW232667   3.742   4.951   2.075
10775SOL     OW32668   3.812   5.525   2.789
10775SOL    HW132669   3.770   5.439   2.762
10775SOL    HW232670   3.906   5.528   2.755
10776SOL     OW32671   4.228   5.292   2.772
10776SOL    HW132672   4.294   5.366   2.781
10776SOL    HW232673   4.272   5.213   2.730
10777SOL     OW32674   4.726   4.520   3.100
10777SOL    HW132675   4.767   4.488   3.186
10777SOL    HW232676   4.630   4.493   3.097
10778SOL     OW32677   3.764   4.268   2.976
10778SOL    HW132678   3.849   4.235   2.935
10778SOL    HW232679   3.777   4.283   3.074
10779SOL     OW32680   3.913   4.244   3.584
10779SOL    HW132681   3.972   4.204   3.514
10779SOL    HW232682   3.855   4.315   3.543
10780SOL     OW32683   5.093   4.674   3.522
10780SOL    HW132684   5.132   4.763   3.542
10780SOL    HW232685   5.103   4.654   3.425
10781SOL     OW32686   4.539   4.296   2.187
10781SOL    HW132687   4.546   4.207   2.141
10781SOL    HW232688   4.445   4.330   2.179
10782SOL     OW32689   5.381   4.328   3.068
10782SOL    HW132690   5.343   4.259   3.130
10782SOL    HW232691   5.463   4.292   3.024
10783SOL     OW32692   3.976   5.288   3.606
10783SOL    HW132693   3.946   5.345   3.682
10783SOL    HW232694   3.969   5.191   3.632
10784SOL     OW32695   4.395   4.188   3.131
10784SOL    HW132696   4.361   4.099   3.101
10784SOL    HW232697   4.421   4.242   3.051
10785SOL     OW32698   4.654   5.402   3.327
10785SOL    HW132699   4.630   5.384   3.232
10785SOL    HW232700   4.684   5.496   3.337
10786SOL     OW32701   4.197   4.224   2.053
10786SOL    HW132702   4.258   4.304   2.057
10786SOL    HW232703   4.102   4.255   2.060
10787SOL     OW32704   3.883   4.861   3.328
10787SOL    HW132705   3.905   4.800   3.404
10787SOL    HW232706   3.893   4.812   3.242
10788SOL     OW32707   5.071   4.783   3.096
10788SOL    HW132708   5.095   4.720   3.022
10788SOL    HW232709   4.981   4.823   3.078
10789SOL     OW32710   5.026   4.579   2.171
10789SOL    HW132711   4.940   4.548   2.213
10789SOL    HW232712   5.022   4.565   2.072
10790SOL     OW32713   5.483   5.471   3.016
10790SOL    HW132714   5.544   5.501   2.943
10790SOL    HW232715   5.445   5.382   2.994
10791SOL     OW32716   4.976   5.455   2.990
10791SOL    HW132717   5.060   5.460   2.936
10791SOL    HW232718   4.953   5.359   3.008
10792SOL     OW32719   3.807   4.982   2.884
10792SOL    HW132720   3.802   4.981   2.984
10792SOL    HW232721   3.724   4.941   2.846
10793SOL     OW32722   4.412   5.386   3.578
10793SOL    HW132723   4.356   5.467   3.587
10793SOL    HW232724   4.464   5.390   3.492
10794SOL     OW32725   5.450   3.859   2.385
10794SOL    HW132726   5.523   3.842   2.318
10794SOL    HW232727   5.419   3.772   2.423
10795SOL     OW32728   5.112   5.297   2.339
10795SOL    HW132729   5.179   5.309   2.265
10795SOL    HW232730   5.072   5.386   2.362
10796SOL     OW32731   3.854   5.518   3.713
10796SOL    HW132732   3.813   5.444   3.766
10796SOL    HW232733   3.918   5.569   3.771
10797SOL     OW32734   5.004   4.651   2.534
10797SOL    HW132735   5.064   4.570   2.536
10797SOL    HW232736   5.044   4.720   2.474
10798SOL     OW32737   4.554   4.997   3.284
10798SOL    HW132738   4.549   5.030   3.379
10798SOL    HW232739   4.468   5.016   3.238
10799SOL     OW32740   4.396   5.340   2.016
10799SOL    HW132741   4.405   5.350   1.917
10799SOL    HW232742   4.356   5.251   2.037
10800SOL     OW32743   5.374   5.444   3.256
10800SOL    HW132744   5.427   5.454   3.172
10800SOL    HW232745   5.347   5.534   3.290
10801SOL     OW32746   5.565   3.899   2.825
10801SOL    HW132747   5.604   3.814   2.789
10801SOL    HW232748   5.467   3.901   2.806
10802SOL     OW32749   3.987   4.050   2.582
10802SOL    HW132750   3.908   4.101   2.548
10802SOL    HW232751   3.978   4.035   2.680
10803SOL     OW32752   4.918   5.336   1.893
10803SOL    HW132753   4.924   5.243   1.930
10803SOL    HW232754   4.859   5.336   1.813
10804SOL     OW32755   4.546   4.726   3.234
10804SOL    HW132756   4.586   4.725   3.142
10804SOL    HW232757   4.556   4.818   3.274
10805SOL     OW32758   4.640   4.634   2.153
10805SOL    HW132759   4.703   4.672   2.085
10805SOL    HW232760   4.680   4.551   2.192
10806SOL     OW32761   5.228   5.331   1.906
10806SOL    HW132762   5.136   5.368   1.913
10806SOL    HW232763   5.266   5.351   1.816
10807SOL     OW32764   4.096   5.012   3.352
10807SOL    HW132765   4.083   5.105   3.318
10807SOL    HW232766   4.012   4.960   3.339
10808SOL     OW32767   5.338   5.016   3.151
10808SOL    HW132768   5.398   5.019   3.231
10808SOL    HW232769   5.263   5.080   3.164
10809SOL     OW32770   4.763   4.822   2.558
10809SOL    HW132771   4.693   4.775   2.612
10809SOL    HW232772   4.822   4.754   2.515
10810SOL     OW32773   4.738   3.960   2.833
10810SOL    HW132774   4.730   3.924   2.740
10810SOL    HW232775   4.736   3.884   2.898
10811SOL     OW32776   4.314   5.211   2.353
10811SOL    HW132777   4.356   5.153   2.283
10811SOL    HW232778   4.270   5.290   2.309
10812SOL     OW32779   5.433   4.109   3.243
10812SOL    HW132780   5.506   4.178   3.247
10812SOL    HW232781   5.461   4.034   3.184
10813SOL     OW32782   3.979   5.072   2.152
10813SOL    HW132783   3.883   5.073   2.125
10813SOL    HW232784   3.991   5.125   2.236
10814SOL     OW32785   3.829   4.737   3.588
10814SOL    HW132786   3.752   4.704   3.642
10814SOL    HW232787   3.914   4.707   3.630
10815SOL     OW32788   4.396   3.927   3.351
10815SOL    HW132789   4.486   3.911   3.311
10815SOL    HW232790   4.404   3.932   3.450
10816SOL     OW32791   5.164   4.580   3.260
10816SOL    HW132792   5.107   4.632   3.197
10816SOL    HW232793   5.260   4.592   3.236
10817SOL     OW32794   3.796   3.890   2.180
10817SOL    HW132795   3.779   3.973   2.126
10817SOL    HW232796   3.886   3.853   2.158
10818SOL     OW32797   4.907   5.059   1.981
10818SOL    HW132798   4.808   5.048   1.983
10818SOL    HW232799   4.941   5.074   2.074
10819SOL     OW32800   4.337   4.566   3.293
10819SOL    HW132801   4.393   4.647   3.276
10819SOL    HW232802   4.396   4.486   3.296
10820SOL     OW32803   5.217   5.491   2.821
10820SOL    HW132804   5.250   5.555   2.752
10820SOL    HW232805   5.283   5.485   2.896
10821SOL     OW32806   4.440   4.289   3.570
10821SOL    HW132807   4.459   4.354   3.644
10821SOL    HW232808   4.500   4.209   3.579
10822SOL     OW32809   5.174   4.944   3.495
10822SOL    HW132810   5.165   4.934   3.594
10822SOL    HW232811   5.270   4.937   3.469
10823SOL     OW32812   4.114   5.465   3.422
10823SOL    HW132813   4.023   5.506   3.420
10823SOL    HW232814   4.107   5.371   3.454
10824SOL     OW32815   5.398   4.607   3.116
10824SOL    HW132816   5.371   4.518   3.079
10824SOL    HW232817   5.399   4.675   3.043
10825SOL     OW32818   4.949   4.049   2.311
10825SOL    HW132819   5.014   3.975   2.300
10825SOL    HW232820   4.969   4.099   2.395
10826SOL     OW32821   4.318   4.469   2.514
10826SOL    HW132822   4.368   4.554   2.495
10826SOL    HW232823   4.230   4.471   2.466
10827SOL     OW32824   5.501   4.066   3.504
10827SOL    HW132825   5.484   4.097   3.410
10827SOL    HW232826   5.417   4.029   3.542
10828SOL     OW32827   5.454   4.658   3.379
10828SOL    HW132828   5.492   4.749   3.394
10828SOL    HW232829   5.446   4.641   3.280
10829SOL     OW32830   4.583   5.098   1.878
10829SOL    HW132831   4.537   5.113   1.966
10829SOL    HW232832   4.627   5.183   1.848
10830SOL     OW32833   4.385   5.514   2.815
10830SOL    HW132834   4.339   5.602   2.802
10830SOL    HW232835   4.484   5.526   2.808
10831SOL     OW32836   4.583   4.680   2.723
10831SOL    HW132837   4.637   4.611   2.771
10831SOL    HW232838   4.551   4.749   2.789
10832SOL     OW32839   4.807   4.708   1.949
10832SOL    HW132840   4.784   4.761   1.867
10832SOL    HW232841   4.888   4.652   1.930
10833SOL     OW32842   5.585   5.293   2.713
10833SOL    HW132843   5.514   5.281   2.643
10833SOL    HW232844   5.586   5.214   2.773
10834SOL     OW32845   3.945   5.038   3.706
10834SOL    HW132846   3.880   4.965   3.685
10834SOL    HW232847   3.949   5.052   3.804
10835SOL     OW32848   3.803   4.964   2.515
10835SOL    HW132849   3.802   4.917   2.603
10835SOL    HW232850   3.885   4.936   2.464
10836SOL     OW32851   4.396   5.115   3.486
10836SOL    HW132852   4.318   5.065   3.524
10836SOL    HW232853   4.393   5.210   3.517
10837SOL     OW32854   5.548   3.916   3.089
10837SOL    HW132855   5.544   3.826   3.133
10837SOL    HW232856   5.551   3.905   2.990
10838SOL     OW32857   4.152   4.148   2.382
10838SOL    HW132858   4.182   4.076   2.320
10838SOL    HW232859   4.113   4.108   2.465
10839SOL     OW32860   5.429   5.211   2.966
10839SOL    HW132861   5.336   5.186   2.939
10839SOL    HW232862   5.455   5.161   3.048
10840SOL     OW32863   4.041   4.271   3.142
10840SOL    HW132864   4.079   4.212   3.214
10840SOL    HW232865   4.081   4.245   3.054
10841SOL     OW32866   4.536   5.310   2.549
10841SOL    HW132867   4.568   5.320   2.455
10841SOL    HW232868   4.457   5.248   2.551
10842SOL     OW32869   5.148   3.938   2.974
10842SOL    HW132870   5.200   3.873   3.029
10842SOL    HW232871   5.099   4.001   3.035
10843SOL     OW32872   4.725   3.758   3.016
10843SOL    HW132873   4.662   3.686   2.985
10843SOL    HW232874   4.818   3.722   3.016
10844SOL     OW32875   4.494   5.054   2.163
10844SOL    HW132876   4.448   4.967   2.180
10844SOL    HW232877   4.585   5.051   2.204
10845SOL     OW32878   4.342   5.291   3.146
10845SOL    HW132879   4.337   5.373   3.203
10845SOL    HW232880   4.431   5.288   3.101
10846SOL     OW32881   5.076   3.776   2.030
10846SOL    HW132882   5.111   3.735   1.946
10846SOL    HW232883   4.986   3.738   2.050
10847SOL     OW32884   5.024   4.177   2.553
10847SOL    HW132885   4.965   4.257   2.557
10847SOL    HW232886   5.039   4.142   2.646
10848SOL     OW32887   5.317   3.945   2.744
10848SOL    HW132888   5.233   3.944   2.798
10848SOL    HW232889   5.319   4.028   2.688
10849SOL     OW32890   3.763   4.801   2.162
10849SOL    HW132891   3.862   4.790   2.153
10849SOL    HW232892   3.723   4.715   2.194
10850SOL     OW32893   4.599   5.370   2.199
10850SOL    HW132894   4.522   5.335   2.145
10850SOL    HW232895   4.567   5.441   2.261
10851SOL     OW32896   3.954   4.352   3.837
10851SOL    HW132897   3.861   4.350   3.874
10851SOL    HW232898   3.955   4.313   3.745
10852SOL     OW32899   3.949   3.999   4.720
10852SOL    HW132900   3.984   3.982   4.812
10852SOL    HW232901   3.861   3.954   4.708
10853SOL     OW32902   3.743   4.092   4.371
10853SOL    HW132903   3.661   4.135   4.410
10853SOL    HW232904   3.715   4.019   4.308
10854SOL     OW32905   4.293   4.999   4.889
10854SOL    HW132906   4.200   4.992   4.852
10854SOL    HW232907   4.304   5.088   4.933
10855SOL     OW32908   5.279   5.235   4.427
10855SOL    HW132909   5.222   5.219   4.508
10855SOL    HW232910   5.220   5.245   4.347
10856SOL     OW32911   4.859   4.427   4.441
10856SOL    HW132912   4.916   4.505   4.416
10856SOL    HW232913   4.799   4.453   4.517
10857SOL     OW32914   5.479   4.331   3.955
10857SOL    HW132915   5.467   4.318   3.856
10857SOL    HW232916   5.449   4.250   4.004
10858SOL     OW32917   4.492   4.868   4.747
10858SOL    HW132918   4.414   4.885   4.807
10858SOL    HW232919   4.526   4.955   4.711
10859SOL     OW32920   4.574   4.522   5.547
10859SOL    HW132921   4.570   4.598   5.612
10859SOL    HW232922   4.596   4.558   5.456
10860SOL     OW32923   4.409   4.736   4.389
10860SOL    HW132924   4.478   4.720   4.459
10860SOL    HW232925   4.336   4.793   4.427
10861SOL     OW32926   4.410   4.885   5.527
10861SOL    HW132927   4.470   4.964   5.541
10861SOL    HW232928   4.324   4.916   5.486
10862SOL     OW32929   4.059   5.159   4.785
10862SOL    HW132930   3.981   5.128   4.732
10862SOL    HW232931   4.117   5.217   4.728
10863SOL     OW32932   5.184   5.229   5.063
10863SOL    HW132933   5.208   5.323   5.089
10863SOL    HW232934   5.168   5.175   5.145
10864SOL     OW32935   4.162   4.116   5.223
10864SOL    HW132936   4.244   4.060   5.232
10864SOL    HW232937   4.081   4.058   5.227
10865SOL     OW32938   5.327   4.171   4.461
10865SOL    HW132939   5.253   4.217   4.411
10865SOL    HW232940   5.378   4.239   4.514
10866SOL     OW32941   3.955   5.437   4.207
10866SOL    HW132942   3.989   5.514   4.261
10866SOL    HW232943   3.999   5.437   4.117
10867SOL     OW32944   4.851   5.065   5.414
10867SOL    HW132945   4.898   5.065   5.502
10867SOL    HW232946   4.803   4.978   5.403
10868SOL     OW32947   3.954   5.158   4.262
10868SOL    HW132948   3.928   5.254   4.262
10868SOL    HW232949   3.883   5.104   4.307
10869SOL     OW32950   3.964   4.815   4.610
10869SOL    HW132951   3.978   4.731   4.662
10869SOL    HW232952   3.909   4.879   4.665
10870SOL     OW32953   4.344   5.510   5.163
10870SOL    HW132954   4.252   5.493   5.198
10870SOL    HW232955   4.372   5.602   5.189
10871SOL     OW32956   4.330   4.688   3.847
10871SOL    HW132957   4.337   4.772   3.793
10871SOL    HW232958   4.376   4.701   3.935
10872SOL     OW32959   5.318   3.838   5.204
10872SOL    HW132960   5.300   3.905   5.132
10872SOL    HW232961   5.315   3.884   5.293
10873SOL     OW32962   3.846   4.367   4.287
10873SOL    HW132963   3.801   4.279   4.304
10873SOL    HW232964   3.845   4.421   4.371
10874SOL     OW32965   5.566   5.491   4.083
10874SOL    HW132966   5.620   5.462   4.163
10874SOL    HW232967   5.596   5.581   4.054
10875SOL     OW32968   3.751   5.320   3.841
10875SOL    HW132969   3.732   5.224   3.862
10875SOL    HW232970   3.718   5.378   3.916
10876SOL     OW32971   5.413   4.646   4.336
10876SOL    HW132972   5.508   4.617   4.344
10876SOL    HW232973   5.405   4.711   4.261
10877SOL     OW32974   5.365   4.832   4.156
10877SOL    HW132975   5.451   4.834   4.104
10877SOL    HW232976   5.379   4.879   4.244
10878SOL     OW32977   3.837   4.461   5.321
10878SOL    HW132978   3.925   4.448   5.366
10878SOL    HW232979   3.824   4.558   5.299
10879SOL     OW32980   4.337   5.089   4.450
10879SOL    HW132981   4.288   5.002   4.459
10879SOL    HW232982   4.314   5.132   4.363
10880SOL     OW32983   5.017   4.952   5.147
10880SOL    HW132984   5.054   4.879   5.089
10880SOL    HW232985   5.069   4.957   5.232
10881SOL     OW32986   4.533   3.728   4.226
10881SOL    HW132987   4.573   3.819   4.217
10881SOL    HW232988   4.433   3.736   4.232
10882SOL     OW32989   3.921   4.700   4.988
10882SOL    HW132990   4.010   4.655   4.974
10882SOL    HW232991   3.848   4.635   4.969
10883SOL     OW32992   5.249   4.723   3.914
10883SOL    HW132993   5.186   4.647   3.927
10883SOL    HW232994   5.297   4.741   4.000
10884SOL     OW32995   4.911   5.516   5.340
10884SOL    HW132996   4.935   5.576   5.264
10884SOL    HW232997   4.918   5.421   5.310
10885SOL     OW32998   4.041   3.975   5.525
10885SOL    HW132999   4.112   4.046   5.531
10885SOL    HW233000   3.953   4.014   5.553
10886SOL     OW33001   5.190   5.141   4.677
10886SOL    HW133002   5.131   5.147   4.757
10886SOL    HW233003   5.175   5.053   4.631
10887SOL     OW33004   5.391   5.438   4.296
10887SOL    HW133005   5.350   5.415   4.208
10887SOL    HW233006   5.373   5.364   4.361
10888SOL     OW33007   4.322   4.453   3.994
10888SOL    HW133008   4.346   4.522   3.926
10888SOL    HW233009   4.244   4.486   4.048
10889SOL     OW33010   5.005   4.069   4.668
10889SOL    HW133011   4.919   4.019   4.655
10889SOL    HW233012   5.067   4.015   4.724
10890SOL     OW33013   5.300   5.386   4.031
10890SOL    HW133014   5.389   5.432   4.034
10890SOL    HW233015   5.279   5.362   3.936
10891SOL     OW33016   4.531   4.329   5.189
10891SOL    HW133017   4.484   4.326   5.278
10891SOL    HW233018   4.480   4.274   5.123
10892SOL     OW33019   5.118   4.193   5.398
10892SOL    HW133020   5.098   4.236   5.486
10892SOL    HW233021   5.196   4.131   5.407
10893SOL     OW33022   4.697   4.614   5.296
10893SOL    HW133023   4.743   4.530   5.267
10893SOL    HW233024   4.641   4.648   5.221
10894SOL     OW33025   4.715   4.134   4.966
10894SOL    HW133026   4.638   4.168   5.020
10894SOL    HW233027   4.681   4.083   4.887
10895SOL     OW33028   4.765   4.425   4.153
10895SOL    HW133029   4.791   4.421   4.249
10895SOL    HW233030   4.680   4.374   4.139
10896SOL     OW33031   3.800   4.535   4.513
10896SOL    HW133032   3.899   4.523   4.522
10896SOL    HW233033   3.776   4.630   4.534
10897SOL     OW33034   3.854   5.545   5.295
10897SOL    HW133035   3.844   5.530   5.394
10897SOL    HW233036   3.768   5.581   5.259
10898SOL     OW33037   4.589   4.072   3.919
10898SOL    HW133038   4.648   4.135   3.870
10898SOL    HW233039   4.608   3.978   3.890
10899SOL     OW33040   5.443   4.309   5.555
10899SOL    HW133041   5.417   4.398   5.519
10899SOL    HW233042   5.441   4.241   5.482
10900SOL     OW33043   5.086   4.868   4.269
10900SOL    HW133044   5.169   4.839   4.221
10900SOL    HW233045   5.037   4.935   4.213
10901SOL     OW33046   4.274   3.920   4.609
10901SOL    HW133047   4.269   3.915   4.709
10901SOL    HW233048   4.276   4.016   4.580
10902SOL     OW33049   4.732   5.180   4.201
10902SOL    HW133050   4.686   5.252   4.149
10902SOL    HW233051   4.728   5.200   4.299
10903SOL     OW33052   4.075   5.525   4.577
10903SOL    HW133053   4.125   5.439   4.583
10903SOL    HW233054   4.140   5.602   4.574
10904SOL     OW33055   5.519   4.790   4.597
10904SOL    HW133056   5.457   4.775   4.521
10904SOL    HW233057   5.467   4.801   4.682
10905SOL     OW33058   4.951   5.274   5.230
10905SOL    HW133059   4.957   5.197   5.294
10905SOL    HW233060   4.899   5.248   5.150
10906SOL     OW33061   4.045   4.667   3.966
10906SOL    HW133062   4.127   4.706   3.924
10906SOL    HW233063   4.018   4.585   3.917
10907SOL     OW33064   5.182   4.459   4.452
10907SOL    HW133065   5.177   4.394   4.527
10907SOL    HW233066   5.262   4.518   4.465
10908SOL     OW33067   4.185   4.990   5.451
10908SOL    HW133068   4.135   4.991   5.365
10908SOL    HW233069   4.122   4.972   5.527
10909SOL     OW33070   4.835   5.500   3.961
10909SOL    HW133071   4.775   5.438   4.011
10909SOL    HW233072   4.866   5.456   3.876
10910SOL     OW33073   3.926   4.009   5.222
10910SOL    HW133074   3.846   4.069   5.209
10910SOL    HW233075   3.916   3.960   5.308
10911SOL     OW33076   5.356   5.101   3.805
10911SOL    HW133077   5.324   5.195   3.795
10911SOL    HW233078   5.280   5.038   3.793
10912SOL     OW33079   4.188   5.467   4.047
10912SOL    HW133080   4.221   5.506   4.133
10912SOL    HW233081   4.264   5.460   3.982
10913SOL     OW33082   5.124   3.831   4.150
10913SOL    HW133083   5.100   3.794   4.060
10913SOL    HW233084   5.223   3.847   4.154
10914SOL     OW33085   3.973   5.509   4.965
10914SOL    HW133086   4.030   5.444   5.015
10914SOL    HW233087   3.957   5.476   4.872
10915SOL     OW33088   4.664   5.422   4.628
10915SOL    HW133089   4.744   5.365   4.649
10915SOL    HW233090   4.615   5.382   4.551
10916SOL     OW33091   4.106   4.424   4.204
10916SOL    HW133092   4.151   4.334   4.201
10916SOL    HW233093   4.012   4.413   4.237
10917SOL     OW33094   5.271   3.946   5.453
10917SOL    HW133095   5.266   3.983   5.545
10917SOL    HW233096   5.199   3.877   5.441
10918SOL     OW33097   4.338   3.846   3.841
10918SOL    HW133098   4.436   3.824   3.848
10918SOL    HW233099   4.307   3.829   3.748
10919SOL     OW33100   4.505   3.988   5.473
10919SOL    HW133101   4.572   3.927   5.516
10919SOL    HW233102   4.432   4.007   5.538
10920SOL     OW33103   4.612   5.238   4.919
10920SOL    HW133104   4.589   5.213   4.825
10920SOL    HW233105   4.673   5.169   4.958
10921SOL     OW33106   5.075   4.314   5.157
10921SOL    HW133107   5.103   4.271   5.242
10921SOL    HW233108   5.100   4.410   5.158
10922SOL     OW33109   4.527   5.126   4.648
10922SOL    HW133110   4.617   5.140   4.606
10922SOL    HW233111   4.456   5.128   4.577
10923SOL     OW33112   4.646   4.227   4.623
10923SOL    HW133113   4.621   4.218   4.527
10923SOL    HW233114   4.694   4.145   4.654
10924SOL     OW33115   4.263   3.788   4.236
10924SOL    HW133116   4.182   3.789   4.294
10924SOL    HW233117   4.266   3.871   4.181
10925SOL     OW33118   5.158   4.912   3.765
10925SOL    HW133119   5.190   4.836   3.822
10925SOL    HW233120   5.066   4.939   3.795
10926SOL     OW33121   4.021   3.759   3.895
10926SOL    HW133122   4.070   3.843   3.874
10926SOL    HW233123   4.083   3.694   3.940
10927SOL     OW33124   4.659   3.960   4.204
10927SOL    HW133125   4.611   4.001   4.126
10927SOL    HW233126   4.758   3.958   4.185
10928SOL     OW33127   4.800   4.407   5.188
10928SOL    HW133128   4.720   4.346   5.191
10928SOL    HW233129   4.881   4.354   5.164
10929SOL     OW33130   4.951   5.294   4.517
10929SOL    HW133131   4.972   5.368   4.452
10929SOL    HW233132   5.019   5.294   4.590
10930SOL     OW33133   4.183   4.876   4.465
10930SOL    HW133134   4.112   4.849   4.530
10930SOL    HW233135   4.157   4.848   4.372
10931SOL     OW33136   4.995   5.521   4.315
10931SOL    HW133137   5.039   5.585   4.251
10931SOL    HW233138   4.945   5.573   4.385
10932SOL     OW33139   4.756   4.273   3.740
10932SOL    HW133140   4.715   4.355   3.701
10932SOL    HW233141   4.820   4.299   3.813
10933SOL     OW33142   3.802   4.280   5.110
10933SOL    HW133143   3.894   4.279   5.069
10933SOL    HW233144   3.796   4.354   5.177
10934SOL     OW33145   4.285   3.946   4.871
10934SOL    HW133146   4.323   3.862   4.908
10934SOL    HW233147   4.197   3.965   4.915
10935SOL     OW33148   4.590   4.178   4.366
10935SOL    HW133149   4.558   4.250   4.304
10935SOL    HW233150   4.614   4.097   4.313
10936SOL     OW33151   4.741   3.763   4.477
10936SOL    HW133152   4.669   3.768   4.408
10936SOL    HW233153   4.717   3.694   4.546
10937SOL     OW33154   5.153   4.897   4.591
10937SOL    HW133155   5.098   4.813   4.584
10937SOL    HW233156   5.179   4.926   4.499
10938SOL     OW33157   5.190   4.314   4.716
10938SOL    HW133158   5.160   4.219   4.723
10938SOL    HW233159   5.263   4.330   4.782
10939SOL     OW33160   5.581   4.557   4.101
10939SOL    HW133161   5.623   4.493   4.165
10939SOL    HW233162   5.543   4.506   4.023
10940SOL     OW33163   4.212   5.109   3.898
10940SOL    HW133164   4.125   5.094   3.945
10940SOL    HW233165   4.195   5.135   3.803
10941SOL     OW33166   5.388   5.004   4.381
10941SOL    HW133167   5.487   5.012   4.395
10941SOL    HW233168   5.343   5.088   4.412
10942SOL     OW33169   5.114   4.299   3.802
10942SOL    HW133170   5.060   4.278   3.883
10942SOL    HW233171   5.205   4.258   3.811
10943SOL     OW33172   4.251   3.980   4.052
10943SOL    HW133173   4.278   3.921   3.977
10943SOL    HW233174   4.251   4.075   4.021
10944SOL     OW33175   5.478   4.947   5.312
10944SOL    HW133176   5.569   4.908   5.299
10944SOL    HW233177   5.486   5.043   5.336
10945SOL     OW33178   4.788   5.071   5.064
10945SOL    HW133179   4.708   5.048   5.119
10945SOL    HW233180   4.871   5.045   5.113
10946SOL     OW33181   5.316   5.353   5.349
10946SOL    HW133182   5.343   5.387   5.259
10946SOL    HW233183   5.395   5.315   5.395
10947SOL     OW33184   4.835   4.919   4.824
10947SOL    HW133185   4.795   4.963   4.905
10947SOL    HW233186   4.794   4.956   4.741
10948SOL     OW33187   5.362   4.823   4.803
10948SOL    HW133188   5.367   4.904   4.862
10948SOL    HW233189   5.276   4.825   4.752
10949SOL     OW33190   4.639   3.813   5.126
10949SOL    HW133191   4.664   3.793   5.031
10949SOL    HW233192   4.711   3.869   5.168
10950SOL     OW33193   4.704   4.840   5.443
10950SOL    HW133194   4.605   4.846   5.453
10950SOL    HW233195   4.727   4.760   5.387
10951SOL     OW33196   4.429   4.774   4.092
10951SOL    HW133197   4.415   4.781   4.191
10951SOL    HW233198   4.513   4.723   4.074
10952SOL     OW33199   4.134   4.537   4.975
10952SOL    HW133200   4.220   4.549   5.025
10952SOL    HW233201   4.092   4.450   5.002
10953SOL     OW33202   4.998   4.110   4.986
10953SOL    HW133203   5.019   4.184   5.050
10953SOL    HW233204   4.909   4.127   4.943
10954SOL     OW33205   3.788   5.288   5.055
10954SOL    HW133206   3.742   5.370   5.021
10954SOL    HW233207   3.886   5.307   5.064
10955SOL     OW33208   4.091   4.824   4.225
10955SOL    HW133209   4.084   4.907   4.169
10955SOL    HW233210   4.095   4.744   4.165
10956SOL     OW33211   4.290   4.261   4.589
10956SOL    HW133212   4.302   4.327   4.515
10956SOL    HW233213   4.336   4.295   4.672
10957SOL     OW33214   4.976   5.072   4.112
10957SOL    HW133215   5.026   5.149   4.152
10957SOL    HW233216   4.881   5.074   4.144
10958SOL     OW33217   4.996   5.169   4.866
10958SOL    HW133218   5.043   5.182   4.953
10958SOL    HW233219   4.930   5.095   4.875
10959SOL     OW33220   5.306   4.363   4.196
10959SOL    HW133221   5.275   4.424   4.269
10959SOL    HW233222   5.356   4.415   4.127
10960SOL     OW33223   4.078   5.234   5.053
10960SOL    HW133224   4.057   5.190   4.966
10960SOL    HW233225   4.175   5.260   5.056
10961SOL     OW33226   4.126   4.475   5.322
10961SOL    HW133227   4.194   4.530   5.275
10961SOL    HW233228   4.166   4.387   5.349
10962SOL     OW33229   5.311   4.503   5.394
10962SOL    HW133230   5.219   4.541   5.389
10962SOL    HW233231   5.371   4.550   5.329
10963SOL     OW33232   4.737   3.829   5.494
10963SOL    HW133233   4.743   3.914   5.442
10963SOL    HW233234   4.769   3.753   5.437
10964SOL     OW33235   4.228   3.774   5.464
10964SOL    HW133236   4.186   3.717   5.394
10964SOL    HW233237   4.162   3.843   5.496
10965SOL     OW33238   4.297   4.594   4.753
10965SOL    HW133239   4.341   4.683   4.744
10965SOL    HW233240   4.234   4.594   4.830
10966SOL     OW33241   5.084   4.586   4.769
10966SOL    HW133242   5.009   4.586   4.703
10966SOL    HW233243   5.121   4.494   4.778
10967SOL     OW33244   4.933   4.249   3.999
10967SOL    HW133245   4.946   4.165   4.053
10967SOL    HW233246   4.904   4.323   4.059
10968SOL     OW33247   4.031   3.937   4.955
10968SOL    HW133248   4.008   3.974   5.045
10968SOL    HW233249   4.001   3.842   4.949
10969SOL     OW33250   3.761   5.034   5.006
10969SOL    HW133251   3.814   4.985   5.074
10969SOL    HW233252   3.783   5.132   5.011
10970SOL     OW33253   4.456   4.358   4.788
10970SOL    HW133254   4.515   4.332   4.712
10970SOL    HW233255   4.428   4.454   4.777
10971SOL     OW33256   5.452   4.659   5.578
10971SOL    HW133257   5.406   4.652   5.489
10971SOL    HW233258   5.390   4.703   5.644
10972SOL     OW33259   4.031   3.787   4.342
10972SOL    HW133260   4.020   3.881   4.375
10972SOL    HW233261   4.026   3.724   4.419
10973SOL     OW33262   5.346   4.091   4.098
10973SOL    HW133263   5.348   4.015   4.162
10973SOL    HW233264   5.298   4.168   4.138
10974SOL     OW33265   4.747   4.490   4.690
10974SOL    HW133266   4.762   4.511   4.786
10974SOL    HW233267   4.717   4.395   4.681
10975SOL     OW33268   4.704   5.297   5.424
10975SOL    HW133269   4.684   5.341   5.336
10975SOL    HW233270   4.743   5.206   5.408
10976SOL     OW33271   5.583   5.242   5.329
10976SOL    HW133272   5.597   5.269   5.234
10976SOL    HW233273   5.666   5.264   5.382
10977SOL     OW33274   4.074   4.622   5.528
10977SOL    HW133275   4.150   4.666   5.576
10977SOL    HW233276   4.109   4.575   5.446
10978SOL     OW33277   5.264   3.998   3.849
10978SOL    HW133278   5.203   3.923   3.872
10978SOL    HW233279   5.286   4.050   3.932
10979SOL     OW33280   5.027   4.562   3.766
10979SOL    HW133281   5.061   4.469   3.781
10979SOL    HW233282   5.045   4.589   3.671
10980SOL     OW33283   4.792   5.057   4.573
10980SOL    HW133284   4.799   4.973   4.518
10980SOL    HW233285   4.854   5.126   4.537
10981SOL     OW33286   4.043   4.534   4.673
10981SOL    HW133287   4.136   4.570   4.678
10981SOL    HW233288   4.037   4.449   4.725
10982SOL     OW33289   4.063   4.233   4.730
10982SOL    HW133290   4.011   4.150   4.713
10982SOL    HW233291   4.140   4.238   4.666
10983SOL     OW33292   4.862   4.104   5.402
10983SOL    HW133293   4.817   4.167   5.466
10983SOL    HW233294   4.955   4.135   5.385
10984SOL     OW33295   4.884   3.931   5.201
10984SOL    HW133296   4.884   3.995   5.278
10984SOL    HW233297   4.912   3.979   5.118
10985SOL     OW33298   3.732   5.050   3.924
10985SOL    HW133299   3.639   5.071   3.893
10985SOL    HW233300   3.742   4.951   3.937
10986SOL     OW33301   3.812   5.525   4.651
10986SOL    HW133302   3.770   5.439   4.624
10986SOL    HW233303   3.906   5.528   4.617
10987SOL     OW33304   4.228   5.292   4.634
10987SOL    HW133305   4.294   5.366   4.643
10987SOL    HW233306   4.272   5.213   4.592
10988SOL     OW33307   4.726   4.520   4.962
10988SOL    HW133308   4.767   4.488   5.048
10988SOL    HW233309   4.630   4.493   4.959
10989SOL     OW33310   3.764   4.268   4.838
10989SOL    HW133311   3.849   4.235   4.797
10989SOL    HW233312   3.777   4.283   4.936
10990SOL     OW33313   3.913   4.244   5.446
10990SOL    HW133314   3.972   4.204   5.376
10990SOL    HW233315   3.855   4.315   5.405
10991SOL     OW33316   5.093   4.674   5.384
10991SOL    HW133317   5.132   4.763   5.404
10991SOL    HW233318   5.103   4.654   5.287
10992SOL     OW33319   4.539   4.296   4.049
10992SOL    HW133320   4.546   4.207   4.003
10992SOL    HW233321   4.445   4.330   4.041
10993SOL     OW33322   5.381   4.328   4.930
10993SOL    HW133323   5.343   4.259   4.992
10993SOL    HW233324   5.463   4.292   4.886
10994SOL     OW33325   3.976   5.288   5.468
10994SOL    HW133326   3.946   5.345   5.544
10994SOL    HW233327   3.969   5.191   5.494
10995SOL     OW33328   4.395   4.188   4.993
10995SOL    HW133329   4.361   4.099   4.963
10995SOL    HW233330   4.421   4.242   4.913
10996SOL     OW33331   4.654   5.402   5.189
10996SOL    HW133332   4.630   5.384   5.094
10996SOL    HW233333   4.684   5.496   5.199
10997SOL     OW33334   4.197   4.224   3.915
10997SOL    HW133335   4.258   4.304   3.919
10997SOL    HW233336   4.102   4.255   3.922
10998SOL     OW33337   3.883   4.861   5.190
10998SOL    HW133338   3.905   4.800   5.266
10998SOL    HW233339   3.893   4.812   5.104
10999SOL     OW33340   5.071   4.783   4.958
10999SOL    HW133341   5.095   4.720   4.884
10999SOL    HW233342   4.981   4.823   4.940
11000SOL     OW33343   5.026   4.579   4.033
11000SOL    HW133344   4.940   4.548   4.075
11000SOL    HW233345   5.022   4.565   3.934
11001SOL     OW33346   5.483   5.471   4.878
11001SOL    HW133347   5.544   5.501   4.805
11001SOL    HW233348   5.445   5.382   4.856
11002SOL     OW33349   4.976   5.455   4.852
11002SOL    HW133350   5.060   5.460   4.798
11002SOL    HW233351   4.953   5.359   4.870
11003SOL     OW33352   3.807   4.982   4.746
11003SOL    HW133353   3.802   4.981   4.846
11003SOL    HW233354   3.724   4.941   4.708
11004SOL     OW33355   4.412   5.386   5.440
11004SOL    HW133356   4.356   5.467   5.449
11004SOL    HW233357   4.464   5.390   5.354
11005SOL     OW33358   5.450   3.859   4.247
11005SOL    HW133359   5.523   3.842   4.180
11005SOL    HW233360   5.419   3.772   4.285
11006SOL     OW33361   5.112   5.297   4.201
11006SOL    HW133362   5.179   5.309   4.127
11006SOL    HW233363   5.072   5.386   4.224
11007SOL     OW33364   3.854   5.518   5.575
11007SOL    HW133365   3.813   5.444   5.628
11007SOL    HW233366   3.918   5.569   5.633
11008SOL     OW33367   5.004   4.651   4.396
11008SOL    HW133368   5.064   4.570   4.398
11008SOL    HW233369   5.044   4.720   4.336
11009SOL     OW33370   4.554   4.997   5.146
11009SOL    HW133371   4.549   5.030   5.241
11009SOL    HW233372   4.468   5.016   5.100
11010SOL     OW33373   4.396   5.340   3.878
11010SOL    HW133374   4.405   5.350   3.779
11010SOL    HW233375   4.356   5.251   3.899
11011SOL     OW33376   5.374   5.444   5.118
11011SOL    HW133377   5.427   5.454   5.034
11011SOL    HW233378   5.347   5.534   5.152
11012SOL     OW33379   5.565   3.899   4.687
11012SOL    HW133380   5.604   3.814   4.651
11012SOL    HW233381   5.467   3.901   4.668
11013SOL     OW33382   3.987   4.050   4.444
11013SOL    HW133383   3.908   4.101   4.410
11013SOL    HW233384   3.978   4.035   4.542
11014SOL     OW33385   4.918   5.336   3.755
11014SOL    HW133386   4.924   5.243   3.792
11014SOL    HW233387   4.859   5.336   3.675
11015SOL     OW33388   4.546   4.726   5.096
11015SOL    HW133389   4.586   4.725   5.004
11015SOL    HW233390   4.556   4.818   5.136
11016SOL     OW33391   4.640   4.634   4.015
11016SOL    HW133392   4.703   4.672   3.947
11016SOL    HW233393   4.680   4.551   4.054
11017SOL     OW33394   5.228   5.331   3.768
11017SOL    HW133395   5.136   5.368   3.775
11017SOL    HW233396   5.266   5.351   3.678
11018SOL     OW33397   4.096   5.012   5.214
11018SOL    HW133398   4.083   5.105   5.180
11018SOL    HW233399   4.012   4.960   5.201
11019SOL     OW33400   5.338   5.016   5.013
11019SOL    HW133401   5.398   5.019   5.093
11019SOL    HW233402   5.263   5.080   5.026
11020SOL     OW33403   4.763   4.822   4.420
11020SOL    HW133404   4.693   4.775   4.474
11020SOL    HW233405   4.822   4.754   4.377
11021SOL     OW33406   4.738   3.960   4.695
11021SOL    HW133407   4.730   3.924   4.602
11021SOL    HW233408   4.736   3.884   4.760
11022SOL     OW33409   5.433   4.109   5.105
11022SOL    HW133410   5.506   4.178   5.109
11022SOL    HW233411   5.461   4.034   5.046
11023SOL     OW33412   3.979   5.072   4.014
11023SOL    HW133413   3.883   5.073   3.987
11023SOL    HW233414   3.991   5.125   4.098
11024SOL     OW33415   3.829   4.737   5.450
11024SOL    HW133416   3.752   4.704   5.504
11024SOL    HW233417   3.914   4.707   5.492
11025SOL     OW33418   4.396   3.927   5.213
11025SOL    HW133419   4.486   3.911   5.173
11025SOL    HW233420   4.404   3.932   5.312
11026SOL     OW33421   3.799   4.069   3.757
11026SOL    HW133422   3.707   4.041   3.728
11026SOL    HW233423   3.830   4.146   3.701
11027SOL     OW33424   5.164   4.580   5.122
11027SOL    HW133425   5.107   4.632   5.059
11027SOL    HW233426   5.260   4.592   5.098
11028SOL     OW33427   3.796   3.890   4.042
11028SOL    HW133428   3.779   3.973   3.988
11028SOL    HW233429   3.886   3.853   4.020
11029SOL     OW33430   4.907   5.059   3.843
11029SOL    HW133431   4.808   5.048   3.845
11029SOL    HW233432   4.941   5.074   3.936
11030SOL     OW33433   4.337   4.566   5.155
11030SOL    HW133434   4.393   4.647   5.138
11030SOL    HW233435   4.396   4.486   5.158
11031SOL     OW33436   5.217   5.491   4.683
11031SOL    HW133437   5.250   5.555   4.614
11031SOL    HW233438   5.283   5.485   4.758
11032SOL     OW33439   4.440   4.289   5.432
11032SOL    HW133440   4.459   4.354   5.506
11032SOL    HW233441   4.500   4.209   5.441
11033SOL     OW33442   5.174   4.944   5.357
11033SOL    HW133443   5.165   4.934   5.456
11033SOL    HW233444   5.270   4.937   5.331
11034SOL     OW33445   4.114   5.465   5.284
11034SOL    HW133446   4.023   5.506   5.282
11034SOL    HW233447   4.107   5.371   5.316
11035SOL     OW33448   5.398   4.607   4.978
11035SOL    HW133449   5.371   4.518   4.941
11035SOL    HW233450   5.399   4.675   4.905
11036SOL     OW33451   4.949   4.049   4.173
11036SOL    HW133452   5.014   3.975   4.162
11036SOL    HW233453   4.969   4.099   4.257
11037SOL     OW33454   4.318   4.469   4.376
11037SOL    HW133455   4.368   4.554   4.357
11037SOL    HW233456   4.230   4.471   4.328
11038SOL     OW33457   5.501   4.066   5.366
11038SOL    HW133458   5.484   4.097   5.272
11038SOL    HW233459   5.417   4.029   5.404
11039SOL     OW33460   5.454   4.658   5.241
11039SOL    HW133461   5.492   4.749   5.256
11039SOL    HW233462   5.446   4.641   5.142
11040SOL     OW33463   4.583   5.098   3.740
11040SOL    HW133464   4.537   5.113   3.828
11040SOL    HW233465   4.627   5.183   3.710
11041SOL     OW33466   4.385   5.514   4.677
11041SOL    HW133467   4.339   5.602   4.664
11041SOL    HW233468   4.484   5.526   4.670
11042SOL     OW33469   4.583   4.680   4.585
11042SOL    HW133470   4.637   4.611   4.633
11042SOL    HW233471   4.551   4.749   4.651
11043SOL     OW33472   4.807   4.708   3.811
11043SOL    HW133473   4.784   4.761   3.729
11043SOL    HW233474   4.888   4.652   3.792
11044SOL     OW33475   5.585   5.293   4.575
11044SOL    HW133476   5.514   5.281   4.505
11044SOL    HW233477   5.586   5.214   4.635
11045SOL     OW33478   3.945   5.038   5.568
11045SOL    HW133479   3.880   4.965   5.547
11045SOL    HW233480   3.949   5.052   5.666
11046SOL     OW33481   3.803   4.964   4.377
11046SOL    HW133482   3.802   4.917   4.465
11046SOL    HW233483   3.885   4.936   4.326
11047SOL     OW33484   4.396   5.115   5.348
11047SOL    HW133485   4.318   5.065   5.386
11047SOL    HW233486   4.393   5.210   5.379
11048SOL     OW33487   5.548   3.916   4.951
11048SOL    HW133488   5.544   3.826   4.995
11048SOL    HW233489   5.551   3.905   4.852
11049SOL     OW33490   4.152   4.148   4.244
11049SOL    HW133491   4.182   4.076   4.182
11049SOL    HW233492   4.113   4.108   4.327
11050SOL     OW33493   5.429   5.211   4.828
11050SOL    HW133494   5.336   5.186   4.801
11050SOL    HW233495   5.455   5.161   4.910
11051SOL     OW33496   4.041   4.271   5.004
11051SOL    HW133497   4.079   4.212   5.076
11051SOL    HW233498   4.081   4.245   4.916
11052SOL     OW33499   4.536   5.310   4.411
11052SOL    HW133500   4.568   5.320   4.317
11052SOL    HW233501   4.457   5.248   4.413
11053SOL     OW33502   5.148   3.938   4.836
11053SOL    HW133503   5.200   3.873   4.891
11053SOL    HW233504   5.099   4.001   4.897
11054SOL     OW33505   4.725   3.758   4.878
11054SOL    HW133506   4.662   3.686   4.847
11054SOL    HW233507   4.818   3.722   4.878
11055SOL     OW33508   4.494   5.054   4.025
11055SOL    HW133509   4.448   4.967   4.042
11055SOL    HW233510   4.585   5.051   4.066
11056SOL     OW33511   4.342   5.291   5.008
11056SOL    HW133512   4.337   5.373   5.065
11056SOL    HW233513   4.431   5.288   4.963
11057SOL     OW33514   5.076   3.776   3.892
11057SOL    HW133515   5.111   3.735   3.808
11057SOL    HW233516   4.986   3.738   3.912
11058SOL     OW33517   5.024   4.177   4.415
11058SOL    HW133518   4.965   4.257   4.419
11058SOL    HW233519   5.039   4.142   4.508
11059SOL     OW33520   5.317   3.945   4.606
11059SOL    HW133521   5.233   3.944   4.660
11059SOL    HW233522   5.319   4.028   4.550
11060SOL     OW33523   3.763   4.801   4.024
11060SOL    HW133524   3.862   4.790   4.015
11060SOL    HW233525   3.723   4.715   4.056
11061SOL     OW33526   4.599   5.370   4.061
11061SOL    HW133527   4.522   5.335   4.007
11061SOL    HW233528   4.567   5.441   4.123
11062SOL     OW33529   3.954   4.352   5.699
11062SOL    HW133530   3.861   4.350   5.736
11062SOL    HW233531   3.955   4.313   5.607
11063SOL     OW33532   3.949   3.999   6.582
11063SOL    HW133533   3.984   3.982   6.674
11063SOL    HW233534   3.861   3.954   6.570
11064SOL     OW33535   3.743   4.092   6.233
11064SOL    HW133536   3.661   4.135   6.272
11064SOL    HW233537   3.715   4.019   6.170
11065SOL     OW33538   4.293   4.999   6.751
11065SOL    HW133539   4.200   4.992   6.714
11065SOL    HW233540   4.304   5.088   6.795
11066SOL     OW33541   5.279   5.235   6.289
11066SOL    HW133542   5.222   5.219   6.370
11066SOL    HW233543   5.220   5.245   6.209
11067SOL     OW33544   4.859   4.427   6.303
11067SOL    HW133545   4.916   4.505   6.278
11067SOL    HW233546   4.799   4.453   6.379
11068SOL     OW33547   5.479   4.331   5.817
11068SOL    HW133548   5.467   4.318   5.718
11068SOL    HW233549   5.449   4.250   5.866
11069SOL     OW33550   4.492   4.868   6.609
11069SOL    HW133551   4.414   4.885   6.669
11069SOL    HW233552   4.526   4.955   6.573
11070SOL     OW33553   4.574   4.522   7.409
11070SOL    HW133554   4.570   4.598   7.474
11070SOL    HW233555   4.596   4.558   7.318
11071SOL     OW33556   4.409   4.736   6.251
11071SOL    HW133557   4.478   4.720   6.321
11071SOL    HW233558   4.336   4.793   6.289
11072SOL     OW33559   4.410   4.885   7.389
11072SOL    HW133560   4.470   4.964   7.403
11072SOL    HW233561   4.324   4.916   7.348
11073SOL     OW33562   4.059   5.159   6.647
11073SOL    HW133563   3.981   5.128   6.594
11073SOL    HW233564   4.117   5.217   6.590
11074SOL     OW33565   5.184   5.229   6.925
11074SOL    HW133566   5.208   5.323   6.951
11074SOL    HW233567   5.168   5.175   7.007
11075SOL     OW33568   4.162   4.116   7.085
11075SOL    HW133569   4.244   4.060   7.094
11075SOL    HW233570   4.081   4.058   7.089
11076SOL     OW33571   5.327   4.171   6.323
11076SOL    HW133572   5.253   4.217   6.273
11076SOL    HW233573   5.378   4.239   6.376
11077SOL     OW33574   3.955   5.437   6.069
11077SOL    HW133575   3.989   5.514   6.123
11077SOL    HW233576   3.999   5.437   5.979
11078SOL     OW33577   4.851   5.065   7.276
11078SOL    HW133578   4.898   5.065   7.364
11078SOL    HW233579   4.803   4.978   7.265
11079SOL     OW33580   3.954   5.158   6.124
11079SOL    HW133581   3.928   5.254   6.124
11079SOL    HW233582   3.883   5.104   6.169
11080SOL     OW33583   3.964   4.815   6.472
11080SOL    HW133584   3.978   4.731   6.524
11080SOL    HW233585   3.909   4.879   6.527
11081SOL     OW33586   4.344   5.510   7.025
11081SOL    HW133587   4.252   5.493   7.060
11081SOL    HW233588   4.372   5.602   7.051
11082SOL     OW33589   4.330   4.688   5.709
11082SOL    HW133590   4.337   4.772   5.655
11082SOL    HW233591   4.376   4.701   5.797
11083SOL     OW33592   5.318   3.838   7.066
11083SOL    HW133593   5.300   3.905   6.994
11083SOL    HW233594   5.315   3.884   7.155
11084SOL     OW33595   3.846   4.367   6.149
11084SOL    HW133596   3.801   4.279   6.166
11084SOL    HW233597   3.845   4.421   6.233
11085SOL     OW33598   5.566   5.491   5.945
11085SOL    HW133599   5.620   5.462   6.025
11085SOL    HW233600   5.596   5.581   5.916
11086SOL     OW33601   3.751   5.320   5.703
11086SOL    HW133602   3.732   5.224   5.724
11086SOL    HW233603   3.718   5.378   5.778
11087SOL     OW33604   5.413   4.646   6.198
11087SOL    HW133605   5.508   4.617   6.206
11087SOL    HW233606   5.405   4.711   6.123
11088SOL     OW33607   5.365   4.832   6.018
11088SOL    HW133608   5.451   4.834   5.966
11088SOL    HW233609   5.379   4.879   6.106
11089SOL     OW33610   3.837   4.461   7.183
11089SOL    HW133611   3.925   4.448   7.228
11089SOL    HW233612   3.824   4.558   7.161
11090SOL     OW33613   4.337   5.089   6.312
11090SOL    HW133614   4.288   5.002   6.321
11090SOL    HW233615   4.314   5.132   6.225
11091SOL     OW33616   5.017   4.952   7.009
11091SOL    HW133617   5.054   4.879   6.951
11091SOL    HW233618   5.069   4.957   7.094
11092SOL     OW33619   4.533   3.728   6.088
11092SOL    HW133620   4.573   3.819   6.079
11092SOL    HW233621   4.433   3.736   6.094
11093SOL     OW33622   3.921   4.700   6.850
11093SOL    HW133623   4.010   4.655   6.836
11093SOL    HW233624   3.848   4.635   6.831
11094SOL     OW33625   5.249   4.723   5.776
11094SOL    HW133626   5.186   4.647   5.789
11094SOL    HW233627   5.297   4.741   5.862
11095SOL     OW33628   4.911   5.516   7.202
11095SOL    HW133629   4.935   5.576   7.126
11095SOL    HW233630   4.918   5.421   7.172
11096SOL     OW33631   4.041   3.975   7.387
11096SOL    HW133632   4.112   4.046   7.393
11096SOL    HW233633   3.953   4.014   7.415
11097SOL     OW33634   5.190   5.141   6.539
11097SOL    HW133635   5.131   5.147   6.619
11097SOL    HW233636   5.175   5.053   6.493
11098SOL     OW33637   5.391   5.438   6.158
11098SOL    HW133638   5.350   5.415   6.070
11098SOL    HW233639   5.373   5.364   6.223
11099SOL     OW33640   4.322   4.453   5.856
11099SOL    HW133641   4.346   4.522   5.788
11099SOL    HW233642   4.244   4.486   5.910
11100SOL     OW33643   5.005   4.069   6.530
11100SOL    HW133644   4.919   4.019   6.517
11100SOL    HW233645   5.067   4.015   6.586
11101SOL     OW33646   5.300   5.386   5.893
11101SOL    HW133647   5.389   5.432   5.896
11101SOL    HW233648   5.279   5.362   5.798
11102SOL     OW33649   4.531   4.329   7.051
11102SOL    HW133650   4.484   4.326   7.140
11102SOL    HW233651   4.480   4.274   6.985
11103SOL     OW33652   5.118   4.193   7.260
11103SOL    HW133653   5.098   4.236   7.348
11103SOL    HW233654   5.196   4.131   7.269
11104SOL     OW33655   4.697   4.614   7.158
11104SOL    HW133656   4.743   4.530   7.129
11104SOL    HW233657   4.641   4.648   7.083
11105SOL     OW33658   4.715   4.134   6.828
11105SOL    HW133659   4.638   4.168   6.882
11105SOL    HW233660   4.681   4.083   6.749
11106SOL     OW33661   4.765   4.425   6.015
11106SOL    HW133662   4.791   4.421   6.111
11106SOL    HW233663   4.680   4.374   6.001
11107SOL     OW33664   3.800   4.535   6.375
11107SOL    HW133665   3.899   4.523   6.384
11107SOL    HW233666   3.776   4.630   6.396
11108SOL     OW33667   3.854   5.545   7.157
11108SOL    HW133668   3.844   5.530   7.256
11108SOL    HW233669   3.768   5.581   7.121
11109SOL     OW33670   4.589   4.072   5.781
11109SOL    HW133671   4.648   4.135   5.732
11109SOL    HW233672   4.608   3.978   5.752
11110SOL     OW33673   5.443   4.309   7.417
11110SOL    HW133674   5.417   4.398   7.381
11110SOL    HW233675   5.441   4.241   7.344
11111SOL     OW33676   5.086   4.868   6.131
11111SOL    HW133677   5.169   4.839   6.083
11111SOL    HW233678   5.037   4.935   6.075
11112SOL     OW33679   4.274   3.920   6.471
11112SOL    HW133680   4.269   3.915   6.571
11112SOL    HW233681   4.276   4.016   6.442
11113SOL     OW33682   4.732   5.180   6.063
11113SOL    HW133683   4.686   5.252   6.011
11113SOL    HW233684   4.728   5.200   6.161
11114SOL     OW33685   4.075   5.525   6.439
11114SOL    HW133686   4.125   5.439   6.445
11114SOL    HW233687   4.140   5.602   6.436
11115SOL     OW33688   5.519   4.790   6.459
11115SOL    HW133689   5.457   4.775   6.383
11115SOL    HW233690   5.467   4.801   6.544
11116SOL     OW33691   4.951   5.274   7.092
11116SOL    HW133692   4.957   5.197   7.156
11116SOL    HW233693   4.899   5.248   7.012
11117SOL     OW33694   4.045   4.667   5.828
11117SOL    HW133695   4.127   4.706   5.786
11117SOL    HW233696   4.018   4.585   5.779
11118SOL     OW33697   5.182   4.459   6.314
11118SOL    HW133698   5.177   4.394   6.389
11118SOL    HW233699   5.262   4.518   6.327
11119SOL     OW33700   4.185   4.990   7.313
11119SOL    HW133701   4.135   4.991   7.227
11119SOL    HW233702   4.122   4.972   7.389
11120SOL     OW33703   4.835   5.500   5.823
11120SOL    HW133704   4.775   5.438   5.873
11120SOL    HW233705   4.866   5.456   5.738
11121SOL     OW33706   3.926   4.009   7.084
11121SOL    HW133707   3.846   4.069   7.071
11121SOL    HW233708   3.916   3.960   7.170
11122SOL     OW33709   5.356   5.101   5.667
11122SOL    HW133710   5.324   5.195   5.657
11122SOL    HW233711   5.280   5.038   5.655
11123SOL     OW33712   4.188   5.467   5.909
11123SOL    HW133713   4.221   5.506   5.995
11123SOL    HW233714   4.264   5.460   5.844
11124SOL     OW33715   5.124   3.831   6.012
11124SOL    HW133716   5.100   3.794   5.922
11124SOL    HW233717   5.223   3.847   6.016
11125SOL     OW33718   3.973   5.509   6.827
11125SOL    HW133719   4.030   5.444   6.877
11125SOL    HW233720   3.957   5.476   6.734
11126SOL     OW33721   4.664   5.422   6.490
11126SOL    HW133722   4.744   5.365   6.511
11126SOL    HW233723   4.615   5.382   6.413
11127SOL     OW33724   4.106   4.424   6.066
11127SOL    HW133725   4.151   4.334   6.063
11127SOL    HW233726   4.012   4.413   6.099
11128SOL     OW33727   5.271   3.946   7.315
11128SOL    HW133728   5.266   3.983   7.407
11128SOL    HW233729   5.199   3.877   7.303
11129SOL     OW33730   4.338   3.846   5.703
11129SOL    HW133731   4.436   3.824   5.710
11129SOL    HW233732   4.307   3.829   5.610
11130SOL     OW33733   4.505   3.988   7.335
11130SOL    HW133734   4.572   3.927   7.378
11130SOL    HW233735   4.432   4.007   7.400
11131SOL     OW33736   4.612   5.238   6.781
11131SOL    HW133737   4.589   5.213   6.687
11131SOL    HW233738   4.673   5.169   6.820
11132SOL     OW33739   5.075   4.314   7.019
11132SOL    HW133740   5.103   4.271   7.104
11132SOL    HW233741   5.100   4.410   7.020
11133SOL     OW33742   4.527   5.126   6.510
11133SOL    HW133743   4.617   5.140   6.468
11133SOL    HW233744   4.456   5.128   6.439
11134SOL     OW33745   4.646   4.227   6.485
11134SOL    HW133746   4.621   4.218   6.389
11134SOL    HW233747   4.694   4.145   6.516
11135SOL     OW33748   4.263   3.788   6.098
11135SOL    HW133749   4.182   3.789   6.156
11135SOL    HW233750   4.266   3.871   6.043
11136SOL     OW33751   5.158   4.912   5.627
11136SOL    HW133752   5.190   4.836   5.684
11136SOL    HW233753   5.066   4.939   5.657
11137SOL     OW33754   4.021   3.759   5.757
11137SOL    HW133755   4.070   3.843   5.736
11137SOL    HW233756   4.083   3.694   5.802
11138SOL     OW33757   4.659   3.960   6.066
11138SOL    HW133758   4.611   4.001   5.988
11138SOL    HW233759   4.758   3.958   6.047
11139SOL     OW33760   4.800   4.407   7.050
11139SOL    HW133761   4.720   4.346   7.053
11139SOL    HW233762   4.881   4.354   7.026
11140SOL     OW33763   4.951   5.294   6.379
11140SOL    HW133764   4.972   5.368   6.314
11140SOL    HW233765   5.019   5.294   6.452
11141SOL     OW33766   4.183   4.876   6.327
11141SOL    HW133767   4.112   4.849   6.392
11141SOL    HW233768   4.157   4.848   6.234
11142SOL     OW33769   4.995   5.521   6.177
11142SOL    HW133770   5.039   5.585   6.113
11142SOL    HW233771   4.945   5.573   6.247
11143SOL     OW33772   4.756   4.273   5.602
11143SOL    HW133773   4.715   4.355   5.563
11143SOL    HW233774   4.820   4.299   5.675
11144SOL     OW33775   3.802   4.280   6.972
11144SOL    HW133776   3.894   4.279   6.931
11144SOL    HW233777   3.796   4.354   7.039
11145SOL     OW33778   4.285   3.946   6.733
11145SOL    HW133779   4.323   3.862   6.770
11145SOL    HW233780   4.197   3.965   6.777
11146SOL     OW33781   4.590   4.178   6.228
11146SOL    HW133782   4.558   4.250   6.166
11146SOL    HW233783   4.614   4.097   6.175
11147SOL     OW33784   4.741   3.763   6.339
11147SOL    HW133785   4.669   3.768   6.270
11147SOL    HW233786   4.717   3.694   6.408
11148SOL     OW33787   5.153   4.897   6.453
11148SOL    HW133788   5.098   4.813   6.446
11148SOL    HW233789   5.179   4.926   6.361
11149SOL     OW33790   5.190   4.314   6.578
11149SOL    HW133791   5.160   4.219   6.585
11149SOL    HW233792   5.263   4.330   6.644
11150SOL     OW33793   5.581   4.557   5.963
11150SOL    HW133794   5.623   4.493   6.027
11150SOL    HW233795   5.543   4.506   5.885
11151SOL     OW33796   4.212   5.109   5.760
11151SOL    HW133797   4.125   5.094   5.807
11151SOL    HW233798   4.195   5.135   5.665
11152SOL     OW33799   5.388   5.004   6.243
11152SOL    HW133800   5.487   5.012   6.257
11152SOL    HW233801   5.343   5.088   6.274
11153SOL     OW33802   5.114   4.299   5.664
11153SOL    HW133803   5.060   4.278   5.745
11153SOL    HW233804   5.205   4.258   5.673
11154SOL     OW33805   4.251   3.980   5.914
11154SOL    HW133806   4.278   3.921   5.839
11154SOL    HW233807   4.251   4.075   5.883
11155SOL     OW33808   5.478   4.947   7.174
11155SOL    HW133809   5.569   4.908   7.161
11155SOL    HW233810   5.486   5.043   7.198
11156SOL     OW33811   4.788   5.071   6.926
11156SOL    HW133812   4.708   5.048   6.981
11156SOL    HW233813   4.871   5.045   6.975
11157SOL     OW33814   5.316   5.353   7.211
11157SOL    HW133815   5.343   5.387   7.121
11157SOL    HW233816   5.395   5.315   7.257
11158SOL     OW33817   4.835   4.919   6.686
11158SOL    HW133818   4.795   4.963   6.767
11158SOL    HW233819   4.794   4.956   6.603
11159SOL     OW33820   5.362   4.823   6.665
11159SOL    HW133821   5.367   4.904   6.724
11159SOL    HW233822   5.276   4.825   6.614
11160SOL     OW33823   4.639   3.813   6.988
11160SOL    HW133824   4.664   3.793   6.893
11160SOL    HW233825   4.711   3.869   7.030
11161SOL     OW33826   4.704   4.840   7.305
11161SOL    HW133827   4.605   4.846   7.315
11161SOL    HW233828   4.727   4.760   7.249
11162SOL     OW33829   4.429   4.774   5.954
11162SOL    HW133830   4.415   4.781   6.053
11162SOL    HW233831   4.513   4.723   5.936
11163SOL     OW33832   4.134   4.537   6.837
11163SOL    HW133833   4.220   4.549   6.887
11163SOL    HW233834   4.092   4.450   6.864
11164SOL     OW33835   4.998   4.110   6.848
11164SOL    HW133836   5.019   4.184   6.912
11164SOL    HW233837   4.909   4.127   6.805
11165SOL     OW33838   3.788   5.288   6.917
11165SOL    HW133839   3.742   5.370   6.883
11165SOL    HW233840   3.886   5.307   6.926
11166SOL     OW33841   4.091   4.824   6.087
11166SOL    HW133842   4.084   4.907   6.031
11166SOL    HW233843   4.095   4.744   6.027
11167SOL     OW33844   4.290   4.261   6.451
11167SOL    HW133845   4.302   4.327   6.377
11167SOL    HW233846   4.336   4.295   6.534
11168SOL     OW33847   4.976   5.072   5.974
11168SOL    HW133848   5.026   5.149   6.014
11168SOL    HW233849   4.881   5.074   6.006
11169SOL     OW33850   4.996   5.169   6.728
11169SOL    HW133851   5.043   5.182   6.815
11169SOL    HW233852   4.930   5.095   6.737
11170SOL     OW33853   5.306   4.363   6.058
11170SOL    HW133854   5.275   4.424   6.131
11170SOL    HW233855   5.356   4.415   5.989
11171SOL     OW33856   4.078   5.234   6.915
11171SOL    HW133857   4.057   5.190   6.828
11171SOL    HW233858   4.175   5.260   6.918
11172SOL     OW33859   4.126   4.475   7.184
11172SOL    HW133860   4.194   4.530   7.137
11172SOL    HW233861   4.166   4.387   7.211
11173SOL     OW33862   5.311   4.503   7.256
11173SOL    HW133863   5.219   4.541   7.251
11173SOL    HW233864   5.371   4.550   7.191
11174SOL     OW33865   4.737   3.829   7.356
11174SOL    HW133866   4.743   3.914   7.304
11174SOL    HW233867   4.769   3.753   7.299
11175SOL     OW33868   4.228   3.774   7.326
11175SOL    HW133869   4.186   3.717   7.256
11175SOL    HW233870   4.162   3.843   7.358
11176SOL     OW33871   4.297   4.594   6.615
11176SOL    HW133872   4.341   4.683   6.606
11176SOL    HW233873   4.234   4.594   6.692
11177SOL     OW33874   5.084   4.586   6.631
11177SOL    HW133875   5.009   4.586   6.565
11177SOL    HW233876   5.121   4.494   6.640
11178SOL     OW33877   4.933   4.249   5.861
11178SOL    HW133878   4.946   4.165   5.915
11178SOL    HW233879   4.904   4.323   5.921
11179SOL     OW33880   4.031   3.937   6.817
11179SOL    HW133881   4.008   3.974   6.907
11179SOL    HW233882   4.001   3.842   6.811
11180SOL     OW33883   3.761   5.034   6.868
11180SOL    HW133884   3.814   4.985   6.936
11180SOL    HW233885   3.783   5.132   6.873
11181SOL     OW33886   4.456   4.358   6.650
11181SOL    HW133887   4.515   4.332   6.574
11181SOL    HW233888   4.428   4.454   6.639
11182SOL     OW33889   5.452   4.659   7.440
11182SOL    HW133890   5.406   4.652   7.351
11182SOL    HW233891   5.390   4.703   7.506
11183SOL     OW33892   4.031   3.787   6.204
11183SOL    HW133893   4.020   3.881   6.237
11183SOL    HW233894   4.026   3.724   6.281
11184SOL     OW33895   5.346   4.091   5.960
11184SOL    HW133896   5.348   4.015   6.024
11184SOL    HW233897   5.298   4.168   6.000
11185SOL     OW33898   4.747   4.490   6.552
11185SOL    HW133899   4.762   4.511   6.648
11185SOL    HW233900   4.717   4.395   6.543
11186SOL     OW33901   4.704   5.297   7.286
11186SOL    HW133902   4.684   5.341   7.198
11186SOL    HW233903   4.743   5.206   7.270
11187SOL     OW33904   5.583   5.242   7.191
11187SOL    HW133905   5.597   5.269   7.096
11187SOL    HW233906   5.666   5.264   7.244
11188SOL     OW33907   4.074   4.622   7.390
11188SOL    HW133908   4.150   4.666   7.438
11188SOL    HW233909   4.109   4.575   7.308
11189SOL     OW33910   5.264   3.998   5.711
11189SOL    HW133911   5.203   3.923   5.734
11189SOL    HW233912   5.286   4.050   5.794
11190SOL     OW33913   5.027   4.562   5.628
11190SOL    HW133914   5.061   4.469   5.643
11190SOL    HW233915   5.045   4.589   5.533
11191SOL     OW33916   4.792   5.057   6.435
11191SOL    HW133917   4.799   4.973   6.380
11191SOL    HW233918   4.854   5.126   6.399
11192SOL     OW33919   4.043   4.534   6.535
11192SOL    HW133920   4.136   4.570   6.540
11192SOL    HW233921   4.037   4.449   6.587
11193SOL     OW33922   4.063   4.233   6.592
11193SOL    HW133923   4.011   4.150   6.575
11193SOL    HW233924   4.140   4.238   6.528
11194SOL     OW33925   4.862   4.104   7.264
11194SOL    HW133926   4.817   4.167   7.328
11194SOL    HW233927   4.955   4.135   7.247
11195SOL     OW33928   4.884   3.931   7.063
11195SOL    HW133929   4.884   3.995   7.140
11195SOL    HW233930   4.912   3.979   6.980
11196SOL     OW33931   3.732   5.050   5.786
11196SOL    HW133932   3.639   5.071   5.755
11196SOL    HW233933   3.742   4.951   5.799
11197SOL     OW33934   3.812   5.525   6.513
11197SOL    HW133935   3.770   5.439   6.486
11197SOL    HW233936   3.906   5.528   6.479
11198SOL     OW33937   4.228   5.292   6.496
11198SOL    HW133938   4.294   5.366   6.505
11198SOL    HW233939   4.272   5.213   6.454
11199SOL     OW33940   4.726   4.520   6.824
11199SOL    HW133941   4.767   4.488   6.910
11199SOL    HW233942   4.630   4.493   6.821
11200SOL     OW33943   3.764   4.268   6.700
11200SOL    HW133944   3.849   4.235   6.659
11200SOL    HW233945   3.777   4.283   6.798
11201SOL     OW33946   3.913   4.244   7.308
11201SOL    HW133947   3.972   4.204   7.238
11201SOL    HW233948   3.855   4.315   7.267
11202SOL     OW33949   5.093   4.674   7.246
11202SOL    HW133950   5.132   4.763   7.266
11202SOL    HW233951   5.103   4.654   7.149
11203SOL     OW33952   4.539   4.296   5.911
11203SOL    HW133953   4.546   4.207   5.865
11203SOL    HW233954   4.445   4.330   5.903
11204SOL     OW33955   5.381   4.328   6.792
11204SOL    HW133956   5.343   4.259   6.854
11204SOL    HW233957   5.463   4.292   6.748
11205SOL     OW33958   3.976   5.288   7.330
11205SOL    HW133959   3.946   5.345   7.406
11205SOL    HW233960   3.969   5.191   7.356
11206SOL     OW33961   4.395   4.188   6.855
11206SOL    HW133962   4.361   4.099   6.825
11206SOL    HW233963   4.421   4.242   6.775
11207SOL     OW33964   4.654   5.402   7.051
11207SOL    HW133965   4.630   5.384   6.956
11207SOL    HW233966   4.684   5.496   7.061
11208SOL     OW33967   4.197   4.224   5.777
11208SOL    HW133968   4.258   4.304   5.781
11208SOL    HW233969   4.102   4.255   5.784
11209SOL     OW33970   3.883   4.861   7.052
11209SOL    HW133971   3.905   4.800   7.128
11209SOL    HW233972   3.893   4.812   6.966
11210SOL     OW33973   5.071   4.783   6.820
11210SOL    HW133974   5.095   4.720   6.746
11210SOL    HW233975   4.981   4.823   6.802
11211SOL     OW33976   5.026   4.579   5.895
11211SOL    HW133977   4.940   4.548   5.937
11211SOL    HW233978   5.022   4.565   5.796
11212SOL     OW33979   5.483   5.471   6.740
11212SOL    HW133980   5.544   5.501   6.667
11212SOL    HW233981   5.445   5.382   6.718
11213SOL     OW33982   4.976   5.455   6.714
11213SOL    HW133983   5.060   5.460   6.660
11213SOL    HW233984   4.953   5.359   6.732
11214SOL     OW33985   3.807   4.982   6.608
11214SOL    HW133986   3.802   4.981   6.708
11214SOL    HW233987   3.724   4.941   6.570
11215SOL     OW33988   4.412   5.386   7.302
11215SOL    HW133989   4.356   5.467   7.311
11215SOL    HW233990   4.464   5.390   7.216
11216SOL     OW33991   5.450   3.859   6.109
11216SOL    HW133992   5.523   3.842   6.042
11216SOL    HW233993   5.419   3.772   6.147
11217SOL     OW33994   5.112   5.297   6.063
11217SOL    HW133995   5.179   5.309   5.989
11217SOL    HW233996   5.072   5.386   6.086
11218SOL     OW33997   3.854   5.518   7.437
11218SOL    HW133998   3.813   5.444   7.490
11218SOL    HW233999   3.918   5.569   7.495
11219SOL     OW34000   5.004   4.651   6.258
11219SOL    HW134001   5.064   4.570   6.260
11219SOL    HW234002   5.044   4.720   6.198
11220SOL     OW34003   4.554   4.997   7.008
11220SOL    HW134004   4.549   5.030   7.103
11220SOL    HW234005   4.468   5.016   6.962
11221SOL     OW34006   4.396   5.340   5.740
11221SOL    HW134007   4.405   5.350   5.641
11221SOL    HW234008   4.356   5.251   5.761
11222SOL     OW34009   5.374   5.444   6.980
11222SOL    HW134010   5.427   5.454   6.896
11222SOL    HW234011   5.347   5.534   7.014
11223SOL     OW34012   5.565   3.899   6.549
11223SOL    HW134013   5.604   3.814   6.513
11223SOL    HW234014   5.467   3.901   6.530
11224SOL     OW34015   3.987   4.050   6.306
11224SOL    HW134016   3.908   4.101   6.272
11224SOL    HW234017   3.978   4.035   6.404
11225SOL     OW34018   4.918   5.336   5.617
11225SOL    HW134019   4.924   5.243   5.654
11225SOL    HW234020   4.859   5.336   5.537
11226SOL     OW34021   4.546   4.726   6.958
11226SOL    HW134022   4.586   4.725   6.866
11226SOL    HW234023   4.556   4.818   6.998
11227SOL     OW34024   4.640   4.634   5.877
11227SOL    HW134025   4.703   4.672   5.809
11227SOL    HW234026   4.680   4.551   5.916
11228SOL     OW34027   5.228   5.331   5.630
11228SOL    HW134028   5.136   5.368   5.637
11228SOL    HW234029   5.266   5.351   5.540
11229SOL     OW34030   4.096   5.012   7.076
11229SOL    HW134031   4.083   5.105   7.042
11229SOL    HW234032   4.012   4.960   7.063
11230SOL     OW34033   5.338   5.016   6.875
11230SOL    HW134034   5.398   5.019   6.955
11230SOL    HW234035   5.263   5.080   6.888
11231SOL     OW34036   4.763   4.822   6.282
11231SOL    HW134037   4.693   4.775   6.336
11231SOL    HW234038   4.822   4.754   6.239
11232SOL     OW34039   4.738   3.960   6.557
11232SOL    HW134040   4.730   3.924   6.464
11232SOL    HW234041   4.736   3.884   6.622
11233SOL     OW34042   4.314   5.211   6.077
11233SOL    HW134043   4.356   5.153   6.007
11233SOL    HW234044   4.270   5.290   6.033
11234SOL     OW34045   5.433   4.109   6.967
11234SOL    HW134046   5.506   4.178   6.971
11234SOL    HW234047   5.461   4.034   6.908
11235SOL     OW34048   3.979   5.072   5.876
11235SOL    HW134049   3.883   5.073   5.849
11235SOL    HW234050   3.991   5.125   5.960
11236SOL     OW34051   3.829   4.737   7.312
11236SOL    HW134052   3.752   4.704   7.366
11236SOL    HW234053   3.914   4.707   7.354
11237SOL     OW34054   4.396   3.927   7.075
11237SOL    HW134055   4.486   3.911   7.035
11237SOL    HW234056   4.404   3.932   7.174
11238SOL     OW34057   3.799   4.069   5.619
11238SOL    HW134058   3.707   4.041   5.590
11238SOL    HW234059   3.830   4.146   5.563
11239SOL     OW34060   5.164   4.580   6.984
11239SOL    HW134061   5.107   4.632   6.921
11239SOL    HW234062   5.260   4.592   6.960
11240SOL     OW34063   3.796   3.890   5.904
11240SOL    HW134064   3.779   3.973   5.850
11240SOL    HW234065   3.886   3.853   5.882
11241SOL     OW34066   4.907   5.059   5.705
11241SOL    HW134067   4.808   5.048   5.707
11241SOL    HW234068   4.941   5.074   5.798
11242SOL     OW34069   4.337   4.566   7.017
11242SOL    HW134070   4.393   4.647   7.000
11242SOL    HW234071   4.396   4.486   7.020
11243SOL     OW34072   5.217   5.491   6.545
11243SOL    HW134073   5.250   5.555   6.476
11243SOL    HW234074   5.283   5.485   6.620
11244SOL     OW34075   4.440   4.289   7.294
11244SOL    HW134076   4.459   4.354   7.368
11244SOL    HW234077   4.500   4.209   7.303
11245SOL     OW34078   5.174   4.944   7.219
11245SOL    HW134079   5.165   4.934   7.318
11245SOL    HW234080   5.270   4.937   7.193
11246SOL     OW34081   4.114   5.465   7.146
11246SOL    HW134082   4.023   5.506   7.144
11246SOL    HW234083   4.107   5.371   7.178
11247SOL     OW34084   5.398   4.607   6.840
11247SOL    HW134085   5.371   4.518   6.803
11247SOL    HW234086   5.399   4.675   6.767
11248SOL     OW34087   4.949   4.049   6.035
11248SOL    HW134088   5.014   3.975   6.024
11248SOL    HW234089   4.969   4.099   6.119
11249SOL     OW34090   4.318   4.469   6.238
11249SOL    HW134091   4.368   4.554   6.219
11249SOL    HW234092   4.230   4.471   6.190
11250SOL     OW34093   5.501   4.066   7.228
11250SOL    HW134094   5.484   4.097   7.134
11250SOL    HW234095   5.417   4.029   7.266
11251SOL     OW34096   5.454   4.658   7.103
11251SOL    HW134097   5.492   4.749   7.118
11251SOL    HW234098   5.446   4.641   7.004
11252SOL     OW34099   4.583   5.098   5.602
11252SOL    HW134100   4.537   5.113   5.690
11252SOL    HW234101   4.627   5.183   5.572
11253SOL     OW34102   4.385   5.514   6.539
11253SOL    HW134103   4.339   5.602   6.526
11253SOL    HW234104   4.484   5.526   6.532
11254SOL     OW34105   4.583   4.680   6.447
11254SOL    HW134106   4.637   4.611   6.495
11254SOL    HW234107   4.551   4.749   6.513
11255SOL     OW34108   4.807   4.708   5.673
11255SOL    HW134109   4.784   4.761   5.591
11255SOL    HW234110   4.888   4.652   5.654
11256SOL     OW34111   5.585   5.293   6.437
11256SOL    HW134112   5.514   5.281   6.367
11256SOL    HW234113   5.586   5.214   6.497
11257SOL     OW34114   3.945   5.038   7.430
11257SOL    HW134115   3.880   4.965   7.409
11257SOL    HW234116   3.949   5.052   7.528
11258SOL     OW34117   3.803   4.964   6.239
11258SOL    HW134118   3.802   4.917   6.327
11258SOL    HW234119   3.885   4.936   6.188
11259SOL     OW34120   4.396   5.115   7.210
11259SOL    HW134121   4.318   5.065   7.248
11259SOL    HW234122   4.393   5.210   7.241
11260SOL     OW34123   5.548   3.916   6.813
11260SOL    HW134124   5.544   3.826   6.857
11260SOL    HW234125   5.551   3.905   6.714
11261SOL     OW34126   4.152   4.148   6.106
11261SOL    HW134127   4.182   4.076   6.044
11261SOL    HW234128   4.113   4.108   6.189
11262SOL     OW34129   5.429   5.211   6.690
11262SOL    HW134130   5.336   5.186   6.663
11262SOL    HW234131   5.455   5.161   6.772
11263SOL     OW34132   4.041   4.271   6.866
11263SOL    HW134133   4.079   4.212   6.938
11263SOL    HW234134   4.081   4.245   6.778
11264SOL     OW34135   4.536   5.310   6.273
11264SOL    HW134136   4.568   5.320   6.179
11264SOL    HW234137   4.457   5.248   6.275
11265SOL     OW34138   5.148   3.938   6.698
11265SOL    HW134139   5.200   3.873   6.753
11265SOL    HW234140   5.099   4.001   6.759
11266SOL     OW34141   4.725   3.758   6.740
11266SOL    HW134142   4.662   3.686   6.709
11266SOL    HW234143   4.818   3.722   6.740
11267SOL     OW34144   4.494   5.054   5.887
11267SOL    HW134145   4.448   4.967   5.904
11267SOL    HW234146   4.585   5.051   5.928
11268SOL     OW34147   4.342   5.291   6.870
11268SOL    HW134148   4.337   5.373   6.927
11268SOL    HW234149   4.431   5.288   6.825
11269SOL     OW34150   5.076   3.776   5.754
11269SOL    HW134151   5.111   3.735   5.670
11269SOL    HW234152   4.986   3.738   5.774
11270SOL     OW34153   5.024   4.177   6.277
11270SOL    HW134154   4.965   4.257   6.281
11270SOL    HW234155   5.039   4.142   6.370
11271SOL     OW34156   5.317   3.945   6.468
11271SOL    HW134157   5.233   3.944   6.522
11271SOL    HW234158   5.319   4.028   6.412
11272SOL     OW34159   3.763   4.801   5.886
11272SOL    HW134160   3.862   4.790   5.877
11272SOL    HW234161   3.723   4.715   5.918
11273SOL     OW34162   4.599   5.370   5.923
11273SOL    HW134163   4.522   5.335   5.869
11273SOL    HW234164   4.567   5.441   5.985
11274SOL     OW34165   3.955   5.437   7.931
11274SOL    HW134166   3.989   5.514   7.985
11274SOL    HW234167   3.999   5.437   7.841
11275SOL     OW34168   5.566   5.491   7.807
11275SOL    HW134169   5.620   5.462   7.887
11275SOL    HW234170   5.596   5.581   7.778
11276SOL     OW34171   3.751   5.320   7.565
11276SOL    HW134172   3.732   5.224   7.586
11276SOL    HW234173   3.718   5.378   7.640
11277SOL     OW34174   5.365   4.832   7.880
11277SOL    HW134175   5.451   4.834   7.828
11277SOL    HW234176   5.379   4.879   7.968
11278SOL     OW34177   5.249   4.723   7.638
11278SOL    HW134178   5.186   4.647   7.651
11278SOL    HW234179   5.297   4.741   7.724
11279SOL     OW34180   5.391   5.438   8.020
11279SOL    HW134181   5.350   5.415   7.932
11279SOL    HW234182   5.373   5.364   8.085
11280SOL     OW34183   5.300   5.386   7.755
11280SOL    HW134184   5.389   5.432   7.758
11280SOL    HW234185   5.279   5.362   7.660
11281SOL     OW34186   5.086   4.868   7.993
11281SOL    HW134187   5.169   4.839   7.945
11281SOL    HW234188   5.037   4.935   7.937
11282SOL     OW34189   4.732   5.180   7.925
11282SOL    HW134190   4.686   5.252   7.873
11282SOL    HW234191   4.728   5.200   8.023
11283SOL     OW34192   4.045   4.667   7.690
11283SOL    HW134193   4.127   4.706   7.648
11283SOL    HW234194   4.018   4.585   7.641
11284SOL     OW34195   4.835   5.500   7.685
11284SOL    HW134196   4.775   5.438   7.735
11284SOL    HW234197   4.866   5.456   7.600
11285SOL     OW34198   5.356   5.101   7.529
11285SOL    HW134199   5.324   5.195   7.519
11285SOL    HW234200   5.280   5.038   7.517
11286SOL     OW34201   4.188   5.467   7.771
11286SOL    HW134202   4.221   5.506   7.857
11286SOL    HW234203   4.264   5.460   7.706
11287SOL     OW34204   5.158   4.912   7.489
11287SOL    HW134205   5.190   4.836   7.546
11287SOL    HW234206   5.066   4.939   7.519
11288SOL     OW34207   4.756   4.273   7.464
11288SOL    HW134208   4.715   4.355   7.425
11288SOL    HW234209   4.820   4.299   7.537
11289SOL     OW34210   4.212   5.109   7.622
11289SOL    HW134211   4.125   5.094   7.669
11289SOL    HW234212   4.195   5.135   7.527
11290SOL     OW34213   5.114   4.299   7.526
11290SOL    HW134214   5.060   4.278   7.607
11290SOL    HW234215   5.205   4.258   7.535
11291SOL     OW34216   4.091   4.824   7.949
11291SOL    HW134217   4.084   4.907   7.893
11291SOL    HW234218   4.095   4.744   7.889
11292SOL     OW34219   4.976   5.072   7.836
11292SOL    HW134220   5.026   5.149   7.876
11292SOL    HW234221   4.881   5.074   7.868
11293SOL     OW34222   5.264   3.998   7.573
11293SOL    HW134223   5.203   3.923   7.596
11293SOL    HW234224   5.286   4.050   7.656
11294SOL     OW34225   5.027   4.562   7.490
11294SOL    HW134226   5.061   4.469   7.505
11294SOL    HW234227   5.045   4.589   7.395
11295SOL     OW34228   3.732   5.050   7.648
11295SOL    HW134229   3.639   5.071   7.617
11295SOL    HW234230   3.742   4.951   7.661
11296SOL     OW34231   4.197   4.224   7.639
11296SOL    HW134232   4.258   4.304   7.643
11296SOL    HW234233   4.102   4.255   7.646
11297SOL     OW34234   5.112   5.297   7.925
11297SOL    HW134235   5.179   5.309   7.851
11297SOL    HW234236   5.072   5.386   7.948
11298SOL     OW34237   4.396   5.340   7.602
11298SOL    HW134238   4.405   5.350   7.503
11298SOL    HW234239   4.356   5.251   7.623
11299SOL     OW34240   4.918   5.336   7.479
11299SOL    HW134241   4.924   5.243   7.516
11299SOL    HW234242   4.859   5.336   7.399
11300SOL     OW34243   5.228   5.331   7.492
11300SOL    HW134244   5.136   5.368   7.499
11300SOL    HW234245   5.266   5.351   7.402
11301SOL     OW34246   4.314   5.211   7.939
11301SOL    HW134247   4.356   5.153   7.869
11301SOL    HW234248   4.270   5.290   7.895
11302SOL     OW34249   3.979   5.072   7.738
11302SOL    HW134250   3.883   5.073   7.711
11302SOL    HW234251   3.991   5.125   7.822
11303SOL     OW34252   3.799   4.069   7.481
11303SOL    HW134253   3.707   4.041   7.452
11303SOL    HW234254   3.830   4.146   7.425
11304SOL     OW34255   4.907   5.059   7.567
11304SOL    HW134256   4.808   5.048   7.569
11304SOL    HW234257   4.941   5.074   7.660
11305SOL     OW34258   4.583   5.098   7.464
11305SOL    HW134259   4.537   5.113   7.552
11305SOL    HW234260   4.627   5.183   7.434
11306SOL     OW34261   4.807   4.708   7.535
11306SOL    HW134262   4.784   4.761   7.453
11306SOL    HW234263   4.888   4.652   7.516
11307SOL     OW34264   4.494   5.054   7.749
11307SOL    HW134265   4.448   4.967   7.766
11307SOL    HW234266   4.585   5.051   7.790
11308SOL     OW34267   5.076   3.776   7.616
11308SOL    HW134268   5.111   3.735   7.532
11308SOL    HW234269   4.986   3.738   7.636
11309SOL     OW34270   3.763   4.801   7.748
11309SOL    HW134271   3.862   4.790   7.739
11309SOL    HW234272   3.723   4.715   7.780
11310SOL     OW34273   4.599   5.370   7.785
11310SOL    HW134274   4.522   5.335   7.731
11310SOL    HW234275   4.567   5.441   7.847
11311SOL     OW34276   3.954   6.214   0.113
11311SOL    HW134277   3.861   6.212   0.150
11311SOL    HW234278   3.955   6.175   0.021
11312SOL     OW34279   3.949   5.861   0.996
11312SOL    HW134280   3.984   5.844   1.088
11312SOL    HW234281   3.861   5.816   0.984
11313SOL     OW34282   3.743   5.954   0.647
11313SOL    HW134283   3.661   5.997   0.686
11313SOL    HW234284   3.715   5.881   0.584
11314SOL     OW34285   4.293   6.861   1.165
11314SOL    HW134286   4.200   6.854   1.128
11314SOL    HW234287   4.304   6.950   1.209
11315SOL     OW34288   5.279   7.097   0.703
11315SOL    HW134289   5.222   7.081   0.784
11315SOL    HW234290   5.220   7.107   0.623
11316SOL     OW34291   4.859   6.289   0.717
11316SOL    HW134292   4.916   6.367   0.692
11316SOL    HW234293   4.799   6.315   0.793
11317SOL     OW34294   5.479   6.193   0.231
11317SOL    HW134295   5.467   6.180   0.132
11317SOL    HW234296   5.449   6.112   0.280
11318SOL     OW34297   4.492   6.730   1.023
11318SOL    HW134298   4.414   6.747   1.083
11318SOL    HW234299   4.526   6.817   0.987
11319SOL     OW34300   4.574   6.384   1.823
11319SOL    HW134301   4.570   6.460   1.888
11319SOL    HW234302   4.596   6.420   1.732
11320SOL     OW34303   4.409   6.598   0.665
11320SOL    HW134304   4.478   6.582   0.735
11320SOL    HW234305   4.336   6.655   0.703
11321SOL     OW34306   4.410   6.747   1.803
11321SOL    HW134307   4.470   6.826   1.817
11321SOL    HW234308   4.324   6.778   1.762
11322SOL     OW34309   4.059   7.021   1.061
11322SOL    HW134310   3.981   6.990   1.008
11322SOL    HW234311   4.117   7.079   1.004
11323SOL     OW34312   5.184   7.091   1.339
11323SOL    HW134313   5.208   7.185   1.365
11323SOL    HW234314   5.168   7.037   1.421
11324SOL     OW34315   4.162   5.978   1.499
11324SOL    HW134316   4.244   5.922   1.508
11324SOL    HW234317   4.081   5.920   1.503
11325SOL     OW34318   5.327   6.033   0.737
11325SOL    HW134319   5.253   6.079   0.687
11325SOL    HW234320   5.378   6.101   0.790
11326SOL     OW34321   3.955   7.299   0.483
11326SOL    HW134322   3.989   7.376   0.537
11326SOL    HW234323   3.999   7.299   0.393
11327SOL     OW34324   4.851   6.927   1.690
11327SOL    HW134325   4.898   6.927   1.778
11327SOL    HW234326   4.803   6.840   1.679
11328SOL     OW34327   3.954   7.020   0.538
11328SOL    HW134328   3.928   7.116   0.538
11328SOL    HW234329   3.883   6.966   0.583
11329SOL     OW34330   3.964   6.677   0.886
11329SOL    HW134331   3.978   6.593   0.938
11329SOL    HW234332   3.909   6.741   0.941
11330SOL     OW34333   4.344   7.372   1.439
11330SOL    HW134334   4.252   7.355   1.474
11330SOL    HW234335   4.372   7.464   1.465
11331SOL     OW34336   4.330   6.550   0.123
11331SOL    HW134337   4.337   6.634   0.069
11331SOL    HW234338   4.376   6.563   0.211
11332SOL     OW34339   5.318   5.700   1.480
11332SOL    HW134340   5.300   5.767   1.408
11332SOL    HW234341   5.315   5.746   1.569
11333SOL     OW34342   3.846   6.229   0.563
11333SOL    HW134343   3.801   6.141   0.580
11333SOL    HW234344   3.845   6.283   0.647
11334SOL     OW34345   5.566   7.353   0.359
11334SOL    HW134346   5.620   7.324   0.439
11334SOL    HW234347   5.596   7.443   0.330
11335SOL     OW34348   3.751   7.182   0.117
11335SOL    HW134349   3.732   7.086   0.138
11335SOL    HW234350   3.718   7.240   0.192
11336SOL     OW34351   5.413   6.508   0.612
11336SOL    HW134352   5.508   6.479   0.620
11336SOL    HW234353   5.405   6.573   0.537
11337SOL     OW34354   5.365   6.694   0.432
11337SOL    HW134355   5.451   6.696   0.380
11337SOL    HW234356   5.379   6.741   0.520
11338SOL     OW34357   3.837   6.323   1.597
11338SOL    HW134358   3.925   6.310   1.642
11338SOL    HW234359   3.824   6.420   1.575
11339SOL     OW34360   4.337   6.951   0.726
11339SOL    HW134361   4.288   6.864   0.735
11339SOL    HW234362   4.314   6.994   0.639
11340SOL     OW34363   5.017   6.814   1.423
11340SOL    HW134364   5.054   6.741   1.365
11340SOL    HW234365   5.069   6.819   1.508
11341SOL     OW34366   4.533   5.590   0.502
11341SOL    HW134367   4.573   5.681   0.493
11341SOL    HW234368   4.433   5.598   0.508
11342SOL     OW34369   3.921   6.562   1.264
11342SOL    HW134370   4.010   6.517   1.250
11342SOL    HW234371   3.848   6.497   1.245
11343SOL     OW34372   5.249   6.585   0.190
11343SOL    HW134373   5.186   6.509   0.203
11343SOL    HW234374   5.297   6.603   0.276
11344SOL     OW34375   4.911   7.378   1.616
11344SOL    HW134376   4.935   7.438   1.540
11344SOL    HW234377   4.918   7.283   1.586
11345SOL     OW34378   4.041   5.837   1.801
11345SOL    HW134379   4.112   5.908   1.807
11345SOL    HW234380   3.953   5.876   1.829
11346SOL     OW34381   5.190   7.003   0.953
11346SOL    HW134382   5.131   7.009   1.033
11346SOL    HW234383   5.175   6.915   0.907
11347SOL     OW34384   5.391   7.300   0.572
11347SOL    HW134385   5.350   7.277   0.484
11347SOL    HW234386   5.373   7.226   0.637
11348SOL     OW34387   4.322   6.315   0.270
11348SOL    HW134388   4.346   6.384   0.202
11348SOL    HW234389   4.244   6.348   0.324
11349SOL     OW34390   5.005   5.931   0.944
11349SOL    HW134391   4.919   5.881   0.931
11349SOL    HW234392   5.067   5.877   1.000
11350SOL     OW34393   5.300   7.248   0.307
11350SOL    HW134394   5.389   7.294   0.310
11350SOL    HW234395   5.279   7.224   0.212
11351SOL     OW34396   4.531   6.191   1.465
11351SOL    HW134397   4.484   6.188   1.554
11351SOL    HW234398   4.480   6.136   1.399
11352SOL     OW34399   4.697   6.476   1.572
11352SOL    HW134400   4.743   6.392   1.543
11352SOL    HW234401   4.641   6.510   1.497
11353SOL     OW34402   4.715   5.996   1.242
11353SOL    HW134403   4.638   6.030   1.296
11353SOL    HW234404   4.681   5.945   1.163
11354SOL     OW34405   4.765   6.287   0.429
11354SOL    HW134406   4.791   6.283   0.525
11354SOL    HW234407   4.680   6.236   0.415
11355SOL     OW34408   3.800   6.397   0.789
11355SOL    HW134409   3.899   6.385   0.798
11355SOL    HW234410   3.776   6.492   0.810
11356SOL     OW34411   3.854   7.407   1.571
11356SOL    HW134412   3.844   7.392   1.670
11356SOL    HW234413   3.768   7.443   1.535
11357SOL     OW34414   4.589   5.934   0.195
11357SOL    HW134415   4.648   5.997   0.146
11357SOL    HW234416   4.608   5.840   0.166
11358SOL     OW34417   5.086   6.730   0.545
11358SOL    HW134418   5.169   6.701   0.497
11358SOL    HW234419   5.037   6.797   0.489
11359SOL     OW34420   4.274   5.782   0.885
11359SOL    HW134421   4.269   5.777   0.985
11359SOL    HW234422   4.276   5.878   0.856
11360SOL     OW34423   4.732   7.042   0.477
11360SOL    HW134424   4.686   7.114   0.425
11360SOL    HW234425   4.728   7.062   0.575
11361SOL     OW34426   4.075   7.387   0.853
11361SOL    HW134427   4.125   7.301   0.859
11361SOL    HW234428   4.140   7.464   0.850
11362SOL     OW34429   5.519   6.652   0.873
11362SOL    HW134430   5.457   6.637   0.797
11362SOL    HW234431   5.467   6.663   0.958
11363SOL     OW34432   4.951   7.136   1.506
11363SOL    HW134433   4.957   7.059   1.570
11363SOL    HW234434   4.899   7.110   1.426
11364SOL     OW34435   4.045   6.529   0.242
11364SOL    HW134436   4.127   6.568   0.200
11364SOL    HW234437   4.018   6.447   0.193
11365SOL     OW34438   5.182   6.321   0.728
11365SOL    HW134439   5.177   6.256   0.803
11365SOL    HW234440   5.262   6.380   0.741
11366SOL     OW34441   4.185   6.852   1.727
11366SOL    HW134442   4.135   6.853   1.641
11366SOL    HW234443   4.122   6.834   1.803
11367SOL     OW34444   4.835   7.362   0.237
11367SOL    HW134445   4.775   7.300   0.287
11367SOL    HW234446   4.866   7.318   0.152
11368SOL     OW34447   3.926   5.871   1.498
11368SOL    HW134448   3.846   5.931   1.485
11368SOL    HW234449   3.916   5.822   1.584
11369SOL     OW34450   5.356   6.963   0.081
11369SOL    HW134451   5.324   7.057   0.071
11369SOL    HW234452   5.280   6.900   0.069
11370SOL     OW34453   4.188   7.329   0.323
11370SOL    HW134454   4.221   7.368   0.409
11370SOL    HW234455   4.264   7.322   0.258
11371SOL     OW34456   5.124   5.693   0.426
11371SOL    HW134457   5.100   5.656   0.336
11371SOL    HW234458   5.223   5.709   0.430
11372SOL     OW34459   3.973   7.371   1.241
11372SOL    HW134460   4.030   7.306   1.291
11372SOL    HW234461   3.957   7.338   1.148
11373SOL     OW34462   4.664   7.284   0.904
11373SOL    HW134463   4.744   7.227   0.925
11373SOL    HW234464   4.615   7.244   0.827
11374SOL     OW34465   4.106   6.286   0.480
11374SOL    HW134466   4.151   6.196   0.477
11374SOL    HW234467   4.012   6.275   0.513
11375SOL     OW34468   5.271   5.808   1.729
11375SOL    HW134469   5.266   5.845   1.821
11375SOL    HW234470   5.199   5.739   1.717
11376SOL     OW34471   4.338   5.708   0.117
11376SOL    HW134472   4.436   5.686   0.124
11376SOL    HW234473   4.307   5.691   0.024
11377SOL     OW34474   4.505   5.850   1.749
11377SOL    HW134475   4.572   5.789   1.792
11377SOL    HW234476   4.432   5.869   1.814
11378SOL     OW34477   4.612   7.100   1.195
11378SOL    HW134478   4.589   7.075   1.101
11378SOL    HW234479   4.673   7.031   1.234
11379SOL     OW34480   5.075   6.176   1.433
11379SOL    HW134481   5.103   6.133   1.518
11379SOL    HW234482   5.100   6.272   1.434
11380SOL     OW34483   4.527   6.988   0.924
11380SOL    HW134484   4.617   7.002   0.882
11380SOL    HW234485   4.456   6.990   0.853
11381SOL     OW34486   4.646   6.089   0.899
11381SOL    HW134487   4.621   6.080   0.803
11381SOL    HW234488   4.694   6.007   0.930
11382SOL     OW34489   4.263   5.650   0.512
11382SOL    HW134490   4.182   5.651   0.570
11382SOL    HW234491   4.266   5.733   0.457
11383SOL     OW34492   5.158   6.774   0.041
11383SOL    HW134493   5.190   6.698   0.098
11383SOL    HW234494   5.066   6.801   0.071
11384SOL     OW34495   4.021   5.621   0.171
11384SOL    HW134496   4.070   5.705   0.150
11384SOL    HW234497   4.083   5.556   0.216
11385SOL     OW34498   4.659   5.822   0.480
11385SOL    HW134499   4.611   5.863   0.402
11385SOL    HW234500   4.758   5.820   0.461
11386SOL     OW34501   4.800   6.269   1.464
11386SOL    HW134502   4.720   6.208   1.467
11386SOL    HW234503   4.881   6.216   1.440
11387SOL     OW34504   4.951   7.156   0.793
11387SOL    HW134505   4.972   7.230   0.728
11387SOL    HW234506   5.019   7.156   0.866
11388SOL     OW34507   4.183   6.738   0.741
11388SOL    HW134508   4.112   6.711   0.806
11388SOL    HW234509   4.157   6.710   0.648
11389SOL     OW34510   4.995   7.383   0.591
11389SOL    HW134511   5.039   7.447   0.527
11389SOL    HW234512   4.945   7.435   0.661
11390SOL     OW34513   4.756   6.135   0.016
11390SOL    HW134514   4.715   6.217  -0.023
11390SOL    HW234515   4.820   6.161   0.089
11391SOL     OW34516   3.802   6.142   1.386
11391SOL    HW134517   3.894   6.141   1.345
11391SOL    HW234518   3.796   6.216   1.453
11392SOL     OW34519   4.285   5.808   1.147
11392SOL    HW134520   4.323   5.724   1.184
11392SOL    HW234521   4.197   5.827   1.191
11393SOL     OW34522   4.590   6.040   0.642
11393SOL    HW134523   4.558   6.112   0.580
11393SOL    HW234524   4.614   5.959   0.589
11394SOL     OW34525   4.741   5.625   0.753
11394SOL    HW134526   4.669   5.630   0.684
11394SOL    HW234527   4.717   5.556   0.822
11395SOL     OW34528   5.153   6.759   0.867
11395SOL    HW134529   5.098   6.675   0.860
11395SOL    HW234530   5.179   6.788   0.775
11396SOL     OW34531   5.190   6.176   0.992
11396SOL    HW134532   5.160   6.081   0.999
11396SOL    HW234533   5.263   6.192   1.058
11397SOL     OW34534   5.581   6.419   0.377
11397SOL    HW134535   5.623   6.355   0.441
11397SOL    HW234536   5.543   6.368   0.299
11398SOL     OW34537   4.212   6.971   0.174
11398SOL    HW134538   4.125   6.956   0.221
11398SOL    HW234539   4.195   6.997   0.079
11399SOL     OW34540   5.388   6.866   0.657
11399SOL    HW134541   5.487   6.874   0.671
11399SOL    HW234542   5.343   6.950   0.688
11400SOL     OW34543   5.114   6.161   0.078
11400SOL    HW134544   5.060   6.140   0.159
11400SOL    HW234545   5.205   6.120   0.087
11401SOL     OW34546   4.251   5.842   0.328
11401SOL    HW134547   4.278   5.783   0.253
11401SOL    HW234548   4.251   5.937   0.297
11402SOL     OW34549   5.478   6.809   1.588
11402SOL    HW134550   5.569   6.770   1.575
11402SOL    HW234551   5.486   6.905   1.612
11403SOL     OW34552   4.788   6.933   1.340
11403SOL    HW134553   4.708   6.910   1.395
11403SOL    HW234554   4.871   6.907   1.389
11404SOL     OW34555   5.316   7.215   1.625
11404SOL    HW134556   5.343   7.249   1.535
11404SOL    HW234557   5.395   7.177   1.671
11405SOL     OW34558   4.835   6.781   1.100
11405SOL    HW134559   4.795   6.825   1.181
11405SOL    HW234560   4.794   6.818   1.017
11406SOL     OW34561   5.362   6.685   1.079
11406SOL    HW134562   5.367   6.766   1.138
11406SOL    HW234563   5.276   6.687   1.028
11407SOL     OW34564   4.639   5.675   1.402
11407SOL    HW134565   4.664   5.655   1.307
11407SOL    HW234566   4.711   5.731   1.444
11408SOL     OW34567   4.704   6.702   1.719
11408SOL    HW134568   4.605   6.708   1.729
11408SOL    HW234569   4.727   6.622   1.663
11409SOL     OW34570   4.429   6.636   0.368
11409SOL    HW134571   4.415   6.643   0.467
11409SOL    HW234572   4.513   6.585   0.350
11410SOL     OW34573   4.134   6.399   1.251
11410SOL    HW134574   4.220   6.411   1.301
11410SOL    HW234575   4.092   6.312   1.278
11411SOL     OW34576   4.998   5.972   1.262
11411SOL    HW134577   5.019   6.046   1.326
11411SOL    HW234578   4.909   5.989   1.219
11412SOL     OW34579   3.788   7.150   1.331
11412SOL    HW134580   3.742   7.232   1.297
11412SOL    HW234581   3.886   7.169   1.340
11413SOL     OW34582   4.091   6.686   0.501
11413SOL    HW134583   4.084   6.769   0.445
11413SOL    HW234584   4.095   6.606   0.441
11414SOL     OW34585   4.290   6.123   0.865
11414SOL    HW134586   4.302   6.189   0.791
11414SOL    HW234587   4.336   6.157   0.948
11415SOL     OW34588   4.976   6.934   0.388
11415SOL    HW134589   5.026   7.011   0.428
11415SOL    HW234590   4.881   6.936   0.420
11416SOL     OW34591   4.996   7.031   1.142
11416SOL    HW134592   5.043   7.044   1.229
11416SOL    HW234593   4.930   6.957   1.151
11417SOL     OW34594   5.306   6.225   0.472
11417SOL    HW134595   5.275   6.286   0.545
11417SOL    HW234596   5.356   6.277   0.403
11418SOL     OW34597   4.078   7.096   1.329
11418SOL    HW134598   4.057   7.052   1.242
11418SOL    HW234599   4.175   7.122   1.332
11419SOL     OW34600   4.126   6.337   1.598
11419SOL    HW134601   4.194   6.392   1.551
11419SOL    HW234602   4.166   6.249   1.625
11420SOL     OW34603   5.311   6.365   1.670
11420SOL    HW134604   5.219   6.403   1.665
11420SOL    HW234605   5.371   6.412   1.605
11421SOL     OW34606   4.737   5.691   1.770
11421SOL    HW134607   4.743   5.776   1.718
11421SOL    HW234608   4.769   5.615   1.713
11422SOL     OW34609   4.228   5.636   1.740
11422SOL    HW134610   4.186   5.579   1.670
11422SOL    HW234611   4.162   5.705   1.772
11423SOL     OW34612   4.297   6.456   1.029
11423SOL    HW134613   4.341   6.545   1.020
11423SOL    HW234614   4.234   6.456   1.106
11424SOL     OW34615   5.084   6.448   1.045
11424SOL    HW134616   5.009   6.448   0.979
11424SOL    HW234617   5.121   6.356   1.054
11425SOL     OW34618   4.933   6.111   0.275
11425SOL    HW134619   4.946   6.027   0.329
11425SOL    HW234620   4.904   6.185   0.335
11426SOL     OW34621   4.031   5.799   1.231
11426SOL    HW134622   4.008   5.836   1.321
11426SOL    HW234623   4.001   5.704   1.225
11427SOL     OW34624   3.761   6.896   1.282
11427SOL    HW134625   3.814   6.847   1.350
11427SOL    HW234626   3.783   6.994   1.287
11428SOL     OW34627   4.456   6.220   1.064
11428SOL    HW134628   4.515   6.194   0.988
11428SOL    HW234629   4.428   6.316   1.053
11429SOL     OW34630   4.031   5.649   0.618
11429SOL    HW134631   4.020   5.743   0.651
11429SOL    HW234632   4.026   5.586   0.695
11430SOL     OW34633   5.346   5.953   0.374
11430SOL    HW134634   5.348   5.877   0.438
11430SOL    HW234635   5.298   6.030   0.414
11431SOL     OW34636   4.747   6.352   0.966
11431SOL    HW134637   4.762   6.373   1.062
11431SOL    HW234638   4.717   6.257   0.957
11432SOL     OW34639   4.704   7.159   1.700
11432SOL    HW134640   4.684   7.203   1.612
11432SOL    HW234641   4.743   7.068   1.684
11433SOL     OW34642   5.583   7.104   1.605
11433SOL    HW134643   5.597   7.131   1.510
11433SOL    HW234644   5.666   7.126   1.658
11434SOL     OW34645   4.074   6.484   1.804
11434SOL    HW134646   4.150   6.528   1.852
11434SOL    HW234647   4.109   6.437   1.722
11435SOL     OW34648   5.264   5.860   0.125
11435SOL    HW134649   5.203   5.785   0.148
11435SOL    HW234650   5.286   5.912   0.208
11436SOL     OW34651   5.027   6.424   0.042
11436SOL    HW134652   5.061   6.331   0.057
11436SOL    HW234653   5.045   6.451  -0.053
11437SOL     OW34654   4.792   6.919   0.849
11437SOL    HW134655   4.799   6.835   0.794
11437SOL    HW234656   4.854   6.988   0.813
11438SOL     OW34657   4.043   6.396   0.949
11438SOL    HW134658   4.136   6.432   0.954
11438SOL    HW234659   4.037   6.311   1.001
11439SOL     OW34660   4.063   6.095   1.006
11439SOL    HW134661   4.011   6.012   0.989
11439SOL    HW234662   4.140   6.100   0.942
11440SOL     OW34663   4.862   5.966   1.678
11440SOL    HW134664   4.817   6.029   1.742
11440SOL    HW234665   4.955   5.997   1.661
11441SOL     OW34666   4.884   5.793   1.477
11441SOL    HW134667   4.884   5.857   1.554
11441SOL    HW234668   4.912   5.841   1.394
11442SOL     OW34669   3.732   6.912   0.200
11442SOL    HW134670   3.639   6.933   0.169
11442SOL    HW234671   3.742   6.813   0.213
11443SOL     OW34672   3.812   7.387   0.927
11443SOL    HW134673   3.770   7.301   0.900
11443SOL    HW234674   3.906   7.390   0.893
11444SOL     OW34675   4.228   7.154   0.910
11444SOL    HW134676   4.294   7.228   0.919
11444SOL    HW234677   4.272   7.075   0.868
11445SOL     OW34678   4.726   6.382   1.238
11445SOL    HW134679   4.767   6.350   1.324
11445SOL    HW234680   4.630   6.355   1.235
11446SOL     OW34681   3.764   6.130   1.114
11446SOL    HW134682   3.849   6.097   1.073
11446SOL    HW234683   3.777   6.145   1.212
11447SOL     OW34684   3.913   6.106   1.722
11447SOL    HW134685   3.972   6.066   1.652
11447SOL    HW234686   3.855   6.177   1.681
11448SOL     OW34687   5.093   6.536   1.660
11448SOL    HW134688   5.132   6.625   1.680
11448SOL    HW234689   5.103   6.516   1.563
11449SOL     OW34690   4.539   6.158   0.325
11449SOL    HW134691   4.546   6.069   0.279
11449SOL    HW234692   4.445   6.192   0.317
11450SOL     OW34693   5.381   6.190   1.206
11450SOL    HW134694   5.343   6.121   1.268
11450SOL    HW234695   5.463   6.154   1.162
11451SOL     OW34696   3.976   7.150   1.744
11451SOL    HW134697   3.946   7.207   1.820
11451SOL    HW234698   3.969   7.053   1.770
11452SOL     OW34699   4.395   6.050   1.269
11452SOL    HW134700   4.361   5.961   1.239
11452SOL    HW234701   4.421   6.104   1.189
11453SOL     OW34702   4.654   7.264   1.465
11453SOL    HW134703   4.630   7.246   1.370
11453SOL    HW234704   4.684   7.358   1.475
11454SOL     OW34705   4.197   6.086   0.191
11454SOL    HW134706   4.258   6.166   0.195
11454SOL    HW234707   4.102   6.117   0.198
11455SOL     OW34708   3.883   6.723   1.466
11455SOL    HW134709   3.905   6.662   1.542
11455SOL    HW234710   3.893   6.674   1.380
11456SOL     OW34711   5.071   6.645   1.234
11456SOL    HW134712   5.095   6.582   1.160
11456SOL    HW234713   4.981   6.685   1.216
11457SOL     OW34714   5.026   6.441   0.309
11457SOL    HW134715   4.940   6.410   0.351
11457SOL    HW234716   5.022   6.427   0.210
11458SOL     OW34717   5.483   7.333   1.154
11458SOL    HW134718   5.544   7.363   1.081
11458SOL    HW234719   5.445   7.244   1.132
11459SOL     OW34720   4.976   7.317   1.128
11459SOL    HW134721   5.060   7.322   1.074
11459SOL    HW234722   4.953   7.221   1.146
11460SOL     OW34723   3.807   6.844   1.022
11460SOL    HW134724   3.802   6.843   1.122
11460SOL    HW234725   3.724   6.803   0.984
11461SOL     OW34726   4.412   7.248   1.716
11461SOL    HW134727   4.356   7.329   1.725
11461SOL    HW234728   4.464   7.252   1.630
11462SOL     OW34729   4.627   5.672   0.133
11462SOL    HW134730   4.678   5.673   0.047
11462SOL    HW234731   4.683   5.630   0.204
11463SOL     OW34732   5.450   5.721   0.523
11463SOL    HW134733   5.523   5.704   0.456
11463SOL    HW234734   5.419   5.634   0.561
11464SOL     OW34735   5.112   7.159   0.477
11464SOL    HW134736   5.179   7.171   0.403
11464SOL    HW234737   5.072   7.248   0.500
11465SOL     OW34738   3.854   7.380   1.851
11465SOL    HW134739   3.813   7.306   1.904
11465SOL    HW234740   3.918   7.431   1.909
11466SOL     OW34741   5.004   6.513   0.672
11466SOL    HW134742   5.064   6.432   0.674
11466SOL    HW234743   5.044   6.582   0.612
11467SOL     OW34744   4.554   6.859   1.422
11467SOL    HW134745   4.549   6.892   1.517
11467SOL    HW234746   4.468   6.878   1.376
11468SOL     OW34747   4.396   7.202   0.154
11468SOL    HW134748   4.405   7.212   0.055
11468SOL    HW234749   4.356   7.113   0.175
11469SOL     OW34750   5.374   7.306   1.394
11469SOL    HW134751   5.427   7.316   1.310
11469SOL    HW234752   5.347   7.396   1.428
11470SOL     OW34753   5.565   5.761   0.963
11470SOL    HW134754   5.604   5.676   0.927
11470SOL    HW234755   5.467   5.763   0.944
11471SOL     OW34756   3.987   5.912   0.720
11471SOL    HW134757   3.908   5.963   0.686
11471SOL    HW234758   3.978   5.897   0.818
11472SOL     OW34759   4.918   7.198   0.031
11472SOL    HW134760   4.924   7.105   0.068
11472SOL    HW234761   4.859   7.198  -0.049
11473SOL     OW34762   4.546   6.588   1.372
11473SOL    HW134763   4.586   6.587   1.280
11473SOL    HW234764   4.556   6.680   1.412
11474SOL     OW34765   4.640   6.496   0.291
11474SOL    HW134766   4.703   6.534   0.223
11474SOL    HW234767   4.680   6.413   0.330
11475SOL     OW34768   5.228   7.193   0.044
11475SOL    HW134769   5.136   7.230   0.051
11475SOL    HW234770   5.266   7.213  -0.046
11476SOL     OW34771   4.096   6.874   1.490
11476SOL    HW134772   4.083   6.967   1.456
11476SOL    HW234773   4.012   6.822   1.477
11477SOL     OW34774   5.338   6.878   1.289
11477SOL    HW134775   5.398   6.881   1.369
11477SOL    HW234776   5.263   6.942   1.302
11478SOL     OW34777   4.763   6.684   0.696
11478SOL    HW134778   4.693   6.637   0.750
11478SOL    HW234779   4.822   6.616   0.653
11479SOL     OW34780   4.738   5.822   0.971
11479SOL    HW134781   4.730   5.786   0.878
11479SOL    HW234782   4.736   5.746   1.036
11480SOL     OW34783   4.314   7.073   0.491
11480SOL    HW134784   4.356   7.015   0.421
11480SOL    HW234785   4.270   7.152   0.447
11481SOL     OW34786   5.433   5.971   1.381
11481SOL    HW134787   5.506   6.040   1.385
11481SOL    HW234788   5.461   5.896   1.322
11482SOL     OW34789   3.979   6.934   0.290
11482SOL    HW134790   3.883   6.935   0.263
11482SOL    HW234791   3.991   6.987   0.374
11483SOL     OW34792   3.829   6.599   1.726
11483SOL    HW134793   3.752   6.566   1.780
11483SOL    HW234794   3.914   6.569   1.768
11484SOL     OW34795   4.396   5.789   1.489
11484SOL    HW134796   4.486   5.773   1.449
11484SOL    HW234797   4.404   5.794   1.588
11485SOL     OW34798   3.799   5.931   0.033
11485SOL    HW134799   3.707   5.903   0.004
11485SOL    HW234800   3.830   6.008  -0.023
11486SOL     OW34801   5.164   6.442   1.398
11486SOL    HW134802   5.107   6.494   1.335
11486SOL    HW234803   5.260   6.454   1.374
11487SOL     OW34804   3.796   5.752   0.318
11487SOL    HW134805   3.779   5.835   0.264
11487SOL    HW234806   3.886   5.715   0.296
11488SOL     OW34807   4.907   6.921   0.119
11488SOL    HW134808   4.808   6.910   0.121
11488SOL    HW234809   4.941   6.936   0.212
11489SOL     OW34810   4.337   6.428   1.431
11489SOL    HW134811   4.393   6.509   1.414
11489SOL    HW234812   4.396   6.348   1.434
11490SOL     OW34813   5.217   7.353   0.959
11490SOL    HW134814   5.250   7.417   0.890
11490SOL    HW234815   5.283   7.347   1.034
11491SOL     OW34816   4.440   6.151   1.708
11491SOL    HW134817   4.459   6.216   1.782
11491SOL    HW234818   4.500   6.071   1.717
11492SOL     OW34819   5.174   6.806   1.633
11492SOL    HW134820   5.165   6.796   1.732
11492SOL    HW234821   5.270   6.799   1.607
11493SOL     OW34822   4.114   7.327   1.560
11493SOL    HW134823   4.023   7.368   1.558
11493SOL    HW234824   4.107   7.233   1.592
11494SOL     OW34825   5.398   6.469   1.254
11494SOL    HW134826   5.371   6.380   1.217
11494SOL    HW234827   5.399   6.537   1.181
11495SOL     OW34828   4.949   5.911   0.449
11495SOL    HW134829   5.014   5.837   0.438
11495SOL    HW234830   4.969   5.961   0.533
11496SOL     OW34831   4.318   6.331   0.652
11496SOL    HW134832   4.368   6.416   0.633
11496SOL    HW234833   4.230   6.333   0.604
11497SOL     OW34834   5.501   5.928   1.642
11497SOL    HW134835   5.484   5.959   1.548
11497SOL    HW234836   5.417   5.891   1.680
11498SOL     OW34837   4.583   6.960   0.016
11498SOL    HW134838   4.537   6.975   0.104
11498SOL    HW234839   4.627   7.045  -0.014
11499SOL     OW34840   4.385   7.376   0.953
11499SOL    HW134841   4.339   7.464   0.940
11499SOL    HW234842   4.484   7.388   0.946
11500SOL     OW34843   4.583   6.542   0.861
11500SOL    HW134844   4.637   6.473   0.909
11500SOL    HW234845   4.551   6.611   0.927
11501SOL     OW34846   4.807   6.570   0.087
11501SOL    HW134847   4.784   6.623   0.005
11501SOL    HW234848   4.888   6.514   0.068
11502SOL     OW34849   5.585   7.155   0.851
11502SOL    HW134850   5.514   7.143   0.781
11502SOL    HW234851   5.586   7.076   0.911
11503SOL     OW34852   3.945   6.900   1.844
11503SOL    HW134853   3.880   6.827   1.823
11503SOL    HW234854   3.949   6.914   1.942
11504SOL     OW34855   3.803   6.826   0.653
11504SOL    HW134856   3.802   6.779   0.741
11504SOL    HW234857   3.885   6.798   0.602
11505SOL     OW34858   4.396   6.977   1.624
11505SOL    HW134859   4.318   6.927   1.662
11505SOL    HW234860   4.393   7.072   1.655
11506SOL     OW34861   5.548   5.778   1.227
11506SOL    HW134862   5.544   5.688   1.271
11506SOL    HW234863   5.551   5.767   1.128
11507SOL     OW34864   4.152   6.010   0.520
11507SOL    HW134865   4.182   5.938   0.458
11507SOL    HW234866   4.113   5.970   0.603
11508SOL     OW34867   5.429   7.073   1.104
11508SOL    HW134868   5.336   7.048   1.077
11508SOL    HW234869   5.455   7.023   1.186
11509SOL     OW34870   4.041   6.133   1.280
11509SOL    HW134871   4.079   6.074   1.352
11509SOL    HW234872   4.081   6.107   1.192
11510SOL     OW34873   4.536   7.172   0.687
11510SOL    HW134874   4.568   7.182   0.593
11510SOL    HW234875   4.457   7.110   0.689
11511SOL     OW34876   5.148   5.800   1.112
11511SOL    HW134877   5.200   5.735   1.167
11511SOL    HW234878   5.099   5.863   1.173
11512SOL     OW34879   4.725   5.620   1.154
11512SOL    HW134880   4.662   5.548   1.123
11512SOL    HW234881   4.818   5.584   1.154
11513SOL     OW34882   4.494   6.916   0.301
11513SOL    HW134883   4.448   6.829   0.318
11513SOL    HW234884   4.585   6.913   0.342
11514SOL     OW34885   4.342   7.153   1.284
11514SOL    HW134886   4.337   7.235   1.341
11514SOL    HW234887   4.431   7.150   1.239
11515SOL     OW34888   5.076   5.638   0.168
11515SOL    HW134889   5.111   5.597   0.084
11515SOL    HW234890   4.986   5.600   0.188
11516SOL     OW34891   5.024   6.039   0.691
11516SOL    HW134892   4.965   6.119   0.695
11516SOL    HW234893   5.039   6.004   0.784
11517SOL     OW34894   5.317   5.807   0.882
11517SOL    HW134895   5.233   5.806   0.936
11517SOL    HW234896   5.319   5.890   0.826
11518SOL     OW34897   3.763   6.663   0.300
11518SOL    HW134898   3.862   6.652   0.291
11518SOL    HW234899   3.723   6.577   0.332
11519SOL     OW34900   4.599   7.232   0.337
11519SOL    HW134901   4.522   7.197   0.283
11519SOL    HW234902   4.567   7.303   0.399
11520SOL     OW34903   3.954   6.214   1.975
11520SOL    HW134904   3.861   6.212   2.012
11520SOL    HW234905   3.955   6.175   1.883
11521SOL     OW34906   3.949   5.861   2.858
11521SOL    HW134907   3.984   5.844   2.950
11521SOL    HW234908   3.861   5.816   2.846
11522SOL     OW34909   3.743   5.954   2.509
11522SOL    HW134910   3.661   5.997   2.548
11522SOL    HW234911   3.715   5.881   2.446
11523SOL     OW34912   4.293   6.861   3.027
11523SOL    HW134913   4.200   6.854   2.990
11523SOL    HW234914   4.304   6.950   3.071
11524SOL     OW34915   5.279   7.097   2.565
11524SOL    HW134916   5.222   7.081   2.646
11524SOL    HW234917   5.220   7.107   2.485
11525SOL     OW34918   4.859   6.289   2.579
11525SOL    HW134919   4.916   6.367   2.554
11525SOL    HW234920   4.799   6.315   2.655
11526SOL     OW34921   4.492   6.730   2.885
11526SOL    HW134922   4.414   6.747   2.945
11526SOL    HW234923   4.526   6.817   2.849
11527SOL     OW34924   4.574   6.384   3.685
11527SOL    HW134925   4.570   6.460   3.750
11527SOL    HW234926   4.596   6.420   3.594
11528SOL     OW34927   4.409   6.598   2.527
11528SOL    HW134928   4.478   6.582   2.597
11528SOL    HW234929   4.336   6.655   2.565
11529SOL     OW34930   4.410   6.747   3.665
11529SOL    HW134931   4.470   6.826   3.679
11529SOL    HW234932   4.324   6.778   3.624
11530SOL     OW34933   4.059   7.021   2.923
11530SOL    HW134934   3.981   6.990   2.870
11530SOL    HW234935   4.117   7.079   2.866
11531SOL     OW34936   5.184   7.091   3.201
11531SOL    HW134937   5.208   7.185   3.227
11531SOL    HW234938   5.168   7.037   3.283
11532SOL     OW34939   4.162   5.978   3.361
11532SOL    HW134940   4.244   5.922   3.370
11532SOL    HW234941   4.081   5.920   3.365
11533SOL     OW34942   5.327   6.033   2.599
11533SOL    HW134943   5.253   6.079   2.549
11533SOL    HW234944   5.378   6.101   2.652
11534SOL     OW34945   3.955   7.299   2.345
11534SOL    HW134946   3.989   7.376   2.399
11534SOL    HW234947   3.999   7.299   2.255
11535SOL     OW34948   3.954   7.020   2.400
11535SOL    HW134949   3.928   7.116   2.400
11535SOL    HW234950   3.883   6.966   2.445
11536SOL     OW34951   3.964   6.677   2.748
11536SOL    HW134952   3.978   6.593   2.800
11536SOL    HW234953   3.909   6.741   2.803
11537SOL     OW34954   4.344   7.372   3.301
11537SOL    HW134955   4.252   7.355   3.336
11537SOL    HW234956   4.372   7.464   3.327
11538SOL     OW34957   4.330   6.550   1.985
11538SOL    HW134958   4.337   6.634   1.931
11538SOL    HW234959   4.376   6.563   2.073
11539SOL     OW34960   3.846   6.229   2.425
11539SOL    HW134961   3.801   6.141   2.442
11539SOL    HW234962   3.845   6.283   2.509
11540SOL     OW34963   5.566   7.353   2.221
11540SOL    HW134964   5.620   7.324   2.301
11540SOL    HW234965   5.596   7.443   2.192
11541SOL     OW34966   3.751   7.182   1.979
11541SOL    HW134967   3.732   7.086   2.000
11541SOL    HW234968   3.718   7.240   2.054
11542SOL     OW34969   5.365   6.694   2.294
11542SOL    HW134970   5.451   6.696   2.242
11542SOL    HW234971   5.379   6.741   2.382
11543SOL     OW34972   3.837   6.323   3.459
11543SOL    HW134973   3.925   6.310   3.504
11543SOL    HW234974   3.824   6.420   3.437
11544SOL     OW34975   4.337   6.951   2.588
11544SOL    HW134976   4.288   6.864   2.597
11544SOL    HW234977   4.314   6.994   2.501
11545SOL     OW34978   4.533   5.590   2.364
11545SOL    HW134979   4.573   5.681   2.355
11545SOL    HW234980   4.433   5.598   2.370
11546SOL     OW34981   3.921   6.562   3.126
11546SOL    HW134982   4.010   6.517   3.112
11546SOL    HW234983   3.848   6.497   3.107
11547SOL     OW34984   5.249   6.585   2.052
11547SOL    HW134985   5.186   6.509   2.065
11547SOL    HW234986   5.297   6.603   2.138
11548SOL     OW34987   4.911   7.378   3.478
11548SOL    HW134988   4.935   7.438   3.402
11548SOL    HW234989   4.918   7.283   3.448
11549SOL     OW34990   4.041   5.837   3.663
11549SOL    HW134991   4.112   5.908   3.669
11549SOL    HW234992   3.953   5.876   3.691
11550SOL     OW34993   5.190   7.003   2.815
11550SOL    HW134994   5.131   7.009   2.895
11550SOL    HW234995   5.175   6.915   2.769
11551SOL     OW34996   5.391   7.300   2.434
11551SOL    HW134997   5.350   7.277   2.346
11551SOL    HW234998   5.373   7.226   2.499
11552SOL     OW34999   4.322   6.315   2.132
11552SOL    HW135000   4.346   6.384   2.064
11552SOL    HW235001   4.244   6.348   2.186
11553SOL     OW35002   5.005   5.931   2.806
11553SOL    HW135003   4.919   5.881   2.793
11553SOL    HW235004   5.067   5.877   2.862
11554SOL     OW35005   5.300   7.248   2.169
11554SOL    HW135006   5.389   7.294   2.172
11554SOL    HW235007   5.279   7.224   2.074
11555SOL     OW35008   4.531   6.191   3.327
11555SOL    HW135009   4.484   6.188   3.416
11555SOL    HW235010   4.480   6.136   3.261
11556SOL     OW35011   4.697   6.476   3.434
11556SOL    HW135012   4.743   6.392   3.405
11556SOL    HW235013   4.641   6.510   3.359
11557SOL     OW35014   4.715   5.996   3.104
11557SOL    HW135015   4.638   6.030   3.158
11557SOL    HW235016   4.681   5.945   3.025
11558SOL     OW35017   4.765   6.287   2.291
11558SOL    HW135018   4.791   6.283   2.387
11558SOL    HW235019   4.680   6.236   2.277
11559SOL     OW35020   3.800   6.397   2.651
11559SOL    HW135021   3.899   6.385   2.660
11559SOL    HW235022   3.776   6.492   2.672
11560SOL     OW35023   3.854   7.407   3.433
11560SOL    HW135024   3.844   7.392   3.532
11560SOL    HW235025   3.768   7.443   3.397
11561SOL     OW35026   4.589   5.934   2.057
11561SOL    HW135027   4.648   5.997   2.008
11561SOL    HW235028   4.608   5.840   2.028
11562SOL     OW35029   5.086   6.730   2.407
11562SOL    HW135030   5.169   6.701   2.359
11562SOL    HW235031   5.037   6.797   2.351
11563SOL     OW35032   4.274   5.782   2.747
11563SOL    HW135033   4.269   5.777   2.847
11563SOL    HW235034   4.276   5.878   2.718
11564SOL     OW35035   4.732   7.042   2.339
11564SOL    HW135036   4.686   7.114   2.287
11564SOL    HW235037   4.728   7.062   2.437
11565SOL     OW35038   4.075   7.387   2.715
11565SOL    HW135039   4.125   7.301   2.721
11565SOL    HW235040   4.140   7.464   2.712
11566SOL     OW35041   5.519   6.652   2.735
11566SOL    HW135042   5.457   6.637   2.659
11566SOL    HW235043   5.467   6.663   2.820
11567SOL     OW35044   4.951   7.136   3.368
11567SOL    HW135045   4.957   7.059   3.432
11567SOL    HW235046   4.899   7.110   3.288
11568SOL     OW35047   4.045   6.529   2.104
11568SOL    HW135048   4.127   6.568   2.062
11568SOL    HW235049   4.018   6.447   2.055
11569SOL     OW35050   5.182   6.321   2.590
11569SOL    HW135051   5.177   6.256   2.665
11569SOL    HW235052   5.262   6.380   2.603
11570SOL     OW35053   4.185   6.852   3.589
11570SOL    HW135054   4.135   6.853   3.503
11570SOL    HW235055   4.122   6.834   3.665
11571SOL     OW35056   4.835   7.362   2.099
11571SOL    HW135057   4.775   7.300   2.149
11571SOL    HW235058   4.866   7.318   2.014
11572SOL     OW35059   3.926   5.871   3.360
11572SOL    HW135060   3.846   5.931   3.347
11572SOL    HW235061   3.916   5.822   3.446
11573SOL     OW35062   5.356   6.963   1.943
11573SOL    HW135063   5.324   7.057   1.933
11573SOL    HW235064   5.280   6.900   1.931
11574SOL     OW35065   4.188   7.329   2.185
11574SOL    HW135066   4.221   7.368   2.271
11574SOL    HW235067   4.264   7.322   2.120
11575SOL     OW35068   5.124   5.693   2.288
11575SOL    HW135069   5.100   5.656   2.198
11575SOL    HW235070   5.223   5.709   2.292
11576SOL     OW35071   3.973   7.371   3.103
11576SOL    HW135072   4.030   7.306   3.153
11576SOL    HW235073   3.957   7.338   3.010
11577SOL     OW35074   4.664   7.284   2.766
11577SOL    HW135075   4.744   7.227   2.787
11577SOL    HW235076   4.615   7.244   2.689
11578SOL     OW35077   4.106   6.286   2.342
11578SOL    HW135078   4.151   6.196   2.339
11578SOL    HW235079   4.012   6.275   2.375
11579SOL     OW35080   4.338   5.708   1.979
11579SOL    HW135081   4.436   5.686   1.986
11579SOL    HW235082   4.307   5.691   1.886
11580SOL     OW35083   4.505   5.850   3.611
11580SOL    HW135084   4.572   5.789   3.654
11580SOL    HW235085   4.432   5.869   3.676
11581SOL     OW35086   4.612   7.100   3.057
11581SOL    HW135087   4.589   7.075   2.963
11581SOL    HW235088   4.673   7.031   3.096
11582SOL     OW35089   5.075   6.176   3.295
11582SOL    HW135090   5.103   6.133   3.380
11582SOL    HW235091   5.100   6.272   3.296
11583SOL     OW35092   4.527   6.988   2.786
11583SOL    HW135093   4.617   7.002   2.744
11583SOL    HW235094   4.456   6.990   2.715
11584SOL     OW35095   4.646   6.089   2.761
11584SOL    HW135096   4.621   6.080   2.665
11584SOL    HW235097   4.694   6.007   2.792
11585SOL     OW35098   4.263   5.650   2.374
11585SOL    HW135099   4.182   5.651   2.432
11585SOL    HW235100   4.266   5.733   2.319
11586SOL     OW35101   5.158   6.774   1.903
11586SOL    HW135102   5.190   6.698   1.960
11586SOL    HW235103   5.066   6.801   1.933
11587SOL     OW35104   4.021   5.621   2.033
11587SOL    HW135105   4.070   5.705   2.012
11587SOL    HW235106   4.083   5.556   2.078
11588SOL     OW35107   4.659   5.822   2.342
11588SOL    HW135108   4.611   5.863   2.264
11588SOL    HW235109   4.758   5.820   2.323
11589SOL     OW35110   4.800   6.269   3.326
11589SOL    HW135111   4.720   6.208   3.329
11589SOL    HW235112   4.881   6.216   3.302
11590SOL     OW35113   4.951   7.156   2.655
11590SOL    HW135114   4.972   7.230   2.590
11590SOL    HW235115   5.019   7.156   2.728
11591SOL     OW35116   4.183   6.738   2.603
11591SOL    HW135117   4.112   6.711   2.668
11591SOL    HW235118   4.157   6.710   2.510
11592SOL     OW35119   4.995   7.383   2.453
11592SOL    HW135120   5.039   7.447   2.389
11592SOL    HW235121   4.945   7.435   2.523
11593SOL     OW35122   4.756   6.135   1.878
11593SOL    HW135123   4.715   6.217   1.839
11593SOL    HW235124   4.820   6.161   1.951
11594SOL     OW35125   3.802   6.142   3.248
11594SOL    HW135126   3.894   6.141   3.207
11594SOL    HW235127   3.796   6.216   3.315
11595SOL     OW35128   4.285   5.808   3.009
11595SOL    HW135129   4.323   5.724   3.046
11595SOL    HW235130   4.197   5.827   3.053
11596SOL     OW35131   4.590   6.040   2.504
11596SOL    HW135132   4.558   6.112   2.442
11596SOL    HW235133   4.614   5.959   2.451
11597SOL     OW35134   4.741   5.625   2.615
11597SOL    HW135135   4.669   5.630   2.546
11597SOL    HW235136   4.717   5.556   2.684
11598SOL     OW35137   5.153   6.759   2.729
11598SOL    HW135138   5.098   6.675   2.722
11598SOL    HW235139   5.179   6.788   2.637
11599SOL     OW35140   4.212   6.971   2.036
11599SOL    HW135141   4.125   6.956   2.083
11599SOL    HW235142   4.195   6.997   1.941
11600SOL     OW35143   5.388   6.866   2.519
11600SOL    HW135144   5.487   6.874   2.533
11600SOL    HW235145   5.343   6.950   2.550
11601SOL     OW35146   4.251   5.842   2.190
11601SOL    HW135147   4.278   5.783   2.115
11601SOL    HW235148   4.251   5.937   2.159
11602SOL     OW35149   4.788   6.933   3.202
11602SOL    HW135150   4.708   6.910   3.257
11602SOL    HW235151   4.871   6.907   3.251
11603SOL     OW35152   5.316   7.215   3.487
11603SOL    HW135153   5.343   7.249   3.397
11603SOL    HW235154   5.395   7.177   3.533
11604SOL     OW35155   4.835   6.781   2.962
11604SOL    HW135156   4.795   6.825   3.043
11604SOL    HW235157   4.794   6.818   2.879
11605SOL     OW35158   5.362   6.685   2.941
11605SOL    HW135159   5.367   6.766   3.000
11605SOL    HW235160   5.276   6.687   2.890
11606SOL     OW35161   4.639   5.675   3.264
11606SOL    HW135162   4.664   5.655   3.169
11606SOL    HW235163   4.711   5.731   3.306
11607SOL     OW35164   4.704   6.702   3.581
11607SOL    HW135165   4.605   6.708   3.591
11607SOL    HW235166   4.727   6.622   3.525
11608SOL     OW35167   4.429   6.636   2.230
11608SOL    HW135168   4.415   6.643   2.329
11608SOL    HW235169   4.513   6.585   2.212
11609SOL     OW35170   4.134   6.399   3.113
11609SOL    HW135171   4.220   6.411   3.163
11609SOL    HW235172   4.092   6.312   3.140
11610SOL     OW35173   3.788   7.150   3.193
11610SOL    HW135174   3.742   7.232   3.159
11610SOL    HW235175   3.886   7.169   3.202
11611SOL     OW35176   4.091   6.686   2.363
11611SOL    HW135177   4.084   6.769   2.307
11611SOL    HW235178   4.095   6.606   2.303
11612SOL     OW35179   4.290   6.123   2.727
11612SOL    HW135180   4.302   6.189   2.653
11612SOL    HW235181   4.336   6.157   2.810
11613SOL     OW35182   4.976   6.934   2.250
11613SOL    HW135183   5.026   7.011   2.290
11613SOL    HW235184   4.881   6.936   2.282
11614SOL     OW35185   4.996   7.031   3.004
11614SOL    HW135186   5.043   7.044   3.091
11614SOL    HW235187   4.930   6.957   3.013
11615SOL     OW35188   4.078   7.096   3.191
11615SOL    HW135189   4.057   7.052   3.104
11615SOL    HW235190   4.175   7.122   3.194
11616SOL     OW35191   4.126   6.337   3.460
11616SOL    HW135192   4.194   6.392   3.413
11616SOL    HW235193   4.166   6.249   3.487
11617SOL     OW35194   4.737   5.691   3.632
11617SOL    HW135195   4.743   5.776   3.580
11617SOL    HW235196   4.769   5.615   3.575
11618SOL     OW35197   4.228   5.636   3.602
11618SOL    HW135198   4.186   5.579   3.532
11618SOL    HW235199   4.162   5.705   3.634
11619SOL     OW35200   4.297   6.456   2.891
11619SOL    HW135201   4.341   6.545   2.882
11619SOL    HW235202   4.234   6.456   2.968
11620SOL     OW35203   4.933   6.111   2.137
11620SOL    HW135204   4.946   6.027   2.191
11620SOL    HW235205   4.904   6.185   2.197
11621SOL     OW35206   4.031   5.799   3.093
11621SOL    HW135207   4.008   5.836   3.183
11621SOL    HW235208   4.001   5.704   3.087
11622SOL     OW35209   3.761   6.896   3.144
11622SOL    HW135210   3.814   6.847   3.212
11622SOL    HW235211   3.783   6.994   3.149
11623SOL     OW35212   4.456   6.220   2.926
11623SOL    HW135213   4.515   6.194   2.850
11623SOL    HW235214   4.428   6.316   2.915
11624SOL     OW35215   5.452   6.521   3.716
11624SOL    HW135216   5.406   6.514   3.627
11624SOL    HW235217   5.390   6.565   3.782
11625SOL     OW35218   4.031   5.649   2.480
11625SOL    HW135219   4.020   5.743   2.513
11625SOL    HW235220   4.026   5.586   2.557
11626SOL     OW35221   5.346   5.953   2.236
11626SOL    HW135222   5.348   5.877   2.300
11626SOL    HW235223   5.298   6.030   2.276
11627SOL     OW35224   4.747   6.352   2.828
11627SOL    HW135225   4.762   6.373   2.924
11627SOL    HW235226   4.717   6.257   2.819
11628SOL     OW35227   4.704   7.159   3.562
11628SOL    HW135228   4.684   7.203   3.474
11628SOL    HW235229   4.743   7.068   3.546
11629SOL     OW35230   5.583   7.104   3.467
11629SOL    HW135231   5.597   7.131   3.372
11629SOL    HW235232   5.666   7.126   3.520
11630SOL     OW35233   4.074   6.484   3.666
11630SOL    HW135234   4.150   6.528   3.714
11630SOL    HW235235   4.109   6.437   3.584
11631SOL     OW35236   5.264   5.860   1.987
11631SOL    HW135237   5.203   5.785   2.010
11631SOL    HW235238   5.286   5.912   2.070
11632SOL     OW35239   5.027   6.424   1.904
11632SOL    HW135240   5.061   6.331   1.919
11632SOL    HW235241   5.045   6.451   1.809
11633SOL     OW35242   4.792   6.919   2.711
11633SOL    HW135243   4.799   6.835   2.656
11633SOL    HW235244   4.854   6.988   2.675
11634SOL     OW35245   4.043   6.396   2.811
11634SOL    HW135246   4.136   6.432   2.816
11634SOL    HW235247   4.037   6.311   2.863
11635SOL     OW35248   4.063   6.095   2.868
11635SOL    HW135249   4.011   6.012   2.851
11635SOL    HW235250   4.140   6.100   2.804
11636SOL     OW35251   4.862   5.966   3.540
11636SOL    HW135252   4.817   6.029   3.604
11636SOL    HW235253   4.955   5.997   3.523
11637SOL     OW35254   4.884   5.793   3.339
11637SOL    HW135255   4.884   5.857   3.416
11637SOL    HW235256   4.912   5.841   3.256
11638SOL     OW35257   3.732   6.912   2.062
11638SOL    HW135258   3.639   6.933   2.031
11638SOL    HW235259   3.742   6.813   2.075
11639SOL     OW35260   3.812   7.387   2.789
11639SOL    HW135261   3.770   7.301   2.762
11639SOL    HW235262   3.906   7.390   2.755
11640SOL     OW35263   4.228   7.154   2.772
11640SOL    HW135264   4.294   7.228   2.781
11640SOL    HW235265   4.272   7.075   2.730
11641SOL     OW35266   4.726   6.382   3.100
11641SOL    HW135267   4.767   6.350   3.186
11641SOL    HW235268   4.630   6.355   3.097
11642SOL     OW35269   3.764   6.130   2.976
11642SOL    HW135270   3.849   6.097   2.935
11642SOL    HW235271   3.777   6.145   3.074
11643SOL     OW35272   3.913   6.106   3.584
11643SOL    HW135273   3.972   6.066   3.514
11643SOL    HW235274   3.855   6.177   3.543
11644SOL     OW35275   4.539   6.158   2.187
11644SOL    HW135276   4.546   6.069   2.141
11644SOL    HW235277   4.445   6.192   2.179
11645SOL     OW35278   3.976   7.150   3.606
11645SOL    HW135279   3.946   7.207   3.682
11645SOL    HW235280   3.969   7.053   3.632
11646SOL     OW35281   4.395   6.050   3.131
11646SOL    HW135282   4.361   5.961   3.101
11646SOL    HW235283   4.421   6.104   3.051
11647SOL     OW35284   4.654   7.264   3.327
11647SOL    HW135285   4.630   7.246   3.232
11647SOL    HW235286   4.684   7.358   3.337
11648SOL     OW35287   4.197   6.086   2.053
11648SOL    HW135288   4.258   6.166   2.057
11648SOL    HW235289   4.102   6.117   2.060
11649SOL     OW35290   3.883   6.723   3.328
11649SOL    HW135291   3.905   6.662   3.404
11649SOL    HW235292   3.893   6.674   3.242
11650SOL     OW35293   5.026   6.441   2.171
11650SOL    HW135294   4.940   6.410   2.213
11650SOL    HW235295   5.022   6.427   2.072
11651SOL     OW35296   5.483   7.333   3.016
11651SOL    HW135297   5.544   7.363   2.943
11651SOL    HW235298   5.445   7.244   2.994
11652SOL     OW35299   4.976   7.317   2.990
11652SOL    HW135300   5.060   7.322   2.936
11652SOL    HW235301   4.953   7.221   3.008
11653SOL     OW35302   3.807   6.844   2.884
11653SOL    HW135303   3.802   6.843   2.984
11653SOL    HW235304   3.724   6.803   2.846
11654SOL     OW35305   4.412   7.248   3.578
11654SOL    HW135306   4.356   7.329   3.587
11654SOL    HW235307   4.464   7.252   3.492
11655SOL     OW35308   5.450   5.721   2.385
11655SOL    HW135309   5.523   5.704   2.318
11655SOL    HW235310   5.419   5.634   2.423
11656SOL     OW35311   5.112   7.159   2.339
11656SOL    HW135312   5.179   7.171   2.265
11656SOL    HW235313   5.072   7.248   2.362
11657SOL     OW35314   3.854   7.380   3.713
11657SOL    HW135315   3.813   7.306   3.766
11657SOL    HW235316   3.918   7.431   3.771
11658SOL     OW35317   5.004   6.513   2.534
11658SOL    HW135318   5.064   6.432   2.536
11658SOL    HW235319   5.044   6.582   2.474
11659SOL     OW35320   4.554   6.859   3.284
11659SOL    HW135321   4.549   6.892   3.379
11659SOL    HW235322   4.468   6.878   3.238
11660SOL     OW35323   4.396   7.202   2.016
11660SOL    HW135324   4.405   7.212   1.917
11660SOL    HW235325   4.356   7.113   2.037
11661SOL     OW35326   5.374   7.306   3.256
11661SOL    HW135327   5.427   7.316   3.172
11661SOL    HW235328   5.347   7.396   3.290
11662SOL     OW35329   3.987   5.912   2.582
11662SOL    HW135330   3.908   5.963   2.548
11662SOL    HW235331   3.978   5.897   2.680
11663SOL     OW35332   4.918   7.198   1.893
11663SOL    HW135333   4.924   7.105   1.930
11663SOL    HW235334   4.859   7.198   1.813
11664SOL     OW35335   4.546   6.588   3.234
11664SOL    HW135336   4.586   6.587   3.142
11664SOL    HW235337   4.556   6.680   3.274
11665SOL     OW35338   4.640   6.496   2.153
11665SOL    HW135339   4.703   6.534   2.085
11665SOL    HW235340   4.680   6.413   2.192
11666SOL     OW35341   5.228   7.193   1.906
11666SOL    HW135342   5.136   7.230   1.913
11666SOL    HW235343   5.266   7.213   1.816
11667SOL     OW35344   4.096   6.874   3.352
11667SOL    HW135345   4.083   6.967   3.318
11667SOL    HW235346   4.012   6.822   3.339
11668SOL     OW35347   5.338   6.878   3.151
11668SOL    HW135348   5.398   6.881   3.231
11668SOL    HW235349   5.263   6.942   3.164
11669SOL     OW35350   4.763   6.684   2.558
11669SOL    HW135351   4.693   6.637   2.612
11669SOL    HW235352   4.822   6.616   2.515
11670SOL     OW35353   4.738   5.822   2.833
11670SOL    HW135354   4.730   5.786   2.740
11670SOL    HW235355   4.736   5.746   2.898
11671SOL     OW35356   4.314   7.073   2.353
11671SOL    HW135357   4.356   7.015   2.283
11671SOL    HW235358   4.270   7.152   2.309
11672SOL     OW35359   3.979   6.934   2.152
11672SOL    HW135360   3.883   6.935   2.125
11672SOL    HW235361   3.991   6.987   2.236
11673SOL     OW35362   3.829   6.599   3.588
11673SOL    HW135363   3.752   6.566   3.642
11673SOL    HW235364   3.914   6.569   3.630
11674SOL     OW35365   4.396   5.789   3.351
11674SOL    HW135366   4.486   5.773   3.311
11674SOL    HW235367   4.404   5.794   3.450
11675SOL     OW35368   3.799   5.931   1.895
11675SOL    HW135369   3.707   5.903   1.866
11675SOL    HW235370   3.830   6.008   1.839
11676SOL     OW35371   3.796   5.752   2.180
11676SOL    HW135372   3.779   5.835   2.126
11676SOL    HW235373   3.886   5.715   2.158
11677SOL     OW35374   4.907   6.921   1.981
11677SOL    HW135375   4.808   6.910   1.983
11677SOL    HW235376   4.941   6.936   2.074
11678SOL     OW35377   4.337   6.428   3.293
11678SOL    HW135378   4.393   6.509   3.276
11678SOL    HW235379   4.396   6.348   3.296
11679SOL     OW35380   5.217   7.353   2.821
11679SOL    HW135381   5.250   7.417   2.752
11679SOL    HW235382   5.283   7.347   2.896
11680SOL     OW35383   4.440   6.151   3.570
11680SOL    HW135384   4.459   6.216   3.644
11680SOL    HW235385   4.500   6.071   3.579
11681SOL     OW35386   4.114   7.327   3.422
11681SOL    HW135387   4.023   7.368   3.420
11681SOL    HW235388   4.107   7.233   3.454
11682SOL     OW35389   4.949   5.911   2.311
11682SOL    HW135390   5.014   5.837   2.300
11682SOL    HW235391   4.969   5.961   2.395
11683SOL     OW35392   4.318   6.331   2.514
11683SOL    HW135393   4.368   6.416   2.495
11683SOL    HW235394   4.230   6.333   2.466
11684SOL     OW35395   5.454   6.520   3.379
11684SOL    HW135396   5.492   6.611   3.394
11684SOL    HW235397   5.446   6.503   3.280
11685SOL     OW35398   4.583   6.960   1.878
11685SOL    HW135399   4.537   6.975   1.966
11685SOL    HW235400   4.627   7.045   1.848
11686SOL     OW35401   4.385   7.376   2.815
11686SOL    HW135402   4.339   7.464   2.802
11686SOL    HW235403   4.484   7.388   2.808
11687SOL     OW35404   4.583   6.542   2.723
11687SOL    HW135405   4.637   6.473   2.771
11687SOL    HW235406   4.551   6.611   2.789
11688SOL     OW35407   4.807   6.570   1.949
11688SOL    HW135408   4.784   6.623   1.867
11688SOL    HW235409   4.888   6.514   1.930
11689SOL     OW35410   5.585   7.155   2.713
11689SOL    HW135411   5.514   7.143   2.643
11689SOL    HW235412   5.586   7.076   2.773
11690SOL     OW35413   3.945   6.900   3.706
11690SOL    HW135414   3.880   6.827   3.685
11690SOL    HW235415   3.949   6.914   3.804
11691SOL     OW35416   3.803   6.826   2.515
11691SOL    HW135417   3.802   6.779   2.603
11691SOL    HW235418   3.885   6.798   2.464
11692SOL     OW35419   4.396   6.977   3.486
11692SOL    HW135420   4.318   6.927   3.524
11692SOL    HW235421   4.393   7.072   3.517
11693SOL     OW35422   4.152   6.010   2.382
11693SOL    HW135423   4.182   5.938   2.320
11693SOL    HW235424   4.113   5.970   2.465
11694SOL     OW35425   5.429   7.073   2.966
11694SOL    HW135426   5.336   7.048   2.939
11694SOL    HW235427   5.455   7.023   3.048
11695SOL     OW35428   4.041   6.133   3.142
11695SOL    HW135429   4.079   6.074   3.214
11695SOL    HW235430   4.081   6.107   3.054
11696SOL     OW35431   4.536   7.172   2.549
11696SOL    HW135432   4.568   7.182   2.455
11696SOL    HW235433   4.457   7.110   2.551
11697SOL     OW35434   5.148   5.800   2.974
11697SOL    HW135435   5.200   5.735   3.029
11697SOL    HW235436   5.099   5.863   3.035
11698SOL     OW35437   4.725   5.620   3.016
11698SOL    HW135438   4.662   5.548   2.985
11698SOL    HW235439   4.818   5.584   3.016
11699SOL     OW35440   4.494   6.916   2.163
11699SOL    HW135441   4.448   6.829   2.180
11699SOL    HW235442   4.585   6.913   2.204
11700SOL     OW35443   4.342   7.153   3.146
11700SOL    HW135444   4.337   7.235   3.203
11700SOL    HW235445   4.431   7.150   3.101
11701SOL     OW35446   5.076   5.638   2.030
11701SOL    HW135447   5.111   5.597   1.946
11701SOL    HW235448   4.986   5.600   2.050
11702SOL     OW35449   5.024   6.039   2.553
11702SOL    HW135450   4.965   6.119   2.557
11702SOL    HW235451   5.039   6.004   2.646
11703SOL     OW35452   5.317   5.807   2.744
11703SOL    HW135453   5.233   5.806   2.798
11703SOL    HW235454   5.319   5.890   2.688
11704SOL     OW35455   3.763   6.663   2.162
11704SOL    HW135456   3.862   6.652   2.153
11704SOL    HW235457   3.723   6.577   2.194
11705SOL     OW35458   4.599   7.232   2.199
11705SOL    HW135459   4.522   7.197   2.145
11705SOL    HW235460   4.567   7.303   2.261
11706SOL     OW35461   3.954   6.214   3.837
11706SOL    HW135462   3.861   6.212   3.874
11706SOL    HW235463   3.955   6.175   3.745
11707SOL     OW35464   3.949   5.861   4.720
11707SOL    HW135465   3.984   5.844   4.812
11707SOL    HW235466   3.861   5.816   4.708
11708SOL     OW35467   3.743   5.954   4.371
11708SOL    HW135468   3.661   5.997   4.410
11708SOL    HW235469   3.715   5.881   4.308
11709SOL     OW35470   5.279   7.097   4.427
11709SOL    HW135471   5.222   7.081   4.508
11709SOL    HW235472   5.220   7.107   4.347
11710SOL     OW35473   4.859   6.289   4.441
11710SOL    HW135474   4.916   6.367   4.416
11710SOL    HW235475   4.799   6.315   4.517
11711SOL     OW35476   5.479   6.193   3.955
11711SOL    HW135477   5.467   6.180   3.856
11711SOL    HW235478   5.449   6.112   4.004
11712SOL     OW35479   4.574   6.384   5.547
11712SOL    HW135480   4.570   6.460   5.612
11712SOL    HW235481   4.596   6.420   5.456
11713SOL     OW35482   4.410   6.747   5.527
11713SOL    HW135483   4.470   6.826   5.541
11713SOL    HW235484   4.324   6.778   5.486
11714SOL     OW35485   5.184   7.091   5.063
11714SOL    HW135486   5.208   7.185   5.089
11714SOL    HW235487   5.168   7.037   5.145
11715SOL     OW35488   4.162   5.978   5.223
11715SOL    HW135489   4.244   5.922   5.232
11715SOL    HW235490   4.081   5.920   5.227
11716SOL     OW35491   5.327   6.033   4.461
11716SOL    HW135492   5.253   6.079   4.411
11716SOL    HW235493   5.378   6.101   4.514
11717SOL     OW35494   3.955   7.299   4.207
11717SOL    HW135495   3.989   7.376   4.261
11717SOL    HW235496   3.999   7.299   4.117
11718SOL     OW35497   4.851   6.927   5.414
11718SOL    HW135498   4.898   6.927   5.502
11718SOL    HW235499   4.803   6.840   5.403
11719SOL     OW35500   3.954   7.020   4.262
11719SOL    HW135501   3.928   7.116   4.262
11719SOL    HW235502   3.883   6.966   4.307
11720SOL     OW35503   4.344   7.372   5.163
11720SOL    HW135504   4.252   7.355   5.198
11720SOL    HW235505   4.372   7.464   5.189
11721SOL     OW35506   4.330   6.550   3.847
11721SOL    HW135507   4.337   6.634   3.793
11721SOL    HW235508   4.376   6.563   3.935
11722SOL     OW35509   5.318   5.700   5.204
11722SOL    HW135510   5.300   5.767   5.132
11722SOL    HW235511   5.315   5.746   5.293
11723SOL     OW35512   3.846   6.229   4.287
11723SOL    HW135513   3.801   6.141   4.304
11723SOL    HW235514   3.845   6.283   4.371
11724SOL     OW35515   5.566   7.353   4.083
11724SOL    HW135516   5.620   7.324   4.163
11724SOL    HW235517   5.596   7.443   4.054
11725SOL     OW35518   3.751   7.182   3.841
11725SOL    HW135519   3.732   7.086   3.862
11725SOL    HW235520   3.718   7.240   3.916
11726SOL     OW35521   5.413   6.508   4.336
11726SOL    HW135522   5.508   6.479   4.344
11726SOL    HW235523   5.405   6.573   4.261
11727SOL     OW35524   5.365   6.694   4.156
11727SOL    HW135525   5.451   6.696   4.104
11727SOL    HW235526   5.379   6.741   4.244
11728SOL     OW35527   3.837   6.323   5.321
11728SOL    HW135528   3.925   6.310   5.366
11728SOL    HW235529   3.824   6.420   5.299
11729SOL     OW35530   5.017   6.814   5.147
11729SOL    HW135531   5.054   6.741   5.089
11729SOL    HW235532   5.069   6.819   5.232
11730SOL     OW35533   4.533   5.590   4.226
11730SOL    HW135534   4.573   5.681   4.217
11730SOL    HW235535   4.433   5.598   4.232
11731SOL     OW35536   4.911   7.378   5.340
11731SOL    HW135537   4.935   7.438   5.264
11731SOL    HW235538   4.918   7.283   5.310
11732SOL     OW35539   4.041   5.837   5.525
11732SOL    HW135540   4.112   5.908   5.531
11732SOL    HW235541   3.953   5.876   5.553
11733SOL     OW35542   5.190   7.003   4.677
11733SOL    HW135543   5.131   7.009   4.757
11733SOL    HW235544   5.175   6.915   4.631
11734SOL     OW35545   5.391   7.300   4.296
11734SOL    HW135546   5.350   7.277   4.208
11734SOL    HW235547   5.373   7.226   4.361
11735SOL     OW35548   5.005   5.931   4.668
11735SOL    HW135549   4.919   5.881   4.655
11735SOL    HW235550   5.067   5.877   4.724
11736SOL     OW35551   5.300   7.248   4.031
11736SOL    HW135552   5.389   7.294   4.034
11736SOL    HW235553   5.279   7.224   3.936
11737SOL     OW35554   4.531   6.191   5.189
11737SOL    HW135555   4.484   6.188   5.278
11737SOL    HW235556   4.480   6.136   5.123
11738SOL     OW35557   5.118   6.055   5.398
11738SOL    HW135558   5.098   6.098   5.486
11738SOL    HW235559   5.196   5.993   5.407
11739SOL     OW35560   4.697   6.476   5.296
11739SOL    HW135561   4.743   6.392   5.267
11739SOL    HW235562   4.641   6.510   5.221
11740SOL     OW35563   4.715   5.996   4.966
11740SOL    HW135564   4.638   6.030   5.020
11740SOL    HW235565   4.681   5.945   4.887
11741SOL     OW35566   3.854   7.407   5.295
11741SOL    HW135567   3.844   7.392   5.394
11741SOL    HW235568   3.768   7.443   5.259
11742SOL     OW35569   4.589   5.934   3.919
11742SOL    HW135570   4.648   5.997   3.870
11742SOL    HW235571   4.608   5.840   3.890
11743SOL     OW35572   5.443   6.171   5.555
11743SOL    HW135573   5.417   6.260   5.519
11743SOL    HW235574   5.441   6.103   5.482
11744SOL     OW35575   5.086   6.730   4.269
11744SOL    HW135576   5.169   6.701   4.221
11744SOL    HW235577   5.037   6.797   4.213
11745SOL     OW35578   4.274   5.782   4.609
11745SOL    HW135579   4.269   5.777   4.709
11745SOL    HW235580   4.276   5.878   4.580
11746SOL     OW35581   5.519   6.652   4.597
11746SOL    HW135582   5.457   6.637   4.521
11746SOL    HW235583   5.467   6.663   4.682
11747SOL     OW35584   4.951   7.136   5.230
11747SOL    HW135585   4.957   7.059   5.294
11747SOL    HW235586   4.899   7.110   5.150
11748SOL     OW35587   4.045   6.529   3.966
11748SOL    HW135588   4.127   6.568   3.924
11748SOL    HW235589   4.018   6.447   3.917
11749SOL     OW35590   5.182   6.321   4.452
11749SOL    HW135591   5.177   6.256   4.527
11749SOL    HW235592   5.262   6.380   4.465
11750SOL     OW35593   4.185   6.852   5.451
11750SOL    HW135594   4.135   6.853   5.365
11750SOL    HW235595   4.122   6.834   5.527
11751SOL     OW35596   3.926   5.871   5.222
11751SOL    HW135597   3.846   5.931   5.209
11751SOL    HW235598   3.916   5.822   5.308
11752SOL     OW35599   5.356   6.963   3.805
11752SOL    HW135600   5.324   7.057   3.795
11752SOL    HW235601   5.280   6.900   3.793
11753SOL     OW35602   4.188   7.329   4.047
11753SOL    HW135603   4.221   7.368   4.133
11753SOL    HW235604   4.264   7.322   3.982
11754SOL     OW35605   5.124   5.693   4.150
11754SOL    HW135606   5.100   5.656   4.060
11754SOL    HW235607   5.223   5.709   4.154
11755SOL     OW35608   4.664   7.284   4.628
11755SOL    HW135609   4.744   7.227   4.649
11755SOL    HW235610   4.615   7.244   4.551
11756SOL     OW35611   5.271   5.808   5.453
11756SOL    HW135612   5.266   5.845   5.545
11756SOL    HW235613   5.199   5.739   5.441
11757SOL     OW35614   4.338   5.708   3.841
11757SOL    HW135615   4.436   5.686   3.848
11757SOL    HW235616   4.307   5.691   3.748
11758SOL     OW35617   4.505   5.850   5.473
11758SOL    HW135618   4.572   5.789   5.516
11758SOL    HW235619   4.432   5.869   5.538
11759SOL     OW35620   5.075   6.176   5.157
11759SOL    HW135621   5.103   6.133   5.242
11759SOL    HW235622   5.100   6.272   5.158
11760SOL     OW35623   4.646   6.089   4.623
11760SOL    HW135624   4.621   6.080   4.527
11760SOL    HW235625   4.694   6.007   4.654
11761SOL     OW35626   4.263   5.650   4.236
11761SOL    HW135627   4.182   5.651   4.294
11761SOL    HW235628   4.266   5.733   4.181
11762SOL     OW35629   4.021   5.621   3.895
11762SOL    HW135630   4.070   5.705   3.874
11762SOL    HW235631   4.083   5.556   3.940
11763SOL     OW35632   4.800   6.269   5.188
11763SOL    HW135633   4.720   6.208   5.191
11763SOL    HW235634   4.881   6.216   5.164
11764SOL     OW35635   4.183   6.738   4.465
11764SOL    HW135636   4.112   6.711   4.530
11764SOL    HW235637   4.157   6.710   4.372
11765SOL     OW35638   4.756   6.135   3.740
11765SOL    HW135639   4.715   6.217   3.701
11765SOL    HW235640   4.820   6.161   3.813
11766SOL     OW35641   3.802   6.142   5.110
11766SOL    HW135642   3.894   6.141   5.069
11766SOL    HW235643   3.796   6.216   5.177
11767SOL     OW35644   4.285   5.808   4.871
11767SOL    HW135645   4.323   5.724   4.908
11767SOL    HW235646   4.197   5.827   4.915
11768SOL     OW35647   4.590   6.040   4.366
11768SOL    HW135648   4.558   6.112   4.304
11768SOL    HW235649   4.614   5.959   4.313
11769SOL     OW35650   4.741   5.625   4.477
11769SOL    HW135651   4.669   5.630   4.408
11769SOL    HW235652   4.717   5.556   4.546
11770SOL     OW35653   5.153   6.759   4.591
11770SOL    HW135654   5.098   6.675   4.584
11770SOL    HW235655   5.179   6.788   4.499
11771SOL     OW35656   5.190   6.176   4.716
11771SOL    HW135657   5.160   6.081   4.723
11771SOL    HW235658   5.263   6.192   4.782
11772SOL     OW35659   5.581   6.419   4.101
11772SOL    HW135660   5.623   6.355   4.165
11772SOL    HW235661   5.543   6.368   4.023
11773SOL     OW35662   4.212   6.971   3.898
11773SOL    HW135663   4.125   6.956   3.945
11773SOL    HW235664   4.195   6.997   3.803
11774SOL     OW35665   5.388   6.866   4.381
11774SOL    HW135666   5.487   6.874   4.395
11774SOL    HW235667   5.343   6.950   4.412
11775SOL     OW35668   4.251   5.842   4.052
11775SOL    HW135669   4.278   5.783   3.977
11775SOL    HW235670   4.251   5.937   4.021
11776SOL     OW35671   5.478   6.809   5.312
11776SOL    HW135672   5.569   6.770   5.299
11776SOL    HW235673   5.486   6.905   5.336
11777SOL     OW35674   4.788   6.933   5.064
11777SOL    HW135675   4.708   6.910   5.119
11777SOL    HW235676   4.871   6.907   5.113
11778SOL     OW35677   5.316   7.215   5.349
11778SOL    HW135678   5.343   7.249   5.259
11778SOL    HW235679   5.395   7.177   5.395
11779SOL     OW35680   4.835   6.781   4.824
11779SOL    HW135681   4.795   6.825   4.905
11779SOL    HW235682   4.794   6.818   4.741
11780SOL     OW35683   5.362   6.685   4.803
11780SOL    HW135684   5.367   6.766   4.862
11780SOL    HW235685   5.276   6.687   4.752
11781SOL     OW35686   4.639   5.675   5.126
11781SOL    HW135687   4.664   5.655   5.031
11781SOL    HW235688   4.711   5.731   5.168
11782SOL     OW35689   4.704   6.702   5.443
11782SOL    HW135690   4.605   6.708   5.453
11782SOL    HW235691   4.727   6.622   5.387
11783SOL     OW35692   4.134   6.399   4.975
11783SOL    HW135693   4.220   6.411   5.025
11783SOL    HW235694   4.092   6.312   5.002
11784SOL     OW35695   4.998   5.972   4.986
11784SOL    HW135696   5.019   6.046   5.050
11784SOL    HW235697   4.909   5.989   4.943
11785SOL     OW35698   4.091   6.686   4.225
11785SOL    HW135699   4.084   6.769   4.169
11785SOL    HW235700   4.095   6.606   4.165
11786SOL     OW35701   4.290   6.123   4.589
11786SOL    HW135702   4.302   6.189   4.515
11786SOL    HW235703   4.336   6.157   4.672
11787SOL     OW35704   5.306   6.225   4.196
11787SOL    HW135705   5.275   6.286   4.269
11787SOL    HW235706   5.356   6.277   4.127
11788SOL     OW35707   4.126   6.337   5.322
11788SOL    HW135708   4.194   6.392   5.275
11788SOL    HW235709   4.166   6.249   5.349
11789SOL     OW35710   5.311   6.365   5.394
11789SOL    HW135711   5.219   6.403   5.389
11789SOL    HW235712   5.371   6.412   5.329
11790SOL     OW35713   4.737   5.691   5.494
11790SOL    HW135714   4.743   5.776   5.442
11790SOL    HW235715   4.769   5.615   5.437
11791SOL     OW35716   4.228   5.636   5.464
11791SOL    HW135717   4.186   5.579   5.394
11791SOL    HW235718   4.162   5.705   5.496
11792SOL     OW35719   5.084   6.448   4.769
11792SOL    HW135720   5.009   6.448   4.703
11792SOL    HW235721   5.121   6.356   4.778
11793SOL     OW35722   4.031   5.799   4.955
11793SOL    HW135723   4.008   5.836   5.045
11793SOL    HW235724   4.001   5.704   4.949
11794SOL     OW35725   4.456   6.220   4.788
11794SOL    HW135726   4.515   6.194   4.712
11794SOL    HW235727   4.428   6.316   4.777
11795SOL     OW35728   5.452   6.521   5.578
11795SOL    HW135729   5.406   6.514   5.489
11795SOL    HW235730   5.390   6.565   5.644
11796SOL     OW35731   4.031   5.649   4.342
11796SOL    HW135732   4.020   5.743   4.375
11796SOL    HW235733   4.026   5.586   4.419
11797SOL     OW35734   5.346   5.953   4.098
11797SOL    HW135735   5.348   5.877   4.162
11797SOL    HW235736   5.298   6.030   4.138
11798SOL     OW35737   4.747   6.352   4.690
11798SOL    HW135738   4.762   6.373   4.786
11798SOL    HW235739   4.717   6.257   4.681
11799SOL     OW35740   4.704   7.159   5.424
11799SOL    HW135741   4.684   7.203   5.336
11799SOL    HW235742   4.743   7.068   5.408
11800SOL     OW35743   5.583   7.104   5.329
11800SOL    HW135744   5.597   7.131   5.234
11800SOL    HW235745   5.666   7.126   5.382
11801SOL     OW35746   4.074   6.484   5.528
11801SOL    HW135747   4.150   6.528   5.576
11801SOL    HW235748   4.109   6.437   5.446
11802SOL     OW35749   5.264   5.860   3.849
11802SOL    HW135750   5.203   5.785   3.872
11802SOL    HW235751   5.286   5.912   3.932
11803SOL     OW35752   4.792   6.919   4.573
11803SOL    HW135753   4.799   6.835   4.518
11803SOL    HW235754   4.854   6.988   4.537
11804SOL     OW35755   4.063   6.095   4.730
11804SOL    HW135756   4.011   6.012   4.713
11804SOL    HW235757   4.140   6.100   4.666
11805SOL     OW35758   4.862   5.966   5.402
11805SOL    HW135759   4.817   6.029   5.466
11805SOL    HW235760   4.955   5.997   5.385
11806SOL     OW35761   4.884   5.793   5.201
11806SOL    HW135762   4.884   5.857   5.278
11806SOL    HW235763   4.912   5.841   5.118
11807SOL     OW35764   3.732   6.912   3.924
11807SOL    HW135765   3.639   6.933   3.893
11807SOL    HW235766   3.742   6.813   3.937
11808SOL     OW35767   4.726   6.382   4.962
11808SOL    HW135768   4.767   6.350   5.048
11808SOL    HW235769   4.630   6.355   4.959
11809SOL     OW35770   3.764   6.130   4.838
11809SOL    HW135771   3.849   6.097   4.797
11809SOL    HW235772   3.777   6.145   4.936
11810SOL     OW35773   3.913   6.106   5.446
11810SOL    HW135774   3.972   6.066   5.376
11810SOL    HW235775   3.855   6.177   5.405
11811SOL     OW35776   5.093   6.536   5.384
11811SOL    HW135777   5.132   6.625   5.404
11811SOL    HW235778   5.103   6.516   5.287
11812SOL     OW35779   5.381   6.190   4.930
11812SOL    HW135780   5.343   6.121   4.992
11812SOL    HW235781   5.463   6.154   4.886
11813SOL     OW35782   4.395   6.050   4.993
11813SOL    HW135783   4.361   5.961   4.963
11813SOL    HW235784   4.421   6.104   4.913
11814SOL     OW35785   4.654   7.264   5.189
11814SOL    HW135786   4.630   7.246   5.094
11814SOL    HW235787   4.684   7.358   5.199
11815SOL     OW35788   4.197   6.086   3.915
11815SOL    HW135789   4.258   6.166   3.919
11815SOL    HW235790   4.102   6.117   3.922
11816SOL     OW35791   5.071   6.645   4.958
11816SOL    HW135792   5.095   6.582   4.884
11816SOL    HW235793   4.981   6.685   4.940
11817SOL     OW35794   5.483   7.333   4.878
11817SOL    HW135795   5.544   7.363   4.805
11817SOL    HW235796   5.445   7.244   4.856
11818SOL     OW35797   4.976   7.317   4.852
11818SOL    HW135798   5.060   7.322   4.798
11818SOL    HW235799   4.953   7.221   4.870
11819SOL     OW35800   4.412   7.248   5.440
11819SOL    HW135801   4.356   7.329   5.449
11819SOL    HW235802   4.464   7.252   5.354
11820SOL     OW35803   5.450   5.721   4.247
11820SOL    HW135804   5.523   5.704   4.180
11820SOL    HW235805   5.419   5.634   4.285
11821SOL     OW35806   3.854   7.380   5.575
11821SOL    HW135807   3.813   7.306   5.628
11821SOL    HW235808   3.918   7.431   5.633
11822SOL     OW35809   5.004   6.513   4.396
11822SOL    HW135810   5.064   6.432   4.398
11822SOL    HW235811   5.044   6.582   4.336
11823SOL     OW35812   4.554   6.859   5.146
11823SOL    HW135813   4.549   6.892   5.241
11823SOL    HW235814   4.468   6.878   5.100
11824SOL     OW35815   4.396   7.202   3.878
11824SOL    HW135816   4.405   7.212   3.779
11824SOL    HW235817   4.356   7.113   3.899
11825SOL     OW35818   5.374   7.306   5.118
11825SOL    HW135819   5.427   7.316   5.034
11825SOL    HW235820   5.347   7.396   5.152
11826SOL     OW35821   5.565   5.761   4.687
11826SOL    HW135822   5.604   5.676   4.651
11826SOL    HW235823   5.467   5.763   4.668
11827SOL     OW35824   3.987   5.912   4.444
11827SOL    HW135825   3.908   5.963   4.410
11827SOL    HW235826   3.978   5.897   4.542
11828SOL     OW35827   4.546   6.588   5.096
11828SOL    HW135828   4.586   6.587   5.004
11828SOL    HW235829   4.556   6.680   5.136
11829SOL     OW35830   4.096   6.874   5.214
11829SOL    HW135831   4.083   6.967   5.180
11829SOL    HW235832   4.012   6.822   5.201
11830SOL     OW35833   5.338   6.878   5.013
11830SOL    HW135834   5.398   6.881   5.093
11830SOL    HW235835   5.263   6.942   5.026
11831SOL     OW35836   4.738   5.822   4.695
11831SOL    HW135837   4.730   5.786   4.602
11831SOL    HW235838   4.736   5.746   4.760
11832SOL     OW35839   4.314   7.073   4.215
11832SOL    HW135840   4.356   7.015   4.145
11832SOL    HW235841   4.270   7.152   4.171
11833SOL     OW35842   5.433   5.971   5.105
11833SOL    HW135843   5.506   6.040   5.109
11833SOL    HW235844   5.461   5.896   5.046
11834SOL     OW35845   3.979   6.934   4.014
11834SOL    HW135846   3.883   6.935   3.987
11834SOL    HW235847   3.991   6.987   4.098
11835SOL     OW35848   3.829   6.599   5.450
11835SOL    HW135849   3.752   6.566   5.504
11835SOL    HW235850   3.914   6.569   5.492
11836SOL     OW35851   4.396   5.789   5.213
11836SOL    HW135852   4.486   5.773   5.173
11836SOL    HW235853   4.404   5.794   5.312
11837SOL     OW35854   3.799   5.931   3.757
11837SOL    HW135855   3.707   5.903   3.728
11837SOL    HW235856   3.830   6.008   3.701
11838SOL     OW35857   5.164   6.442   5.122
11838SOL    HW135858   5.107   6.494   5.059
11838SOL    HW235859   5.260   6.454   5.098
11839SOL     OW35860   3.796   5.752   4.042
11839SOL    HW135861   3.779   5.835   3.988
11839SOL    HW235862   3.886   5.715   4.020
11840SOL     OW35863   4.337   6.428   5.155
11840SOL    HW135864   4.393   6.509   5.138
11840SOL    HW235865   4.396   6.348   5.158
11841SOL     OW35866   5.217   7.353   4.683
11841SOL    HW135867   5.250   7.417   4.614
11841SOL    HW235868   5.283   7.347   4.758
11842SOL     OW35869   4.440   6.151   5.432
11842SOL    HW135870   4.459   6.216   5.506
11842SOL    HW235871   4.500   6.071   5.441
11843SOL     OW35872   5.174   6.806   5.357
11843SOL    HW135873   5.165   6.796   5.456
11843SOL    HW235874   5.270   6.799   5.331
11844SOL     OW35875   5.398   6.469   4.978
11844SOL    HW135876   5.371   6.380   4.941
11844SOL    HW235877   5.399   6.537   4.905
11845SOL     OW35878   5.501   5.928   5.366
11845SOL    HW135879   5.484   5.959   5.272
11845SOL    HW235880   5.417   5.891   5.404
11846SOL     OW35881   5.454   6.520   5.241
11846SOL    HW135882   5.492   6.611   5.256
11846SOL    HW235883   5.446   6.503   5.142
11847SOL     OW35884   4.583   6.960   3.740
11847SOL    HW135885   4.537   6.975   3.828
11847SOL    HW235886   4.627   7.045   3.710
11848SOL     OW35887   4.385   7.376   4.677
11848SOL    HW135888   4.339   7.464   4.664
11848SOL    HW235889   4.484   7.388   4.670
11849SOL     OW35890   4.583   6.542   4.585
11849SOL    HW135891   4.637   6.473   4.633
11849SOL    HW235892   4.551   6.611   4.651
11850SOL     OW35893   5.585   7.155   4.575
11850SOL    HW135894   5.514   7.143   4.505
11850SOL    HW235895   5.586   7.076   4.635
11851SOL     OW35896   3.945   6.900   5.568
11851SOL    HW135897   3.880   6.827   5.547
11851SOL    HW235898   3.949   6.914   5.666
11852SOL     OW35899   3.803   6.826   4.377
11852SOL    HW135900   3.802   6.779   4.465
11852SOL    HW235901   3.885   6.798   4.326
11853SOL     OW35902   4.396   6.977   5.348
11853SOL    HW135903   4.318   6.927   5.386
11853SOL    HW235904   4.393   7.072   5.379
11854SOL     OW35905   5.548   5.778   4.951
11854SOL    HW135906   5.544   5.688   4.995
11854SOL    HW235907   5.551   5.767   4.852
11855SOL     OW35908   4.152   6.010   4.244
11855SOL    HW135909   4.182   5.938   4.182
11855SOL    HW235910   4.113   5.970   4.327
11856SOL     OW35911   5.429   7.073   4.828
11856SOL    HW135912   5.336   7.048   4.801
11856SOL    HW235913   5.455   7.023   4.910
11857SOL     OW35914   4.041   6.133   5.004
11857SOL    HW135915   4.079   6.074   5.076
11857SOL    HW235916   4.081   6.107   4.916
11858SOL     OW35917   4.536   7.172   4.411
11858SOL    HW135918   4.568   7.182   4.317
11858SOL    HW235919   4.457   7.110   4.413
11859SOL     OW35920   5.148   5.800   4.836
11859SOL    HW135921   5.200   5.735   4.891
11859SOL    HW235922   5.099   5.863   4.897
11860SOL     OW35923   4.725   5.620   4.878
11860SOL    HW135924   4.662   5.548   4.847
11860SOL    HW235925   4.818   5.584   4.878
11861SOL     OW35926   4.342   7.153   5.008
11861SOL    HW135927   4.337   7.235   5.065
11861SOL    HW235928   4.431   7.150   4.963
11862SOL     OW35929   5.076   5.638   3.892
11862SOL    HW135930   5.111   5.597   3.808
11862SOL    HW235931   4.986   5.600   3.912
11863SOL     OW35932   5.024   6.039   4.415
11863SOL    HW135933   4.965   6.119   4.419
11863SOL    HW235934   5.039   6.004   4.508
11864SOL     OW35935   5.317   5.807   4.606
11864SOL    HW135936   5.233   5.806   4.660
11864SOL    HW235937   5.319   5.890   4.550
11865SOL     OW35938   3.763   6.663   4.024
11865SOL    HW135939   3.862   6.652   4.015
11865SOL    HW235940   3.723   6.577   4.056
11866SOL     OW35941   4.599   7.232   4.061
11866SOL    HW135942   4.522   7.197   4.007
11866SOL    HW235943   4.567   7.303   4.123
11867SOL     OW35944   3.954   6.214   5.699
11867SOL    HW135945   3.861   6.212   5.736
11867SOL    HW235946   3.955   6.175   5.607
11868SOL     OW35947   3.949   5.861   6.582
11868SOL    HW135948   3.984   5.844   6.674
11868SOL    HW235949   3.861   5.816   6.570
11869SOL     OW35950   3.743   5.954   6.233
11869SOL    HW135951   3.661   5.997   6.272
11869SOL    HW235952   3.715   5.881   6.170
11870SOL     OW35953   4.293   6.861   6.751
11870SOL    HW135954   4.200   6.854   6.714
11870SOL    HW235955   4.304   6.950   6.795
11871SOL     OW35956   5.279   7.097   6.289
11871SOL    HW135957   5.222   7.081   6.370
11871SOL    HW235958   5.220   7.107   6.209
11872SOL     OW35959   4.859   6.289   6.303
11872SOL    HW135960   4.916   6.367   6.278
11872SOL    HW235961   4.799   6.315   6.379
11873SOL     OW35962   5.479   6.193   5.817
11873SOL    HW135963   5.467   6.180   5.718
11873SOL    HW235964   5.449   6.112   5.866
11874SOL     OW35965   4.492   6.730   6.609
11874SOL    HW135966   4.414   6.747   6.669
11874SOL    HW235967   4.526   6.817   6.573
11875SOL     OW35968   4.574   6.384   7.409
11875SOL    HW135969   4.570   6.460   7.474
11875SOL    HW235970   4.596   6.420   7.318
11876SOL     OW35971   4.409   6.598   6.251
11876SOL    HW135972   4.478   6.582   6.321
11876SOL    HW235973   4.336   6.655   6.289
11877SOL     OW35974   4.410   6.747   7.389
11877SOL    HW135975   4.470   6.826   7.403
11877SOL    HW235976   4.324   6.778   7.348
11878SOL     OW35977   4.059   7.021   6.647
11878SOL    HW135978   3.981   6.990   6.594
11878SOL    HW235979   4.117   7.079   6.590
11879SOL     OW35980   5.184   7.091   6.925
11879SOL    HW135981   5.208   7.185   6.951
11879SOL    HW235982   5.168   7.037   7.007
11880SOL     OW35983   4.162   5.978   7.085
11880SOL    HW135984   4.244   5.922   7.094
11880SOL    HW235985   4.081   5.920   7.089
11881SOL     OW35986   5.327   6.033   6.323
11881SOL    HW135987   5.253   6.079   6.273
11881SOL    HW235988   5.378   6.101   6.376
11882SOL     OW35989   3.955   7.299   6.069
11882SOL    HW135990   3.989   7.376   6.123
11882SOL    HW235991   3.999   7.299   5.979
11883SOL     OW35992   4.851   6.927   7.276
11883SOL    HW135993   4.898   6.927   7.364
11883SOL    HW235994   4.803   6.840   7.265
11884SOL     OW35995   3.954   7.020   6.124
11884SOL    HW135996   3.928   7.116   6.124
11884SOL    HW235997   3.883   6.966   6.169
11885SOL     OW35998   3.964   6.677   6.472
11885SOL    HW135999   3.978   6.593   6.524
11885SOL    HW236000   3.909   6.741   6.527
11886SOL     OW36001   4.344   7.372   7.025
11886SOL    HW136002   4.252   7.355   7.060
11886SOL    HW236003   4.372   7.464   7.051
11887SOL     OW36004   4.330   6.550   5.709
11887SOL    HW136005   4.337   6.634   5.655
11887SOL    HW236006   4.376   6.563   5.797
11888SOL     OW36007   5.318   5.700   7.066
11888SOL    HW136008   5.300   5.767   6.994
11888SOL    HW236009   5.315   5.746   7.155
11889SOL     OW36010   3.846   6.229   6.149
11889SOL    HW136011   3.801   6.141   6.166
11889SOL    HW236012   3.845   6.283   6.233
11890SOL     OW36013   5.566   7.353   5.945
11890SOL    HW136014   5.620   7.324   6.025
11890SOL    HW236015   5.596   7.443   5.916
11891SOL     OW36016   3.751   7.182   5.703
11891SOL    HW136017   3.732   7.086   5.724
11891SOL    HW236018   3.718   7.240   5.778
11892SOL     OW36019   5.413   6.508   6.198
11892SOL    HW136020   5.508   6.479   6.206
11892SOL    HW236021   5.405   6.573   6.123
11893SOL     OW36022   5.365   6.694   6.018
11893SOL    HW136023   5.451   6.696   5.966
11893SOL    HW236024   5.379   6.741   6.106
11894SOL     OW36025   3.837   6.323   7.183
11894SOL    HW136026   3.925   6.310   7.228
11894SOL    HW236027   3.824   6.420   7.161
11895SOL     OW36028   4.337   6.951   6.312
11895SOL    HW136029   4.288   6.864   6.321
11895SOL    HW236030   4.314   6.994   6.225
11896SOL     OW36031   5.017   6.814   7.009
11896SOL    HW136032   5.054   6.741   6.951
11896SOL    HW236033   5.069   6.819   7.094
11897SOL     OW36034   4.533   5.590   6.088
11897SOL    HW136035   4.573   5.681   6.079
11897SOL    HW236036   4.433   5.598   6.094
11898SOL     OW36037   3.921   6.562   6.850
11898SOL    HW136038   4.010   6.517   6.836
11898SOL    HW236039   3.848   6.497   6.831
11899SOL     OW36040   5.249   6.585   5.776
11899SOL    HW136041   5.186   6.509   5.789
11899SOL    HW236042   5.297   6.603   5.862
11900SOL     OW36043   4.911   7.378   7.202
11900SOL    HW136044   4.935   7.438   7.126
11900SOL    HW236045   4.918   7.283   7.172
11901SOL     OW36046   4.041   5.837   7.387
11901SOL    HW136047   4.112   5.908   7.393
11901SOL    HW236048   3.953   5.876   7.415
11902SOL     OW36049   5.190   7.003   6.539
11902SOL    HW136050   5.131   7.009   6.619
11902SOL    HW236051   5.175   6.915   6.493
11903SOL     OW36052   5.391   7.300   6.158
11903SOL    HW136053   5.350   7.277   6.070
11903SOL    HW236054   5.373   7.226   6.223
11904SOL     OW36055   4.322   6.315   5.856
11904SOL    HW136056   4.346   6.384   5.788
11904SOL    HW236057   4.244   6.348   5.910
11905SOL     OW36058   5.005   5.931   6.530
11905SOL    HW136059   4.919   5.881   6.517
11905SOL    HW236060   5.067   5.877   6.586
11906SOL     OW36061   5.300   7.248   5.893
11906SOL    HW136062   5.389   7.294   5.896
11906SOL    HW236063   5.279   7.224   5.798
11907SOL     OW36064   4.531   6.191   7.051
11907SOL    HW136065   4.484   6.188   7.140
11907SOL    HW236066   4.480   6.136   6.985
11908SOL     OW36067   5.118   6.055   7.260
11908SOL    HW136068   5.098   6.098   7.348
11908SOL    HW236069   5.196   5.993   7.269
11909SOL     OW36070   4.697   6.476   7.158
11909SOL    HW136071   4.743   6.392   7.129
11909SOL    HW236072   4.641   6.510   7.083
11910SOL     OW36073   4.715   5.996   6.828
11910SOL    HW136074   4.638   6.030   6.882
11910SOL    HW236075   4.681   5.945   6.749
11911SOL     OW36076   4.765   6.287   6.015
11911SOL    HW136077   4.791   6.283   6.111
11911SOL    HW236078   4.680   6.236   6.001
11912SOL     OW36079   3.800   6.397   6.375
11912SOL    HW136080   3.899   6.385   6.384
11912SOL    HW236081   3.776   6.492   6.396
11913SOL     OW36082   3.854   7.407   7.157
11913SOL    HW136083   3.844   7.392   7.256
11913SOL    HW236084   3.768   7.443   7.121
11914SOL     OW36085   4.589   5.934   5.781
11914SOL    HW136086   4.648   5.997   5.732
11914SOL    HW236087   4.608   5.840   5.752
11915SOL     OW36088   5.443   6.171   7.417
11915SOL    HW136089   5.417   6.260   7.381
11915SOL    HW236090   5.441   6.103   7.344
11916SOL     OW36091   5.086   6.730   6.131
11916SOL    HW136092   5.169   6.701   6.083
11916SOL    HW236093   5.037   6.797   6.075
11917SOL     OW36094   4.274   5.782   6.471
11917SOL    HW136095   4.269   5.777   6.571
11917SOL    HW236096   4.276   5.878   6.442
11918SOL     OW36097   4.732   7.042   6.063
11918SOL    HW136098   4.686   7.114   6.011
11918SOL    HW236099   4.728   7.062   6.161
11919SOL     OW36100   4.075   7.387   6.439
11919SOL    HW136101   4.125   7.301   6.445
11919SOL    HW236102   4.140   7.464   6.436
11920SOL     OW36103   5.519   6.652   6.459
11920SOL    HW136104   5.457   6.637   6.383
11920SOL    HW236105   5.467   6.663   6.544
11921SOL     OW36106   4.951   7.136   7.092
11921SOL    HW136107   4.957   7.059   7.156
11921SOL    HW236108   4.899   7.110   7.012
11922SOL     OW36109   4.045   6.529   5.828
11922SOL    HW136110   4.127   6.568   5.786
11922SOL    HW236111   4.018   6.447   5.779
11923SOL     OW36112   5.182   6.321   6.314
11923SOL    HW136113   5.177   6.256   6.389
11923SOL    HW236114   5.262   6.380   6.327
11924SOL     OW36115   4.185   6.852   7.313
11924SOL    HW136116   4.135   6.853   7.227
11924SOL    HW236117   4.122   6.834   7.389
11925SOL     OW36118   4.835   7.362   5.823
11925SOL    HW136119   4.775   7.300   5.873
11925SOL    HW236120   4.866   7.318   5.738
11926SOL     OW36121   3.926   5.871   7.084
11926SOL    HW136122   3.846   5.931   7.071
11926SOL    HW236123   3.916   5.822   7.170
11927SOL     OW36124   5.356   6.963   5.667
11927SOL    HW136125   5.324   7.057   5.657
11927SOL    HW236126   5.280   6.900   5.655
11928SOL     OW36127   4.188   7.329   5.909
11928SOL    HW136128   4.221   7.368   5.995
11928SOL    HW236129   4.264   7.322   5.844
11929SOL     OW36130   5.124   5.693   6.012
11929SOL    HW136131   5.100   5.656   5.922
11929SOL    HW236132   5.223   5.709   6.016
11930SOL     OW36133   3.973   7.371   6.827
11930SOL    HW136134   4.030   7.306   6.877
11930SOL    HW236135   3.957   7.338   6.734
11931SOL     OW36136   4.664   7.284   6.490
11931SOL    HW136137   4.744   7.227   6.511
11931SOL    HW236138   4.615   7.244   6.413
11932SOL     OW36139   4.106   6.286   6.066
11932SOL    HW136140   4.151   6.196   6.063
11932SOL    HW236141   4.012   6.275   6.099
11933SOL     OW36142   5.271   5.808   7.315
11933SOL    HW136143   5.266   5.845   7.407
11933SOL    HW236144   5.199   5.739   7.303
11934SOL     OW36145   4.338   5.708   5.703
11934SOL    HW136146   4.436   5.686   5.710
11934SOL    HW236147   4.307   5.691   5.610
11935SOL     OW36148   4.505   5.850   7.335
11935SOL    HW136149   4.572   5.789   7.378
11935SOL    HW236150   4.432   5.869   7.400
11936SOL     OW36151   4.612   7.100   6.781
11936SOL    HW136152   4.589   7.075   6.687
11936SOL    HW236153   4.673   7.031   6.820
11937SOL     OW36154   5.075   6.176   7.019
11937SOL    HW136155   5.103   6.133   7.104
11937SOL    HW236156   5.100   6.272   7.020
11938SOL     OW36157   4.527   6.988   6.510
11938SOL    HW136158   4.617   7.002   6.468
11938SOL    HW236159   4.456   6.990   6.439
11939SOL     OW36160   4.646   6.089   6.485
11939SOL    HW136161   4.621   6.080   6.389
11939SOL    HW236162   4.694   6.007   6.516
11940SOL     OW36163   4.263   5.650   6.098
11940SOL    HW136164   4.182   5.651   6.156
11940SOL    HW236165   4.266   5.733   6.043
11941SOL     OW36166   4.021   5.621   5.757
11941SOL    HW136167   4.070   5.705   5.736
11941SOL    HW236168   4.083   5.556   5.802
11942SOL     OW36169   4.659   5.822   6.066
11942SOL    HW136170   4.611   5.863   5.988
11942SOL    HW236171   4.758   5.820   6.047
11943SOL     OW36172   4.800   6.269   7.050
11943SOL    HW136173   4.720   6.208   7.053
11943SOL    HW236174   4.881   6.216   7.026
11944SOL     OW36175   4.951   7.156   6.379
11944SOL    HW136176   4.972   7.230   6.314
11944SOL    HW236177   5.019   7.156   6.452
11945SOL     OW36178   4.183   6.738   6.327
11945SOL    HW136179   4.112   6.711   6.392
11945SOL    HW236180   4.157   6.710   6.234
11946SOL     OW36181   4.995   7.383   6.177
11946SOL    HW136182   5.039   7.447   6.113
11946SOL    HW236183   4.945   7.435   6.247
11947SOL     OW36184   4.756   6.135   5.602
11947SOL    HW136185   4.715   6.217   5.563
11947SOL    HW236186   4.820   6.161   5.675
11948SOL     OW36187   3.802   6.142   6.972
11948SOL    HW136188   3.894   6.141   6.931
11948SOL    HW236189   3.796   6.216   7.039
11949SOL     OW36190   4.285   5.808   6.733
11949SOL    HW136191   4.323   5.724   6.770
11949SOL    HW236192   4.197   5.827   6.777
11950SOL     OW36193   4.590   6.040   6.228
11950SOL    HW136194   4.558   6.112   6.166
11950SOL    HW236195   4.614   5.959   6.175
11951SOL     OW36196   4.741   5.625   6.339
11951SOL    HW136197   4.669   5.630   6.270
11951SOL    HW236198   4.717   5.556   6.408
11952SOL     OW36199   5.153   6.759   6.453
11952SOL    HW136200   5.098   6.675   6.446
11952SOL    HW236201   5.179   6.788   6.361
11953SOL     OW36202   5.190   6.176   6.578
11953SOL    HW136203   5.160   6.081   6.585
11953SOL    HW236204   5.263   6.192   6.644
11954SOL     OW36205   5.581   6.419   5.963
11954SOL    HW136206   5.623   6.355   6.027
11954SOL    HW236207   5.543   6.368   5.885
11955SOL     OW36208   4.212   6.971   5.760
11955SOL    HW136209   4.125   6.956   5.807
11955SOL    HW236210   4.195   6.997   5.665
11956SOL     OW36211   5.388   6.866   6.243
11956SOL    HW136212   5.487   6.874   6.257
11956SOL    HW236213   5.343   6.950   6.274
11957SOL     OW36214   5.114   6.161   5.664
11957SOL    HW136215   5.060   6.140   5.745
11957SOL    HW236216   5.205   6.120   5.673
11958SOL     OW36217   4.251   5.842   5.914
11958SOL    HW136218   4.278   5.783   5.839
11958SOL    HW236219   4.251   5.937   5.883
11959SOL     OW36220   5.478   6.809   7.174
11959SOL    HW136221   5.569   6.770   7.161
11959SOL    HW236222   5.486   6.905   7.198
11960SOL     OW36223   4.788   6.933   6.926
11960SOL    HW136224   4.708   6.910   6.981
11960SOL    HW236225   4.871   6.907   6.975
11961SOL     OW36226   5.316   7.215   7.211
11961SOL    HW136227   5.343   7.249   7.121
11961SOL    HW236228   5.395   7.177   7.257
11962SOL     OW36229   4.835   6.781   6.686
11962SOL    HW136230   4.795   6.825   6.767
11962SOL    HW236231   4.794   6.818   6.603
11963SOL     OW36232   5.362   6.685   6.665
11963SOL    HW136233   5.367   6.766   6.724
11963SOL    HW236234   5.276   6.687   6.614
11964SOL     OW36235   4.639   5.675   6.988
11964SOL    HW136236   4.664   5.655   6.893
11964SOL    HW236237   4.711   5.731   7.030
11965SOL     OW36238   4.704   6.702   7.305
11965SOL    HW136239   4.605   6.708   7.315
11965SOL    HW236240   4.727   6.622   7.249
11966SOL     OW36241   4.429   6.636   5.954
11966SOL    HW136242   4.415   6.643   6.053
11966SOL    HW236243   4.513   6.585   5.936
11967SOL     OW36244   4.134   6.399   6.837
11967SOL    HW136245   4.220   6.411   6.887
11967SOL    HW236246   4.092   6.312   6.864
11968SOL     OW36247   4.998   5.972   6.848
11968SOL    HW136248   5.019   6.046   6.912
11968SOL    HW236249   4.909   5.989   6.805
11969SOL     OW36250   3.788   7.150   6.917
11969SOL    HW136251   3.742   7.232   6.883
11969SOL    HW236252   3.886   7.169   6.926
11970SOL     OW36253   4.091   6.686   6.087
11970SOL    HW136254   4.084   6.769   6.031
11970SOL    HW236255   4.095   6.606   6.027
11971SOL     OW36256   4.290   6.123   6.451
11971SOL    HW136257   4.302   6.189   6.377
11971SOL    HW236258   4.336   6.157   6.534
11972SOL     OW36259   4.976   6.934   5.974
11972SOL    HW136260   5.026   7.011   6.014
11972SOL    HW236261   4.881   6.936   6.006
11973SOL     OW36262   4.996   7.031   6.728
11973SOL    HW136263   5.043   7.044   6.815
11973SOL    HW236264   4.930   6.957   6.737
11974SOL     OW36265   5.306   6.225   6.058
11974SOL    HW136266   5.275   6.286   6.131
11974SOL    HW236267   5.356   6.277   5.989
11975SOL     OW36268   4.078   7.096   6.915
11975SOL    HW136269   4.057   7.052   6.828
11975SOL    HW236270   4.175   7.122   6.918
11976SOL     OW36271   4.126   6.337   7.184
11976SOL    HW136272   4.194   6.392   7.137
11976SOL    HW236273   4.166   6.249   7.211
11977SOL     OW36274   5.311   6.365   7.256
11977SOL    HW136275   5.219   6.403   7.251
11977SOL    HW236276   5.371   6.412   7.191
11978SOL     OW36277   4.737   5.691   7.356
11978SOL    HW136278   4.743   5.776   7.304
11978SOL    HW236279   4.769   5.615   7.299
11979SOL     OW36280   4.228   5.636   7.326
11979SOL    HW136281   4.186   5.579   7.256
11979SOL    HW236282   4.162   5.705   7.358
11980SOL     OW36283   4.297   6.456   6.615
11980SOL    HW136284   4.341   6.545   6.606
11980SOL    HW236285   4.234   6.456   6.692
11981SOL     OW36286   5.084   6.448   6.631
11981SOL    HW136287   5.009   6.448   6.565
11981SOL    HW236288   5.121   6.356   6.640
11982SOL     OW36289   4.933   6.111   5.861
11982SOL    HW136290   4.946   6.027   5.915
11982SOL    HW236291   4.904   6.185   5.921
11983SOL     OW36292   4.031   5.799   6.817
11983SOL    HW136293   4.008   5.836   6.907
11983SOL    HW236294   4.001   5.704   6.811
11984SOL     OW36295   3.761   6.896   6.868
11984SOL    HW136296   3.814   6.847   6.936
11984SOL    HW236297   3.783   6.994   6.873
11985SOL     OW36298   4.456   6.220   6.650
11985SOL    HW136299   4.515   6.194   6.574
11985SOL    HW236300   4.428   6.316   6.639
11986SOL     OW36301   5.452   6.521   7.440
11986SOL    HW136302   5.406   6.514   7.351
11986SOL    HW236303   5.390   6.565   7.506
11987SOL     OW36304   4.031   5.649   6.204
11987SOL    HW136305   4.020   5.743   6.237
11987SOL    HW236306   4.026   5.586   6.281
11988SOL     OW36307   5.346   5.953   5.960
11988SOL    HW136308   5.348   5.877   6.024
11988SOL    HW236309   5.298   6.030   6.000
11989SOL     OW36310   4.747   6.352   6.552
11989SOL    HW136311   4.762   6.373   6.648
11989SOL    HW236312   4.717   6.257   6.543
11990SOL     OW36313   4.704   7.159   7.286
11990SOL    HW136314   4.684   7.203   7.198
11990SOL    HW236315   4.743   7.068   7.270
11991SOL     OW36316   5.583   7.104   7.191
11991SOL    HW136317   5.597   7.131   7.096
11991SOL    HW236318   5.666   7.126   7.244
11992SOL     OW36319   4.074   6.484   7.390
11992SOL    HW136320   4.150   6.528   7.438
11992SOL    HW236321   4.109   6.437   7.308
11993SOL     OW36322   5.264   5.860   5.711
11993SOL    HW136323   5.203   5.785   5.734
11993SOL    HW236324   5.286   5.912   5.794
11994SOL     OW36325   5.027   6.424   5.628
11994SOL    HW136326   5.061   6.331   5.643
11994SOL    HW236327   5.045   6.451   5.533
11995SOL     OW36328   4.792   6.919   6.435
11995SOL    HW136329   4.799   6.835   6.380
11995SOL    HW236330   4.854   6.988   6.399
11996SOL     OW36331   4.043   6.396   6.535
11996SOL    HW136332   4.136   6.432   6.540
11996SOL    HW236333   4.037   6.311   6.587
11997SOL     OW36334   4.063   6.095   6.592
11997SOL    HW136335   4.011   6.012   6.575
11997SOL    HW236336   4.140   6.100   6.528
11998SOL     OW36337   4.862   5.966   7.264
11998SOL    HW136338   4.817   6.029   7.328
11998SOL    HW236339   4.955   5.997   7.247
11999SOL     OW36340   4.884   5.793   7.063
11999SOL    HW136341   4.884   5.857   7.140
11999SOL    HW236342   4.912   5.841   6.980
12000SOL     OW36343   3.732   6.912   5.786
12000SOL    HW136344   3.639   6.933   5.755
12000SOL    HW236345   3.742   6.813   5.799
12001SOL     OW36346   3.812   7.387   6.513
12001SOL    HW136347   3.770   7.301   6.486
12001SOL    HW236348   3.906   7.390   6.479
12002SOL     OW36349   4.228   7.154   6.496
12002SOL    HW136350   4.294   7.228   6.505
12002SOL    HW236351   4.272   7.075   6.454
12003SOL     OW36352   4.726   6.382   6.824
12003SOL    HW136353   4.767   6.350   6.910
12003SOL    HW236354   4.630   6.355   6.821
12004SOL     OW36355   3.764   6.130   6.700
12004SOL    HW136356   3.849   6.097   6.659
12004SOL    HW236357   3.777   6.145   6.798
12005SOL     OW36358   3.913   6.106   7.308
12005SOL    HW136359   3.972   6.066   7.238
12005SOL    HW236360   3.855   6.177   7.267
12006SOL     OW36361   5.093   6.536   7.246
12006SOL    HW136362   5.132   6.625   7.266
12006SOL    HW236363   5.103   6.516   7.149
12007SOL     OW36364   4.539   6.158   5.911
12007SOL    HW136365   4.546   6.069   5.865
12007SOL    HW236366   4.445   6.192   5.903
12008SOL     OW36367   5.381   6.190   6.792
12008SOL    HW136368   5.343   6.121   6.854
12008SOL    HW236369   5.463   6.154   6.748
12009SOL     OW36370   3.976   7.150   7.330
12009SOL    HW136371   3.946   7.207   7.406
12009SOL    HW236372   3.969   7.053   7.356
12010SOL     OW36373   4.395   6.050   6.855
12010SOL    HW136374   4.361   5.961   6.825
12010SOL    HW236375   4.421   6.104   6.775
12011SOL     OW36376   4.654   7.264   7.051
12011SOL    HW136377   4.630   7.246   6.956
12011SOL    HW236378   4.684   7.358   7.061
12012SOL     OW36379   4.197   6.086   5.777
12012SOL    HW136380   4.258   6.166   5.781
12012SOL    HW236381   4.102   6.117   5.784
12013SOL     OW36382   3.883   6.723   7.052
12013SOL    HW136383   3.905   6.662   7.128
12013SOL    HW236384   3.893   6.674   6.966
12014SOL     OW36385   5.071   6.645   6.820
12014SOL    HW136386   5.095   6.582   6.746
12014SOL    HW236387   4.981   6.685   6.802
12015SOL     OW36388   5.026   6.441   5.895
12015SOL    HW136389   4.940   6.410   5.937
12015SOL    HW236390   5.022   6.427   5.796
12016SOL     OW36391   5.483   7.333   6.740
12016SOL    HW136392   5.544   7.363   6.667
12016SOL    HW236393   5.445   7.244   6.718
12017SOL     OW36394   4.976   7.317   6.714
12017SOL    HW136395   5.060   7.322   6.660
12017SOL    HW236396   4.953   7.221   6.732
12018SOL     OW36397   3.807   6.844   6.608
12018SOL    HW136398   3.802   6.843   6.708
12018SOL    HW236399   3.724   6.803   6.570
12019SOL     OW36400   4.412   7.248   7.302
12019SOL    HW136401   4.356   7.329   7.311
12019SOL    HW236402   4.464   7.252   7.216
12020SOL     OW36403   5.450   5.721   6.109
12020SOL    HW136404   5.523   5.704   6.042
12020SOL    HW236405   5.419   5.634   6.147
12021SOL     OW36406   5.112   7.159   6.063
12021SOL    HW136407   5.179   7.171   5.989
12021SOL    HW236408   5.072   7.248   6.086
12022SOL     OW36409   3.854   7.380   7.437
12022SOL    HW136410   3.813   7.306   7.490
12022SOL    HW236411   3.918   7.431   7.495
12023SOL     OW36412   5.004   6.513   6.258
12023SOL    HW136413   5.064   6.432   6.260
12023SOL    HW236414   5.044   6.582   6.198
12024SOL     OW36415   4.554   6.859   7.008
12024SOL    HW136416   4.549   6.892   7.103
12024SOL    HW236417   4.468   6.878   6.962
12025SOL     OW36418   4.396   7.202   5.740
12025SOL    HW136419   4.405   7.212   5.641
12025SOL    HW236420   4.356   7.113   5.761
12026SOL     OW36421   5.374   7.306   6.980
12026SOL    HW136422   5.427   7.316   6.896
12026SOL    HW236423   5.347   7.396   7.014
12027SOL     OW36424   5.565   5.761   6.549
12027SOL    HW136425   5.604   5.676   6.513
12027SOL    HW236426   5.467   5.763   6.530
12028SOL     OW36427   3.987   5.912   6.306
12028SOL    HW136428   3.908   5.963   6.272
12028SOL    HW236429   3.978   5.897   6.404
12029SOL     OW36430   4.918   7.198   5.617
12029SOL    HW136431   4.924   7.105   5.654
12029SOL    HW236432   4.859   7.198   5.537
12030SOL     OW36433   4.546   6.588   6.958
12030SOL    HW136434   4.586   6.587   6.866
12030SOL    HW236435   4.556   6.680   6.998
12031SOL     OW36436   4.640   6.496   5.877
12031SOL    HW136437   4.703   6.534   5.809
12031SOL    HW236438   4.680   6.413   5.916
12032SOL     OW36439   5.228   7.193   5.630
12032SOL    HW136440   5.136   7.230   5.637
12032SOL    HW236441   5.266   7.213   5.540
12033SOL     OW36442   4.096   6.874   7.076
12033SOL    HW136443   4.083   6.967   7.042
12033SOL    HW236444   4.012   6.822   7.063
12034SOL     OW36445   5.338   6.878   6.875
12034SOL    HW136446   5.398   6.881   6.955
12034SOL    HW236447   5.263   6.942   6.888
12035SOL     OW36448   4.763   6.684   6.282
12035SOL    HW136449   4.693   6.637   6.336
12035SOL    HW236450   4.822   6.616   6.239
12036SOL     OW36451   4.738   5.822   6.557
12036SOL    HW136452   4.730   5.786   6.464
12036SOL    HW236453   4.736   5.746   6.622
12037SOL     OW36454   4.314   7.073   6.077
12037SOL    HW136455   4.356   7.015   6.007
12037SOL    HW236456   4.270   7.152   6.033
12038SOL     OW36457   5.433   5.971   6.967
12038SOL    HW136458   5.506   6.040   6.971
12038SOL    HW236459   5.461   5.896   6.908
12039SOL     OW36460   3.979   6.934   5.876
12039SOL    HW136461   3.883   6.935   5.849
12039SOL    HW236462   3.991   6.987   5.960
12040SOL     OW36463   3.829   6.599   7.312
12040SOL    HW136464   3.752   6.566   7.366
12040SOL    HW236465   3.914   6.569   7.354
12041SOL     OW36466   4.396   5.789   7.075
12041SOL    HW136467   4.486   5.773   7.035
12041SOL    HW236468   4.404   5.794   7.174
12042SOL     OW36469   3.799   5.931   5.619
12042SOL    HW136470   3.707   5.903   5.590
12042SOL    HW236471   3.830   6.008   5.563
12043SOL     OW36472   5.164   6.442   6.984
12043SOL    HW136473   5.107   6.494   6.921
12043SOL    HW236474   5.260   6.454   6.960
12044SOL     OW36475   3.796   5.752   5.904
12044SOL    HW136476   3.779   5.835   5.850
12044SOL    HW236477   3.886   5.715   5.882
12045SOL     OW36478   4.907   6.921   5.705
12045SOL    HW136479   4.808   6.910   5.707
12045SOL    HW236480   4.941   6.936   5.798
12046SOL     OW36481   4.337   6.428   7.017
12046SOL    HW136482   4.393   6.509   7.000
12046SOL    HW236483   4.396   6.348   7.020
12047SOL     OW36484   5.217   7.353   6.545
12047SOL    HW136485   5.250   7.417   6.476
12047SOL    HW236486   5.283   7.347   6.620
12048SOL     OW36487   4.440   6.151   7.294
12048SOL    HW136488   4.459   6.216   7.368
12048SOL    HW236489   4.500   6.071   7.303
12049SOL     OW36490   5.174   6.806   7.219
12049SOL    HW136491   5.165   6.796   7.318
12049SOL    HW236492   5.270   6.799   7.193
12050SOL     OW36493   4.114   7.327   7.146
12050SOL    HW136494   4.023   7.368   7.144
12050SOL    HW236495   4.107   7.233   7.178
12051SOL     OW36496   5.398   6.469   6.840
12051SOL    HW136497   5.371   6.380   6.803
12051SOL    HW236498   5.399   6.537   6.767
12052SOL     OW36499   4.949   5.911   6.035
12052SOL    HW136500   5.014   5.837   6.024
12052SOL    HW236501   4.969   5.961   6.119
12053SOL     OW36502   4.318   6.331   6.238
12053SOL    HW136503   4.368   6.416   6.219
12053SOL    HW236504   4.230   6.333   6.190
12054SOL     OW36505   5.501   5.928   7.228
12054SOL    HW136506   5.484   5.959   7.134
12054SOL    HW236507   5.417   5.891   7.266
12055SOL     OW36508   5.454   6.520   7.103
12055SOL    HW136509   5.492   6.611   7.118
12055SOL    HW236510   5.446   6.503   7.004
12056SOL     OW36511   4.583   6.960   5.602
12056SOL    HW136512   4.537   6.975   5.690
12056SOL    HW236513   4.627   7.045   5.572
12057SOL     OW36514   4.385   7.376   6.539
12057SOL    HW136515   4.339   7.464   6.526
12057SOL    HW236516   4.484   7.388   6.532
12058SOL     OW36517   4.583   6.542   6.447
12058SOL    HW136518   4.637   6.473   6.495
12058SOL    HW236519   4.551   6.611   6.513
12059SOL     OW36520   4.807   6.570   5.673
12059SOL    HW136521   4.784   6.623   5.591
12059SOL    HW236522   4.888   6.514   5.654
12060SOL     OW36523   5.585   7.155   6.437
12060SOL    HW136524   5.514   7.143   6.367
12060SOL    HW236525   5.586   7.076   6.497
12061SOL     OW36526   3.945   6.900   7.430
12061SOL    HW136527   3.880   6.827   7.409
12061SOL    HW236528   3.949   6.914   7.528
12062SOL     OW36529   3.803   6.826   6.239
12062SOL    HW136530   3.802   6.779   6.327
12062SOL    HW236531   3.885   6.798   6.188
12063SOL     OW36532   4.396   6.977   7.210
12063SOL    HW136533   4.318   6.927   7.248
12063SOL    HW236534   4.393   7.072   7.241
12064SOL     OW36535   5.548   5.778   6.813
12064SOL    HW136536   5.544   5.688   6.857
12064SOL    HW236537   5.551   5.767   6.714
12065SOL     OW36538   4.152   6.010   6.106
12065SOL    HW136539   4.182   5.938   6.044
12065SOL    HW236540   4.113   5.970   6.189
12066SOL     OW36541   5.429   7.073   6.690
12066SOL    HW136542   5.336   7.048   6.663
12066SOL    HW236543   5.455   7.023   6.772
12067SOL     OW36544   4.041   6.133   6.866
12067SOL    HW136545   4.079   6.074   6.938
12067SOL    HW236546   4.081   6.107   6.778
12068SOL     OW36547   4.536   7.172   6.273
12068SOL    HW136548   4.568   7.182   6.179
12068SOL    HW236549   4.457   7.110   6.275
12069SOL     OW36550   5.148   5.800   6.698
12069SOL    HW136551   5.200   5.735   6.753
12069SOL    HW236552   5.099   5.863   6.759
12070SOL     OW36553   4.725   5.620   6.740
12070SOL    HW136554   4.662   5.548   6.709
12070SOL    HW236555   4.818   5.584   6.740
12071SOL     OW36556   4.494   6.916   5.887
12071SOL    HW136557   4.448   6.829   5.904
12071SOL    HW236558   4.585   6.913   5.928
12072SOL     OW36559   4.342   7.153   6.870
12072SOL    HW136560   4.337   7.235   6.927
12072SOL    HW236561   4.431   7.150   6.825
12073SOL     OW36562   5.076   5.638   5.754
12073SOL    HW136563   5.111   5.597   5.670
12073SOL    HW236564   4.986   5.600   5.774
12074SOL     OW36565   5.024   6.039   6.277
12074SOL    HW136566   4.965   6.119   6.281
12074SOL    HW236567   5.039   6.004   6.370
12075SOL     OW36568   5.317   5.807   6.468
12075SOL    HW136569   5.233   5.806   6.522
12075SOL    HW236570   5.319   5.890   6.412
12076SOL     OW36571   3.763   6.663   5.886
12076SOL    HW136572   3.862   6.652   5.877
12076SOL    HW236573   3.723   6.577   5.918
12077SOL     OW36574   4.599   7.232   5.923
12077SOL    HW136575   4.522   7.197   5.869
12077SOL    HW236576   4.567   7.303   5.985
12078SOL     OW36577   3.954   6.214   7.561
12078SOL    HW136578   3.861   6.212   7.598
12078SOL    HW236579   3.955   6.175   7.469
12079SOL     OW36580   5.479   6.193   7.679
12079SOL    HW136581   5.467   6.180   7.580
12079SOL    HW236582   5.449   6.112   7.728
12080SOL     OW36583   3.955   7.299   7.931
12080SOL    HW136584   3.989   7.376   7.985
12080SOL    HW236585   3.999   7.299   7.841
12081SOL     OW36586   4.330   6.550   7.571
12081SOL    HW136587   4.337   6.634   7.517
12081SOL    HW236588   4.376   6.563   7.659
12082SOL     OW36589   5.566   7.353   7.807
12082SOL    HW136590   5.620   7.324   7.887
12082SOL    HW236591   5.596   7.443   7.778
12083SOL     OW36592   3.751   7.182   7.565
12083SOL    HW136593   3.732   7.086   7.586
12083SOL    HW236594   3.718   7.240   7.640
12084SOL     OW36595   5.365   6.694   7.880
12084SOL    HW136596   5.451   6.696   7.828
12084SOL    HW236597   5.379   6.741   7.968
12085SOL     OW36598   4.533   5.590   7.950
12085SOL    HW136599   4.573   5.681   7.941
12085SOL    HW236600   4.433   5.598   7.956
12086SOL     OW36601   5.249   6.585   7.638
12086SOL    HW136602   5.186   6.509   7.651
12086SOL    HW236603   5.297   6.603   7.724
12087SOL     OW36604   5.391   7.300   8.020
12087SOL    HW136605   5.350   7.277   7.932
12087SOL    HW236606   5.373   7.226   8.085
12088SOL     OW36607   4.322   6.315   7.718
12088SOL    HW136608   4.346   6.384   7.650
12088SOL    HW236609   4.244   6.348   7.772
12089SOL     OW36610   5.300   7.248   7.755
12089SOL    HW136611   5.389   7.294   7.758
12089SOL    HW236612   5.279   7.224   7.660
12090SOL     OW36613   4.765   6.287   7.877
12090SOL    HW136614   4.791   6.283   7.973
12090SOL    HW236615   4.680   6.236   7.863
12091SOL     OW36616   4.589   5.934   7.643
12091SOL    HW136617   4.648   5.997   7.594
12091SOL    HW236618   4.608   5.840   7.614
12092SOL     OW36619   5.086   6.730   7.993
12092SOL    HW136620   5.169   6.701   7.945
12092SOL    HW236621   5.037   6.797   7.937
12093SOL     OW36622   4.732   7.042   7.925
12093SOL    HW136623   4.686   7.114   7.873
12093SOL    HW236624   4.728   7.062   8.023
12094SOL     OW36625   4.045   6.529   7.690
12094SOL    HW136626   4.127   6.568   7.648
12094SOL    HW236627   4.018   6.447   7.641
12095SOL     OW36628   4.835   7.362   7.685
12095SOL    HW136629   4.775   7.300   7.735
12095SOL    HW236630   4.866   7.318   7.600
12096SOL     OW36631   5.356   6.963   7.529
12096SOL    HW136632   5.324   7.057   7.519
12096SOL    HW236633   5.280   6.900   7.517
12097SOL     OW36634   4.188   7.329   7.771
12097SOL    HW136635   4.221   7.368   7.857
12097SOL    HW236636   4.264   7.322   7.706
12098SOL     OW36637   5.124   5.693   7.874
12098SOL    HW136638   5.100   5.656   7.784
12098SOL    HW236639   5.223   5.709   7.878
12099SOL     OW36640   4.106   6.286   7.928
12099SOL    HW136641   4.151   6.196   7.925
12099SOL    HW236642   4.012   6.275   7.961
12100SOL     OW36643   4.338   5.708   7.565
12100SOL    HW136644   4.436   5.686   7.572
12100SOL    HW236645   4.307   5.691   7.472
12101SOL     OW36646   4.263   5.650   7.960
12101SOL    HW136647   4.182   5.651   8.018
12101SOL    HW236648   4.266   5.733   7.905
12102SOL     OW36649   5.158   6.774   7.489
12102SOL    HW136650   5.190   6.698   7.546
12102SOL    HW236651   5.066   6.801   7.519
12103SOL     OW36652   4.021   5.621   7.619
12103SOL    HW136653   4.070   5.705   7.598
12103SOL    HW236654   4.083   5.556   7.664
12104SOL     OW36655   4.659   5.822   7.928
12104SOL    HW136656   4.611   5.863   7.850
12104SOL    HW236657   4.758   5.820   7.909
12105SOL     OW36658   4.756   6.135   7.464
12105SOL    HW136659   4.715   6.217   7.425
12105SOL    HW236660   4.820   6.161   7.537
12106SOL     OW36661   5.581   6.419   7.825
12106SOL    HW136662   5.623   6.355   7.889
12106SOL    HW236663   5.543   6.368   7.747
12107SOL     OW36664   4.212   6.971   7.622
12107SOL    HW136665   4.125   6.956   7.669
12107SOL    HW236666   4.195   6.997   7.527
12108SOL     OW36667   5.114   6.161   7.526
12108SOL    HW136668   5.060   6.140   7.607
12108SOL    HW236669   5.205   6.120   7.535
12109SOL     OW36670   4.251   5.842   7.776
12109SOL    HW136671   4.278   5.783   7.701
12109SOL    HW236672   4.251   5.937   7.745
12110SOL     OW36673   4.429   6.636   7.816
12110SOL    HW136674   4.415   6.643   7.915
12110SOL    HW236675   4.513   6.585   7.798
12111SOL     OW36676   4.091   6.686   7.949
12111SOL    HW136677   4.084   6.769   7.893
12111SOL    HW236678   4.095   6.606   7.889
12112SOL     OW36679   4.976   6.934   7.836
12112SOL    HW136680   5.026   7.011   7.876
12112SOL    HW236681   4.881   6.936   7.868
12113SOL     OW36682   5.306   6.225   7.920
12113SOL    HW136683   5.275   6.286   7.993
12113SOL    HW236684   5.356   6.277   7.851
12114SOL     OW36685   4.933   6.111   7.723
12114SOL    HW136686   4.946   6.027   7.777
12114SOL    HW236687   4.904   6.185   7.783
12115SOL     OW36688   5.346   5.953   7.822
12115SOL    HW136689   5.348   5.877   7.886
12115SOL    HW236690   5.298   6.030   7.862
12116SOL     OW36691   5.264   5.860   7.573
12116SOL    HW136692   5.203   5.785   7.596
12116SOL    HW236693   5.286   5.912   7.656
12117SOL     OW36694   5.027   6.424   7.490
12117SOL    HW136695   5.061   6.331   7.505
12117SOL    HW236696   5.045   6.451   7.395
12118SOL     OW36697   3.732   6.912   7.648
12118SOL    HW136698   3.639   6.933   7.617
12118SOL    HW236699   3.742   6.813   7.661
12119SOL     OW36700   4.539   6.158   7.773
12119SOL    HW136701   4.546   6.069   7.727
12119SOL    HW236702   4.445   6.192   7.765
12120SOL     OW36703   4.197   6.086   7.639
12120SOL    HW136704   4.258   6.166   7.643
12120SOL    HW236705   4.102   6.117   7.646
12121SOL     OW36706   5.026   6.441   7.757
12121SOL    HW136707   4.940   6.410   7.799
12121SOL    HW236708   5.022   6.427   7.658
12122SOL     OW36709   5.450   5.721   7.971
12122SOL    HW136710   5.523   5.704   7.904
12122SOL    HW236711   5.419   5.634   8.009
12123SOL     OW36712   5.112   7.159   7.925
12123SOL    HW136713   5.179   7.171   7.851
12123SOL    HW236714   5.072   7.248   7.948
12124SOL     OW36715   4.396   7.202   7.602
12124SOL    HW136716   4.405   7.212   7.503
12124SOL    HW236717   4.356   7.113   7.623
12125SOL     OW36718   4.918   7.198   7.479
12125SOL    HW136719   4.924   7.105   7.516
12125SOL    HW236720   4.859   7.198   7.399
12126SOL     OW36721   4.640   6.496   7.739
12126SOL    HW136722   4.703   6.534   7.671
12126SOL    HW236723   4.680   6.413   7.778
12127SOL     OW36724   5.228   7.193   7.492
12127SOL    HW136725   5.136   7.230   7.499
12127SOL    HW236726   5.266   7.213   7.402
12128SOL     OW36727   4.314   7.073   7.939
12128SOL    HW136728   4.356   7.015   7.869
12128SOL    HW236729   4.270   7.152   7.895
12129SOL     OW36730   3.979   6.934   7.738
12129SOL    HW136731   3.883   6.935   7.711
12129SOL    HW236732   3.991   6.987   7.822
12130SOL     OW36733   3.799   5.931   7.481
12130SOL    HW136734   3.707   5.903   7.452
12130SOL    HW236735   3.830   6.008   7.425
12131SOL     OW36736   3.796   5.752   7.766
12131SOL    HW136737   3.779   5.835   7.712
12131SOL    HW236738   3.886   5.715   7.744
12132SOL     OW36739   4.907   6.921   7.567
12132SOL    HW136740   4.808   6.910   7.569
12132SOL    HW236741   4.941   6.936   7.660
12133SOL     OW36742   4.949   5.911   7.897
12133SOL    HW136743   5.014   5.837   7.886
12133SOL    HW236744   4.969   5.961   7.981
12134SOL     OW36745   4.583   6.960   7.464
12134SOL    HW136746   4.537   6.975   7.552
12134SOL    HW236747   4.627   7.045   7.434
12135SOL     OW36748   4.807   6.570   7.535
12135SOL    HW136749   4.784   6.623   7.453
12135SOL    HW236750   4.888   6.514   7.516
12136SOL     OW36751   4.152   6.010   7.968
12136SOL    HW136752   4.182   5.938   7.906
12136SOL    HW236753   4.113   5.970   8.051
12137SOL     OW36754   4.494   6.916   7.749
12137SOL    HW136755   4.448   6.829   7.766
12137SOL    HW236756   4.585   6.913   7.790
12138SOL     OW36757   5.076   5.638   7.616
12138SOL    HW136758   5.111   5.597   7.532
12138SOL    HW236759   4.986   5.600   7.636
12139SOL     OW36760   3.763   6.663   7.748
12139SOL    HW136761   3.862   6.652   7.739
12139SOL    HW236762   3.723   6.577   7.780
12140SOL     OW36763   4.599   7.232   7.785
12140SOL    HW136764   4.522   7.197   7.731
12140SOL    HW236765   4.567   7.303   7.847
12141SOL     OW36766   3.954   8.076   0.113
12141SOL    HW136767   3.861   8.074   0.150
12141SOL    HW236768   3.955   8.037   0.021
12142SOL     OW36769   3.949   7.723   0.996
12142SOL    HW136770   3.984   7.706   1.088
12142SOL    HW236771   3.861   7.678   0.984
12143SOL     OW36772   3.743   7.816   0.647
12143SOL    HW136773   3.661   7.859   0.686
12143SOL    HW236774   3.715   7.743   0.584
12144SOL     OW36775   4.859   8.151   0.717
12144SOL    HW136776   4.916   8.229   0.692
12144SOL    HW236777   4.799   8.177   0.793
12145SOL     OW36778   5.479   8.055   0.231
12145SOL    HW136779   5.467   8.042   0.132
12145SOL    HW236780   5.449   7.974   0.280
12146SOL     OW36781   4.492   8.592   1.023
12146SOL    HW136782   4.414   8.609   1.083
12146SOL    HW236783   4.526   8.679   0.987
12147SOL     OW36784   4.574   8.246   1.823
12147SOL    HW136785   4.570   8.322   1.888
12147SOL    HW236786   4.596   8.282   1.732
12148SOL     OW36787   4.409   8.460   0.665
12148SOL    HW136788   4.478   8.444   0.735
12148SOL    HW236789   4.336   8.517   0.703
12149SOL     OW36790   4.410   8.609   1.803
12149SOL    HW136791   4.470   8.688   1.817
12149SOL    HW236792   4.324   8.640   1.762
12150SOL     OW36793   4.162   7.840   1.499
12150SOL    HW136794   4.244   7.784   1.508
12150SOL    HW236795   4.081   7.782   1.503
12151SOL     OW36796   5.327   7.895   0.737
12151SOL    HW136797   5.253   7.941   0.687
12151SOL    HW236798   5.378   7.963   0.790
12152SOL     OW36799   4.851   8.789   1.690
12152SOL    HW136800   4.898   8.789   1.778
12152SOL    HW236801   4.803   8.702   1.679
12153SOL     OW36802   3.964   8.539   0.886
12153SOL    HW136803   3.978   8.455   0.938
12153SOL    HW236804   3.909   8.603   0.941
12154SOL     OW36805   4.330   8.412   0.123
12154SOL    HW136806   4.337   8.496   0.069
12154SOL    HW236807   4.376   8.425   0.211
12155SOL     OW36808   5.318   7.562   1.480
12155SOL    HW136809   5.300   7.629   1.408
12155SOL    HW236810   5.315   7.608   1.569
12156SOL     OW36811   3.846   8.091   0.563
12156SOL    HW136812   3.801   8.003   0.580
12156SOL    HW236813   3.845   8.145   0.647
12157SOL     OW36814   5.413   8.370   0.612
12157SOL    HW136815   5.508   8.341   0.620
12157SOL    HW236816   5.405   8.435   0.537
12158SOL     OW36817   5.365   8.556   0.432
12158SOL    HW136818   5.451   8.558   0.380
12158SOL    HW236819   5.379   8.603   0.520
12159SOL     OW36820   3.837   8.185   1.597
12159SOL    HW136821   3.925   8.172   1.642
12159SOL    HW236822   3.824   8.282   1.575
12160SOL     OW36823   4.337   8.813   0.726
12160SOL    HW136824   4.288   8.726   0.735
12160SOL    HW236825   4.314   8.856   0.639
12161SOL     OW36826   5.017   8.676   1.423
12161SOL    HW136827   5.054   8.603   1.365
12161SOL    HW236828   5.069   8.681   1.508
12162SOL     OW36829   4.533   7.452   0.502
12162SOL    HW136830   4.573   7.543   0.493
12162SOL    HW236831   4.433   7.460   0.508
12163SOL     OW36832   3.921   8.424   1.264
12163SOL    HW136833   4.010   8.379   1.250
12163SOL    HW236834   3.848   8.359   1.245
12164SOL     OW36835   5.249   8.447   0.190
12164SOL    HW136836   5.186   8.371   0.203
12164SOL    HW236837   5.297   8.465   0.276
12165SOL     OW36838   4.041   7.699   1.801
12165SOL    HW136839   4.112   7.770   1.807
12165SOL    HW236840   3.953   7.738   1.829
12166SOL     OW36841   5.190   8.865   0.953
12166SOL    HW136842   5.131   8.871   1.033
12166SOL    HW236843   5.175   8.777   0.907
12167SOL     OW36844   4.322   8.177   0.270
12167SOL    HW136845   4.346   8.246   0.202
12167SOL    HW236846   4.244   8.210   0.324
12168SOL     OW36847   5.005   7.793   0.944
12168SOL    HW136848   4.919   7.743   0.931
12168SOL    HW236849   5.067   7.739   1.000
12169SOL     OW36850   4.531   8.053   1.465
12169SOL    HW136851   4.484   8.050   1.554
12169SOL    HW236852   4.480   7.998   1.399
12170SOL     OW36853   5.118   7.917   1.674
12170SOL    HW136854   5.098   7.960   1.762
12170SOL    HW236855   5.196   7.855   1.683
12171SOL     OW36856   4.697   8.338   1.572
12171SOL    HW136857   4.743   8.254   1.543
12171SOL    HW236858   4.641   8.372   1.497
12172SOL     OW36859   4.715   7.858   1.242
12172SOL    HW136860   4.638   7.892   1.296
12172SOL    HW236861   4.681   7.807   1.163
12173SOL     OW36862   4.765   8.149   0.429
12173SOL    HW136863   4.791   8.145   0.525
12173SOL    HW236864   4.680   8.098   0.415
12174SOL     OW36865   3.800   8.259   0.789
12174SOL    HW136866   3.899   8.247   0.798
12174SOL    HW236867   3.776   8.354   0.810
12175SOL     OW36868   4.589   7.796   0.195
12175SOL    HW136869   4.648   7.859   0.146
12175SOL    HW236870   4.608   7.702   0.166
12176SOL     OW36871   5.443   8.033   1.831
12176SOL    HW136872   5.417   8.122   1.795
12176SOL    HW236873   5.441   7.965   1.758
12177SOL     OW36874   5.086   8.592   0.545
12177SOL    HW136875   5.169   8.563   0.497
12177SOL    HW236876   5.037   8.659   0.489
12178SOL     OW36877   4.274   7.644   0.885
12178SOL    HW136878   4.269   7.639   0.985
12178SOL    HW236879   4.276   7.740   0.856
12179SOL     OW36880   5.519   8.514   0.873
12179SOL    HW136881   5.457   8.499   0.797
12179SOL    HW236882   5.467   8.525   0.958
12180SOL     OW36883   4.951   8.998   1.506
12180SOL    HW136884   4.957   8.921   1.570
12180SOL    HW236885   4.899   8.972   1.426
12181SOL     OW36886   4.045   8.391   0.242
12181SOL    HW136887   4.127   8.430   0.200
12181SOL    HW236888   4.018   8.309   0.193
12182SOL     OW36889   5.182   8.183   0.728
12182SOL    HW136890   5.177   8.118   0.803
12182SOL    HW236891   5.262   8.242   0.741
12183SOL     OW36892   4.185   8.714   1.727
12183SOL    HW136893   4.135   8.715   1.641
12183SOL    HW236894   4.122   8.696   1.803
12184SOL     OW36895   3.926   7.733   1.498
12184SOL    HW136896   3.846   7.793   1.485
12184SOL    HW236897   3.916   7.684   1.584
12185SOL     OW36898   5.124   7.555   0.426
12185SOL    HW136899   5.100   7.518   0.336
12185SOL    HW236900   5.223   7.571   0.430
12186SOL     OW36901   4.106   8.148   0.480
12186SOL    HW136902   4.151   8.058   0.477
12186SOL    HW236903   4.012   8.137   0.513
12187SOL     OW36904   5.271   7.670   1.729
12187SOL    HW136905   5.266   7.707   1.821
12187SOL    HW236906   5.199   7.601   1.717
12188SOL     OW36907   4.338   7.570   0.117
12188SOL    HW136908   4.436   7.548   0.124
12188SOL    HW236909   4.307   7.553   0.024
12189SOL     OW36910   4.505   7.712   1.749
12189SOL    HW136911   4.572   7.651   1.792
12189SOL    HW236912   4.432   7.731   1.814
12190SOL     OW36913   5.075   8.038   1.433
12190SOL    HW136914   5.103   7.995   1.518
12190SOL    HW236915   5.100   8.134   1.434
12191SOL     OW36916   4.527   8.850   0.924
12191SOL    HW136917   4.617   8.864   0.882
12191SOL    HW236918   4.456   8.852   0.853
12192SOL     OW36919   4.646   7.951   0.899
12192SOL    HW136920   4.621   7.942   0.803
12192SOL    HW236921   4.694   7.869   0.930
12193SOL     OW36922   4.263   7.512   0.512
12193SOL    HW136923   4.182   7.513   0.570
12193SOL    HW236924   4.266   7.595   0.457
12194SOL     OW36925   5.158   8.636   0.041
12194SOL    HW136926   5.190   8.560   0.098
12194SOL    HW236927   5.066   8.663   0.071
12195SOL     OW36928   4.021   7.483   0.171
12195SOL    HW136929   4.070   7.567   0.150
12195SOL    HW236930   4.083   7.418   0.216
12196SOL     OW36931   4.659   7.684   0.480
12196SOL    HW136932   4.611   7.725   0.402
12196SOL    HW236933   4.758   7.682   0.461
12197SOL     OW36934   4.800   8.131   1.464
12197SOL    HW136935   4.720   8.070   1.467
12197SOL    HW236936   4.881   8.078   1.440
12198SOL     OW36937   4.183   8.600   0.741
12198SOL    HW136938   4.112   8.573   0.806
12198SOL    HW236939   4.157   8.572   0.648
12199SOL     OW36940   4.756   7.997   0.016
12199SOL    HW136941   4.715   8.079  -0.023
12199SOL    HW236942   4.820   8.023   0.089
12200SOL     OW36943   3.802   8.004   1.386
12200SOL    HW136944   3.894   8.003   1.345
12200SOL    HW236945   3.796   8.078   1.453
12201SOL     OW36946   4.285   7.670   1.147
12201SOL    HW136947   4.323   7.586   1.184
12201SOL    HW236948   4.197   7.689   1.191
12202SOL     OW36949   4.590   7.902   0.642
12202SOL    HW136950   4.558   7.974   0.580
12202SOL    HW236951   4.614   7.821   0.589
12203SOL     OW36952   4.741   7.487   0.753
12203SOL    HW136953   4.669   7.492   0.684
12203SOL    HW236954   4.717   7.418   0.822
12204SOL     OW36955   5.153   8.621   0.867
12204SOL    HW136956   5.098   8.537   0.860
12204SOL    HW236957   5.179   8.650   0.775
12205SOL     OW36958   5.190   8.038   0.992
12205SOL    HW136959   5.160   7.943   0.999
12205SOL    HW236960   5.263   8.054   1.058
12206SOL     OW36961   5.581   8.281   0.377
12206SOL    HW136962   5.623   8.217   0.441
12206SOL    HW236963   5.543   8.230   0.299
12207SOL     OW36964   5.114   8.023   0.078
12207SOL    HW136965   5.060   8.002   0.159
12207SOL    HW236966   5.205   7.982   0.087
12208SOL     OW36967   4.251   7.704   0.328
12208SOL    HW136968   4.278   7.645   0.253
12208SOL    HW236969   4.251   7.799   0.297
12209SOL     OW36970   4.788   8.795   1.340
12209SOL    HW136971   4.708   8.772   1.395
12209SOL    HW236972   4.871   8.769   1.389
12210SOL     OW36973   4.835   8.643   1.100
12210SOL    HW136974   4.795   8.687   1.181
12210SOL    HW236975   4.794   8.680   1.017
12211SOL     OW36976   5.362   8.547   1.079
12211SOL    HW136977   5.367   8.628   1.138
12211SOL    HW236978   5.276   8.549   1.028
12212SOL     OW36979   4.639   7.537   1.402
12212SOL    HW136980   4.664   7.517   1.307
12212SOL    HW236981   4.711   7.593   1.444
12213SOL     OW36982   4.704   8.564   1.719
12213SOL    HW136983   4.605   8.570   1.729
12213SOL    HW236984   4.727   8.484   1.663
12214SOL     OW36985   4.429   8.498   0.368
12214SOL    HW136986   4.415   8.505   0.467
12214SOL    HW236987   4.513   8.447   0.350
12215SOL     OW36988   4.134   8.261   1.251
12215SOL    HW136989   4.220   8.273   1.301
12215SOL    HW236990   4.092   8.174   1.278
12216SOL     OW36991   4.998   7.834   1.262
12216SOL    HW136992   5.019   7.908   1.326
12216SOL    HW236993   4.909   7.851   1.219
12217SOL     OW36994   4.091   8.548   0.501
12217SOL    HW136995   4.084   8.631   0.445
12217SOL    HW236996   4.095   8.468   0.441
12218SOL     OW36997   4.290   7.985   0.865
12218SOL    HW136998   4.302   8.051   0.791
12218SOL    HW236999   4.336   8.019   0.948
12219SOL     OW37000   4.976   8.796   0.388
12219SOL    HW137001   5.026   8.873   0.428
12219SOL    HW237002   4.881   8.798   0.420
12220SOL     OW37003   5.306   8.087   0.472
12220SOL    HW137004   5.275   8.148   0.545
12220SOL    HW237005   5.356   8.139   0.403
12221SOL     OW37006   4.126   8.199   1.598
12221SOL    HW137007   4.194   8.254   1.551
12221SOL    HW237008   4.166   8.111   1.625
12222SOL     OW37009   5.311   8.227   1.670
12222SOL    HW137010   5.219   8.265   1.665
12222SOL    HW237011   5.371   8.274   1.605
12223SOL     OW37012   4.737   7.553   1.770
12223SOL    HW137013   4.743   7.638   1.718
12223SOL    HW237014   4.769   7.477   1.713
12224SOL     OW37015   4.228   7.498   1.740
12224SOL    HW137016   4.186   7.441   1.670
12224SOL    HW237017   4.162   7.567   1.772
12225SOL     OW37018   4.297   8.318   1.029
12225SOL    HW137019   4.341   8.407   1.020
12225SOL    HW237020   4.234   8.318   1.106
12226SOL     OW37021   5.084   8.310   1.045
12226SOL    HW137022   5.009   8.310   0.979
12226SOL    HW237023   5.121   8.218   1.054
12227SOL     OW37024   4.933   7.973   0.275
12227SOL    HW137025   4.946   7.889   0.329
12227SOL    HW237026   4.904   8.047   0.335
12228SOL     OW37027   4.031   7.661   1.231
12228SOL    HW137028   4.008   7.698   1.321
12228SOL    HW237029   4.001   7.566   1.225
12229SOL     OW37030   3.761   8.758   1.282
12229SOL    HW137031   3.814   8.709   1.350
12229SOL    HW237032   3.783   8.856   1.287
12230SOL     OW37033   4.456   8.082   1.064
12230SOL    HW137034   4.515   8.056   0.988
12230SOL    HW237035   4.428   8.178   1.053
12231SOL     OW37036   5.452   8.383   1.854
12231SOL    HW137037   5.406   8.376   1.765
12231SOL    HW237038   5.390   8.427   1.920
12232SOL     OW37039   4.031   7.511   0.618
12232SOL    HW137040   4.020   7.605   0.651
12232SOL    HW237041   4.026   7.448   0.695
12233SOL     OW37042   5.346   7.815   0.374
12233SOL    HW137043   5.348   7.739   0.438
12233SOL    HW237044   5.298   7.892   0.414
12234SOL     OW37045   4.747   8.214   0.966
12234SOL    HW137046   4.762   8.235   1.062
12234SOL    HW237047   4.717   8.119   0.957
12235SOL     OW37048   4.074   8.346   1.804
12235SOL    HW137049   4.150   8.390   1.852
12235SOL    HW237050   4.109   8.299   1.722
12236SOL     OW37051   5.264   7.722   0.125
12236SOL    HW137052   5.203   7.647   0.148
12236SOL    HW237053   5.286   7.774   0.208
12237SOL     OW37054   5.027   8.286   0.042
12237SOL    HW137055   5.061   8.193   0.057
12237SOL    HW237056   5.045   8.313  -0.053
12238SOL     OW37057   4.792   8.781   0.849
12238SOL    HW137058   4.799   8.697   0.794
12238SOL    HW237059   4.854   8.850   0.813
12239SOL     OW37060   4.043   8.258   0.949
12239SOL    HW137061   4.136   8.294   0.954
12239SOL    HW237062   4.037   8.173   1.001
12240SOL     OW37063   4.063   7.957   1.006
12240SOL    HW137064   4.011   7.874   0.989
12240SOL    HW237065   4.140   7.962   0.942
12241SOL     OW37066   4.862   7.828   1.678
12241SOL    HW137067   4.817   7.891   1.742
12241SOL    HW237068   4.955   7.859   1.661
12242SOL     OW37069   4.884   7.655   1.477
12242SOL    HW137070   4.884   7.719   1.554
12242SOL    HW237071   4.912   7.703   1.394
12243SOL     OW37072   3.732   8.774   0.200
12243SOL    HW137073   3.639   8.795   0.169
12243SOL    HW237074   3.742   8.675   0.213
12244SOL     OW37075   4.726   8.244   1.238
12244SOL    HW137076   4.767   8.212   1.324
12244SOL    HW237077   4.630   8.217   1.235
12245SOL     OW37078   3.764   7.992   1.114
12245SOL    HW137079   3.849   7.959   1.073
12245SOL    HW237080   3.777   8.007   1.212
12246SOL     OW37081   3.913   7.968   1.722
12246SOL    HW137082   3.972   7.928   1.652
12246SOL    HW237083   3.855   8.039   1.681
12247SOL     OW37084   5.093   8.398   1.660
12247SOL    HW137085   5.132   8.487   1.680
12247SOL    HW237086   5.103   8.378   1.563
12248SOL     OW37087   4.539   8.020   0.325
12248SOL    HW137088   4.546   7.931   0.279
12248SOL    HW237089   4.445   8.054   0.317
12249SOL     OW37090   5.381   8.052   1.206
12249SOL    HW137091   5.343   7.983   1.268
12249SOL    HW237092   5.463   8.016   1.162
12250SOL     OW37093   4.395   7.912   1.269
12250SOL    HW137094   4.361   7.823   1.239
12250SOL    HW237095   4.421   7.966   1.189
12251SOL     OW37096   4.197   7.948   0.191
12251SOL    HW137097   4.258   8.028   0.195
12251SOL    HW237098   4.102   7.979   0.198
12252SOL     OW37099   3.883   8.585   1.466
12252SOL    HW137100   3.905   8.524   1.542
12252SOL    HW237101   3.893   8.536   1.380
12253SOL     OW37102   5.071   8.507   1.234
12253SOL    HW137103   5.095   8.444   1.160
12253SOL    HW237104   4.981   8.547   1.216
12254SOL     OW37105   5.026   8.303   0.309
12254SOL    HW137106   4.940   8.272   0.351
12254SOL    HW237107   5.022   8.289   0.210
12255SOL     OW37108   3.807   8.706   1.022
12255SOL    HW137109   3.802   8.705   1.122
12255SOL    HW237110   3.724   8.665   0.984
12256SOL     OW37111   4.627   7.534   0.133
12256SOL    HW137112   4.678   7.535   0.047
12256SOL    HW237113   4.683   7.492   0.204
12257SOL     OW37114   5.450   7.583   0.523
12257SOL    HW137115   5.523   7.566   0.456
12257SOL    HW237116   5.419   7.496   0.561
12258SOL     OW37117   5.004   8.375   0.672
12258SOL    HW137118   5.064   8.294   0.674
12258SOL    HW237119   5.044   8.444   0.612
12259SOL     OW37120   4.554   8.721   1.422
12259SOL    HW137121   4.549   8.754   1.517
12259SOL    HW237122   4.468   8.740   1.376
12260SOL     OW37123   5.565   7.623   0.963
12260SOL    HW137124   5.604   7.538   0.927
12260SOL    HW237125   5.467   7.625   0.944
12261SOL     OW37126   3.987   7.774   0.720
12261SOL    HW137127   3.908   7.825   0.686
12261SOL    HW237128   3.978   7.759   0.818
12262SOL     OW37129   4.918   9.060   0.031
12262SOL    HW137130   4.924   8.967   0.068
12262SOL    HW237131   4.859   9.060  -0.049
12263SOL     OW37132   4.546   8.450   1.372
12263SOL    HW137133   4.586   8.449   1.280
12263SOL    HW237134   4.556   8.542   1.412
12264SOL     OW37135   4.640   8.358   0.291
12264SOL    HW137136   4.703   8.396   0.223
12264SOL    HW237137   4.680   8.275   0.330
12265SOL     OW37138   5.228   9.055   0.044
12265SOL    HW137139   5.136   9.092   0.051
12265SOL    HW237140   5.266   9.075  -0.046
12266SOL     OW37141   4.096   8.736   1.490
12266SOL    HW137142   4.083   8.829   1.456
12266SOL    HW237143   4.012   8.684   1.477
12267SOL     OW37144   5.338   8.740   1.289
12267SOL    HW137145   5.398   8.743   1.369
12267SOL    HW237146   5.263   8.804   1.302
12268SOL     OW37147   4.763   8.546   0.696
12268SOL    HW137148   4.693   8.499   0.750
12268SOL    HW237149   4.822   8.478   0.653
12269SOL     OW37150   4.738   7.684   0.971
12269SOL    HW137151   4.730   7.648   0.878
12269SOL    HW237152   4.736   7.608   1.036
12270SOL     OW37153   4.314   8.935   0.491
12270SOL    HW137154   4.356   8.877   0.421
12270SOL    HW237155   4.270   9.014   0.447
12271SOL     OW37156   5.433   7.833   1.381
12271SOL    HW137157   5.506   7.902   1.385
12271SOL    HW237158   5.461   7.758   1.322
12272SOL     OW37159   3.829   8.461   1.726
12272SOL    HW137160   3.752   8.428   1.780
12272SOL    HW237161   3.914   8.431   1.768
12273SOL     OW37162   4.396   7.651   1.489
12273SOL    HW137163   4.486   7.635   1.449
12273SOL    HW237164   4.404   7.656   1.588
12274SOL     OW37165   3.799   7.793   0.033
12274SOL    HW137166   3.707   7.765   0.004
12274SOL    HW237167   3.830   7.870  -0.023
12275SOL     OW37168   5.164   8.304   1.398
12275SOL    HW137169   5.107   8.356   1.335
12275SOL    HW237170   5.260   8.316   1.374
12276SOL     OW37171   3.796   7.614   0.318
12276SOL    HW137172   3.779   7.697   0.264
12276SOL    HW237173   3.886   7.577   0.296
12277SOL     OW37174   4.907   8.783   0.119
12277SOL    HW137175   4.808   8.772   0.121
12277SOL    HW237176   4.941   8.798   0.212
12278SOL     OW37177   4.337   8.290   1.431
12278SOL    HW137178   4.393   8.371   1.414
12278SOL    HW237179   4.396   8.210   1.434
12279SOL     OW37180   4.440   8.013   1.708
12279SOL    HW137181   4.459   8.078   1.782
12279SOL    HW237182   4.500   7.933   1.717
12280SOL     OW37183   5.174   8.668   1.633
12280SOL    HW137184   5.165   8.658   1.732
12280SOL    HW237185   5.270   8.661   1.607
12281SOL     OW37186   4.114   9.189   1.560
12281SOL    HW137187   4.023   9.230   1.558
12281SOL    HW237188   4.107   9.095   1.592
12282SOL     OW37189   5.398   8.331   1.254
12282SOL    HW137190   5.371   8.242   1.217
12282SOL    HW237191   5.399   8.399   1.181
12283SOL     OW37192   4.949   7.773   0.449
12283SOL    HW137193   5.014   7.699   0.438
12283SOL    HW237194   4.969   7.823   0.533
12284SOL     OW37195   4.318   8.193   0.652
12284SOL    HW137196   4.368   8.278   0.633
12284SOL    HW237197   4.230   8.195   0.604
12285SOL     OW37198   5.501   7.790   1.642
12285SOL    HW137199   5.484   7.821   1.548
12285SOL    HW237200   5.417   7.753   1.680
12286SOL     OW37201   5.454   8.382   1.517
12286SOL    HW137202   5.492   8.473   1.532
12286SOL    HW237203   5.446   8.365   1.418
12287SOL     OW37204   4.583   8.404   0.861
12287SOL    HW137205   4.637   8.335   0.909
12287SOL    HW237206   4.551   8.473   0.927
12288SOL     OW37207   4.807   8.432   0.087
12288SOL    HW137208   4.784   8.485   0.005
12288SOL    HW237209   4.888   8.376   0.068
12289SOL     OW37210   3.945   8.762   1.844
12289SOL    HW137211   3.880   8.689   1.823
12289SOL    HW237212   3.949   8.776   1.942
12290SOL     OW37213   3.803   8.688   0.653
12290SOL    HW137214   3.802   8.641   0.741
12290SOL    HW237215   3.885   8.660   0.602
12291SOL     OW37216   4.396   8.839   1.624
12291SOL    HW137217   4.318   8.789   1.662
12291SOL    HW237218   4.393   8.934   1.655
12292SOL     OW37219   5.548   7.640   1.227
12292SOL    HW137220   5.544   7.550   1.271
12292SOL    HW237221   5.551   7.629   1.128
12293SOL     OW37222   4.152   7.872   0.520
12293SOL    HW137223   4.182   7.800   0.458
12293SOL    HW237224   4.113   7.832   0.603
12294SOL     OW37225   5.429   8.935   1.104
12294SOL    HW137226   5.336   8.910   1.077
12294SOL    HW237227   5.455   8.885   1.186
12295SOL     OW37228   4.041   7.995   1.280
12295SOL    HW137229   4.079   7.936   1.352
12295SOL    HW237230   4.081   7.969   1.192
12296SOL     OW37231   4.536   9.034   0.687
12296SOL    HW137232   4.568   9.044   0.593
12296SOL    HW237233   4.457   8.972   0.689
12297SOL     OW37234   5.148   7.662   1.112
12297SOL    HW137235   5.200   7.597   1.167
12297SOL    HW237236   5.099   7.725   1.173
12298SOL     OW37237   4.725   7.482   1.154
12298SOL    HW137238   4.662   7.410   1.123
12298SOL    HW237239   4.818   7.446   1.154
12299SOL     OW37240   4.494   8.778   0.301
12299SOL    HW137241   4.448   8.691   0.318
12299SOL    HW237242   4.585   8.775   0.342
12300SOL     OW37243   5.076   7.500   0.168
12300SOL    HW137244   5.111   7.459   0.084
12300SOL    HW237245   4.986   7.462   0.188
12301SOL     OW37246   5.024   7.901   0.691
12301SOL    HW137247   4.965   7.981   0.695
12301SOL    HW237248   5.039   7.866   0.784
12302SOL     OW37249   5.317   7.669   0.882
12302SOL    HW137250   5.233   7.668   0.936
12302SOL    HW237251   5.319   7.752   0.826
12303SOL     OW37252   3.763   8.525   0.300
12303SOL    HW137253   3.862   8.514   0.291
12303SOL    HW237254   3.723   8.439   0.332
12304SOL     OW37255   3.954   8.076   1.975
12304SOL    HW137256   3.861   8.074   2.012
12304SOL    HW237257   3.955   8.037   1.883
12305SOL     OW37258   3.949   7.723   2.858
12305SOL    HW137259   3.984   7.706   2.950
12305SOL    HW237260   3.861   7.678   2.846
12306SOL     OW37261   3.743   7.816   2.509
12306SOL    HW137262   3.661   7.859   2.548
12306SOL    HW237263   3.715   7.743   2.446
12307SOL     OW37264   4.859   8.151   2.579
12307SOL    HW137265   4.916   8.229   2.554
12307SOL    HW237266   4.799   8.177   2.655
12308SOL     OW37267   5.479   8.055   2.093
12308SOL    HW137268   5.467   8.042   1.994
12308SOL    HW237269   5.449   7.974   2.142
12309SOL     OW37270   4.492   8.592   2.885
12309SOL    HW137271   4.414   8.609   2.945
12309SOL    HW237272   4.526   8.679   2.849
12310SOL     OW37273   4.574   8.246   3.685
12310SOL    HW137274   4.570   8.322   3.750
12310SOL    HW237275   4.596   8.282   3.594
12311SOL     OW37276   4.409   8.460   2.527
12311SOL    HW137277   4.478   8.444   2.597
12311SOL    HW237278   4.336   8.517   2.565
12312SOL     OW37279   4.410   8.609   3.665
12312SOL    HW137280   4.470   8.688   3.679
12312SOL    HW237281   4.324   8.640   3.624
12313SOL     OW37282   4.162   7.840   3.361
12313SOL    HW137283   4.244   7.784   3.370
12313SOL    HW237284   4.081   7.782   3.365
12314SOL     OW37285   5.327   7.895   2.599
12314SOL    HW137286   5.253   7.941   2.549
12314SOL    HW237287   5.378   7.963   2.652
12315SOL     OW37288   4.851   8.789   3.552
12315SOL    HW137289   4.898   8.789   3.640
12315SOL    HW237290   4.803   8.702   3.541
12316SOL     OW37291   3.964   8.539   2.748
12316SOL    HW137292   3.978   8.455   2.800
12316SOL    HW237293   3.909   8.603   2.803
12317SOL     OW37294   4.330   8.412   1.985
12317SOL    HW137295   4.337   8.496   1.931
12317SOL    HW237296   4.376   8.425   2.073
12318SOL     OW37297   5.318   7.562   3.342
12318SOL    HW137298   5.300   7.629   3.270
12318SOL    HW237299   5.315   7.608   3.431
12319SOL     OW37300   3.846   8.091   2.425
12319SOL    HW137301   3.801   8.003   2.442
12319SOL    HW237302   3.845   8.145   2.509
12320SOL     OW37303   5.413   8.370   2.474
12320SOL    HW137304   5.508   8.341   2.482
12320SOL    HW237305   5.405   8.435   2.399
12321SOL     OW37306   5.365   8.556   2.294
12321SOL    HW137307   5.451   8.558   2.242
12321SOL    HW237308   5.379   8.603   2.382
12322SOL     OW37309   3.837   8.185   3.459
12322SOL    HW137310   3.925   8.172   3.504
12322SOL    HW237311   3.824   8.282   3.437
12323SOL     OW37312   4.337   8.813   2.588
12323SOL    HW137313   4.288   8.726   2.597
12323SOL    HW237314   4.314   8.856   2.501
12324SOL     OW37315   5.017   8.676   3.285
12324SOL    HW137316   5.054   8.603   3.227
12324SOL    HW237317   5.069   8.681   3.370
12325SOL     OW37318   4.533   7.452   2.364
12325SOL    HW137319   4.573   7.543   2.355
12325SOL    HW237320   4.433   7.460   2.370
12326SOL     OW37321   3.921   8.424   3.126
12326SOL    HW137322   4.010   8.379   3.112
12326SOL    HW237323   3.848   8.359   3.107
12327SOL     OW37324   5.249   8.447   2.052
12327SOL    HW137325   5.186   8.371   2.065
12327SOL    HW237326   5.297   8.465   2.138
12328SOL     OW37327   4.041   7.699   3.663
12328SOL    HW137328   4.112   7.770   3.669
12328SOL    HW237329   3.953   7.738   3.691
12329SOL     OW37330   5.190   8.865   2.815
12329SOL    HW137331   5.131   8.871   2.895
12329SOL    HW237332   5.175   8.777   2.769
12330SOL     OW37333   4.322   8.177   2.132
12330SOL    HW137334   4.346   8.246   2.064
12330SOL    HW237335   4.244   8.210   2.186
12331SOL     OW37336   5.005   7.793   2.806
12331SOL    HW137337   4.919   7.743   2.793
12331SOL    HW237338   5.067   7.739   2.862
12332SOL     OW37339   4.531   8.053   3.327
12332SOL    HW137340   4.484   8.050   3.416
12332SOL    HW237341   4.480   7.998   3.261
12333SOL     OW37342   5.118   7.917   3.536
12333SOL    HW137343   5.098   7.960   3.624
12333SOL    HW237344   5.196   7.855   3.545
12334SOL     OW37345   4.697   8.338   3.434
12334SOL    HW137346   4.743   8.254   3.405
12334SOL    HW237347   4.641   8.372   3.359
12335SOL     OW37348   4.715   7.858   3.104
12335SOL    HW137349   4.638   7.892   3.158
12335SOL    HW237350   4.681   7.807   3.025
12336SOL     OW37351   4.765   8.149   2.291
12336SOL    HW137352   4.791   8.145   2.387
12336SOL    HW237353   4.680   8.098   2.277
12337SOL     OW37354   4.589   7.796   2.057
12337SOL    HW137355   4.648   7.859   2.008
12337SOL    HW237356   4.608   7.702   2.028
12338SOL     OW37357   5.443   8.033   3.693
12338SOL    HW137358   5.417   8.122   3.657
12338SOL    HW237359   5.441   7.965   3.620
12339SOL     OW37360   5.086   8.592   2.407
12339SOL    HW137361   5.169   8.563   2.359
12339SOL    HW237362   5.037   8.659   2.351
12340SOL     OW37363   4.274   7.644   2.747
12340SOL    HW137364   4.269   7.639   2.847
12340SOL    HW237365   4.276   7.740   2.718
12341SOL     OW37366   5.519   8.514   2.735
12341SOL    HW137367   5.457   8.499   2.659
12341SOL    HW237368   5.467   8.525   2.820
12342SOL     OW37369   4.951   8.998   3.368
12342SOL    HW137370   4.957   8.921   3.432
12342SOL    HW237371   4.899   8.972   3.288
12343SOL     OW37372   4.045   8.391   2.104
12343SOL    HW137373   4.127   8.430   2.062
12343SOL    HW237374   4.018   8.309   2.055
12344SOL     OW37375   5.182   8.183   2.590
12344SOL    HW137376   5.177   8.118   2.665
12344SOL    HW237377   5.262   8.242   2.603
12345SOL     OW37378   4.185   8.714   3.589
12345SOL    HW137379   4.135   8.715   3.503
12345SOL    HW237380   4.122   8.696   3.665
12346SOL     OW37381   3.926   7.733   3.360
12346SOL    HW137382   3.846   7.793   3.347
12346SOL    HW237383   3.916   7.684   3.446
12347SOL     OW37384   5.124   7.555   2.288
12347SOL    HW137385   5.100   7.518   2.198
12347SOL    HW237386   5.223   7.571   2.292
12348SOL     OW37387   4.106   8.148   2.342
12348SOL    HW137388   4.151   8.058   2.339
12348SOL    HW237389   4.012   8.137   2.375
12349SOL     OW37390   5.271   7.670   3.591
12349SOL    HW137391   5.266   7.707   3.683
12349SOL    HW237392   5.199   7.601   3.579
12350SOL     OW37393   4.338   7.570   1.979
12350SOL    HW137394   4.436   7.548   1.986
12350SOL    HW237395   4.307   7.553   1.886
12351SOL     OW37396   4.505   7.712   3.611
12351SOL    HW137397   4.572   7.651   3.654
12351SOL    HW237398   4.432   7.731   3.676
12352SOL     OW37399   5.075   8.038   3.295
12352SOL    HW137400   5.103   7.995   3.380
12352SOL    HW237401   5.100   8.134   3.296
12353SOL     OW37402   4.527   8.850   2.786
12353SOL    HW137403   4.617   8.864   2.744
12353SOL    HW237404   4.456   8.852   2.715
12354SOL     OW37405   4.646   7.951   2.761
12354SOL    HW137406   4.621   7.942   2.665
12354SOL    HW237407   4.694   7.869   2.792
12355SOL     OW37408   4.263   7.512   2.374
12355SOL    HW137409   4.182   7.513   2.432
12355SOL    HW237410   4.266   7.595   2.319
12356SOL     OW37411   5.158   8.636   1.903
12356SOL    HW137412   5.190   8.560   1.960
12356SOL    HW237413   5.066   8.663   1.933
12357SOL     OW37414   4.021   7.483   2.033
12357SOL    HW137415   4.070   7.567   2.012
12357SOL    HW237416   4.083   7.418   2.078
12358SOL     OW37417   4.659   7.684   2.342
12358SOL    HW137418   4.611   7.725   2.264
12358SOL    HW237419   4.758   7.682   2.323
12359SOL     OW37420   4.800   8.131   3.326
12359SOL    HW137421   4.720   8.070   3.329
12359SOL    HW237422   4.881   8.078   3.302
12360SOL     OW37423   4.183   8.600   2.603
12360SOL    HW137424   4.112   8.573   2.668
12360SOL    HW237425   4.157   8.572   2.510
12361SOL     OW37426   4.756   7.997   1.878
12361SOL    HW137427   4.715   8.079   1.839
12361SOL    HW237428   4.820   8.023   1.951
12362SOL     OW37429   3.802   8.004   3.248
12362SOL    HW137430   3.894   8.003   3.207
12362SOL    HW237431   3.796   8.078   3.315
12363SOL     OW37432   4.285   7.670   3.009
12363SOL    HW137433   4.323   7.586   3.046
12363SOL    HW237434   4.197   7.689   3.053
12364SOL     OW37435   4.590   7.902   2.504
12364SOL    HW137436   4.558   7.974   2.442
12364SOL    HW237437   4.614   7.821   2.451
12365SOL     OW37438   4.741   7.487   2.615
12365SOL    HW137439   4.669   7.492   2.546
12365SOL    HW237440   4.717   7.418   2.684
12366SOL     OW37441   5.153   8.621   2.729
12366SOL    HW137442   5.098   8.537   2.722
12366SOL    HW237443   5.179   8.650   2.637
12367SOL     OW37444   5.190   8.038   2.854
12367SOL    HW137445   5.160   7.943   2.861
12367SOL    HW237446   5.263   8.054   2.920
12368SOL     OW37447   5.581   8.281   2.239
12368SOL    HW137448   5.623   8.217   2.303
12368SOL    HW237449   5.543   8.230   2.161
12369SOL     OW37450   4.212   8.833   2.036
12369SOL    HW137451   4.125   8.818   2.083
12369SOL    HW237452   4.195   8.859   1.941
12370SOL     OW37453   5.114   8.023   1.940
12370SOL    HW137454   5.060   8.002   2.021
12370SOL    HW237455   5.205   7.982   1.949
12371SOL     OW37456   4.251   7.704   2.190
12371SOL    HW137457   4.278   7.645   2.115
12371SOL    HW237458   4.251   7.799   2.159
12372SOL     OW37459   4.788   8.795   3.202
12372SOL    HW137460   4.708   8.772   3.257
12372SOL    HW237461   4.871   8.769   3.251
12373SOL     OW37462   4.835   8.643   2.962
12373SOL    HW137463   4.795   8.687   3.043
12373SOL    HW237464   4.794   8.680   2.879
12374SOL     OW37465   5.362   8.547   2.941
12374SOL    HW137466   5.367   8.628   3.000
12374SOL    HW237467   5.276   8.549   2.890
12375SOL     OW37468   4.639   7.537   3.264
12375SOL    HW137469   4.664   7.517   3.169
12375SOL    HW237470   4.711   7.593   3.306
12376SOL     OW37471   4.704   8.564   3.581
12376SOL    HW137472   4.605   8.570   3.591
12376SOL    HW237473   4.727   8.484   3.525
12377SOL     OW37474   4.429   8.498   2.230
12377SOL    HW137475   4.415   8.505   2.329
12377SOL    HW237476   4.513   8.447   2.212
12378SOL     OW37477   4.134   8.261   3.113
12378SOL    HW137478   4.220   8.273   3.163
12378SOL    HW237479   4.092   8.174   3.140
12379SOL     OW37480   4.998   7.834   3.124
12379SOL    HW137481   5.019   7.908   3.188
12379SOL    HW237482   4.909   7.851   3.081
12380SOL     OW37483   4.091   8.548   2.363
12380SOL    HW137484   4.084   8.631   2.307
12380SOL    HW237485   4.095   8.468   2.303
12381SOL     OW37486   4.290   7.985   2.727
12381SOL    HW137487   4.302   8.051   2.653
12381SOL    HW237488   4.336   8.019   2.810
12382SOL     OW37489   5.306   8.087   2.334
12382SOL    HW137490   5.275   8.148   2.407
12382SOL    HW237491   5.356   8.139   2.265
12383SOL     OW37492   4.126   8.199   3.460
12383SOL    HW137493   4.194   8.254   3.413
12383SOL    HW237494   4.166   8.111   3.487
12384SOL     OW37495   5.311   8.227   3.532
12384SOL    HW137496   5.219   8.265   3.527
12384SOL    HW237497   5.371   8.274   3.467
12385SOL     OW37498   4.228   7.498   3.602
12385SOL    HW137499   4.186   7.441   3.532
12385SOL    HW237500   4.162   7.567   3.634
12386SOL     OW37501   4.297   8.318   2.891
12386SOL    HW137502   4.341   8.407   2.882
12386SOL    HW237503   4.234   8.318   2.968
12387SOL     OW37504   5.084   8.310   2.907
12387SOL    HW137505   5.009   8.310   2.841
12387SOL    HW237506   5.121   8.218   2.916
12388SOL     OW37507   4.933   7.973   2.137
12388SOL    HW137508   4.946   7.889   2.191
12388SOL    HW237509   4.904   8.047   2.197
12389SOL     OW37510   4.031   7.661   3.093
12389SOL    HW137511   4.008   7.698   3.183
12389SOL    HW237512   4.001   7.566   3.087
12390SOL     OW37513   3.761   8.758   3.144
12390SOL    HW137514   3.814   8.709   3.212
12390SOL    HW237515   3.783   8.856   3.149
12391SOL     OW37516   4.456   8.082   2.926
12391SOL    HW137517   4.515   8.056   2.850
12391SOL    HW237518   4.428   8.178   2.915
12392SOL     OW37519   5.452   8.383   3.716
12392SOL    HW137520   5.406   8.376   3.627
12392SOL    HW237521   5.390   8.427   3.782
12393SOL     OW37522   4.031   7.511   2.480
12393SOL    HW137523   4.020   7.605   2.513
12393SOL    HW237524   4.026   7.448   2.557
12394SOL     OW37525   5.346   7.815   2.236
12394SOL    HW137526   5.348   7.739   2.300
12394SOL    HW237527   5.298   7.892   2.276
12395SOL     OW37528   4.747   8.214   2.828
12395SOL    HW137529   4.762   8.235   2.924
12395SOL    HW237530   4.717   8.119   2.819
12396SOL     OW37531   4.074   8.346   3.666
12396SOL    HW137532   4.150   8.390   3.714
12396SOL    HW237533   4.109   8.299   3.584
12397SOL     OW37534   5.264   7.722   1.987
12397SOL    HW137535   5.203   7.647   2.010
12397SOL    HW237536   5.286   7.774   2.070
12398SOL     OW37537   5.027   8.286   1.904
12398SOL    HW137538   5.061   8.193   1.919
12398SOL    HW237539   5.045   8.313   1.809
12399SOL     OW37540   4.792   8.781   2.711
12399SOL    HW137541   4.799   8.697   2.656
12399SOL    HW237542   4.854   8.850   2.675
12400SOL     OW37543   4.043   8.258   2.811
12400SOL    HW137544   4.136   8.294   2.816
12400SOL    HW237545   4.037   8.173   2.863
12401SOL     OW37546   4.063   7.957   2.868
12401SOL    HW137547   4.011   7.874   2.851
12401SOL    HW237548   4.140   7.962   2.804
12402SOL     OW37549   4.862   7.828   3.540
12402SOL    HW137550   4.817   7.891   3.604
12402SOL    HW237551   4.955   7.859   3.523
12403SOL     OW37552   4.884   7.655   3.339
12403SOL    HW137553   4.884   7.719   3.416
12403SOL    HW237554   4.912   7.703   3.256
12404SOL     OW37555   3.732   8.774   2.062
12404SOL    HW137556   3.639   8.795   2.031
12404SOL    HW237557   3.742   8.675   2.075
12405SOL     OW37558   4.726   8.244   3.100
12405SOL    HW137559   4.767   8.212   3.186
12405SOL    HW237560   4.630   8.217   3.097
12406SOL     OW37561   3.764   7.992   2.976
12406SOL    HW137562   3.849   7.959   2.935
12406SOL    HW237563   3.777   8.007   3.074
12407SOL     OW37564   3.913   7.968   3.584
12407SOL    HW137565   3.972   7.928   3.514
12407SOL    HW237566   3.855   8.039   3.543
12408SOL     OW37567   5.093   8.398   3.522
12408SOL    HW137568   5.132   8.487   3.542
12408SOL    HW237569   5.103   8.378   3.425
12409SOL     OW37570   4.539   8.020   2.187
12409SOL    HW137571   4.546   7.931   2.141
12409SOL    HW237572   4.445   8.054   2.179
12410SOL     OW37573   5.381   8.052   3.068
12410SOL    HW137574   5.343   7.983   3.130
12410SOL    HW237575   5.463   8.016   3.024
12411SOL     OW37576   4.395   7.912   3.131
12411SOL    HW137577   4.361   7.823   3.101
12411SOL    HW237578   4.421   7.966   3.051
12412SOL     OW37579   4.197   7.948   2.053
12412SOL    HW137580   4.258   8.028   2.057
12412SOL    HW237581   4.102   7.979   2.060
12413SOL     OW37582   3.883   8.585   3.328
12413SOL    HW137583   3.905   8.524   3.404
12413SOL    HW237584   3.893   8.536   3.242
12414SOL     OW37585   5.071   8.507   3.096
12414SOL    HW137586   5.095   8.444   3.022
12414SOL    HW237587   4.981   8.547   3.078
12415SOL     OW37588   5.026   8.303   2.171
12415SOL    HW137589   4.940   8.272   2.213
12415SOL    HW237590   5.022   8.289   2.072
12416SOL     OW37591   3.807   8.706   2.884
12416SOL    HW137592   3.802   8.705   2.984
12416SOL    HW237593   3.724   8.665   2.846
12417SOL     OW37594   5.450   7.583   2.385
12417SOL    HW137595   5.523   7.566   2.318
12417SOL    HW237596   5.419   7.496   2.423
12418SOL     OW37597   5.004   8.375   2.534
12418SOL    HW137598   5.064   8.294   2.536
12418SOL    HW237599   5.044   8.444   2.474
12419SOL     OW37600   4.554   8.721   3.284
12419SOL    HW137601   4.549   8.754   3.379
12419SOL    HW237602   4.468   8.740   3.238
12420SOL     OW37603   5.565   7.623   2.825
12420SOL    HW137604   5.604   7.538   2.789
12420SOL    HW237605   5.467   7.625   2.806
12421SOL     OW37606   3.987   7.774   2.582
12421SOL    HW137607   3.908   7.825   2.548
12421SOL    HW237608   3.978   7.759   2.680
12422SOL     OW37609   4.918   9.060   1.893
12422SOL    HW137610   4.924   8.967   1.930
12422SOL    HW237611   4.859   9.060   1.813
12423SOL     OW37612   4.546   8.450   3.234
12423SOL    HW137613   4.586   8.449   3.142
12423SOL    HW237614   4.556   8.542   3.274
12424SOL     OW37615   4.640   8.358   2.153
12424SOL    HW137616   4.703   8.396   2.085
12424SOL    HW237617   4.680   8.275   2.192
12425SOL     OW37618   4.096   8.736   3.352
12425SOL    HW137619   4.083   8.829   3.318
12425SOL    HW237620   4.012   8.684   3.339
12426SOL     OW37621   5.338   8.740   3.151
12426SOL    HW137622   5.398   8.743   3.231
12426SOL    HW237623   5.263   8.804   3.164
12427SOL     OW37624   4.763   8.546   2.558
12427SOL    HW137625   4.693   8.499   2.612
12427SOL    HW237626   4.822   8.478   2.515
12428SOL     OW37627   4.738   7.684   2.833
12428SOL    HW137628   4.730   7.648   2.740
12428SOL    HW237629   4.736   7.608   2.898
12429SOL     OW37630   4.314   8.935   2.353
12429SOL    HW137631   4.356   8.877   2.283
12429SOL    HW237632   4.270   9.014   2.309
12430SOL     OW37633   5.433   7.833   3.243
12430SOL    HW137634   5.506   7.902   3.247
12430SOL    HW237635   5.461   7.758   3.184
12431SOL     OW37636   3.829   8.461   3.588
12431SOL    HW137637   3.752   8.428   3.642
12431SOL    HW237638   3.914   8.431   3.630
12432SOL     OW37639   4.396   7.651   3.351
12432SOL    HW137640   4.486   7.635   3.311
12432SOL    HW237641   4.404   7.656   3.450
12433SOL     OW37642   3.799   7.793   1.895
12433SOL    HW137643   3.707   7.765   1.866
12433SOL    HW237644   3.830   7.870   1.839
12434SOL     OW37645   5.164   8.304   3.260
12434SOL    HW137646   5.107   8.356   3.197
12434SOL    HW237647   5.260   8.316   3.236
12435SOL     OW37648   3.796   7.614   2.180
12435SOL    HW137649   3.779   7.697   2.126
12435SOL    HW237650   3.886   7.577   2.158
12436SOL     OW37651   4.907   8.783   1.981
12436SOL    HW137652   4.808   8.772   1.983
12436SOL    HW237653   4.941   8.798   2.074
12437SOL     OW37654   4.337   8.290   3.293
12437SOL    HW137655   4.393   8.371   3.276
12437SOL    HW237656   4.396   8.210   3.296
12438SOL     OW37657   4.440   8.013   3.570
12438SOL    HW137658   4.459   8.078   3.644
12438SOL    HW237659   4.500   7.933   3.579
12439SOL     OW37660   5.174   8.668   3.495
12439SOL    HW137661   5.165   8.658   3.594
12439SOL    HW237662   5.270   8.661   3.469
12440SOL     OW37663   4.114   9.189   3.422
12440SOL    HW137664   4.023   9.230   3.420
12440SOL    HW237665   4.107   9.095   3.454
12441SOL     OW37666   5.398   8.331   3.116
12441SOL    HW137667   5.371   8.242   3.079
12441SOL    HW237668   5.399   8.399   3.043
12442SOL     OW37669   4.949   7.773   2.311
12442SOL    HW137670   5.014   7.699   2.300
12442SOL    HW237671   4.969   7.823   2.395
12443SOL     OW37672   4.318   8.193   2.514
12443SOL    HW137673   4.368   8.278   2.495
12443SOL    HW237674   4.230   8.195   2.466
12444SOL     OW37675   5.501   7.790   3.504
12444SOL    HW137676   5.484   7.821   3.410
12444SOL    HW237677   5.417   7.753   3.542
12445SOL     OW37678   5.454   8.382   3.379
12445SOL    HW137679   5.492   8.473   3.394
12445SOL    HW237680   5.446   8.365   3.280
12446SOL     OW37681   4.583   8.404   2.723
12446SOL    HW137682   4.637   8.335   2.771
12446SOL    HW237683   4.551   8.473   2.789
12447SOL     OW37684   4.807   8.432   1.949
12447SOL    HW137685   4.784   8.485   1.867
12447SOL    HW237686   4.888   8.376   1.930
12448SOL     OW37687   3.945   8.762   3.706
12448SOL    HW137688   3.880   8.689   3.685
12448SOL    HW237689   3.949   8.776   3.804
12449SOL     OW37690   3.803   8.688   2.515
12449SOL    HW137691   3.802   8.641   2.603
12449SOL    HW237692   3.885   8.660   2.464
12450SOL     OW37693   4.396   8.839   3.486
12450SOL    HW137694   4.318   8.789   3.524
12450SOL    HW237695   4.393   8.934   3.517
12451SOL     OW37696   5.548   7.640   3.089
12451SOL    HW137697   5.544   7.550   3.133
12451SOL    HW237698   5.551   7.629   2.990
12452SOL     OW37699   4.152   7.872   2.382
12452SOL    HW137700   4.182   7.800   2.320
12452SOL    HW237701   4.113   7.832   2.465
12453SOL     OW37702   5.429   8.935   2.966
12453SOL    HW137703   5.336   8.910   2.939
12453SOL    HW237704   5.455   8.885   3.048
12454SOL     OW37705   4.041   7.995   3.142
12454SOL    HW137706   4.079   7.936   3.214
12454SOL    HW237707   4.081   7.969   3.054
12455SOL     OW37708   4.536   9.034   2.549
12455SOL    HW137709   4.568   9.044   2.455
12455SOL    HW237710   4.457   8.972   2.551
12456SOL     OW37711   5.148   7.662   2.974
12456SOL    HW137712   5.200   7.597   3.029
12456SOL    HW237713   5.099   7.725   3.035
12457SOL     OW37714   4.725   7.482   3.016
12457SOL    HW137715   4.662   7.410   2.985
12457SOL    HW237716   4.818   7.446   3.016
12458SOL     OW37717   4.494   8.778   2.163
12458SOL    HW137718   4.448   8.691   2.180
12458SOL    HW237719   4.585   8.775   2.204
12459SOL     OW37720   5.076   7.500   2.030
12459SOL    HW137721   5.111   7.459   1.946
12459SOL    HW237722   4.986   7.462   2.050
12460SOL     OW37723   5.024   7.901   2.553
12460SOL    HW137724   4.965   7.981   2.557
12460SOL    HW237725   5.039   7.866   2.646
12461SOL     OW37726   5.317   7.669   2.744
12461SOL    HW137727   5.233   7.668   2.798
12461SOL    HW237728   5.319   7.752   2.688
12462SOL     OW37729   3.763   8.525   2.162
12462SOL    HW137730   3.862   8.514   2.153
12462SOL    HW237731   3.723   8.439   2.194
12463SOL     OW37732   3.954   8.076   3.837
12463SOL    HW137733   3.861   8.074   3.874
12463SOL    HW237734   3.955   8.037   3.745
12464SOL     OW37735   3.743   7.816   4.371
12464SOL    HW137736   3.661   7.859   4.410
12464SOL    HW237737   3.715   7.743   4.308
12465SOL     OW37738   4.859   8.151   4.441
12465SOL    HW137739   4.916   8.229   4.416
12465SOL    HW237740   4.799   8.177   4.517
12466SOL     OW37741   5.479   8.055   3.955
12466SOL    HW137742   5.467   8.042   3.856
12466SOL    HW237743   5.449   7.974   4.004
12467SOL     OW37744   4.492   8.592   4.747
12467SOL    HW137745   4.414   8.609   4.807
12467SOL    HW237746   4.526   8.679   4.711
12468SOL     OW37747   4.574   8.246   5.547
12468SOL    HW137748   4.570   8.322   5.612
12468SOL    HW237749   4.596   8.282   5.456
12469SOL     OW37750   4.409   8.460   4.389
12469SOL    HW137751   4.478   8.444   4.459
12469SOL    HW237752   4.336   8.517   4.427
12470SOL     OW37753   4.410   8.609   5.527
12470SOL    HW137754   4.470   8.688   5.541
12470SOL    HW237755   4.324   8.640   5.486
12471SOL     OW37756   4.162   7.840   5.223
12471SOL    HW137757   4.244   7.784   5.232
12471SOL    HW237758   4.081   7.782   5.227
12472SOL     OW37759   5.327   7.895   4.461
12472SOL    HW137760   5.253   7.941   4.411
12472SOL    HW237761   5.378   7.963   4.514
12473SOL     OW37762   4.851   8.789   5.414
12473SOL    HW137763   4.898   8.789   5.502
12473SOL    HW237764   4.803   8.702   5.403
12474SOL     OW37765   3.964   8.539   4.610
12474SOL    HW137766   3.978   8.455   4.662
12474SOL    HW237767   3.909   8.603   4.665
12475SOL     OW37768   4.330   8.412   3.847
12475SOL    HW137769   4.337   8.496   3.793
12475SOL    HW237770   4.376   8.425   3.935
12476SOL     OW37771   5.318   7.562   5.204
12476SOL    HW137772   5.300   7.629   5.132
12476SOL    HW237773   5.315   7.608   5.293
12477SOL     OW37774   3.846   8.091   4.287
12477SOL    HW137775   3.801   8.003   4.304
12477SOL    HW237776   3.845   8.145   4.371
12478SOL     OW37777   5.413   8.370   4.336
12478SOL    HW137778   5.508   8.341   4.344
12478SOL    HW237779   5.405   8.435   4.261
12479SOL     OW37780   5.365   8.556   4.156
12479SOL    HW137781   5.451   8.558   4.104
12479SOL    HW237782   5.379   8.603   4.244
12480SOL     OW37783   3.837   8.185   5.321
12480SOL    HW137784   3.925   8.172   5.366
12480SOL    HW237785   3.824   8.282   5.299
12481SOL     OW37786   4.337   8.813   4.450
12481SOL    HW137787   4.288   8.726   4.459
12481SOL    HW237788   4.314   8.856   4.363
12482SOL     OW37789   5.017   8.676   5.147
12482SOL    HW137790   5.054   8.603   5.089
12482SOL    HW237791   5.069   8.681   5.232
12483SOL     OW37792   4.533   7.452   4.226
12483SOL    HW137793   4.573   7.543   4.217
12483SOL    HW237794   4.433   7.460   4.232
12484SOL     OW37795   3.921   8.424   4.988
12484SOL    HW137796   4.010   8.379   4.974
12484SOL    HW237797   3.848   8.359   4.969
12485SOL     OW37798   5.249   8.447   3.914
12485SOL    HW137799   5.186   8.371   3.927
12485SOL    HW237800   5.297   8.465   4.000
12486SOL     OW37801   4.041   7.699   5.525
12486SOL    HW137802   4.112   7.770   5.531
12486SOL    HW237803   3.953   7.738   5.553
12487SOL     OW37804   5.190   8.865   4.677
12487SOL    HW137805   5.131   8.871   4.757
12487SOL    HW237806   5.175   8.777   4.631
12488SOL     OW37807   4.322   8.177   3.994
12488SOL    HW137808   4.346   8.246   3.926
12488SOL    HW237809   4.244   8.210   4.048
12489SOL     OW37810   5.005   7.793   4.668
12489SOL    HW137811   4.919   7.743   4.655
12489SOL    HW237812   5.067   7.739   4.724
12490SOL     OW37813   4.531   8.053   5.189
12490SOL    HW137814   4.484   8.050   5.278
12490SOL    HW237815   4.480   7.998   5.123
12491SOL     OW37816   5.118   7.917   5.398
12491SOL    HW137817   5.098   7.960   5.486
12491SOL    HW237818   5.196   7.855   5.407
12492SOL     OW37819   4.697   8.338   5.296
12492SOL    HW137820   4.743   8.254   5.267
12492SOL    HW237821   4.641   8.372   5.221
12493SOL     OW37822   4.715   7.858   4.966
12493SOL    HW137823   4.638   7.892   5.020
12493SOL    HW237824   4.681   7.807   4.887
12494SOL     OW37825   4.765   8.149   4.153
12494SOL    HW137826   4.791   8.145   4.249
12494SOL    HW237827   4.680   8.098   4.139
12495SOL     OW37828   3.800   8.259   4.513
12495SOL    HW137829   3.899   8.247   4.522
12495SOL    HW237830   3.776   8.354   4.534
12496SOL     OW37831   4.589   7.796   3.919
12496SOL    HW137832   4.648   7.859   3.870
12496SOL    HW237833   4.608   7.702   3.890
12497SOL     OW37834   5.443   8.033   5.555
12497SOL    HW137835   5.417   8.122   5.519
12497SOL    HW237836   5.441   7.965   5.482
12498SOL     OW37837   5.086   8.592   4.269
12498SOL    HW137838   5.169   8.563   4.221
12498SOL    HW237839   5.037   8.659   4.213
12499SOL     OW37840   4.274   7.644   4.609
12499SOL    HW137841   4.269   7.639   4.709
12499SOL    HW237842   4.276   7.740   4.580
12500SOL     OW37843   5.519   8.514   4.597
12500SOL    HW137844   5.457   8.499   4.521
12500SOL    HW237845   5.467   8.525   4.682
12501SOL     OW37846   4.951   8.998   5.230
12501SOL    HW137847   4.957   8.921   5.294
12501SOL    HW237848   4.899   8.972   5.150
12502SOL     OW37849   4.045   8.391   3.966
12502SOL    HW137850   4.127   8.430   3.924
12502SOL    HW237851   4.018   8.309   3.917
12503SOL     OW37852   5.182   8.183   4.452
12503SOL    HW137853   5.177   8.118   4.527
12503SOL    HW237854   5.262   8.242   4.465
12504SOL     OW37855   4.185   8.714   5.451
12504SOL    HW137856   4.135   8.715   5.365
12504SOL    HW237857   4.122   8.696   5.527
12505SOL     OW37858   3.926   7.733   5.222
12505SOL    HW137859   3.846   7.793   5.209
12505SOL    HW237860   3.916   7.684   5.308
12506SOL     OW37861   5.124   7.555   4.150
12506SOL    HW137862   5.100   7.518   4.060
12506SOL    HW237863   5.223   7.571   4.154
12507SOL     OW37864   4.106   8.148   4.204
12507SOL    HW137865   4.151   8.058   4.201
12507SOL    HW237866   4.012   8.137   4.237
12508SOL     OW37867   5.271   7.670   5.453
12508SOL    HW137868   5.266   7.707   5.545
12508SOL    HW237869   5.199   7.601   5.441
12509SOL     OW37870   4.338   7.570   3.841
12509SOL    HW137871   4.436   7.548   3.848
12509SOL    HW237872   4.307   7.553   3.748
12510SOL     OW37873   4.505   7.712   5.473
12510SOL    HW137874   4.572   7.651   5.516
12510SOL    HW237875   4.432   7.731   5.538
12511SOL     OW37876   5.075   8.038   5.157
12511SOL    HW137877   5.103   7.995   5.242
12511SOL    HW237878   5.100   8.134   5.158
12512SOL     OW37879   4.527   8.850   4.648
12512SOL    HW137880   4.617   8.864   4.606
12512SOL    HW237881   4.456   8.852   4.577
12513SOL     OW37882   4.646   7.951   4.623
12513SOL    HW137883   4.621   7.942   4.527
12513SOL    HW237884   4.694   7.869   4.654
12514SOL     OW37885   4.263   7.512   4.236
12514SOL    HW137886   4.182   7.513   4.294
12514SOL    HW237887   4.266   7.595   4.181
12515SOL     OW37888   5.158   8.636   3.765
12515SOL    HW137889   5.190   8.560   3.822
12515SOL    HW237890   5.066   8.663   3.795
12516SOL     OW37891   4.021   7.483   3.895
12516SOL    HW137892   4.070   7.567   3.874
12516SOL    HW237893   4.083   7.418   3.940
12517SOL     OW37894   4.659   7.684   4.204
12517SOL    HW137895   4.611   7.725   4.126
12517SOL    HW237896   4.758   7.682   4.185
12518SOL     OW37897   4.800   8.131   5.188
12518SOL    HW137898   4.720   8.070   5.191
12518SOL    HW237899   4.881   8.078   5.164
12519SOL     OW37900   4.183   8.600   4.465
12519SOL    HW137901   4.112   8.573   4.530
12519SOL    HW237902   4.157   8.572   4.372
12520SOL     OW37903   4.756   7.997   3.740
12520SOL    HW137904   4.715   8.079   3.701
12520SOL    HW237905   4.820   8.023   3.813
12521SOL     OW37906   3.802   8.004   5.110
12521SOL    HW137907   3.894   8.003   5.069
12521SOL    HW237908   3.796   8.078   5.177
12522SOL     OW37909   4.285   7.670   4.871
12522SOL    HW137910   4.323   7.586   4.908
12522SOL    HW237911   4.197   7.689   4.915
12523SOL     OW37912   4.590   7.902   4.366
12523SOL    HW137913   4.558   7.974   4.304
12523SOL    HW237914   4.614   7.821   4.313
12524SOL     OW37915   4.741   7.487   4.477
12524SOL    HW137916   4.669   7.492   4.408
12524SOL    HW237917   4.717   7.418   4.546
12525SOL     OW37918   5.153   8.621   4.591
12525SOL    HW137919   5.098   8.537   4.584
12525SOL    HW237920   5.179   8.650   4.499
12526SOL     OW37921   5.190   8.038   4.716
12526SOL    HW137922   5.160   7.943   4.723
12526SOL    HW237923   5.263   8.054   4.782
12527SOL     OW37924   5.581   8.281   4.101
12527SOL    HW137925   5.623   8.217   4.165
12527SOL    HW237926   5.543   8.230   4.023
12528SOL     OW37927   4.212   8.833   3.898
12528SOL    HW137928   4.125   8.818   3.945
12528SOL    HW237929   4.195   8.859   3.803
12529SOL     OW37930   5.114   8.023   3.802
12529SOL    HW137931   5.060   8.002   3.883
12529SOL    HW237932   5.205   7.982   3.811
12530SOL     OW37933   4.251   7.704   4.052
12530SOL    HW137934   4.278   7.645   3.977
12530SOL    HW237935   4.251   7.799   4.021
12531SOL     OW37936   4.788   8.795   5.064
12531SOL    HW137937   4.708   8.772   5.119
12531SOL    HW237938   4.871   8.769   5.113
12532SOL     OW37939   4.835   8.643   4.824
12532SOL    HW137940   4.795   8.687   4.905
12532SOL    HW237941   4.794   8.680   4.741
12533SOL     OW37942   5.362   8.547   4.803
12533SOL    HW137943   5.367   8.628   4.862
12533SOL    HW237944   5.276   8.549   4.752
12534SOL     OW37945   4.639   7.537   5.126
12534SOL    HW137946   4.664   7.517   5.031
12534SOL    HW237947   4.711   7.593   5.168
12535SOL     OW37948   4.704   8.564   5.443
12535SOL    HW137949   4.605   8.570   5.453
12535SOL    HW237950   4.727   8.484   5.387
12536SOL     OW37951   4.429   8.498   4.092
12536SOL    HW137952   4.415   8.505   4.191
12536SOL    HW237953   4.513   8.447   4.074
12537SOL     OW37954   4.134   8.261   4.975
12537SOL    HW137955   4.220   8.273   5.025
12537SOL    HW237956   4.092   8.174   5.002
12538SOL     OW37957   4.998   7.834   4.986
12538SOL    HW137958   5.019   7.908   5.050
12538SOL    HW237959   4.909   7.851   4.943
12539SOL     OW37960   4.091   8.548   4.225
12539SOL    HW137961   4.084   8.631   4.169
12539SOL    HW237962   4.095   8.468   4.165
12540SOL     OW37963   4.290   7.985   4.589
12540SOL    HW137964   4.302   8.051   4.515
12540SOL    HW237965   4.336   8.019   4.672
12541SOL     OW37966   4.976   8.796   4.112
12541SOL    HW137967   5.026   8.873   4.152
12541SOL    HW237968   4.881   8.798   4.144
12542SOL     OW37969   5.306   8.087   4.196
12542SOL    HW137970   5.275   8.148   4.269
12542SOL    HW237971   5.356   8.139   4.127
12543SOL     OW37972   4.126   8.199   5.322
12543SOL    HW137973   4.194   8.254   5.275
12543SOL    HW237974   4.166   8.111   5.349
12544SOL     OW37975   5.311   8.227   5.394
12544SOL    HW137976   5.219   8.265   5.389
12544SOL    HW237977   5.371   8.274   5.329
12545SOL     OW37978   4.737   7.553   5.494
12545SOL    HW137979   4.743   7.638   5.442
12545SOL    HW237980   4.769   7.477   5.437
12546SOL     OW37981   4.228   7.498   5.464
12546SOL    HW137982   4.186   7.441   5.394
12546SOL    HW237983   4.162   7.567   5.496
12547SOL     OW37984   4.297   8.318   4.753
12547SOL    HW137985   4.341   8.407   4.744
12547SOL    HW237986   4.234   8.318   4.830
12548SOL     OW37987   5.084   8.310   4.769
12548SOL    HW137988   5.009   8.310   4.703
12548SOL    HW237989   5.121   8.218   4.778
12549SOL     OW37990   4.933   7.973   3.999
12549SOL    HW137991   4.946   7.889   4.053
12549SOL    HW237992   4.904   8.047   4.059
12550SOL     OW37993   4.031   7.661   4.955
12550SOL    HW137994   4.008   7.698   5.045
12550SOL    HW237995   4.001   7.566   4.949
12551SOL     OW37996   3.761   8.758   5.006
12551SOL    HW137997   3.814   8.709   5.074
12551SOL    HW237998   3.783   8.856   5.011
12552SOL     OW37999   4.456   8.082   4.788
12552SOL    HW138000   4.515   8.056   4.712
12552SOL    HW238001   4.428   8.178   4.777
12553SOL     OW38002   5.452   8.383   5.578
12553SOL    HW138003   5.406   8.376   5.489
12553SOL    HW238004   5.390   8.427   5.644
12554SOL     OW38005   4.031   7.511   4.342
12554SOL    HW138006   4.020   7.605   4.375
12554SOL    HW238007   4.026   7.448   4.419
12555SOL     OW38008   5.346   7.815   4.098
12555SOL    HW138009   5.348   7.739   4.162
12555SOL    HW238010   5.298   7.892   4.138
12556SOL     OW38011   4.747   8.214   4.690
12556SOL    HW138012   4.762   8.235   4.786
12556SOL    HW238013   4.717   8.119   4.681
12557SOL     OW38014   4.074   8.346   5.528
12557SOL    HW138015   4.150   8.390   5.576
12557SOL    HW238016   4.109   8.299   5.446
12558SOL     OW38017   5.264   7.722   3.849
12558SOL    HW138018   5.203   7.647   3.872
12558SOL    HW238019   5.286   7.774   3.932
12559SOL     OW38020   5.027   8.286   3.766
12559SOL    HW138021   5.061   8.193   3.781
12559SOL    HW238022   5.045   8.313   3.671
12560SOL     OW38023   4.792   8.781   4.573
12560SOL    HW138024   4.799   8.697   4.518
12560SOL    HW238025   4.854   8.850   4.537
12561SOL     OW38026   4.043   8.258   4.673
12561SOL    HW138027   4.136   8.294   4.678
12561SOL    HW238028   4.037   8.173   4.725
12562SOL     OW38029   4.063   7.957   4.730
12562SOL    HW138030   4.011   7.874   4.713
12562SOL    HW238031   4.140   7.962   4.666
12563SOL     OW38032   4.862   7.828   5.402
12563SOL    HW138033   4.817   7.891   5.466
12563SOL    HW238034   4.955   7.859   5.385
12564SOL     OW38035   4.884   7.655   5.201
12564SOL    HW138036   4.884   7.719   5.278
12564SOL    HW238037   4.912   7.703   5.118
12565SOL     OW38038   3.732   8.774   3.924
12565SOL    HW138039   3.639   8.795   3.893
12565SOL    HW238040   3.742   8.675   3.937
12566SOL     OW38041   4.726   8.244   4.962
12566SOL    HW138042   4.767   8.212   5.048
12566SOL    HW238043   4.630   8.217   4.959
12567SOL     OW38044   3.764   7.992   4.838
12567SOL    HW138045   3.849   7.959   4.797
12567SOL    HW238046   3.777   8.007   4.936
12568SOL     OW38047   3.913   7.968   5.446
12568SOL    HW138048   3.972   7.928   5.376
12568SOL    HW238049   3.855   8.039   5.405
12569SOL     OW38050   5.093   8.398   5.384
12569SOL    HW138051   5.132   8.487   5.404
12569SOL    HW238052   5.103   8.378   5.287
12570SOL     OW38053   4.539   8.020   4.049
12570SOL    HW138054   4.546   7.931   4.003
12570SOL    HW238055   4.445   8.054   4.041
12571SOL     OW38056   5.381   8.052   4.930
12571SOL    HW138057   5.343   7.983   4.992
12571SOL    HW238058   5.463   8.016   4.886
12572SOL     OW38059   4.395   7.912   4.993
12572SOL    HW138060   4.361   7.823   4.963
12572SOL    HW238061   4.421   7.966   4.913
12573SOL     OW38062   4.197   7.948   3.915
12573SOL    HW138063   4.258   8.028   3.919
12573SOL    HW238064   4.102   7.979   3.922
12574SOL     OW38065   3.883   8.585   5.190
12574SOL    HW138066   3.905   8.524   5.266
12574SOL    HW238067   3.893   8.536   5.104
12575SOL     OW38068   5.071   8.507   4.958
12575SOL    HW138069   5.095   8.444   4.884
12575SOL    HW238070   4.981   8.547   4.940
12576SOL     OW38071   5.026   8.303   4.033
12576SOL    HW138072   4.940   8.272   4.075
12576SOL    HW238073   5.022   8.289   3.934
12577SOL     OW38074   3.807   8.706   4.746
12577SOL    HW138075   3.802   8.705   4.846
12577SOL    HW238076   3.724   8.665   4.708
12578SOL     OW38077   5.450   7.583   4.247
12578SOL    HW138078   5.523   7.566   4.180
12578SOL    HW238079   5.419   7.496   4.285
12579SOL     OW38080   5.004   8.375   4.396
12579SOL    HW138081   5.064   8.294   4.398
12579SOL    HW238082   5.044   8.444   4.336
12580SOL     OW38083   4.554   8.721   5.146
12580SOL    HW138084   4.549   8.754   5.241
12580SOL    HW238085   4.468   8.740   5.100
12581SOL     OW38086   5.565   7.623   4.687
12581SOL    HW138087   5.604   7.538   4.651
12581SOL    HW238088   5.467   7.625   4.668
12582SOL     OW38089   3.987   7.774   4.444
12582SOL    HW138090   3.908   7.825   4.410
12582SOL    HW238091   3.978   7.759   4.542
12583SOL     OW38092   4.918   9.060   3.755
12583SOL    HW138093   4.924   8.967   3.792
12583SOL    HW238094   4.859   9.060   3.675
12584SOL     OW38095   4.546   8.450   5.096
12584SOL    HW138096   4.586   8.449   5.004
12584SOL    HW238097   4.556   8.542   5.136
12585SOL     OW38098   4.640   8.358   4.015
12585SOL    HW138099   4.703   8.396   3.947
12585SOL    HW238100   4.680   8.275   4.054
12586SOL     OW38101   4.096   8.736   5.214
12586SOL    HW138102   4.083   8.829   5.180
12586SOL    HW238103   4.012   8.684   5.201
12587SOL     OW38104   5.338   8.740   5.013
12587SOL    HW138105   5.398   8.743   5.093
12587SOL    HW238106   5.263   8.804   5.026
12588SOL     OW38107   4.763   8.546   4.420
12588SOL    HW138108   4.693   8.499   4.474
12588SOL    HW238109   4.822   8.478   4.377
12589SOL     OW38110   4.738   7.684   4.695
12589SOL    HW138111   4.730   7.648   4.602
12589SOL    HW238112   4.736   7.608   4.760
12590SOL     OW38113   4.314   8.935   4.215
12590SOL    HW138114   4.356   8.877   4.145
12590SOL    HW238115   4.270   9.014   4.171
12591SOL     OW38116   5.433   7.833   5.105
12591SOL    HW138117   5.506   7.902   5.109
12591SOL    HW238118   5.461   7.758   5.046
12592SOL     OW38119   3.829   8.461   5.450
12592SOL    HW138120   3.752   8.428   5.504
12592SOL    HW238121   3.914   8.431   5.492
12593SOL     OW38122   4.396   7.651   5.213
12593SOL    HW138123   4.486   7.635   5.173
12593SOL    HW238124   4.404   7.656   5.312
12594SOL     OW38125   3.799   7.793   3.757
12594SOL    HW138126   3.707   7.765   3.728
12594SOL    HW238127   3.830   7.870   3.701
12595SOL     OW38128   5.164   8.304   5.122
12595SOL    HW138129   5.107   8.356   5.059
12595SOL    HW238130   5.260   8.316   5.098
12596SOL     OW38131   3.796   7.614   4.042
12596SOL    HW138132   3.779   7.697   3.988
12596SOL    HW238133   3.886   7.577   4.020
12597SOL     OW38134   4.907   8.783   3.843
12597SOL    HW138135   4.808   8.772   3.845
12597SOL    HW238136   4.941   8.798   3.936
12598SOL     OW38137   4.337   8.290   5.155
12598SOL    HW138138   4.393   8.371   5.138
12598SOL    HW238139   4.396   8.210   5.158
12599SOL     OW38140   4.440   8.013   5.432
12599SOL    HW138141   4.459   8.078   5.506
12599SOL    HW238142   4.500   7.933   5.441
12600SOL     OW38143   5.174   8.668   5.357
12600SOL    HW138144   5.165   8.658   5.456
12600SOL    HW238145   5.270   8.661   5.331
12601SOL     OW38146   4.114   9.189   5.284
12601SOL    HW138147   4.023   9.230   5.282
12601SOL    HW238148   4.107   9.095   5.316
12602SOL     OW38149   5.398   8.331   4.978
12602SOL    HW138150   5.371   8.242   4.941
12602SOL    HW238151   5.399   8.399   4.905
12603SOL     OW38152   4.949   7.773   4.173
12603SOL    HW138153   5.014   7.699   4.162
12603SOL    HW238154   4.969   7.823   4.257
12604SOL     OW38155   4.318   8.193   4.376
12604SOL    HW138156   4.368   8.278   4.357
12604SOL    HW238157   4.230   8.195   4.328
12605SOL     OW38158   5.501   7.790   5.366
12605SOL    HW138159   5.484   7.821   5.272
12605SOL    HW238160   5.417   7.753   5.404
12606SOL     OW38161   5.454   8.382   5.241
12606SOL    HW138162   5.492   8.473   5.256
12606SOL    HW238163   5.446   8.365   5.142
12607SOL     OW38164   4.583   8.404   4.585
12607SOL    HW138165   4.637   8.335   4.633
12607SOL    HW238166   4.551   8.473   4.651
12608SOL     OW38167   4.807   8.432   3.811
12608SOL    HW138168   4.784   8.485   3.729
12608SOL    HW238169   4.888   8.376   3.792
12609SOL     OW38170   3.945   8.762   5.568
12609SOL    HW138171   3.880   8.689   5.547
12609SOL    HW238172   3.949   8.776   5.666
12610SOL     OW38173   3.803   8.688   4.377
12610SOL    HW138174   3.802   8.641   4.465
12610SOL    HW238175   3.885   8.660   4.326
12611SOL     OW38176   4.396   8.839   5.348
12611SOL    HW138177   4.318   8.789   5.386
12611SOL    HW238178   4.393   8.934   5.379
12612SOL     OW38179   5.548   7.640   4.951
12612SOL    HW138180   5.544   7.550   4.995
12612SOL    HW238181   5.551   7.629   4.852
12613SOL     OW38182   4.152   7.872   4.244
12613SOL    HW138183   4.182   7.800   4.182
12613SOL    HW238184   4.113   7.832   4.327
12614SOL     OW38185   5.429   8.935   4.828
12614SOL    HW138186   5.336   8.910   4.801
12614SOL    HW238187   5.455   8.885   4.910
12615SOL     OW38188   4.041   7.995   5.004
12615SOL    HW138189   4.079   7.936   5.076
12615SOL    HW238190   4.081   7.969   4.916
12616SOL     OW38191   4.536   9.034   4.411
12616SOL    HW138192   4.568   9.044   4.317
12616SOL    HW238193   4.457   8.972   4.413
12617SOL     OW38194   5.148   7.662   4.836
12617SOL    HW138195   5.200   7.597   4.891
12617SOL    HW238196   5.099   7.725   4.897
12618SOL     OW38197   4.725   7.482   4.878
12618SOL    HW138198   4.662   7.410   4.847
12618SOL    HW238199   4.818   7.446   4.878
12619SOL     OW38200   4.494   8.778   4.025
12619SOL    HW138201   4.448   8.691   4.042
12619SOL    HW238202   4.585   8.775   4.066
12620SOL     OW38203   5.076   7.500   3.892
12620SOL    HW138204   5.111   7.459   3.808
12620SOL    HW238205   4.986   7.462   3.912
12621SOL     OW38206   5.024   7.901   4.415
12621SOL    HW138207   4.965   7.981   4.419
12621SOL    HW238208   5.039   7.866   4.508
12622SOL     OW38209   5.317   7.669   4.606
12622SOL    HW138210   5.233   7.668   4.660
12622SOL    HW238211   5.319   7.752   4.550
12623SOL     OW38212   3.763   8.525   4.024
12623SOL    HW138213   3.862   8.514   4.015
12623SOL    HW238214   3.723   8.439   4.056
12624SOL     OW38215   3.954   8.076   5.699
12624SOL    HW138216   3.861   8.074   5.736
12624SOL    HW238217   3.955   8.037   5.607
12625SOL     OW38218   3.949   7.723   6.582
12625SOL    HW138219   3.984   7.706   6.674
12625SOL    HW238220   3.861   7.678   6.570
12626SOL     OW38221   3.743   7.816   6.233
12626SOL    HW138222   3.661   7.859   6.272
12626SOL    HW238223   3.715   7.743   6.170
12627SOL     OW38224   4.859   8.151   6.303
12627SOL    HW138225   4.916   8.229   6.278
12627SOL    HW238226   4.799   8.177   6.379
12628SOL     OW38227   5.479   8.055   5.817
12628SOL    HW138228   5.467   8.042   5.718
12628SOL    HW238229   5.449   7.974   5.866
12629SOL     OW38230   4.492   8.592   6.609
12629SOL    HW138231   4.414   8.609   6.669
12629SOL    HW238232   4.526   8.679   6.573
12630SOL     OW38233   4.574   8.246   7.409
12630SOL    HW138234   4.570   8.322   7.474
12630SOL    HW238235   4.596   8.282   7.318
12631SOL     OW38236   4.409   8.460   6.251
12631SOL    HW138237   4.478   8.444   6.321
12631SOL    HW238238   4.336   8.517   6.289
12632SOL     OW38239   4.410   8.609   7.389
12632SOL    HW138240   4.470   8.688   7.403
12632SOL    HW238241   4.324   8.640   7.348
12633SOL     OW38242   4.162   7.840   7.085
12633SOL    HW138243   4.244   7.784   7.094
12633SOL    HW238244   4.081   7.782   7.089
12634SOL     OW38245   5.327   7.895   6.323
12634SOL    HW138246   5.253   7.941   6.273
12634SOL    HW238247   5.378   7.963   6.376
12635SOL     OW38248   4.851   8.789   7.276
12635SOL    HW138249   4.898   8.789   7.364
12635SOL    HW238250   4.803   8.702   7.265
12636SOL     OW38251   3.964   8.539   6.472
12636SOL    HW138252   3.978   8.455   6.524
12636SOL    HW238253   3.909   8.603   6.527
12637SOL     OW38254   4.330   8.412   5.709
12637SOL    HW138255   4.337   8.496   5.655
12637SOL    HW238256   4.376   8.425   5.797
12638SOL     OW38257   3.846   8.091   6.149
12638SOL    HW138258   3.801   8.003   6.166
12638SOL    HW238259   3.845   8.145   6.233
12639SOL     OW38260   5.413   8.370   6.198
12639SOL    HW138261   5.508   8.341   6.206
12639SOL    HW238262   5.405   8.435   6.123
12640SOL     OW38263   5.365   8.556   6.018
12640SOL    HW138264   5.451   8.558   5.966
12640SOL    HW238265   5.379   8.603   6.106
12641SOL     OW38266   3.837   8.185   7.183
12641SOL    HW138267   3.925   8.172   7.228
12641SOL    HW238268   3.824   8.282   7.161
12642SOL     OW38269   4.337   8.813   6.312
12642SOL    HW138270   4.288   8.726   6.321
12642SOL    HW238271   4.314   8.856   6.225
12643SOL     OW38272   5.017   8.676   7.009
12643SOL    HW138273   5.054   8.603   6.951
12643SOL    HW238274   5.069   8.681   7.094
12644SOL     OW38275   4.533   7.452   6.088
12644SOL    HW138276   4.573   7.543   6.079
12644SOL    HW238277   4.433   7.460   6.094
12645SOL     OW38278   3.921   8.424   6.850
12645SOL    HW138279   4.010   8.379   6.836
12645SOL    HW238280   3.848   8.359   6.831
12646SOL     OW38281   5.249   8.447   5.776
12646SOL    HW138282   5.186   8.371   5.789
12646SOL    HW238283   5.297   8.465   5.862
12647SOL     OW38284   4.041   7.699   7.387
12647SOL    HW138285   4.112   7.770   7.393
12647SOL    HW238286   3.953   7.738   7.415
12648SOL     OW38287   5.190   8.865   6.539
12648SOL    HW138288   5.131   8.871   6.619
12648SOL    HW238289   5.175   8.777   6.493
12649SOL     OW38290   4.322   8.177   5.856
12649SOL    HW138291   4.346   8.246   5.788
12649SOL    HW238292   4.244   8.210   5.910
12650SOL     OW38293   5.005   7.793   6.530
12650SOL    HW138294   4.919   7.743   6.517
12650SOL    HW238295   5.067   7.739   6.586
12651SOL     OW38296   4.531   8.053   7.051
12651SOL    HW138297   4.484   8.050   7.140
12651SOL    HW238298   4.480   7.998   6.985
12652SOL     OW38299   5.118   7.917   7.260
12652SOL    HW138300   5.098   7.960   7.348
12652SOL    HW238301   5.196   7.855   7.269
12653SOL     OW38302   4.697   8.338   7.158
12653SOL    HW138303   4.743   8.254   7.129
12653SOL    HW238304   4.641   8.372   7.083
12654SOL     OW38305   4.715   7.858   6.828
12654SOL    HW138306   4.638   7.892   6.882
12654SOL    HW238307   4.681   7.807   6.749
12655SOL     OW38308   4.765   8.149   6.015
12655SOL    HW138309   4.791   8.145   6.111
12655SOL    HW238310   4.680   8.098   6.001
12656SOL     OW38311   3.800   8.259   6.375
12656SOL    HW138312   3.899   8.247   6.384
12656SOL    HW238313   3.776   8.354   6.396
12657SOL     OW38314   4.589   7.796   5.781
12657SOL    HW138315   4.648   7.859   5.732
12657SOL    HW238316   4.608   7.702   5.752
12658SOL     OW38317   5.443   8.033   7.417
12658SOL    HW138318   5.417   8.122   7.381
12658SOL    HW238319   5.441   7.965   7.344
12659SOL     OW38320   5.086   8.592   6.131
12659SOL    HW138321   5.169   8.563   6.083
12659SOL    HW238322   5.037   8.659   6.075
12660SOL     OW38323   4.274   7.644   6.471
12660SOL    HW138324   4.269   7.639   6.571
12660SOL    HW238325   4.276   7.740   6.442
12661SOL     OW38326   5.519   8.514   6.459
12661SOL    HW138327   5.457   8.499   6.383
12661SOL    HW238328   5.467   8.525   6.544
12662SOL     OW38329   4.951   8.998   7.092
12662SOL    HW138330   4.957   8.921   7.156
12662SOL    HW238331   4.899   8.972   7.012
12663SOL     OW38332   4.045   8.391   5.828
12663SOL    HW138333   4.127   8.430   5.786
12663SOL    HW238334   4.018   8.309   5.779
12664SOL     OW38335   5.182   8.183   6.314
12664SOL    HW138336   5.177   8.118   6.389
12664SOL    HW238337   5.262   8.242   6.327
12665SOL     OW38338   4.185   8.714   7.313
12665SOL    HW138339   4.135   8.715   7.227
12665SOL    HW238340   4.122   8.696   7.389
12666SOL     OW38341   3.926   7.733   7.084
12666SOL    HW138342   3.846   7.793   7.071
12666SOL    HW238343   3.916   7.684   7.170
12667SOL     OW38344   5.124   7.555   6.012
12667SOL    HW138345   5.100   7.518   5.922
12667SOL    HW238346   5.223   7.571   6.016
12668SOL     OW38347   4.106   8.148   6.066
12668SOL    HW138348   4.151   8.058   6.063
12668SOL    HW238349   4.012   8.137   6.099
12669SOL     OW38350   5.271   7.670   7.315
12669SOL    HW138351   5.266   7.707   7.407
12669SOL    HW238352   5.199   7.601   7.303
12670SOL     OW38353   4.338   7.570   5.703
12670SOL    HW138354   4.436   7.548   5.710
12670SOL    HW238355   4.307   7.553   5.610
12671SOL     OW38356   4.505   7.712   7.335
12671SOL    HW138357   4.572   7.651   7.378
12671SOL    HW238358   4.432   7.731   7.400
12672SOL     OW38359   5.075   8.038   7.019
12672SOL    HW138360   5.103   7.995   7.104
12672SOL    HW238361   5.100   8.134   7.020
12673SOL     OW38362   4.527   8.850   6.510
12673SOL    HW138363   4.617   8.864   6.468
12673SOL    HW238364   4.456   8.852   6.439
12674SOL     OW38365   4.646   7.951   6.485
12674SOL    HW138366   4.621   7.942   6.389
12674SOL    HW238367   4.694   7.869   6.516
12675SOL     OW38368   4.263   7.512   6.098
12675SOL    HW138369   4.182   7.513   6.156
12675SOL    HW238370   4.266   7.595   6.043
12676SOL     OW38371   5.158   8.636   5.627
12676SOL    HW138372   5.190   8.560   5.684
12676SOL    HW238373   5.066   8.663   5.657
12677SOL     OW38374   4.021   7.483   5.757
12677SOL    HW138375   4.070   7.567   5.736
12677SOL    HW238376   4.083   7.418   5.802
12678SOL     OW38377   4.659   7.684   6.066
12678SOL    HW138378   4.611   7.725   5.988
12678SOL    HW238379   4.758   7.682   6.047
12679SOL     OW38380   4.800   8.131   7.050
12679SOL    HW138381   4.720   8.070   7.053
12679SOL    HW238382   4.881   8.078   7.026
12680SOL     OW38383   4.183   8.600   6.327
12680SOL    HW138384   4.112   8.573   6.392
12680SOL    HW238385   4.157   8.572   6.234
12681SOL     OW38386   4.756   7.997   5.602
12681SOL    HW138387   4.715   8.079   5.563
12681SOL    HW238388   4.820   8.023   5.675
12682SOL     OW38389   3.802   8.004   6.972
12682SOL    HW138390   3.894   8.003   6.931
12682SOL    HW238391   3.796   8.078   7.039
12683SOL     OW38392   4.285   7.670   6.733
12683SOL    HW138393   4.323   7.586   6.770
12683SOL    HW238394   4.197   7.689   6.777
12684SOL     OW38395   4.590   7.902   6.228
12684SOL    HW138396   4.558   7.974   6.166
12684SOL    HW238397   4.614   7.821   6.175
12685SOL     OW38398   4.741   7.487   6.339
12685SOL    HW138399   4.669   7.492   6.270
12685SOL    HW238400   4.717   7.418   6.408
12686SOL     OW38401   5.153   8.621   6.453
12686SOL    HW138402   5.098   8.537   6.446
12686SOL    HW238403   5.179   8.650   6.361
12687SOL     OW38404   5.190   8.038   6.578
12687SOL    HW138405   5.160   7.943   6.585
12687SOL    HW238406   5.263   8.054   6.644
12688SOL     OW38407   5.581   8.281   5.963
12688SOL    HW138408   5.623   8.217   6.027
12688SOL    HW238409   5.543   8.230   5.885
12689SOL     OW38410   4.212   8.833   5.760
12689SOL    HW138411   4.125   8.818   5.807
12689SOL    HW238412   4.195   8.859   5.665
12690SOL     OW38413   5.114   8.023   5.664
12690SOL    HW138414   5.060   8.002   5.745
12690SOL    HW238415   5.205   7.982   5.673
12691SOL     OW38416   4.251   7.704   5.914
12691SOL    HW138417   4.278   7.645   5.839
12691SOL    HW238418   4.251   7.799   5.883
12692SOL     OW38419   4.788   8.795   6.926
12692SOL    HW138420   4.708   8.772   6.981
12692SOL    HW238421   4.871   8.769   6.975
12693SOL     OW38422   5.362   8.547   6.665
12693SOL    HW138423   5.367   8.628   6.724
12693SOL    HW238424   5.276   8.549   6.614
12694SOL     OW38425   4.639   7.537   6.988
12694SOL    HW138426   4.664   7.517   6.893
12694SOL    HW238427   4.711   7.593   7.030
12695SOL     OW38428   4.704   8.564   7.305
12695SOL    HW138429   4.605   8.570   7.315
12695SOL    HW238430   4.727   8.484   7.249
12696SOL     OW38431   4.429   8.498   5.954
12696SOL    HW138432   4.415   8.505   6.053
12696SOL    HW238433   4.513   8.447   5.936
12697SOL     OW38434   4.134   8.261   6.837
12697SOL    HW138435   4.220   8.273   6.887
12697SOL    HW238436   4.092   8.174   6.864
12698SOL     OW38437   4.998   7.834   6.848
12698SOL    HW138438   5.019   7.908   6.912
12698SOL    HW238439   4.909   7.851   6.805
12699SOL     OW38440   4.091   8.548   6.087
12699SOL    HW138441   4.084   8.631   6.031
12699SOL    HW238442   4.095   8.468   6.027
12700SOL     OW38443   4.290   7.985   6.451
12700SOL    HW138444   4.302   8.051   6.377
12700SOL    HW238445   4.336   8.019   6.534
12701SOL     OW38446   4.976   8.796   5.974
12701SOL    HW138447   5.026   8.873   6.014
12701SOL    HW238448   4.881   8.798   6.006
12702SOL     OW38449   5.306   8.087   6.058
12702SOL    HW138450   5.275   8.148   6.131
12702SOL    HW238451   5.356   8.139   5.989
12703SOL     OW38452   4.126   8.199   7.184
12703SOL    HW138453   4.194   8.254   7.137
12703SOL    HW238454   4.166   8.111   7.211
12704SOL     OW38455   5.311   8.227   7.256
12704SOL    HW138456   5.219   8.265   7.251
12704SOL    HW238457   5.371   8.274   7.191
12705SOL     OW38458   4.737   7.553   7.356
12705SOL    HW138459   4.743   7.638   7.304
12705SOL    HW238460   4.769   7.477   7.299
12706SOL     OW38461   4.228   7.498   7.326
12706SOL    HW138462   4.186   7.441   7.256
12706SOL    HW238463   4.162   7.567   7.358
12707SOL     OW38464   4.297   8.318   6.615
12707SOL    HW138465   4.341   8.407   6.606
12707SOL    HW238466   4.234   8.318   6.692
12708SOL     OW38467   5.084   8.310   6.631
12708SOL    HW138468   5.009   8.310   6.565
12708SOL    HW238469   5.121   8.218   6.640
12709SOL     OW38470   4.933   7.973   5.861
12709SOL    HW138471   4.946   7.889   5.915
12709SOL    HW238472   4.904   8.047   5.921
12710SOL     OW38473   4.031   7.661   6.817
12710SOL    HW138474   4.008   7.698   6.907
12710SOL    HW238475   4.001   7.566   6.811
12711SOL     OW38476   3.761   8.758   6.868
12711SOL    HW138477   3.814   8.709   6.936
12711SOL    HW238478   3.783   8.856   6.873
12712SOL     OW38479   4.456   8.082   6.650
12712SOL    HW138480   4.515   8.056   6.574
12712SOL    HW238481   4.428   8.178   6.639
12713SOL     OW38482   5.452   8.383   7.440
12713SOL    HW138483   5.406   8.376   7.351
12713SOL    HW238484   5.390   8.427   7.506
12714SOL     OW38485   4.031   7.511   6.204
12714SOL    HW138486   4.020   7.605   6.237
12714SOL    HW238487   4.026   7.448   6.281
12715SOL     OW38488   5.346   7.815   5.960
12715SOL    HW138489   5.348   7.739   6.024
12715SOL    HW238490   5.298   7.892   6.000
12716SOL     OW38491   4.747   8.214   6.552
12716SOL    HW138492   4.762   8.235   6.648
12716SOL    HW238493   4.717   8.119   6.543
12717SOL     OW38494   4.074   8.346   7.390
12717SOL    HW138495   4.150   8.390   7.438
12717SOL    HW238496   4.109   8.299   7.308
12718SOL     OW38497   5.264   7.722   5.711
12718SOL    HW138498   5.203   7.647   5.734
12718SOL    HW238499   5.286   7.774   5.794
12719SOL     OW38500   5.027   8.286   5.628
12719SOL    HW138501   5.061   8.193   5.643
12719SOL    HW238502   5.045   8.313   5.533
12720SOL     OW38503   4.792   8.781   6.435
12720SOL    HW138504   4.799   8.697   6.380
12720SOL    HW238505   4.854   8.850   6.399
12721SOL     OW38506   4.043   8.258   6.535
12721SOL    HW138507   4.136   8.294   6.540
12721SOL    HW238508   4.037   8.173   6.587
12722SOL     OW38509   4.063   7.957   6.592
12722SOL    HW138510   4.011   7.874   6.575
12722SOL    HW238511   4.140   7.962   6.528
12723SOL     OW38512   4.862   7.828   7.264
12723SOL    HW138513   4.817   7.891   7.328
12723SOL    HW238514   4.955   7.859   7.247
12724SOL     OW38515   4.884   7.655   7.063
12724SOL    HW138516   4.884   7.719   7.140
12724SOL    HW238517   4.912   7.703   6.980
12725SOL     OW38518   3.732   8.774   5.786
12725SOL    HW138519   3.639   8.795   5.755
12725SOL    HW238520   3.742   8.675   5.799
12726SOL     OW38521   4.726   8.244   6.824
12726SOL    HW138522   4.767   8.212   6.910
12726SOL    HW238523   4.630   8.217   6.821
12727SOL     OW38524   3.764   7.992   6.700
12727SOL    HW138525   3.849   7.959   6.659
12727SOL    HW238526   3.777   8.007   6.798
12728SOL     OW38527   3.913   7.968   7.308
12728SOL    HW138528   3.972   7.928   7.238
12728SOL    HW238529   3.855   8.039   7.267
12729SOL     OW38530   5.093   8.398   7.246
12729SOL    HW138531   5.132   8.487   7.266
12729SOL    HW238532   5.103   8.378   7.149
12730SOL     OW38533   4.539   8.020   5.911
12730SOL    HW138534   4.546   7.931   5.865
12730SOL    HW238535   4.445   8.054   5.903
12731SOL     OW38536   5.381   8.052   6.792
12731SOL    HW138537   5.343   7.983   6.854
12731SOL    HW238538   5.463   8.016   6.748
12732SOL     OW38539   4.395   7.912   6.855
12732SOL    HW138540   4.361   7.823   6.825
12732SOL    HW238541   4.421   7.966   6.775
12733SOL     OW38542   4.197   7.948   5.777
12733SOL    HW138543   4.258   8.028   5.781
12733SOL    HW238544   4.102   7.979   5.784
12734SOL     OW38545   3.883   8.585   7.052
12734SOL    HW138546   3.905   8.524   7.128
12734SOL    HW238547   3.893   8.536   6.966
12735SOL     OW38548   5.071   8.507   6.820
12735SOL    HW138549   5.095   8.444   6.746
12735SOL    HW238550   4.981   8.547   6.802
12736SOL     OW38551   5.026   8.303   5.895
12736SOL    HW138552   4.940   8.272   5.937
12736SOL    HW238553   5.022   8.289   5.796
12737SOL     OW38554   3.807   8.706   6.608
12737SOL    HW138555   3.802   8.705   6.708
12737SOL    HW238556   3.724   8.665   6.570
12738SOL     OW38557   5.450   7.583   6.109
12738SOL    HW138558   5.523   7.566   6.042
12738SOL    HW238559   5.419   7.496   6.147
12739SOL     OW38560   5.004   8.375   6.258
12739SOL    HW138561   5.064   8.294   6.260
12739SOL    HW238562   5.044   8.444   6.198
12740SOL     OW38563   4.554   8.721   7.008
12740SOL    HW138564   4.549   8.754   7.103
12740SOL    HW238565   4.468   8.740   6.962
12741SOL     OW38566   5.565   7.623   6.549
12741SOL    HW138567   5.604   7.538   6.513
12741SOL    HW238568   5.467   7.625   6.530
12742SOL     OW38569   3.987   7.774   6.306
12742SOL    HW138570   3.908   7.825   6.272
12742SOL    HW238571   3.978   7.759   6.404
12743SOL     OW38572   4.918   9.060   5.617
12743SOL    HW138573   4.924   8.967   5.654
12743SOL    HW238574   4.859   9.060   5.537
12744SOL     OW38575   4.546   8.450   6.958
12744SOL    HW138576   4.586   8.449   6.866
12744SOL    HW238577   4.556   8.542   6.998
12745SOL     OW38578   4.640   8.358   5.877
12745SOL    HW138579   4.703   8.396   5.809
12745SOL    HW238580   4.680   8.275   5.916
12746SOL     OW38581   4.096   8.736   7.076
12746SOL    HW138582   4.083   8.829   7.042
12746SOL    HW238583   4.012   8.684   7.063
12747SOL     OW38584   5.338   8.740   6.875
12747SOL    HW138585   5.398   8.743   6.955
12747SOL    HW238586   5.263   8.804   6.888
12748SOL     OW38587   4.763   8.546   6.282
12748SOL    HW138588   4.693   8.499   6.336
12748SOL    HW238589   4.822   8.478   6.239
12749SOL     OW38590   4.738   7.684   6.557
12749SOL    HW138591   4.730   7.648   6.464
12749SOL    HW238592   4.736   7.608   6.622
12750SOL     OW38593   4.314   8.935   6.077
12750SOL    HW138594   4.356   8.877   6.007
12750SOL    HW238595   4.270   9.014   6.033
12751SOL     OW38596   5.433   7.833   6.967
12751SOL    HW138597   5.506   7.902   6.971
12751SOL    HW238598   5.461   7.758   6.908
12752SOL     OW38599   3.829   8.461   7.312
12752SOL    HW138600   3.752   8.428   7.366
12752SOL    HW238601   3.914   8.431   7.354
12753SOL     OW38602   4.396   7.651   7.075
12753SOL    HW138603   4.486   7.635   7.035
12753SOL    HW238604   4.404   7.656   7.174
12754SOL     OW38605   3.799   7.793   5.619
12754SOL    HW138606   3.707   7.765   5.590
12754SOL    HW238607   3.830   7.870   5.563
12755SOL     OW38608   5.164   8.304   6.984
12755SOL    HW138609   5.107   8.356   6.921
12755SOL    HW238610   5.260   8.316   6.960
12756SOL     OW38611   3.796   7.614   5.904
12756SOL    HW138612   3.779   7.697   5.850
12756SOL    HW238613   3.886   7.577   5.882
12757SOL     OW38614   4.907   8.783   5.705
12757SOL    HW138615   4.808   8.772   5.707
12757SOL    HW238616   4.941   8.798   5.798
12758SOL     OW38617   4.337   8.290   7.017
12758SOL    HW138618   4.393   8.371   7.000
12758SOL    HW238619   4.396   8.210   7.020
12759SOL     OW38620   4.440   8.013   7.294
12759SOL    HW138621   4.459   8.078   7.368
12759SOL    HW238622   4.500   7.933   7.303
12760SOL     OW38623   5.174   8.668   7.219
12760SOL    HW138624   5.165   8.658   7.318
12760SOL    HW238625   5.270   8.661   7.193
12761SOL     OW38626   4.114   9.189   7.146
12761SOL    HW138627   4.023   9.230   7.144
12761SOL    HW238628   4.107   9.095   7.178
12762SOL     OW38629   5.398   8.331   6.840
12762SOL    HW138630   5.371   8.242   6.803
12762SOL    HW238631   5.399   8.399   6.767
12763SOL     OW38632   4.949   7.773   6.035
12763SOL    HW138633   5.014   7.699   6.024
12763SOL    HW238634   4.969   7.823   6.119
12764SOL     OW38635   4.318   8.193   6.238
12764SOL    HW138636   4.368   8.278   6.219
12764SOL    HW238637   4.230   8.195   6.190
12765SOL     OW38638   5.501   7.790   7.228
12765SOL    HW138639   5.484   7.821   7.134
12765SOL    HW238640   5.417   7.753   7.266
12766SOL     OW38641   5.454   8.382   7.103
12766SOL    HW138642   5.492   8.473   7.118
12766SOL    HW238643   5.446   8.365   7.004
12767SOL     OW38644   4.583   8.404   6.447
12767SOL    HW138645   4.637   8.335   6.495
12767SOL    HW238646   4.551   8.473   6.513
12768SOL     OW38647   4.807   8.432   5.673
12768SOL    HW138648   4.784   8.485   5.591
12768SOL    HW238649   4.888   8.376   5.654
12769SOL     OW38650   3.945   8.762   7.430
12769SOL    HW138651   3.880   8.689   7.409
12769SOL    HW238652   3.949   8.776   7.528
12770SOL     OW38653   3.803   8.688   6.239
12770SOL    HW138654   3.802   8.641   6.327
12770SOL    HW238655   3.885   8.660   6.188
12771SOL     OW38656   4.396   8.839   7.210
12771SOL    HW138657   4.318   8.789   7.248
12771SOL    HW238658   4.393   8.934   7.241
12772SOL     OW38659   5.548   7.640   6.813
12772SOL    HW138660   5.544   7.550   6.857
12772SOL    HW238661   5.551   7.629   6.714
12773SOL     OW38662   4.152   7.872   6.106
12773SOL    HW138663   4.182   7.800   6.044
12773SOL    HW238664   4.113   7.832   6.189
12774SOL     OW38665   5.429   8.935   6.690
12774SOL    HW138666   5.336   8.910   6.663
12774SOL    HW238667   5.455   8.885   6.772
12775SOL     OW38668   4.041   7.995   6.866
12775SOL    HW138669   4.079   7.936   6.938
12775SOL    HW238670   4.081   7.969   6.778
12776SOL     OW38671   4.536   9.034   6.273
12776SOL    HW138672   4.568   9.044   6.179
12776SOL    HW238673   4.457   8.972   6.275
12777SOL     OW38674   5.148   7.662   6.698
12777SOL    HW138675   5.200   7.597   6.753
12777SOL    HW238676   5.099   7.725   6.759
12778SOL     OW38677   4.725   7.482   6.740
12778SOL    HW138678   4.662   7.410   6.709
12778SOL    HW238679   4.818   7.446   6.740
12779SOL     OW38680   4.494   8.778   5.887
12779SOL    HW138681   4.448   8.691   5.904
12779SOL    HW238682   4.585   8.775   5.928
12780SOL     OW38683   5.076   7.500   5.754
12780SOL    HW138684   5.111   7.459   5.670
12780SOL    HW238685   4.986   7.462   5.774
12781SOL     OW38686   5.024   7.901   6.277
12781SOL    HW138687   4.965   7.981   6.281
12781SOL    HW238688   5.039   7.866   6.370
12782SOL     OW38689   5.317   7.669   6.468
12782SOL    HW138690   5.233   7.668   6.522
12782SOL    HW238691   5.319   7.752   6.412
12783SOL     OW38692   3.763   8.525   5.886
12783SOL    HW138693   3.862   8.514   5.877
12783SOL    HW238694   3.723   8.439   5.918
12784SOL     OW38695   3.954   8.076   7.561
12784SOL    HW138696   3.861   8.074   7.598
12784SOL    HW238697   3.955   8.037   7.469
12785SOL     OW38698   5.479   8.055   7.679
12785SOL    HW138699   5.467   8.042   7.580
12785SOL    HW238700   5.449   7.974   7.728
12786SOL     OW38701   4.330   8.412   7.571
12786SOL    HW138702   4.337   8.496   7.517
12786SOL    HW238703   4.376   8.425   7.659
12787SOL     OW38704   5.365   8.556   7.880
12787SOL    HW138705   5.451   8.558   7.828
12787SOL    HW238706   5.379   8.603   7.968
12788SOL     OW38707   4.533   7.452   7.950
12788SOL    HW138708   4.573   7.543   7.941
12788SOL    HW238709   4.433   7.460   7.956
12789SOL     OW38710   5.249   8.447   7.638
12789SOL    HW138711   5.186   8.371   7.651
12789SOL    HW238712   5.297   8.465   7.724
12790SOL     OW38713   4.322   8.177   7.718
12790SOL    HW138714   4.346   8.246   7.650
12790SOL    HW238715   4.244   8.210   7.772
12791SOL     OW38716   4.765   8.149   7.877
12791SOL    HW138717   4.791   8.145   7.973
12791SOL    HW238718   4.680   8.098   7.863
12792SOL     OW38719   4.589   7.796   7.643
12792SOL    HW138720   4.648   7.859   7.594
12792SOL    HW238721   4.608   7.702   7.614
12793SOL     OW38722   5.086   8.592   7.993
12793SOL    HW138723   5.169   8.563   7.945
12793SOL    HW238724   5.037   8.659   7.937
12794SOL     OW38725   4.045   8.391   7.690
12794SOL    HW138726   4.127   8.430   7.648
12794SOL    HW238727   4.018   8.309   7.641
12795SOL     OW38728   5.124   7.555   7.874
12795SOL    HW138729   5.100   7.518   7.784
12795SOL    HW238730   5.223   7.571   7.878
12796SOL     OW38731   4.106   8.148   7.928
12796SOL    HW138732   4.151   8.058   7.925
12796SOL    HW238733   4.012   8.137   7.961
12797SOL     OW38734   4.338   7.570   7.565
12797SOL    HW138735   4.436   7.548   7.572
12797SOL    HW238736   4.307   7.553   7.472
12798SOL     OW38737   4.263   7.512   7.960
12798SOL    HW138738   4.182   7.513   8.018
12798SOL    HW238739   4.266   7.595   7.905
12799SOL     OW38740   5.158   8.636   7.489
12799SOL    HW138741   5.190   8.560   7.546
12799SOL    HW238742   5.066   8.663   7.519
12800SOL     OW38743   4.021   7.483   7.619
12800SOL    HW138744   4.070   7.567   7.598
12800SOL    HW238745   4.083   7.418   7.664
12801SOL     OW38746   4.659   7.684   7.928
12801SOL    HW138747   4.611   7.725   7.850
12801SOL    HW238748   4.758   7.682   7.909
12802SOL     OW38749   4.756   7.997   7.464
12802SOL    HW138750   4.715   8.079   7.425
12802SOL    HW238751   4.820   8.023   7.537
12803SOL     OW38752   5.581   8.281   7.825
12803SOL    HW138753   5.623   8.217   7.889
12803SOL    HW238754   5.543   8.230   7.747
12804SOL     OW38755   4.212   8.833   7.622
12804SOL    HW138756   4.125   8.818   7.669
12804SOL    HW238757   4.195   8.859   7.527
12805SOL     OW38758   5.114   8.023   7.526
12805SOL    HW138759   5.060   8.002   7.607
12805SOL    HW238760   5.205   7.982   7.535
12806SOL     OW38761   4.251   7.704   7.776
12806SOL    HW138762   4.278   7.645   7.701
12806SOL    HW238763   4.251   7.799   7.745
12807SOL     OW38764   4.429   8.498   7.816
12807SOL    HW138765   4.415   8.505   7.915
12807SOL    HW238766   4.513   8.447   7.798
12808SOL     OW38767   4.091   8.548   7.949
12808SOL    HW138768   4.084   8.631   7.893
12808SOL    HW238769   4.095   8.468   7.889
12809SOL     OW38770   4.976   8.796   7.836
12809SOL    HW138771   5.026   8.873   7.876
12809SOL    HW238772   4.881   8.798   7.868
12810SOL     OW38773   5.306   8.087   7.920
12810SOL    HW138774   5.275   8.148   7.993
12810SOL    HW238775   5.356   8.139   7.851
12811SOL     OW38776   4.933   7.973   7.723
12811SOL    HW138777   4.946   7.889   7.777
12811SOL    HW238778   4.904   8.047   7.783
12812SOL     OW38779   5.346   7.815   7.822
12812SOL    HW138780   5.348   7.739   7.886
12812SOL    HW238781   5.298   7.892   7.862
12813SOL     OW38782   5.264   7.722   7.573
12813SOL    HW138783   5.203   7.647   7.596
12813SOL    HW238784   5.286   7.774   7.656
12814SOL     OW38785   5.027   8.286   7.490
12814SOL    HW138786   5.061   8.193   7.505
12814SOL    HW238787   5.045   8.313   7.395
12815SOL     OW38788   3.732   8.774   7.648
12815SOL    HW138789   3.639   8.795   7.617
12815SOL    HW238790   3.742   8.675   7.661
12816SOL     OW38791   4.539   8.020   7.773
12816SOL    HW138792   4.546   7.931   7.727
12816SOL    HW238793   4.445   8.054   7.765
12817SOL     OW38794   4.197   7.948   7.639
12817SOL    HW138795   4.258   8.028   7.643
12817SOL    HW238796   4.102   7.979   7.646
12818SOL     OW38797   5.026   8.303   7.757
12818SOL    HW138798   4.940   8.272   7.799
12818SOL    HW238799   5.022   8.289   7.658
12819SOL     OW38800   5.450   7.583   7.971
12819SOL    HW138801   5.523   7.566   7.904
12819SOL    HW238802   5.419   7.496   8.009
12820SOL     OW38803   4.918   9.060   7.479
12820SOL    HW138804   4.924   8.967   7.516
12820SOL    HW238805   4.859   9.060   7.399
12821SOL     OW38806   4.640   8.358   7.739
12821SOL    HW138807   4.703   8.396   7.671
12821SOL    HW238808   4.680   8.275   7.778
12822SOL     OW38809   4.314   8.935   7.939
12822SOL    HW138810   4.356   8.877   7.869
12822SOL    HW238811   4.270   9.014   7.895
12823SOL     OW38812   3.799   7.793   7.481
12823SOL    HW138813   3.707   7.765   7.452
12823SOL    HW238814   3.830   7.870   7.425
12824SOL     OW38815   3.796   7.614   7.766
12824SOL    HW138816   3.779   7.697   7.712
12824SOL    HW238817   3.886   7.577   7.744
12825SOL     OW38818   4.907   8.783   7.567
12825SOL    HW138819   4.808   8.772   7.569
12825SOL    HW238820   4.941   8.798   7.660
12826SOL     OW38821   4.949   7.773   7.897
12826SOL    HW138822   5.014   7.699   7.886
12826SOL    HW238823   4.969   7.823   7.981
12827SOL     OW38824   4.807   8.432   7.535
12827SOL    HW138825   4.784   8.485   7.453
12827SOL    HW238826   4.888   8.376   7.516
12828SOL     OW38827   4.152   7.872   7.968
12828SOL    HW138828   4.182   7.800   7.906
12828SOL    HW238829   4.113   7.832   8.051
12829SOL     OW38830   4.494   8.778   7.749
12829SOL    HW138831   4.448   8.691   7.766
12829SOL    HW238832   4.585   8.775   7.790
12830SOL     OW38833   5.076   7.500   7.616
12830SOL    HW138834   5.111   7.459   7.532
12830SOL    HW238835   4.986   7.462   7.636
12831SOL     OW38836   3.763   8.525   7.748
12831SOL    HW138837   3.862   8.514   7.739
12831SOL    HW238838   3.723   8.439   7.780
12832SOL     OW38839   5.811   0.275   0.996
12832SOL    HW138840   5.846   0.258   1.088
12832SOL    HW238841   5.723   0.230   0.984
12833SOL     OW38842   5.605   0.368   0.647
12833SOL    HW138843   5.523   0.411   0.686
12833SOL    HW238844   5.577   0.295   0.584
12834SOL     OW38845   6.155   1.275   1.165
12834SOL    HW138846   6.062   1.268   1.128
12834SOL    HW238847   6.166   1.364   1.209
12835SOL     OW38848   7.141   1.511   0.703
12835SOL    HW138849   7.084   1.495   0.784
12835SOL    HW238850   7.082   1.521   0.623
12836SOL     OW38851   6.721   0.703   0.717
12836SOL    HW138852   6.778   0.781   0.692
12836SOL    HW238853   6.661   0.729   0.793
12837SOL     OW38854   7.341   0.607   0.231
12837SOL    HW138855   7.329   0.594   0.132
12837SOL    HW238856   7.311   0.526   0.280
12838SOL     OW38857   6.354   1.144   1.023
12838SOL    HW138858   6.276   1.161   1.083
12838SOL    HW238859   6.388   1.231   0.987
12839SOL     OW38860   6.436   0.798   1.823
12839SOL    HW138861   6.432   0.874   1.888
12839SOL    HW238862   6.458   0.834   1.732
12840SOL     OW38863   6.271   1.012   0.665
12840SOL    HW138864   6.340   0.996   0.735
12840SOL    HW238865   6.198   1.069   0.703
12841SOL     OW38866   6.272   1.161   1.803
12841SOL    HW138867   6.332   1.240   1.817
12841SOL    HW238868   6.186   1.192   1.762
12842SOL     OW38869   5.921   1.435   1.061
12842SOL    HW138870   5.843   1.404   1.008
12842SOL    HW238871   5.979   1.493   1.004
12843SOL     OW38872   7.046   1.505   1.339
12843SOL    HW138873   7.070   1.599   1.365
12843SOL    HW238874   7.030   1.451   1.421
12844SOL     OW38875   6.024   0.392   1.499
12844SOL    HW138876   6.106   0.336   1.508
12844SOL    HW238877   5.943   0.334   1.503
12845SOL     OW38878   7.189   0.447   0.737
12845SOL    HW138879   7.115   0.493   0.687
12845SOL    HW238880   7.240   0.515   0.790
12846SOL     OW38881   5.817   1.713   0.483
12846SOL    HW138882   5.851   1.790   0.537
12846SOL    HW238883   5.861   1.713   0.393
12847SOL     OW38884   6.713   1.341   1.690
12847SOL    HW138885   6.760   1.341   1.778
12847SOL    HW238886   6.665   1.254   1.679
12848SOL     OW38887   5.816   1.434   0.538
12848SOL    HW138888   5.790   1.530   0.538
12848SOL    HW238889   5.745   1.380   0.583
12849SOL     OW38890   5.826   1.091   0.886
12849SOL    HW138891   5.840   1.007   0.938
12849SOL    HW238892   5.771   1.155   0.941
12850SOL     OW38893   6.206   1.786   1.439
12850SOL    HW138894   6.114   1.769   1.474
12850SOL    HW238895   6.234   1.878   1.465
12851SOL     OW38896   5.708   0.643   0.563
12851SOL    HW138897   5.663   0.555   0.580
12851SOL    HW238898   5.707   0.697   0.647
12852SOL     OW38899   7.428   1.767   0.359
12852SOL    HW138900   7.482   1.738   0.439
12852SOL    HW238901   7.458   1.857   0.330
12853SOL     OW38902   7.275   0.922   0.612
12853SOL    HW138903   7.370   0.893   0.620
12853SOL    HW238904   7.267   0.987   0.537
12854SOL     OW38905   5.699   0.737   1.597
12854SOL    HW138906   5.787   0.724   1.642
12854SOL    HW238907   5.686   0.834   1.575
12855SOL     OW38908   6.199   1.365   0.726
12855SOL    HW138909   6.150   1.278   0.735
12855SOL    HW238910   6.176   1.408   0.639
12856SOL     OW38911   6.879   1.228   1.423
12856SOL    HW138912   6.916   1.155   1.365
12856SOL    HW238913   6.931   1.233   1.508
12857SOL     OW38914   5.783   0.976   1.264
12857SOL    HW138915   5.872   0.931   1.250
12857SOL    HW238916   5.710   0.911   1.245
12858SOL     OW38917   6.773   1.792   1.616
12858SOL    HW138918   6.797   1.852   1.540
12858SOL    HW238919   6.780   1.697   1.586
12859SOL     OW38920   5.903   0.251   1.801
12859SOL    HW138921   5.974   0.322   1.807
12859SOL    HW238922   5.815   0.290   1.829
12860SOL     OW38923   7.052   1.417   0.953
12860SOL    HW138924   6.993   1.423   1.033
12860SOL    HW238925   7.037   1.329   0.907
12861SOL     OW38926   7.253   1.714   0.572
12861SOL    HW138927   7.212   1.691   0.484
12861SOL    HW238928   7.235   1.640   0.637
12862SOL     OW38929   6.393   0.605   1.465
12862SOL    HW138930   6.346   0.602   1.554
12862SOL    HW238931   6.342   0.550   1.399
12863SOL     OW38932   6.980   0.469   1.674
12863SOL    HW138933   6.960   0.512   1.762
12863SOL    HW238934   7.058   0.407   1.683
12864SOL     OW38935   6.559   0.890   1.572
12864SOL    HW138936   6.605   0.806   1.543
12864SOL    HW238937   6.503   0.924   1.497
12865SOL     OW38938   6.577   0.410   1.242
12865SOL    HW138939   6.500   0.444   1.296
12865SOL    HW238940   6.543   0.359   1.163
12866SOL     OW38941   6.627   0.701   0.429
12866SOL    HW138942   6.653   0.697   0.525
12866SOL    HW238943   6.542   0.650   0.415
12867SOL     OW38944   5.662   0.811   0.789
12867SOL    HW138945   5.761   0.799   0.798
12867SOL    HW238946   5.638   0.906   0.810
12868SOL     OW38947   5.716   1.821   1.571
12868SOL    HW138948   5.706   1.806   1.670
12868SOL    HW238949   5.630   1.857   1.535
12869SOL     OW38950   7.305   0.585   1.831
12869SOL    HW138951   7.279   0.674   1.795
12869SOL    HW238952   7.303   0.517   1.758
12870SOL     OW38953   6.948   1.144   0.545
12870SOL    HW138954   7.031   1.115   0.497
12870SOL    HW238955   6.899   1.211   0.489
12871SOL     OW38956   6.136   0.196   0.885
12871SOL    HW138957   6.131   0.191   0.985
12871SOL    HW238958   6.138   0.292   0.856
12872SOL     OW38959   6.594   1.456   0.477
12872SOL    HW138960   6.548   1.528   0.425
12872SOL    HW238961   6.590   1.476   0.575
12873SOL     OW38962   5.937   1.801   0.853
12873SOL    HW138963   5.987   1.715   0.859
12873SOL    HW238964   6.002   1.878   0.850
12874SOL     OW38965   7.381   1.066   0.873
12874SOL    HW138966   7.319   1.051   0.797
12874SOL    HW238967   7.329   1.077   0.958
12875SOL     OW38968   6.813   1.550   1.506
12875SOL    HW138969   6.819   1.473   1.570
12875SOL    HW238970   6.761   1.524   1.426
12876SOL     OW38971   7.044   0.735   0.728
12876SOL    HW138972   7.039   0.670   0.803
12876SOL    HW238973   7.124   0.794   0.741
12877SOL     OW38974   6.047   1.266   1.727
12877SOL    HW138975   5.997   1.267   1.641
12877SOL    HW238976   5.984   1.248   1.803
12878SOL     OW38977   5.788   0.285   1.498
12878SOL    HW138978   5.708   0.345   1.485
12878SOL    HW238979   5.778   0.236   1.584
12879SOL     OW38980   5.835   1.785   1.241
12879SOL    HW138981   5.892   1.720   1.291
12879SOL    HW238982   5.819   1.752   1.148
12880SOL     OW38983   6.526   1.698   0.904
12880SOL    HW138984   6.606   1.641   0.925
12880SOL    HW238985   6.477   1.658   0.827
12881SOL     OW38986   5.968   0.700   0.480
12881SOL    HW138987   6.013   0.610   0.477
12881SOL    HW238988   5.874   0.689   0.513
12882SOL     OW38989   6.474   1.514   1.195
12882SOL    HW138990   6.451   1.489   1.101
12882SOL    HW238991   6.535   1.445   1.234
12883SOL     OW38992   6.937   0.590   1.433
12883SOL    HW138993   6.965   0.547   1.518
12883SOL    HW238994   6.962   0.686   1.434
12884SOL     OW38995   6.389   1.402   0.924
12884SOL    HW138996   6.479   1.416   0.882
12884SOL    HW238997   6.318   1.404   0.853
12885SOL     OW38998   6.508   0.503   0.899
12885SOL    HW138999   6.483   0.494   0.803
12885SOL    HW239000   6.556   0.421   0.930
12886SOL     OW39001   6.125   0.064   0.512
12886SOL    HW139002   6.044   0.065   0.570
12886SOL    HW239003   6.128   0.147   0.457
12887SOL     OW39004   6.521   0.236   0.480
12887SOL    HW139005   6.473   0.277   0.402
12887SOL    HW239006   6.620   0.234   0.461
12888SOL     OW39007   6.662   0.683   1.464
12888SOL    HW139008   6.582   0.622   1.467
12888SOL    HW239009   6.743   0.630   1.440
12889SOL     OW39010   6.813   1.570   0.793
12889SOL    HW139011   6.834   1.644   0.728
12889SOL    HW239012   6.881   1.570   0.866
12890SOL     OW39013   6.045   1.152   0.741
12890SOL    HW139014   5.974   1.125   0.806
12890SOL    HW239015   6.019   1.124   0.648
12891SOL     OW39016   6.857   1.797   0.591
12891SOL    HW139017   6.901   1.861   0.527
12891SOL    HW239018   6.807   1.849   0.661
12892SOL     OW39019   6.618   0.549   0.016
12892SOL    HW139020   6.577   0.631  -0.023
12892SOL    HW239021   6.682   0.575   0.089
12893SOL     OW39022   5.664   0.556   1.386
12893SOL    HW139023   5.756   0.555   1.345
12893SOL    HW239024   5.658   0.630   1.453
12894SOL     OW39025   6.147   0.222   1.147
12894SOL    HW139026   6.185   0.138   1.184
12894SOL    HW239027   6.059   0.241   1.191
12895SOL     OW39028   6.452   0.454   0.642
12895SOL    HW139029   6.420   0.526   0.580
12895SOL    HW239030   6.476   0.373   0.589
12896SOL     OW39031   6.603   0.039   0.753
12896SOL    HW139032   6.531   0.044   0.684
12896SOL    HW239033   6.579  -0.030   0.822
12897SOL     OW39034   7.015   1.173   0.867
12897SOL    HW139035   6.960   1.089   0.860
12897SOL    HW239036   7.041   1.202   0.775
12898SOL     OW39037   7.052   0.590   0.992
12898SOL    HW139038   7.022   0.495   0.999
12898SOL    HW239039   7.125   0.606   1.058
12899SOL     OW39040   7.250   1.280   0.657
12899SOL    HW139041   7.349   1.288   0.671
12899SOL    HW239042   7.205   1.364   0.688
12900SOL     OW39043   6.113   0.256   0.328
12900SOL    HW139044   6.140   0.197   0.253
12900SOL    HW239045   6.113   0.351   0.297
12901SOL     OW39046   7.340   1.223   1.588
12901SOL    HW139047   7.431   1.184   1.575
12901SOL    HW239048   7.348   1.319   1.612
12902SOL     OW39049   6.650   1.347   1.340
12902SOL    HW139050   6.570   1.324   1.395
12902SOL    HW239051   6.733   1.321   1.389
12903SOL     OW39052   7.178   1.629   1.625
12903SOL    HW139053   7.205   1.663   1.535
12903SOL    HW239054   7.257   1.591   1.671
12904SOL     OW39055   6.697   1.195   1.100
12904SOL    HW139056   6.657   1.239   1.181
12904SOL    HW239057   6.656   1.232   1.017
12905SOL     OW39058   7.224   1.099   1.079
12905SOL    HW139059   7.229   1.180   1.138
12905SOL    HW239060   7.138   1.101   1.028
12906SOL     OW39061   6.566   1.116   1.719
12906SOL    HW139062   6.467   1.122   1.729
12906SOL    HW239063   6.589   1.036   1.663
12907SOL     OW39064   5.996   0.813   1.251
12907SOL    HW139065   6.082   0.825   1.301
12907SOL    HW239066   5.954   0.726   1.278
12908SOL     OW39067   6.860   0.386   1.262
12908SOL    HW139068   6.881   0.460   1.326
12908SOL    HW239069   6.771   0.403   1.219
12909SOL     OW39070   5.650   1.564   1.331
12909SOL    HW139071   5.604   1.646   1.297
12909SOL    HW239072   5.748   1.583   1.340
12910SOL     OW39073   5.953   1.100   0.501
12910SOL    HW139074   5.946   1.183   0.445
12910SOL    HW239075   5.957   1.020   0.441
12911SOL     OW39076   6.152   0.537   0.865
12911SOL    HW139077   6.164   0.603   0.791
12911SOL    HW239078   6.198   0.571   0.948
12912SOL     OW39079   6.838   1.348   0.388
12912SOL    HW139080   6.888   1.425   0.428
12912SOL    HW239081   6.743   1.350   0.420
12913SOL     OW39082   6.858   1.445   1.142
12913SOL    HW139083   6.905   1.458   1.229
12913SOL    HW239084   6.792   1.371   1.151
12914SOL     OW39085   7.168   0.639   0.472
12914SOL    HW139086   7.137   0.700   0.545
12914SOL    HW239087   7.218   0.691   0.403
12915SOL     OW39088   5.940   1.510   1.329
12915SOL    HW139089   5.919   1.466   1.242
12915SOL    HW239090   6.037   1.536   1.332
12916SOL     OW39091   5.988   0.751   1.598
12916SOL    HW139092   6.056   0.806   1.551
12916SOL    HW239093   6.028   0.663   1.625
12917SOL     OW39094   7.173   0.779   1.670
12917SOL    HW139095   7.081   0.817   1.665
12917SOL    HW239096   7.233   0.826   1.605
12918SOL     OW39097   6.090   0.050   1.740
12918SOL    HW139098   6.048  -0.007   1.670
12918SOL    HW239099   6.024   0.119   1.772
12919SOL     OW39100   6.159   0.870   1.029
12919SOL    HW139101   6.203   0.959   1.020
12919SOL    HW239102   6.096   0.870   1.106
12920SOL     OW39103   6.946   0.862   1.045
12920SOL    HW139104   6.871   0.862   0.979
12920SOL    HW239105   6.983   0.770   1.054
12921SOL     OW39106   6.795   0.525   0.275
12921SOL    HW139107   6.808   0.441   0.329
12921SOL    HW239108   6.766   0.599   0.335
12922SOL     OW39109   5.893   0.213   1.231
12922SOL    HW139110   5.870   0.250   1.321
12922SOL    HW239111   5.863   0.118   1.225
12923SOL     OW39112   5.623   1.310   1.282
12923SOL    HW139113   5.676   1.261   1.350
12923SOL    HW239114   5.645   1.408   1.287
12924SOL     OW39115   6.318   0.634   1.064
12924SOL    HW139116   6.377   0.608   0.988
12924SOL    HW239117   6.290   0.730   1.053
12925SOL     OW39118   7.314   0.935   1.854
12925SOL    HW139119   7.268   0.928   1.765
12925SOL    HW239120   7.252   0.979   1.920
12926SOL     OW39121   5.893   0.063   0.618
12926SOL    HW139122   5.882   0.157   0.651
12926SOL    HW239123   5.888   0.000   0.695
12927SOL     OW39124   6.609   0.766   0.966
12927SOL    HW139125   6.624   0.787   1.062
12927SOL    HW239126   6.579   0.671   0.957
12928SOL     OW39127   6.566   1.573   1.700
12928SOL    HW139128   6.546   1.617   1.612
12928SOL    HW239129   6.605   1.482   1.684
12929SOL     OW39130   7.445   1.518   1.605
12929SOL    HW139131   7.459   1.545   1.510
12929SOL    HW239132   7.528   1.540   1.658
12930SOL     OW39133   5.936   0.898   1.804
12930SOL    HW139134   6.012   0.942   1.852
12930SOL    HW239135   5.971   0.851   1.722
12931SOL     OW39136   6.654   1.333   0.849
12931SOL    HW139137   6.661   1.249   0.794
12931SOL    HW239138   6.716   1.402   0.813
12932SOL     OW39139   5.905   0.810   0.949
12932SOL    HW139140   5.998   0.846   0.954
12932SOL    HW239141   5.899   0.725   1.001
12933SOL     OW39142   5.925   0.509   1.006
12933SOL    HW139143   5.873   0.426   0.989
12933SOL    HW239144   6.002   0.514   0.942
12934SOL     OW39145   5.674   1.801   0.927
12934SOL    HW139146   5.632   1.715   0.900
12934SOL    HW239147   5.768   1.804   0.893
12935SOL     OW39148   6.090   1.568   0.910
12935SOL    HW139149   6.156   1.642   0.919
12935SOL    HW239150   6.134   1.489   0.868
12936SOL     OW39151   6.588   0.796   1.238
12936SOL    HW139152   6.629   0.764   1.324
12936SOL    HW239153   6.492   0.769   1.235
12937SOL     OW39154   5.626   0.544   1.114
12937SOL    HW139155   5.711   0.511   1.073
12937SOL    HW239156   5.639   0.559   1.212
12938SOL     OW39157   5.775   0.520   1.722
12938SOL    HW139158   5.834   0.480   1.652
12938SOL    HW239159   5.717   0.591   1.681
12939SOL     OW39160   6.955   0.950   1.660
12939SOL    HW139161   6.994   1.039   1.680
12939SOL    HW239162   6.965   0.930   1.563
12940SOL     OW39163   7.243   0.604   1.206
12940SOL    HW139164   7.205   0.535   1.268
12940SOL    HW239165   7.325   0.568   1.162
12941SOL     OW39166   5.838   1.564   1.744
12941SOL    HW139167   5.808   1.621   1.820
12941SOL    HW239168   5.831   1.467   1.770
12942SOL     OW39169   6.257   0.464   1.269
12942SOL    HW139170   6.223   0.375   1.239
12942SOL    HW239171   6.283   0.518   1.189
12943SOL     OW39172   6.516   1.678   1.465
12943SOL    HW139173   6.492   1.660   1.370
12943SOL    HW239174   6.546   1.772   1.475
12944SOL     OW39175   5.745   1.137   1.466
12944SOL    HW139176   5.767   1.076   1.542
12944SOL    HW239177   5.755   1.088   1.380
12945SOL     OW39178   6.933   1.059   1.234
12945SOL    HW139179   6.957   0.996   1.160
12945SOL    HW239180   6.843   1.099   1.216
12946SOL     OW39181   6.888   0.855   0.309
12946SOL    HW139182   6.802   0.824   0.351
12946SOL    HW239183   6.884   0.841   0.210
12947SOL     OW39184   7.345   1.747   1.154
12947SOL    HW139185   7.406   1.777   1.081
12947SOL    HW239186   7.307   1.658   1.132
12948SOL     OW39187   6.838   1.731   1.128
12948SOL    HW139188   6.922   1.736   1.074
12948SOL    HW239189   6.815   1.635   1.146
12949SOL     OW39190   5.669   1.258   1.022
12949SOL    HW139191   5.664   1.257   1.122
12949SOL    HW239192   5.586   1.217   0.984
12950SOL     OW39193   6.274   1.662   1.716
12950SOL    HW139194   6.218   1.743   1.725
12950SOL    HW239195   6.326   1.666   1.630
12951SOL     OW39196   6.489   0.086   0.133
12951SOL    HW139197   6.540   0.087   0.047
12951SOL    HW239198   6.545   0.044   0.204
12952SOL     OW39199   6.974   1.573   0.477
12952SOL    HW139200   7.041   1.585   0.403
12952SOL    HW239201   6.934   1.662   0.500
12953SOL     OW39202   5.716   1.794   1.851
12953SOL    HW139203   5.675   1.720   1.904
12953SOL    HW239204   5.780   1.845   1.909
12954SOL     OW39205   6.866   0.927   0.672
12954SOL    HW139206   6.926   0.846   0.674
12954SOL    HW239207   6.906   0.996   0.612
12955SOL     OW39208   6.416   1.273   1.422
12955SOL    HW139209   6.411   1.306   1.517
12955SOL    HW239210   6.330   1.292   1.376
12956SOL     OW39211   7.236   1.720   1.394
12956SOL    HW139212   7.289   1.730   1.310
12956SOL    HW239213   7.209   1.810   1.428
12957SOL     OW39214   5.849   0.326   0.720
12957SOL    HW139215   5.770   0.377   0.686
12957SOL    HW239216   5.840   0.311   0.818
12958SOL     OW39217   6.408   1.002   1.372
12958SOL    HW139218   6.448   1.001   1.280
12958SOL    HW239219   6.418   1.094   1.412
12959SOL     OW39220   5.958   1.288   1.490
12959SOL    HW139221   5.945   1.381   1.456
12959SOL    HW239222   5.874   1.236   1.477
12960SOL     OW39223   7.200   1.292   1.289
12960SOL    HW139224   7.260   1.295   1.369
12960SOL    HW239225   7.125   1.356   1.302
12961SOL     OW39226   6.625   1.098   0.696
12961SOL    HW139227   6.555   1.051   0.750
12961SOL    HW239228   6.684   1.030   0.653
12962SOL     OW39229   6.600   0.236   0.971
12962SOL    HW139230   6.592   0.200   0.878
12962SOL    HW239231   6.598   0.160   1.036
12963SOL     OW39232   6.176   1.487   0.491
12963SOL    HW139233   6.218   1.429   0.421
12963SOL    HW239234   6.132   1.566   0.447
12964SOL     OW39235   5.691   1.013   1.726
12964SOL    HW139236   5.614   0.980   1.780
12964SOL    HW239237   5.776   0.983   1.768
12965SOL     OW39238   7.026   0.856   1.398
12965SOL    HW139239   6.969   0.908   1.335
12965SOL    HW239240   7.122   0.868   1.374
12966SOL     OW39241   6.199   0.842   1.431
12966SOL    HW139242   6.255   0.923   1.414
12966SOL    HW239243   6.258   0.762   1.434
12967SOL     OW39244   7.079   1.767   0.959
12967SOL    HW139245   7.112   1.831   0.890
12967SOL    HW239246   7.145   1.761   1.034
12968SOL     OW39247   6.302   0.565   1.708
12968SOL    HW139248   6.321   0.630   1.782
12968SOL    HW239249   6.362   0.485   1.717
12969SOL     OW39250   7.036   1.220   1.633
12969SOL    HW139251   7.027   1.210   1.732
12969SOL    HW239252   7.132   1.213   1.607
12970SOL     OW39253   5.976   1.741   1.560
12970SOL    HW139254   5.885   1.782   1.558
12970SOL    HW239255   5.969   1.647   1.592
12971SOL     OW39256   7.260   0.883   1.254
12971SOL    HW139257   7.233   0.794   1.217
12971SOL    HW239258   7.261   0.951   1.181
12972SOL     OW39259   6.811   0.325   0.449
12972SOL    HW139260   6.876   0.251   0.438
12972SOL    HW239261   6.831   0.375   0.533
12973SOL     OW39262   6.180   0.745   0.652
12973SOL    HW139263   6.230   0.830   0.633
12973SOL    HW239264   6.092   0.747   0.604
12974SOL     OW39265   7.316   0.934   1.517
12974SOL    HW139266   7.354   1.025   1.532
12974SOL    HW239267   7.308   0.917   1.418
12975SOL     OW39268   6.247   1.790   0.953
12975SOL    HW139269   6.201   1.878   0.940
12975SOL    HW239270   6.346   1.802   0.946
12976SOL     OW39271   6.445   0.956   0.861
12976SOL    HW139272   6.499   0.887   0.909
12976SOL    HW239273   6.413   1.025   0.927
12977SOL     OW39274   7.447   1.569   0.851
12977SOL    HW139275   7.376   1.557   0.781
12977SOL    HW239276   7.448   1.490   0.911
12978SOL     OW39277   5.807   1.314   1.844
12978SOL    HW139278   5.742   1.241   1.823
12978SOL    HW239279   5.811   1.328   1.942
12979SOL     OW39280   5.665   1.240   0.653
12979SOL    HW139281   5.664   1.193   0.741
12979SOL    HW239282   5.747   1.212   0.602
12980SOL     OW39283   6.258   1.391   1.624
12980SOL    HW139284   6.180   1.341   1.662
12980SOL    HW239285   6.255   1.486   1.655
12981SOL     OW39286   6.014   0.424   0.520
12981SOL    HW139287   6.044   0.352   0.458
12981SOL    HW239288   5.975   0.384   0.603
12982SOL     OW39289   7.291   1.487   1.104
12982SOL    HW139290   7.198   1.462   1.077
12982SOL    HW239291   7.317   1.437   1.186
12983SOL     OW39292   5.903   0.547   1.280
12983SOL    HW139293   5.941   0.488   1.352
12983SOL    HW239294   5.943   0.521   1.192
12984SOL     OW39295   6.398   1.586   0.687
12984SOL    HW139296   6.430   1.596   0.593
12984SOL    HW239297   6.319   1.524   0.689
12985SOL     OW39298   6.204   1.567   1.284
12985SOL    HW139299   6.199   1.649   1.341
12985SOL    HW239300   6.293   1.564   1.239
12986SOL     OW39301   6.886   0.453   0.691
12986SOL    HW139302   6.827   0.533   0.695
12986SOL    HW239303   6.901   0.418   0.784
12987SOL     OW39304   6.461   1.646   0.337
12987SOL    HW139305   6.384   1.611   0.283
12987SOL    HW239306   6.429   1.717   0.399
12988SOL     OW39307   5.811   0.275   2.858
12988SOL    HW139308   5.846   0.258   2.950
12988SOL    HW239309   5.723   0.230   2.846
12989SOL     OW39310   5.605   0.368   2.509
12989SOL    HW139311   5.523   0.411   2.548
12989SOL    HW239312   5.577   0.295   2.446
12990SOL     OW39313   6.155   1.275   3.027
12990SOL    HW139314   6.062   1.268   2.990
12990SOL    HW239315   6.166   1.364   3.071
12991SOL     OW39316   7.141   1.511   2.565
12991SOL    HW139317   7.084   1.495   2.646
12991SOL    HW239318   7.082   1.521   2.485
12992SOL     OW39319   6.721   0.703   2.579
12992SOL    HW139320   6.778   0.781   2.554
12992SOL    HW239321   6.661   0.729   2.655
12993SOL     OW39322   7.341   0.607   2.093
12993SOL    HW139323   7.329   0.594   1.994
12993SOL    HW239324   7.311   0.526   2.142
12994SOL     OW39325   6.354   1.144   2.885
12994SOL    HW139326   6.276   1.161   2.945
12994SOL    HW239327   6.388   1.231   2.849
12995SOL     OW39328   6.436   0.798   3.685
12995SOL    HW139329   6.432   0.874   3.750
12995SOL    HW239330   6.458   0.834   3.594
12996SOL     OW39331   6.271   1.012   2.527
12996SOL    HW139332   6.340   0.996   2.597
12996SOL    HW239333   6.198   1.069   2.565
12997SOL     OW39334   6.272   1.161   3.665
12997SOL    HW139335   6.332   1.240   3.679
12997SOL    HW239336   6.186   1.192   3.624
12998SOL     OW39337   5.921   1.435   2.923
12998SOL    HW139338   5.843   1.404   2.870
12998SOL    HW239339   5.979   1.493   2.866
12999SOL     OW39340   7.046   1.505   3.201
12999SOL    HW139341   7.070   1.599   3.227
12999SOL    HW239342   7.030   1.451   3.283
13000SOL     OW39343   6.024   0.392   3.361
13000SOL    HW139344   6.106   0.336   3.370
13000SOL    HW239345   5.943   0.334   3.365
13001SOL     OW39346   7.189   0.447   2.599
13001SOL    HW139347   7.115   0.493   2.549
13001SOL    HW239348   7.240   0.515   2.652
13002SOL     OW39349   5.817   1.713   2.345
13002SOL    HW139350   5.851   1.790   2.399
13002SOL    HW239351   5.861   1.713   2.255
13003SOL     OW39352   6.713   1.341   3.552
13003SOL    HW139353   6.760   1.341   3.640
13003SOL    HW239354   6.665   1.254   3.541
13004SOL     OW39355   5.816   1.434   2.400
13004SOL    HW139356   5.790   1.530   2.400
13004SOL    HW239357   5.745   1.380   2.445
13005SOL     OW39358   5.826   1.091   2.748
13005SOL    HW139359   5.840   1.007   2.800
13005SOL    HW239360   5.771   1.155   2.803
13006SOL     OW39361   6.206   1.786   3.301
13006SOL    HW139362   6.114   1.769   3.336
13006SOL    HW239363   6.234   1.878   3.327
13007SOL     OW39364   6.192   0.964   1.985
13007SOL    HW139365   6.199   1.048   1.931
13007SOL    HW239366   6.238   0.977   2.073
13008SOL     OW39367   5.708   0.643   2.425
13008SOL    HW139368   5.663   0.555   2.442
13008SOL    HW239369   5.707   0.697   2.509
13009SOL     OW39370   7.428   1.767   2.221
13009SOL    HW139371   7.482   1.738   2.301
13009SOL    HW239372   7.458   1.857   2.192
13010SOL     OW39373   5.613   1.596   1.979
13010SOL    HW139374   5.594   1.500   2.000
13010SOL    HW239375   5.580   1.654   2.054
13011SOL     OW39376   7.275   0.922   2.474
13011SOL    HW139377   7.370   0.893   2.482
13011SOL    HW239378   7.267   0.987   2.399
13012SOL     OW39379   7.227   1.108   2.294
13012SOL    HW139380   7.313   1.110   2.242
13012SOL    HW239381   7.241   1.155   2.382
13013SOL     OW39382   5.699   0.737   3.459
13013SOL    HW139383   5.787   0.724   3.504
13013SOL    HW239384   5.686   0.834   3.437
13014SOL     OW39385   6.199   1.365   2.588
13014SOL    HW139386   6.150   1.278   2.597
13014SOL    HW239387   6.176   1.408   2.501
13015SOL     OW39388   6.879   1.228   3.285
13015SOL    HW139389   6.916   1.155   3.227
13015SOL    HW239390   6.931   1.233   3.370
13016SOL     OW39391   5.783   0.976   3.126
13016SOL    HW139392   5.872   0.931   3.112
13016SOL    HW239393   5.710   0.911   3.107
13017SOL     OW39394   7.111   0.999   2.052
13017SOL    HW139395   7.048   0.923   2.065
13017SOL    HW239396   7.159   1.017   2.138
13018SOL     OW39397   6.773   1.792   3.478
13018SOL    HW139398   6.797   1.852   3.402
13018SOL    HW239399   6.780   1.697   3.448
13019SOL     OW39400   5.903   0.251   3.663
13019SOL    HW139401   5.974   0.322   3.669
13019SOL    HW239402   5.815   0.290   3.691
13020SOL     OW39403   7.052   1.417   2.815
13020SOL    HW139404   6.993   1.423   2.895
13020SOL    HW239405   7.037   1.329   2.769
13021SOL     OW39406   7.253   1.714   2.434
13021SOL    HW139407   7.212   1.691   2.346
13021SOL    HW239408   7.235   1.640   2.499
13022SOL     OW39409   6.184   0.729   2.132
13022SOL    HW139410   6.208   0.798   2.064
13022SOL    HW239411   6.106   0.762   2.186
13023SOL     OW39412   7.162   1.662   2.169
13023SOL    HW139413   7.251   1.708   2.172
13023SOL    HW239414   7.141   1.638   2.074
13024SOL     OW39415   6.393   0.605   3.327
13024SOL    HW139416   6.346   0.602   3.416
13024SOL    HW239417   6.342   0.550   3.261
13025SOL     OW39418   6.980   0.469   3.536
13025SOL    HW139419   6.960   0.512   3.624
13025SOL    HW239420   7.058   0.407   3.545
13026SOL     OW39421   6.559   0.890   3.434
13026SOL    HW139422   6.605   0.806   3.405
13026SOL    HW239423   6.503   0.924   3.359
13027SOL     OW39424   6.577   0.410   3.104
13027SOL    HW139425   6.500   0.444   3.158
13027SOL    HW239426   6.543   0.359   3.025
13028SOL     OW39427   6.627   0.701   2.291
13028SOL    HW139428   6.653   0.697   2.387
13028SOL    HW239429   6.542   0.650   2.277
13029SOL     OW39430   5.662   0.811   2.651
13029SOL    HW139431   5.761   0.799   2.660
13029SOL    HW239432   5.638   0.906   2.672
13030SOL     OW39433   5.716   1.821   3.433
13030SOL    HW139434   5.706   1.806   3.532
13030SOL    HW239435   5.630   1.857   3.397
13031SOL     OW39436   6.451   0.348   2.057
13031SOL    HW139437   6.510   0.411   2.008
13031SOL    HW239438   6.470   0.254   2.028
13032SOL     OW39439   7.305   0.585   3.693
13032SOL    HW139440   7.279   0.674   3.657
13032SOL    HW239441   7.303   0.517   3.620
13033SOL     OW39442   6.948   1.144   2.407
13033SOL    HW139443   7.031   1.115   2.359
13033SOL    HW239444   6.899   1.211   2.351
13034SOL     OW39445   6.136   0.196   2.747
13034SOL    HW139446   6.131   0.191   2.847
13034SOL    HW239447   6.138   0.292   2.718
13035SOL     OW39448   6.594   1.456   2.339
13035SOL    HW139449   6.548   1.528   2.287
13035SOL    HW239450   6.590   1.476   2.437
13036SOL     OW39451   5.937   1.801   2.715
13036SOL    HW139452   5.987   1.715   2.721
13036SOL    HW239453   6.002   1.878   2.712
13037SOL     OW39454   7.381   1.066   2.735
13037SOL    HW139455   7.319   1.051   2.659
13037SOL    HW239456   7.329   1.077   2.820
13038SOL     OW39457   6.813   1.550   3.368
13038SOL    HW139458   6.819   1.473   3.432
13038SOL    HW239459   6.761   1.524   3.288
13039SOL     OW39460   5.907   0.943   2.104
13039SOL    HW139461   5.989   0.982   2.062
13039SOL    HW239462   5.880   0.861   2.055
13040SOL     OW39463   7.044   0.735   2.590
13040SOL    HW139464   7.039   0.670   2.665
13040SOL    HW239465   7.124   0.794   2.603
13041SOL     OW39466   6.047   1.266   3.589
13041SOL    HW139467   5.997   1.267   3.503
13041SOL    HW239468   5.984   1.248   3.665
13042SOL     OW39469   6.697   1.776   2.099
13042SOL    HW139470   6.637   1.714   2.149
13042SOL    HW239471   6.728   1.732   2.014
13043SOL     OW39472   5.788   0.285   3.360
13043SOL    HW139473   5.708   0.345   3.347
13043SOL    HW239474   5.778   0.236   3.446
13044SOL     OW39475   7.218   1.377   1.943
13044SOL    HW139476   7.186   1.471   1.933
13044SOL    HW239477   7.142   1.314   1.931
13045SOL     OW39478   6.050   1.743   2.185
13045SOL    HW139479   6.083   1.782   2.271
13045SOL    HW239480   6.126   1.736   2.120
13046SOL     OW39481   5.835   1.785   3.103
13046SOL    HW139482   5.892   1.720   3.153
13046SOL    HW239483   5.819   1.752   3.010
13047SOL     OW39484   6.526   1.698   2.766
13047SOL    HW139485   6.606   1.641   2.787
13047SOL    HW239486   6.477   1.658   2.689
13048SOL     OW39487   5.968   0.700   2.342
13048SOL    HW139488   6.013   0.610   2.339
13048SOL    HW239489   5.874   0.689   2.375
13049SOL     OW39490   6.474   1.514   3.057
13049SOL    HW139491   6.451   1.489   2.963
13049SOL    HW239492   6.535   1.445   3.096
13050SOL     OW39493   6.937   0.590   3.295
13050SOL    HW139494   6.965   0.547   3.380
13050SOL    HW239495   6.962   0.686   3.296
13051SOL     OW39496   6.389   1.402   2.786
13051SOL    HW139497   6.479   1.416   2.744
13051SOL    HW239498   6.318   1.404   2.715
13052SOL     OW39499   6.508   0.503   2.761
13052SOL    HW139500   6.483   0.494   2.665
13052SOL    HW239501   6.556   0.421   2.792
13053SOL     OW39502   6.125   0.064   2.374
13053SOL    HW139503   6.044   0.065   2.432
13053SOL    HW239504   6.128   0.147   2.319
13054SOL     OW39505   7.020   1.188   1.903
13054SOL    HW139506   7.052   1.112   1.960
13054SOL    HW239507   6.928   1.215   1.933
13055SOL     OW39508   5.883   0.035   2.033
13055SOL    HW139509   5.932   0.119   2.012
13055SOL    HW239510   5.945  -0.030   2.078
13056SOL     OW39511   6.521   0.236   2.342
13056SOL    HW139512   6.473   0.277   2.264
13056SOL    HW239513   6.620   0.234   2.323
13057SOL     OW39514   6.662   0.683   3.326
13057SOL    HW139515   6.582   0.622   3.329
13057SOL    HW239516   6.743   0.630   3.302
13058SOL     OW39517   6.813   1.570   2.655
13058SOL    HW139518   6.834   1.644   2.590
13058SOL    HW239519   6.881   1.570   2.728
13059SOL     OW39520   6.045   1.152   2.603
13059SOL    HW139521   5.974   1.125   2.668
13059SOL    HW239522   6.019   1.124   2.510
13060SOL     OW39523   6.857   1.797   2.453
13060SOL    HW139524   6.901   1.861   2.389
13060SOL    HW239525   6.807   1.849   2.523
13061SOL     OW39526   6.618   0.549   1.878
13061SOL    HW139527   6.577   0.631   1.839
13061SOL    HW239528   6.682   0.575   1.951
13062SOL     OW39529   5.664   0.556   3.248
13062SOL    HW139530   5.756   0.555   3.207
13062SOL    HW239531   5.658   0.630   3.315
13063SOL     OW39532   6.147   0.222   3.009
13063SOL    HW139533   6.185   0.138   3.046
13063SOL    HW239534   6.059   0.241   3.053
13064SOL     OW39535   6.452   0.454   2.504
13064SOL    HW139536   6.420   0.526   2.442
13064SOL    HW239537   6.476   0.373   2.451
13065SOL     OW39538   6.603   0.039   2.615
13065SOL    HW139539   6.531   0.044   2.546
13065SOL    HW239540   6.579  -0.030   2.684
13066SOL     OW39541   7.015   1.173   2.729
13066SOL    HW139542   6.960   1.089   2.722
13066SOL    HW239543   7.041   1.202   2.637
13067SOL     OW39544   7.052   0.590   2.854
13067SOL    HW139545   7.022   0.495   2.861
13067SOL    HW239546   7.125   0.606   2.920
13068SOL     OW39547   7.443   0.833   2.239
13068SOL    HW139548   7.485   0.769   2.303
13068SOL    HW239549   7.405   0.782   2.161
13069SOL     OW39550   6.074   1.385   2.036
13069SOL    HW139551   5.987   1.370   2.083
13069SOL    HW239552   6.057   1.411   1.941
13070SOL     OW39553   7.250   1.280   2.519
13070SOL    HW139554   7.349   1.288   2.533
13070SOL    HW239555   7.205   1.364   2.550
13071SOL     OW39556   6.976   0.575   1.940
13071SOL    HW139557   6.922   0.554   2.021
13071SOL    HW239558   7.067   0.534   1.949
13072SOL     OW39559   6.113   0.256   2.190
13072SOL    HW139560   6.140   0.197   2.115
13072SOL    HW239561   6.113   0.351   2.159
13073SOL     OW39562   7.340   1.223   3.450
13073SOL    HW139563   7.431   1.184   3.437
13073SOL    HW239564   7.348   1.319   3.474
13074SOL     OW39565   6.650   1.347   3.202
13074SOL    HW139566   6.570   1.324   3.257
13074SOL    HW239567   6.733   1.321   3.251
13075SOL     OW39568   7.178   1.629   3.487
13075SOL    HW139569   7.205   1.663   3.397
13075SOL    HW239570   7.257   1.591   3.533
13076SOL     OW39571   6.697   1.195   2.962
13076SOL    HW139572   6.657   1.239   3.043
13076SOL    HW239573   6.656   1.232   2.879
13077SOL     OW39574   7.224   1.099   2.941
13077SOL    HW139575   7.229   1.180   3.000
13077SOL    HW239576   7.138   1.101   2.890
13078SOL     OW39577   6.566   1.116   3.581
13078SOL    HW139578   6.467   1.122   3.591
13078SOL    HW239579   6.589   1.036   3.525
13079SOL     OW39580   6.291   1.050   2.230
13079SOL    HW139581   6.277   1.057   2.329
13079SOL    HW239582   6.375   0.999   2.212
13080SOL     OW39583   5.996   0.813   3.113
13080SOL    HW139584   6.082   0.825   3.163
13080SOL    HW239585   5.954   0.726   3.140
13081SOL     OW39586   6.860   0.386   3.124
13081SOL    HW139587   6.881   0.460   3.188
13081SOL    HW239588   6.771   0.403   3.081
13082SOL     OW39589   5.650   1.564   3.193
13082SOL    HW139590   5.604   1.646   3.159
13082SOL    HW239591   5.748   1.583   3.202
13083SOL     OW39592   5.953   1.100   2.363
13083SOL    HW139593   5.946   1.183   2.307
13083SOL    HW239594   5.957   1.020   2.303
13084SOL     OW39595   6.152   0.537   2.727
13084SOL    HW139596   6.164   0.603   2.653
13084SOL    HW239597   6.198   0.571   2.810
13085SOL     OW39598   6.838   1.348   2.250
13085SOL    HW139599   6.888   1.425   2.290
13085SOL    HW239600   6.743   1.350   2.282
13086SOL     OW39601   6.858   1.445   3.004
13086SOL    HW139602   6.905   1.458   3.091
13086SOL    HW239603   6.792   1.371   3.013
13087SOL     OW39604   7.168   0.639   2.334
13087SOL    HW139605   7.137   0.700   2.407
13087SOL    HW239606   7.218   0.691   2.265
13088SOL     OW39607   5.940   1.510   3.191
13088SOL    HW139608   5.919   1.466   3.104
13088SOL    HW239609   6.037   1.536   3.194
13089SOL     OW39610   5.988   0.751   3.460
13089SOL    HW139611   6.056   0.806   3.413
13089SOL    HW239612   6.028   0.663   3.487
13090SOL     OW39613   7.173   0.779   3.532
13090SOL    HW139614   7.081   0.817   3.527
13090SOL    HW239615   7.233   0.826   3.467
13091SOL     OW39616   6.090   0.050   3.602
13091SOL    HW139617   6.048  -0.007   3.532
13091SOL    HW239618   6.024   0.119   3.634
13092SOL     OW39619   6.159   0.870   2.891
13092SOL    HW139620   6.203   0.959   2.882
13092SOL    HW239621   6.096   0.870   2.968
13093SOL     OW39622   6.946   0.862   2.907
13093SOL    HW139623   6.871   0.862   2.841
13093SOL    HW239624   6.983   0.770   2.916
13094SOL     OW39625   6.795   0.525   2.137
13094SOL    HW139626   6.808   0.441   2.191
13094SOL    HW239627   6.766   0.599   2.197
13095SOL     OW39628   5.893   0.213   3.093
13095SOL    HW139629   5.870   0.250   3.183
13095SOL    HW239630   5.863   0.118   3.087
13096SOL     OW39631   5.623   1.310   3.144
13096SOL    HW139632   5.676   1.261   3.212
13096SOL    HW239633   5.645   1.408   3.149
13097SOL     OW39634   6.318   0.634   2.926
13097SOL    HW139635   6.377   0.608   2.850
13097SOL    HW239636   6.290   0.730   2.915
13098SOL     OW39637   7.314   0.935   3.716
13098SOL    HW139638   7.268   0.928   3.627
13098SOL    HW239639   7.252   0.979   3.782
13099SOL     OW39640   5.893   0.063   2.480
13099SOL    HW139641   5.882   0.157   2.513
13099SOL    HW239642   5.888   0.000   2.557
13100SOL     OW39643   6.609   0.766   2.828
13100SOL    HW139644   6.624   0.787   2.924
13100SOL    HW239645   6.579   0.671   2.819
13101SOL     OW39646   6.566   1.573   3.562
13101SOL    HW139647   6.546   1.617   3.474
13101SOL    HW239648   6.605   1.482   3.546
13102SOL     OW39649   7.445   1.518   3.467
13102SOL    HW139650   7.459   1.545   3.372
13102SOL    HW239651   7.528   1.540   3.520
13103SOL     OW39652   5.936   0.898   3.666
13103SOL    HW139653   6.012   0.942   3.714
13103SOL    HW239654   5.971   0.851   3.584
13104SOL     OW39655   6.889   0.838   1.904
13104SOL    HW139656   6.923   0.745   1.919
13104SOL    HW239657   6.907   0.865   1.809
13105SOL     OW39658   6.654   1.333   2.711
13105SOL    HW139659   6.661   1.249   2.656
13105SOL    HW239660   6.716   1.402   2.675
13106SOL     OW39661   5.905   0.810   2.811
13106SOL    HW139662   5.998   0.846   2.816
13106SOL    HW239663   5.899   0.725   2.863
13107SOL     OW39664   5.925   0.509   2.868
13107SOL    HW139665   5.873   0.426   2.851
13107SOL    HW239666   6.002   0.514   2.804
13108SOL     OW39667   5.594   1.326   2.062
13108SOL    HW139668   5.501   1.347   2.031
13108SOL    HW239669   5.604   1.227   2.075
13109SOL     OW39670   5.674   1.801   2.789
13109SOL    HW139671   5.632   1.715   2.762
13109SOL    HW239672   5.768   1.804   2.755
13110SOL     OW39673   6.090   1.568   2.772
13110SOL    HW139674   6.156   1.642   2.781
13110SOL    HW239675   6.134   1.489   2.730
13111SOL     OW39676   6.588   0.796   3.100
13111SOL    HW139677   6.629   0.764   3.186
13111SOL    HW239678   6.492   0.769   3.097
13112SOL     OW39679   5.626   0.544   2.976
13112SOL    HW139680   5.711   0.511   2.935
13112SOL    HW239681   5.639   0.559   3.074
13113SOL     OW39682   5.775   0.520   3.584
13113SOL    HW139683   5.834   0.480   3.514
13113SOL    HW239684   5.717   0.591   3.543
13114SOL     OW39685   6.955   0.950   3.522
13114SOL    HW139686   6.994   1.039   3.542
13114SOL    HW239687   6.965   0.930   3.425
13115SOL     OW39688   6.401   0.572   2.187
13115SOL    HW139689   6.408   0.483   2.141
13115SOL    HW239690   6.307   0.606   2.179
13116SOL     OW39691   7.243   0.604   3.068
13116SOL    HW139692   7.205   0.535   3.130
13116SOL    HW239693   7.325   0.568   3.024
13117SOL     OW39694   5.838   1.564   3.606
13117SOL    HW139695   5.808   1.621   3.682
13117SOL    HW239696   5.831   1.467   3.632
13118SOL     OW39697   6.257   0.464   3.131
13118SOL    HW139698   6.223   0.375   3.101
13118SOL    HW239699   6.283   0.518   3.051
13119SOL     OW39700   6.516   1.678   3.327
13119SOL    HW139701   6.492   1.660   3.232
13119SOL    HW239702   6.546   1.772   3.337
13120SOL     OW39703   6.059   0.500   2.053
13120SOL    HW139704   6.120   0.580   2.057
13120SOL    HW239705   5.964   0.531   2.060
13121SOL     OW39706   5.745   1.137   3.328
13121SOL    HW139707   5.767   1.076   3.404
13121SOL    HW239708   5.755   1.088   3.242
13122SOL     OW39709   6.933   1.059   3.096
13122SOL    HW139710   6.957   0.996   3.022
13122SOL    HW239711   6.843   1.099   3.078
13123SOL     OW39712   6.888   0.855   2.171
13123SOL    HW139713   6.802   0.824   2.213
13123SOL    HW239714   6.884   0.841   2.072
13124SOL     OW39715   7.345   1.747   3.016
13124SOL    HW139716   7.406   1.777   2.943
13124SOL    HW239717   7.307   1.658   2.994
13125SOL     OW39718   6.838   1.731   2.990
13125SOL    HW139719   6.922   1.736   2.936
13125SOL    HW239720   6.815   1.635   3.008
13126SOL     OW39721   5.669   1.258   2.884
13126SOL    HW139722   5.664   1.257   2.984
13126SOL    HW239723   5.586   1.217   2.846
13127SOL     OW39724   6.274   1.662   3.578
13127SOL    HW139725   6.218   1.743   3.587
13127SOL    HW239726   6.326   1.666   3.492
13128SOL     OW39727   6.974   1.573   2.339
13128SOL    HW139728   7.041   1.585   2.265
13128SOL    HW239729   6.934   1.662   2.362
13129SOL     OW39730   5.716   1.794   3.713
13129SOL    HW139731   5.675   1.720   3.766
13129SOL    HW239732   5.780   1.845   3.771
13130SOL     OW39733   6.866   0.927   2.534
13130SOL    HW139734   6.926   0.846   2.536
13130SOL    HW239735   6.906   0.996   2.474
13131SOL     OW39736   6.416   1.273   3.284
13131SOL    HW139737   6.411   1.306   3.379
13131SOL    HW239738   6.330   1.292   3.238
13132SOL     OW39739   6.258   1.616   2.016
13132SOL    HW139740   6.267   1.626   1.917
13132SOL    HW239741   6.218   1.527   2.037
13133SOL     OW39742   7.236   1.720   3.256
13133SOL    HW139743   7.289   1.730   3.172
13133SOL    HW239744   7.209   1.810   3.290
13134SOL     OW39745   5.849   0.326   2.582
13134SOL    HW139746   5.770   0.377   2.548
13134SOL    HW239747   5.840   0.311   2.680
13135SOL     OW39748   6.780   1.612   1.893
13135SOL    HW139749   6.786   1.519   1.930
13135SOL    HW239750   6.721   1.612   1.813
13136SOL     OW39751   6.408   1.002   3.234
13136SOL    HW139752   6.448   1.001   3.142
13136SOL    HW239753   6.418   1.094   3.274
13137SOL     OW39754   6.502   0.910   2.153
13137SOL    HW139755   6.565   0.948   2.085
13137SOL    HW239756   6.542   0.827   2.192
13138SOL     OW39757   7.090   1.607   1.906
13138SOL    HW139758   6.998   1.644   1.913
13138SOL    HW239759   7.128   1.627   1.816
13139SOL     OW39760   5.958   1.288   3.352
13139SOL    HW139761   5.945   1.381   3.318
13139SOL    HW239762   5.874   1.236   3.339
13140SOL     OW39763   7.200   1.292   3.151
13140SOL    HW139764   7.260   1.295   3.231
13140SOL    HW239765   7.125   1.356   3.164
13141SOL     OW39766   6.625   1.098   2.558
13141SOL    HW139767   6.555   1.051   2.612
13141SOL    HW239768   6.684   1.030   2.515
13142SOL     OW39769   6.600   0.236   2.833
13142SOL    HW139770   6.592   0.200   2.740
13142SOL    HW239771   6.598   0.160   2.898
13143SOL     OW39772   6.176   1.487   2.353
13143SOL    HW139773   6.218   1.429   2.283
13143SOL    HW239774   6.132   1.566   2.309
13144SOL     OW39775   5.841   1.348   2.152
13144SOL    HW139776   5.745   1.349   2.125
13144SOL    HW239777   5.853   1.401   2.236
13145SOL     OW39778   5.691   1.013   3.588
13145SOL    HW139779   5.614   0.980   3.642
13145SOL    HW239780   5.776   0.983   3.630
13146SOL     OW39781   5.661   0.345   1.895
13146SOL    HW139782   5.569   0.317   1.866
13146SOL    HW239783   5.692   0.422   1.839
13147SOL     OW39784   7.026   0.856   3.260
13147SOL    HW139785   6.969   0.908   3.197
13147SOL    HW239786   7.122   0.868   3.236
13148SOL     OW39787   5.658   0.166   2.180
13148SOL    HW139788   5.641   0.249   2.126
13148SOL    HW239789   5.748   0.129   2.158
13149SOL     OW39790   6.769   1.335   1.981
13149SOL    HW139791   6.670   1.324   1.983
13149SOL    HW239792   6.803   1.350   2.074
13150SOL     OW39793   6.199   0.842   3.293
13150SOL    HW139794   6.255   0.923   3.276
13150SOL    HW239795   6.258   0.762   3.296
13151SOL     OW39796   7.079   1.767   2.821
13151SOL    HW139797   7.112   1.831   2.752
13151SOL    HW239798   7.145   1.761   2.896
13152SOL     OW39799   6.302   0.565   3.570
13152SOL    HW139800   6.321   0.630   3.644
13152SOL    HW239801   6.362   0.485   3.579
13153SOL     OW39802   7.036   1.220   3.495
13153SOL    HW139803   7.027   1.210   3.594
13153SOL    HW239804   7.132   1.213   3.469
13154SOL     OW39805   5.976   1.741   3.422
13154SOL    HW139806   5.885   1.782   3.420
13154SOL    HW239807   5.969   1.647   3.454
13155SOL     OW39808   7.260   0.883   3.116
13155SOL    HW139809   7.233   0.794   3.079
13155SOL    HW239810   7.261   0.951   3.043
13156SOL     OW39811   6.811   0.325   2.311
13156SOL    HW139812   6.876   0.251   2.300
13156SOL    HW239813   6.831   0.375   2.395
13157SOL     OW39814   6.180   0.745   2.514
13157SOL    HW139815   6.230   0.830   2.495
13157SOL    HW239816   6.092   0.747   2.466
13158SOL     OW39817   7.316   0.934   3.379
13158SOL    HW139818   7.354   1.025   3.394
13158SOL    HW239819   7.308   0.917   3.280
13159SOL     OW39820   6.445   1.374   1.878
13159SOL    HW139821   6.399   1.389   1.966
13159SOL    HW239822   6.489   1.459   1.848
13160SOL     OW39823   6.247   1.790   2.815
13160SOL    HW139824   6.201   1.878   2.802
13160SOL    HW239825   6.346   1.802   2.808
13161SOL     OW39826   6.445   0.956   2.723
13161SOL    HW139827   6.499   0.887   2.771
13161SOL    HW239828   6.413   1.025   2.789
13162SOL     OW39829   6.669   0.984   1.949
13162SOL    HW139830   6.646   1.037   1.867
13162SOL    HW239831   6.750   0.928   1.930
13163SOL     OW39832   7.447   1.569   2.713
13163SOL    HW139833   7.376   1.557   2.643
13163SOL    HW239834   7.448   1.490   2.773
13164SOL     OW39835   5.807   1.314   3.706
13164SOL    HW139836   5.742   1.241   3.685
13164SOL    HW239837   5.811   1.328   3.804
13165SOL     OW39838   5.665   1.240   2.515
13165SOL    HW139839   5.664   1.193   2.603
13165SOL    HW239840   5.747   1.212   2.464
13166SOL     OW39841   6.258   1.391   3.486
13166SOL    HW139842   6.180   1.341   3.524
13166SOL    HW239843   6.255   1.486   3.517
13167SOL     OW39844   6.014   0.424   2.382
13167SOL    HW139845   6.044   0.352   2.320
13167SOL    HW239846   5.975   0.384   2.465
13168SOL     OW39847   7.291   1.487   2.966
13168SOL    HW139848   7.198   1.462   2.939
13168SOL    HW239849   7.317   1.437   3.048
13169SOL     OW39850   5.903   0.547   3.142
13169SOL    HW139851   5.941   0.488   3.214
13169SOL    HW239852   5.943   0.521   3.054
13170SOL     OW39853   6.398   1.586   2.549
13170SOL    HW139854   6.430   1.596   2.455
13170SOL    HW239855   6.319   1.524   2.551
13171SOL     OW39856   6.356   1.330   2.163
13171SOL    HW139857   6.310   1.243   2.180
13171SOL    HW239858   6.447   1.327   2.204
13172SOL     OW39859   6.204   1.567   3.146
13172SOL    HW139860   6.199   1.649   3.203
13172SOL    HW239861   6.293   1.564   3.101
13173SOL     OW39862   6.886   0.453   2.553
13173SOL    HW139863   6.827   0.533   2.557
13173SOL    HW239864   6.901   0.418   2.646
13174SOL     OW39865   5.625   1.077   2.162
13174SOL    HW139866   5.724   1.066   2.153
13174SOL    HW239867   5.585   0.991   2.194
13175SOL     OW39868   6.461   1.646   2.199
13175SOL    HW139869   6.384   1.611   2.145
13175SOL    HW239870   6.429   1.717   2.261
13176SOL     OW39871   5.816   0.628   3.837
13176SOL    HW139872   5.723   0.626   3.874
13176SOL    HW239873   5.817   0.589   3.745
13177SOL     OW39874   5.811   0.275   4.720
13177SOL    HW139875   5.846   0.258   4.812
13177SOL    HW239876   5.723   0.230   4.708
13178SOL     OW39877   5.605   0.368   4.371
13178SOL    HW139878   5.523   0.411   4.410
13178SOL    HW239879   5.577   0.295   4.308
13179SOL     OW39880   6.155   1.275   4.889
13179SOL    HW139881   6.062   1.268   4.852
13179SOL    HW239882   6.166   1.364   4.933
13180SOL     OW39883   7.141   1.511   4.427
13180SOL    HW139884   7.084   1.495   4.508
13180SOL    HW239885   7.082   1.521   4.347
13181SOL     OW39886   6.721   0.703   4.441
13181SOL    HW139887   6.778   0.781   4.416
13181SOL    HW239888   6.661   0.729   4.517
13182SOL     OW39889   7.341   0.607   3.955
13182SOL    HW139890   7.329   0.594   3.856
13182SOL    HW239891   7.311   0.526   4.004
13183SOL     OW39892   6.354   1.144   4.747
13183SOL    HW139893   6.276   1.161   4.807
13183SOL    HW239894   6.388   1.231   4.711
13184SOL     OW39895   6.436   0.798   5.547
13184SOL    HW139896   6.432   0.874   5.612
13184SOL    HW239897   6.458   0.834   5.456
13185SOL     OW39898   6.271   1.012   4.389
13185SOL    HW139899   6.340   0.996   4.459
13185SOL    HW239900   6.198   1.069   4.427
13186SOL     OW39901   6.272   1.161   5.527
13186SOL    HW139902   6.332   1.240   5.541
13186SOL    HW239903   6.186   1.192   5.486
13187SOL     OW39904   5.921   1.435   4.785
13187SOL    HW139905   5.843   1.404   4.732
13187SOL    HW239906   5.979   1.493   4.728
13188SOL     OW39907   7.046   1.505   5.063
13188SOL    HW139908   7.070   1.599   5.089
13188SOL    HW239909   7.030   1.451   5.145
13189SOL     OW39910   6.024   0.392   5.223
13189SOL    HW139911   6.106   0.336   5.232
13189SOL    HW239912   5.943   0.334   5.227
13190SOL     OW39913   7.189   0.447   4.461
13190SOL    HW139914   7.115   0.493   4.411
13190SOL    HW239915   7.240   0.515   4.514
13191SOL     OW39916   5.817   1.713   4.207
13191SOL    HW139917   5.851   1.790   4.261
13191SOL    HW239918   5.861   1.713   4.117
13192SOL     OW39919   6.713   1.341   5.414
13192SOL    HW139920   6.760   1.341   5.502
13192SOL    HW239921   6.665   1.254   5.403
13193SOL     OW39922   5.816   1.434   4.262
13193SOL    HW139923   5.790   1.530   4.262
13193SOL    HW239924   5.745   1.380   4.307
13194SOL     OW39925   5.826   1.091   4.610
13194SOL    HW139926   5.840   1.007   4.662
13194SOL    HW239927   5.771   1.155   4.665
13195SOL     OW39928   6.206   1.786   5.163
13195SOL    HW139929   6.114   1.769   5.198
13195SOL    HW239930   6.234   1.878   5.189
13196SOL     OW39931   6.192   0.964   3.847
13196SOL    HW139932   6.199   1.048   3.793
13196SOL    HW239933   6.238   0.977   3.935
13197SOL     OW39934   5.708   0.643   4.287
13197SOL    HW139935   5.663   0.555   4.304
13197SOL    HW239936   5.707   0.697   4.371
13198SOL     OW39937   7.428   1.767   4.083
13198SOL    HW139938   7.482   1.738   4.163
13198SOL    HW239939   7.458   1.857   4.054
13199SOL     OW39940   5.613   1.596   3.841
13199SOL    HW139941   5.594   1.500   3.862
13199SOL    HW239942   5.580   1.654   3.916
13200SOL     OW39943   7.275   0.922   4.336
13200SOL    HW139944   7.370   0.893   4.344
13200SOL    HW239945   7.267   0.987   4.261
13201SOL     OW39946   7.227   1.108   4.156
13201SOL    HW139947   7.313   1.110   4.104
13201SOL    HW239948   7.241   1.155   4.244
13202SOL     OW39949   5.699   0.737   5.321
13202SOL    HW139950   5.787   0.724   5.366
13202SOL    HW239951   5.686   0.834   5.299
13203SOL     OW39952   6.199   1.365   4.450
13203SOL    HW139953   6.150   1.278   4.459
13203SOL    HW239954   6.176   1.408   4.363
13204SOL     OW39955   6.879   1.228   5.147
13204SOL    HW139956   6.916   1.155   5.089
13204SOL    HW239957   6.931   1.233   5.232
13205SOL     OW39958   5.783   0.976   4.988
13205SOL    HW139959   5.872   0.931   4.974
13205SOL    HW239960   5.710   0.911   4.969
13206SOL     OW39961   7.111   0.999   3.914
13206SOL    HW139962   7.048   0.923   3.927
13206SOL    HW239963   7.159   1.017   4.000
13207SOL     OW39964   6.773   1.792   5.340
13207SOL    HW139965   6.797   1.852   5.264
13207SOL    HW239966   6.780   1.697   5.310
13208SOL     OW39967   5.903   0.251   5.525
13208SOL    HW139968   5.974   0.322   5.531
13208SOL    HW239969   5.815   0.290   5.553
13209SOL     OW39970   7.052   1.417   4.677
13209SOL    HW139971   6.993   1.423   4.757
13209SOL    HW239972   7.037   1.329   4.631
13210SOL     OW39973   7.253   1.714   4.296
13210SOL    HW139974   7.212   1.691   4.208
13210SOL    HW239975   7.235   1.640   4.361
13211SOL     OW39976   6.184   0.729   3.994
13211SOL    HW139977   6.208   0.798   3.926
13211SOL    HW239978   6.106   0.762   4.048
13212SOL     OW39979   7.162   1.662   4.031
13212SOL    HW139980   7.251   1.708   4.034
13212SOL    HW239981   7.141   1.638   3.936
13213SOL     OW39982   6.393   0.605   5.189
13213SOL    HW139983   6.346   0.602   5.278
13213SOL    HW239984   6.342   0.550   5.123
13214SOL     OW39985   6.980   0.469   5.398
13214SOL    HW139986   6.960   0.512   5.486
13214SOL    HW239987   7.058   0.407   5.407
13215SOL     OW39988   6.559   0.890   5.296
13215SOL    HW139989   6.605   0.806   5.267
13215SOL    HW239990   6.503   0.924   5.221
13216SOL     OW39991   6.577   0.410   4.966
13216SOL    HW139992   6.500   0.444   5.020
13216SOL    HW239993   6.543   0.359   4.887
13217SOL     OW39994   6.627   0.701   4.153
13217SOL    HW139995   6.653   0.697   4.249
13217SOL    HW239996   6.542   0.650   4.139
13218SOL     OW39997   5.662   0.811   4.513
13218SOL    HW139998   5.761   0.799   4.522
13218SOL    HW239999   5.638   0.906   4.534
13219SOL     OW40000   5.716   1.821   5.295
13219SOL    HW140001   5.706   1.806   5.394
13219SOL    HW240002   5.630   1.857   5.259
13220SOL     OW40003   6.451   0.348   3.919
13220SOL    HW140004   6.510   0.411   3.870
13220SOL    HW240005   6.470   0.254   3.890
13221SOL     OW40006   7.305   0.585   5.555
13221SOL    HW140007   7.279   0.674   5.519
13221SOL    HW240008   7.303   0.517   5.482
13222SOL     OW40009   6.948   1.144   4.269
13222SOL    HW140010   7.031   1.115   4.221
13222SOL    HW240011   6.899   1.211   4.213
13223SOL     OW40012   6.136   0.196   4.609
13223SOL    HW140013   6.131   0.191   4.709
13223SOL    HW240014   6.138   0.292   4.580
13224SOL     OW40015   6.594   1.456   4.201
13224SOL    HW140016   6.548   1.528   4.149
13224SOL    HW240017   6.590   1.476   4.299
13225SOL     OW40018   5.937   1.801   4.577
13225SOL    HW140019   5.987   1.715   4.583
13225SOL    HW240020   6.002   1.878   4.574
13226SOL     OW40021   7.381   1.066   4.597
13226SOL    HW140022   7.319   1.051   4.521
13226SOL    HW240023   7.329   1.077   4.682
13227SOL     OW40024   6.813   1.550   5.230
13227SOL    HW140025   6.819   1.473   5.294
13227SOL    HW240026   6.761   1.524   5.150
13228SOL     OW40027   5.907   0.943   3.966
13228SOL    HW140028   5.989   0.982   3.924
13228SOL    HW240029   5.880   0.861   3.917
13229SOL     OW40030   7.044   0.735   4.452
13229SOL    HW140031   7.039   0.670   4.527
13229SOL    HW240032   7.124   0.794   4.465
13230SOL     OW40033   6.047   1.266   5.451
13230SOL    HW140034   5.997   1.267   5.365
13230SOL    HW240035   5.984   1.248   5.527
13231SOL     OW40036   6.697   1.776   3.961
13231SOL    HW140037   6.637   1.714   4.011
13231SOL    HW240038   6.728   1.732   3.876
13232SOL     OW40039   5.788   0.285   5.222
13232SOL    HW140040   5.708   0.345   5.209
13232SOL    HW240041   5.778   0.236   5.308
13233SOL     OW40042   7.218   1.377   3.805
13233SOL    HW140043   7.186   1.471   3.795
13233SOL    HW240044   7.142   1.314   3.793
13234SOL     OW40045   6.050   1.743   4.047
13234SOL    HW140046   6.083   1.782   4.133
13234SOL    HW240047   6.126   1.736   3.982
13235SOL     OW40048   5.835   1.785   4.965
13235SOL    HW140049   5.892   1.720   5.015
13235SOL    HW240050   5.819   1.752   4.872
13236SOL     OW40051   6.526   1.698   4.628
13236SOL    HW140052   6.606   1.641   4.649
13236SOL    HW240053   6.477   1.658   4.551
13237SOL     OW40054   5.968   0.700   4.204
13237SOL    HW140055   6.013   0.610   4.201
13237SOL    HW240056   5.874   0.689   4.237
13238SOL     OW40057   6.474   1.514   4.919
13238SOL    HW140058   6.451   1.489   4.825
13238SOL    HW240059   6.535   1.445   4.958
13239SOL     OW40060   6.937   0.590   5.157
13239SOL    HW140061   6.965   0.547   5.242
13239SOL    HW240062   6.962   0.686   5.158
13240SOL     OW40063   6.389   1.402   4.648
13240SOL    HW140064   6.479   1.416   4.606
13240SOL    HW240065   6.318   1.404   4.577
13241SOL     OW40066   6.508   0.503   4.623
13241SOL    HW140067   6.483   0.494   4.527
13241SOL    HW240068   6.556   0.421   4.654
13242SOL     OW40069   6.125   0.064   4.236
13242SOL    HW140070   6.044   0.065   4.294
13242SOL    HW240071   6.128   0.147   4.181
13243SOL     OW40072   7.020   1.188   3.765
13243SOL    HW140073   7.052   1.112   3.822
13243SOL    HW240074   6.928   1.215   3.795
13244SOL     OW40075   5.883   0.035   3.895
13244SOL    HW140076   5.932   0.119   3.874
13244SOL    HW240077   5.945  -0.030   3.940
13245SOL     OW40078   6.521   0.236   4.204
13245SOL    HW140079   6.473   0.277   4.126
13245SOL    HW240080   6.620   0.234   4.185
13246SOL     OW40081   6.662   0.683   5.188
13246SOL    HW140082   6.582   0.622   5.191
13246SOL    HW240083   6.743   0.630   5.164
13247SOL     OW40084   6.813   1.570   4.517
13247SOL    HW140085   6.834   1.644   4.452
13247SOL    HW240086   6.881   1.570   4.590
13248SOL     OW40087   6.045   1.152   4.465
13248SOL    HW140088   5.974   1.125   4.530
13248SOL    HW240089   6.019   1.124   4.372
13249SOL     OW40090   6.857   1.797   4.315
13249SOL    HW140091   6.901   1.861   4.251
13249SOL    HW240092   6.807   1.849   4.385
13250SOL     OW40093   6.618   0.549   3.740
13250SOL    HW140094   6.577   0.631   3.701
13250SOL    HW240095   6.682   0.575   3.813
13251SOL     OW40096   5.664   0.556   5.110
13251SOL    HW140097   5.756   0.555   5.069
13251SOL    HW240098   5.658   0.630   5.177
13252SOL     OW40099   6.147   0.222   4.871
13252SOL    HW140100   6.185   0.138   4.908
13252SOL    HW240101   6.059   0.241   4.915
13253SOL     OW40102   6.452   0.454   4.366
13253SOL    HW140103   6.420   0.526   4.304
13253SOL    HW240104   6.476   0.373   4.313
13254SOL     OW40105   6.603   0.039   4.477
13254SOL    HW140106   6.531   0.044   4.408
13254SOL    HW240107   6.579  -0.030   4.546
13255SOL     OW40108   7.015   1.173   4.591
13255SOL    HW140109   6.960   1.089   4.584
13255SOL    HW240110   7.041   1.202   4.499
13256SOL     OW40111   7.052   0.590   4.716
13256SOL    HW140112   7.022   0.495   4.723
13256SOL    HW240113   7.125   0.606   4.782
13257SOL     OW40114   7.443   0.833   4.101
13257SOL    HW140115   7.485   0.769   4.165
13257SOL    HW240116   7.405   0.782   4.023
13258SOL     OW40117   6.074   1.385   3.898
13258SOL    HW140118   5.987   1.370   3.945
13258SOL    HW240119   6.057   1.411   3.803
13259SOL     OW40120   7.250   1.280   4.381
13259SOL    HW140121   7.349   1.288   4.395
13259SOL    HW240122   7.205   1.364   4.412
13260SOL     OW40123   6.976   0.575   3.802
13260SOL    HW140124   6.922   0.554   3.883
13260SOL    HW240125   7.067   0.534   3.811
13261SOL     OW40126   6.113   0.256   4.052
13261SOL    HW140127   6.140   0.197   3.977
13261SOL    HW240128   6.113   0.351   4.021
13262SOL     OW40129   7.340   1.223   5.312
13262SOL    HW140130   7.431   1.184   5.299
13262SOL    HW240131   7.348   1.319   5.336
13263SOL     OW40132   6.650   1.347   5.064
13263SOL    HW140133   6.570   1.324   5.119
13263SOL    HW240134   6.733   1.321   5.113
13264SOL     OW40135   6.697   1.195   4.824
13264SOL    HW140136   6.657   1.239   4.905
13264SOL    HW240137   6.656   1.232   4.741
13265SOL     OW40138   7.224   1.099   4.803
13265SOL    HW140139   7.229   1.180   4.862
13265SOL    HW240140   7.138   1.101   4.752
13266SOL     OW40141   6.566   1.116   5.443
13266SOL    HW140142   6.467   1.122   5.453
13266SOL    HW240143   6.589   1.036   5.387
13267SOL     OW40144   6.291   1.050   4.092
13267SOL    HW140145   6.277   1.057   4.191
13267SOL    HW240146   6.375   0.999   4.074
13268SOL     OW40147   5.996   0.813   4.975
13268SOL    HW140148   6.082   0.825   5.025
13268SOL    HW240149   5.954   0.726   5.002
13269SOL     OW40150   6.860   0.386   4.986
13269SOL    HW140151   6.881   0.460   5.050
13269SOL    HW240152   6.771   0.403   4.943
13270SOL     OW40153   5.650   1.564   5.055
13270SOL    HW140154   5.604   1.646   5.021
13270SOL    HW240155   5.748   1.583   5.064
13271SOL     OW40156   5.953   1.100   4.225
13271SOL    HW140157   5.946   1.183   4.169
13271SOL    HW240158   5.957   1.020   4.165
13272SOL     OW40159   6.152   0.537   4.589
13272SOL    HW140160   6.164   0.603   4.515
13272SOL    HW240161   6.198   0.571   4.672
13273SOL     OW40162   6.838   1.348   4.112
13273SOL    HW140163   6.888   1.425   4.152
13273SOL    HW240164   6.743   1.350   4.144
13274SOL     OW40165   6.858   1.445   4.866
13274SOL    HW140166   6.905   1.458   4.953
13274SOL    HW240167   6.792   1.371   4.875
13275SOL     OW40168   7.168   0.639   4.196
13275SOL    HW140169   7.137   0.700   4.269
13275SOL    HW240170   7.218   0.691   4.127
13276SOL     OW40171   5.940   1.510   5.053
13276SOL    HW140172   5.919   1.466   4.966
13276SOL    HW240173   6.037   1.536   5.056
13277SOL     OW40174   5.988   0.751   5.322
13277SOL    HW140175   6.056   0.806   5.275
13277SOL    HW240176   6.028   0.663   5.349
13278SOL     OW40177   7.173   0.779   5.394
13278SOL    HW140178   7.081   0.817   5.389
13278SOL    HW240179   7.233   0.826   5.329
13279SOL     OW40180   6.090   0.050   5.464
13279SOL    HW140181   6.048  -0.007   5.394
13279SOL    HW240182   6.024   0.119   5.496
13280SOL     OW40183   6.159   0.870   4.753
13280SOL    HW140184   6.203   0.959   4.744
13280SOL    HW240185   6.096   0.870   4.830
13281SOL     OW40186   6.946   0.862   4.769
13281SOL    HW140187   6.871   0.862   4.703
13281SOL    HW240188   6.983   0.770   4.778
13282SOL     OW40189   6.795   0.525   3.999
13282SOL    HW140190   6.808   0.441   4.053
13282SOL    HW240191   6.766   0.599   4.059
13283SOL     OW40192   5.893   0.213   4.955
13283SOL    HW140193   5.870   0.250   5.045
13283SOL    HW240194   5.863   0.118   4.949
13284SOL     OW40195   5.623   1.310   5.006
13284SOL    HW140196   5.676   1.261   5.074
13284SOL    HW240197   5.645   1.408   5.011
13285SOL     OW40198   6.318   0.634   4.788
13285SOL    HW140199   6.377   0.608   4.712
13285SOL    HW240200   6.290   0.730   4.777
13286SOL     OW40201   7.314   0.935   5.578
13286SOL    HW140202   7.268   0.928   5.489
13286SOL    HW240203   7.252   0.979   5.644
13287SOL     OW40204   5.893   0.063   4.342
13287SOL    HW140205   5.882   0.157   4.375
13287SOL    HW240206   5.888   0.000   4.419
13288SOL     OW40207   6.609   0.766   4.690
13288SOL    HW140208   6.624   0.787   4.786
13288SOL    HW240209   6.579   0.671   4.681
13289SOL     OW40210   6.566   1.573   5.424
13289SOL    HW140211   6.546   1.617   5.336
13289SOL    HW240212   6.605   1.482   5.408
13290SOL     OW40213   7.445   1.518   5.329
13290SOL    HW140214   7.459   1.545   5.234
13290SOL    HW240215   7.528   1.540   5.382
13291SOL     OW40216   5.936   0.898   5.528
13291SOL    HW140217   6.012   0.942   5.576
13291SOL    HW240218   5.971   0.851   5.446
13292SOL     OW40219   6.889   0.838   3.766
13292SOL    HW140220   6.923   0.745   3.781
13292SOL    HW240221   6.907   0.865   3.671
13293SOL     OW40222   6.654   1.333   4.573
13293SOL    HW140223   6.661   1.249   4.518
13293SOL    HW240224   6.716   1.402   4.537
13294SOL     OW40225   5.905   0.810   4.673
13294SOL    HW140226   5.998   0.846   4.678
13294SOL    HW240227   5.899   0.725   4.725
13295SOL     OW40228   5.925   0.509   4.730
13295SOL    HW140229   5.873   0.426   4.713
13295SOL    HW240230   6.002   0.514   4.666
13296SOL     OW40231   5.594   1.326   3.924
13296SOL    HW140232   5.501   1.347   3.893
13296SOL    HW240233   5.604   1.227   3.937
13297SOL     OW40234   5.674   1.801   4.651
13297SOL    HW140235   5.632   1.715   4.624
13297SOL    HW240236   5.768   1.804   4.617
13298SOL     OW40237   6.090   1.568   4.634
13298SOL    HW140238   6.156   1.642   4.643
13298SOL    HW240239   6.134   1.489   4.592
13299SOL     OW40240   6.588   0.796   4.962
13299SOL    HW140241   6.629   0.764   5.048
13299SOL    HW240242   6.492   0.769   4.959
13300SOL     OW40243   5.626   0.544   4.838
13300SOL    HW140244   5.711   0.511   4.797
13300SOL    HW240245   5.639   0.559   4.936
13301SOL     OW40246   5.775   0.520   5.446
13301SOL    HW140247   5.834   0.480   5.376
13301SOL    HW240248   5.717   0.591   5.405
13302SOL     OW40249   6.955   0.950   5.384
13302SOL    HW140250   6.994   1.039   5.404
13302SOL    HW240251   6.965   0.930   5.287
13303SOL     OW40252   6.401   0.572   4.049
13303SOL    HW140253   6.408   0.483   4.003
13303SOL    HW240254   6.307   0.606   4.041
13304SOL     OW40255   7.243   0.604   4.930
13304SOL    HW140256   7.205   0.535   4.992
13304SOL    HW240257   7.325   0.568   4.886
13305SOL     OW40258   5.838   1.564   5.468
13305SOL    HW140259   5.808   1.621   5.544
13305SOL    HW240260   5.831   1.467   5.494
13306SOL     OW40261   6.257   0.464   4.993
13306SOL    HW140262   6.223   0.375   4.963
13306SOL    HW240263   6.283   0.518   4.913
13307SOL     OW40264   6.516   1.678   5.189
13307SOL    HW140265   6.492   1.660   5.094
13307SOL    HW240266   6.546   1.772   5.199
13308SOL     OW40267   6.059   0.500   3.915
13308SOL    HW140268   6.120   0.580   3.919
13308SOL    HW240269   5.964   0.531   3.922
13309SOL     OW40270   5.745   1.137   5.190
13309SOL    HW140271   5.767   1.076   5.266
13309SOL    HW240272   5.755   1.088   5.104
13310SOL     OW40273   6.933   1.059   4.958
13310SOL    HW140274   6.957   0.996   4.884
13310SOL    HW240275   6.843   1.099   4.940
13311SOL     OW40276   6.888   0.855   4.033
13311SOL    HW140277   6.802   0.824   4.075
13311SOL    HW240278   6.884   0.841   3.934
13312SOL     OW40279   7.345   1.747   4.878
13312SOL    HW140280   7.406   1.777   4.805
13312SOL    HW240281   7.307   1.658   4.856
13313SOL     OW40282   6.838   1.731   4.852
13313SOL    HW140283   6.922   1.736   4.798
13313SOL    HW240284   6.815   1.635   4.870
13314SOL     OW40285   5.669   1.258   4.746
13314SOL    HW140286   5.664   1.257   4.846
13314SOL    HW240287   5.586   1.217   4.708
13315SOL     OW40288   6.274   1.662   5.440
13315SOL    HW140289   6.218   1.743   5.449
13315SOL    HW240290   6.326   1.666   5.354
13316SOL     OW40291   6.974   1.573   4.201
13316SOL    HW140292   7.041   1.585   4.127
13316SOL    HW240293   6.934   1.662   4.224
13317SOL     OW40294   5.716   1.794   5.575
13317SOL    HW140295   5.675   1.720   5.628
13317SOL    HW240296   5.780   1.845   5.633
13318SOL     OW40297   6.866   0.927   4.396
13318SOL    HW140298   6.926   0.846   4.398
13318SOL    HW240299   6.906   0.996   4.336
13319SOL     OW40300   6.416   1.273   5.146
13319SOL    HW140301   6.411   1.306   5.241
13319SOL    HW240302   6.330   1.292   5.100
13320SOL     OW40303   6.258   1.616   3.878
13320SOL    HW140304   6.267   1.626   3.779
13320SOL    HW240305   6.218   1.527   3.899
13321SOL     OW40306   7.236   1.720   5.118
13321SOL    HW140307   7.289   1.730   5.034
13321SOL    HW240308   7.209   1.810   5.152
13322SOL     OW40309   5.849   0.326   4.444
13322SOL    HW140310   5.770   0.377   4.410
13322SOL    HW240311   5.840   0.311   4.542
13323SOL     OW40312   6.780   1.612   3.755
13323SOL    HW140313   6.786   1.519   3.792
13323SOL    HW240314   6.721   1.612   3.675
13324SOL     OW40315   6.408   1.002   5.096
13324SOL    HW140316   6.448   1.001   5.004
13324SOL    HW240317   6.418   1.094   5.136
13325SOL     OW40318   6.502   0.910   4.015
13325SOL    HW140319   6.565   0.948   3.947
13325SOL    HW240320   6.542   0.827   4.054
13326SOL     OW40321   7.090   1.607   3.768
13326SOL    HW140322   6.998   1.644   3.775
13326SOL    HW240323   7.128   1.627   3.678
13327SOL     OW40324   5.958   1.288   5.214
13327SOL    HW140325   5.945   1.381   5.180
13327SOL    HW240326   5.874   1.236   5.201
13328SOL     OW40327   7.200   1.292   5.013
13328SOL    HW140328   7.260   1.295   5.093
13328SOL    HW240329   7.125   1.356   5.026
13329SOL     OW40330   6.625   1.098   4.420
13329SOL    HW140331   6.555   1.051   4.474
13329SOL    HW240332   6.684   1.030   4.377
13330SOL     OW40333   6.600   0.236   4.695
13330SOL    HW140334   6.592   0.200   4.602
13330SOL    HW240335   6.598   0.160   4.760
13331SOL     OW40336   6.176   1.487   4.215
13331SOL    HW140337   6.218   1.429   4.145
13331SOL    HW240338   6.132   1.566   4.171
13332SOL     OW40339   5.841   1.348   4.014
13332SOL    HW140340   5.745   1.349   3.987
13332SOL    HW240341   5.853   1.401   4.098
13333SOL     OW40342   5.691   1.013   5.450
13333SOL    HW140343   5.614   0.980   5.504
13333SOL    HW240344   5.776   0.983   5.492
13334SOL     OW40345   5.661   0.345   3.757
13334SOL    HW140346   5.569   0.317   3.728
13334SOL    HW240347   5.692   0.422   3.701
13335SOL     OW40348   7.026   0.856   5.122
13335SOL    HW140349   6.969   0.908   5.059
13335SOL    HW240350   7.122   0.868   5.098
13336SOL     OW40351   5.658   0.166   4.042
13336SOL    HW140352   5.641   0.249   3.988
13336SOL    HW240353   5.748   0.129   4.020
13337SOL     OW40354   6.769   1.335   3.843
13337SOL    HW140355   6.670   1.324   3.845
13337SOL    HW240356   6.803   1.350   3.936
13338SOL     OW40357   6.199   0.842   5.155
13338SOL    HW140358   6.255   0.923   5.138
13338SOL    HW240359   6.258   0.762   5.158
13339SOL     OW40360   7.079   1.767   4.683
13339SOL    HW140361   7.112   1.831   4.614
13339SOL    HW240362   7.145   1.761   4.758
13340SOL     OW40363   6.302   0.565   5.432
13340SOL    HW140364   6.321   0.630   5.506
13340SOL    HW240365   6.362   0.485   5.441
13341SOL     OW40366   7.036   1.220   5.357
13341SOL    HW140367   7.027   1.210   5.456
13341SOL    HW240368   7.132   1.213   5.331
13342SOL     OW40369   5.976   1.741   5.284
13342SOL    HW140370   5.885   1.782   5.282
13342SOL    HW240371   5.969   1.647   5.316
13343SOL     OW40372   7.260   0.883   4.978
13343SOL    HW140373   7.233   0.794   4.941
13343SOL    HW240374   7.261   0.951   4.905
13344SOL     OW40375   6.811   0.325   4.173
13344SOL    HW140376   6.876   0.251   4.162
13344SOL    HW240377   6.831   0.375   4.257
13345SOL     OW40378   6.180   0.745   4.376
13345SOL    HW140379   6.230   0.830   4.357
13345SOL    HW240380   6.092   0.747   4.328
13346SOL     OW40381   7.316   0.934   5.241
13346SOL    HW140382   7.354   1.025   5.256
13346SOL    HW240383   7.308   0.917   5.142
13347SOL     OW40384   6.445   1.374   3.740
13347SOL    HW140385   6.399   1.389   3.828
13347SOL    HW240386   6.489   1.459   3.710
13348SOL     OW40387   6.247   1.790   4.677
13348SOL    HW140388   6.201   1.878   4.664
13348SOL    HW240389   6.346   1.802   4.670
13349SOL     OW40390   6.445   0.956   4.585
13349SOL    HW140391   6.499   0.887   4.633
13349SOL    HW240392   6.413   1.025   4.651
13350SOL     OW40393   6.669   0.984   3.811
13350SOL    HW140394   6.646   1.037   3.729
13350SOL    HW240395   6.750   0.928   3.792
13351SOL     OW40396   7.447   1.569   4.575
13351SOL    HW140397   7.376   1.557   4.505
13351SOL    HW240398   7.448   1.490   4.635
13352SOL     OW40399   5.807   1.314   5.568
13352SOL    HW140400   5.742   1.241   5.547
13352SOL    HW240401   5.811   1.328   5.666
13353SOL     OW40402   5.665   1.240   4.377
13353SOL    HW140403   5.664   1.193   4.465
13353SOL    HW240404   5.747   1.212   4.326
13354SOL     OW40405   6.258   1.391   5.348
13354SOL    HW140406   6.180   1.341   5.386
13354SOL    HW240407   6.255   1.486   5.379
13355SOL     OW40408   6.014   0.424   4.244
13355SOL    HW140409   6.044   0.352   4.182
13355SOL    HW240410   5.975   0.384   4.327
13356SOL     OW40411   7.291   1.487   4.828
13356SOL    HW140412   7.198   1.462   4.801
13356SOL    HW240413   7.317   1.437   4.910
13357SOL     OW40414   5.903   0.547   5.004
13357SOL    HW140415   5.941   0.488   5.076
13357SOL    HW240416   5.943   0.521   4.916
13358SOL     OW40417   6.398   1.586   4.411
13358SOL    HW140418   6.430   1.596   4.317
13358SOL    HW240419   6.319   1.524   4.413
13359SOL     OW40420   6.356   1.330   4.025
13359SOL    HW140421   6.310   1.243   4.042
13359SOL    HW240422   6.447   1.327   4.066
13360SOL     OW40423   6.204   1.567   5.008
13360SOL    HW140424   6.199   1.649   5.065
13360SOL    HW240425   6.293   1.564   4.963
13361SOL     OW40426   6.886   0.453   4.415
13361SOL    HW140427   6.827   0.533   4.419
13361SOL    HW240428   6.901   0.418   4.508
13362SOL     OW40429   5.625   1.077   4.024
13362SOL    HW140430   5.724   1.066   4.015
13362SOL    HW240431   5.585   0.991   4.056
13363SOL     OW40432   6.461   1.646   4.061
13363SOL    HW140433   6.384   1.611   4.007
13363SOL    HW240434   6.429   1.717   4.123
13364SOL     OW40435   5.816   0.628   5.699
13364SOL    HW140436   5.723   0.626   5.736
13364SOL    HW240437   5.817   0.589   5.607
13365SOL     OW40438   5.811   0.275   6.582
13365SOL    HW140439   5.846   0.258   6.674
13365SOL    HW240440   5.723   0.230   6.570
13366SOL     OW40441   5.605   0.368   6.233
13366SOL    HW140442   5.523   0.411   6.272
13366SOL    HW240443   5.577   0.295   6.170
13367SOL     OW40444   6.155   1.275   6.751
13367SOL    HW140445   6.062   1.268   6.714
13367SOL    HW240446   6.166   1.364   6.795
13368SOL     OW40447   7.141   1.511   6.289
13368SOL    HW140448   7.084   1.495   6.370
13368SOL    HW240449   7.082   1.521   6.209
13369SOL     OW40450   6.721   0.703   6.303
13369SOL    HW140451   6.778   0.781   6.278
13369SOL    HW240452   6.661   0.729   6.379
13370SOL     OW40453   7.341   0.607   5.817
13370SOL    HW140454   7.329   0.594   5.718
13370SOL    HW240455   7.311   0.526   5.866
13371SOL     OW40456   6.354   1.144   6.609
13371SOL    HW140457   6.276   1.161   6.669
13371SOL    HW240458   6.388   1.231   6.573
13372SOL     OW40459   6.436   0.798   7.409
13372SOL    HW140460   6.432   0.874   7.474
13372SOL    HW240461   6.458   0.834   7.318
13373SOL     OW40462   6.271   1.012   6.251
13373SOL    HW140463   6.340   0.996   6.321
13373SOL    HW240464   6.198   1.069   6.289
13374SOL     OW40465   6.272   1.161   7.389
13374SOL    HW140466   6.332   1.240   7.403
13374SOL    HW240467   6.186   1.192   7.348
13375SOL     OW40468   5.921   1.435   6.647
13375SOL    HW140469   5.843   1.404   6.594
13375SOL    HW240470   5.979   1.493   6.590
13376SOL     OW40471   7.046   1.505   6.925
13376SOL    HW140472   7.070   1.599   6.951
13376SOL    HW240473   7.030   1.451   7.007
13377SOL     OW40474   6.024   0.392   7.085
13377SOL    HW140475   6.106   0.336   7.094
13377SOL    HW240476   5.943   0.334   7.089
13378SOL     OW40477   7.189   0.447   6.323
13378SOL    HW140478   7.115   0.493   6.273
13378SOL    HW240479   7.240   0.515   6.376
13379SOL     OW40480   5.817   1.713   6.069
13379SOL    HW140481   5.851   1.790   6.123
13379SOL    HW240482   5.861   1.713   5.979
13380SOL     OW40483   6.713   1.341   7.276
13380SOL    HW140484   6.760   1.341   7.364
13380SOL    HW240485   6.665   1.254   7.265
13381SOL     OW40486   5.816   1.434   6.124
13381SOL    HW140487   5.790   1.530   6.124
13381SOL    HW240488   5.745   1.380   6.169
13382SOL     OW40489   5.826   1.091   6.472
13382SOL    HW140490   5.840   1.007   6.524
13382SOL    HW240491   5.771   1.155   6.527
13383SOL     OW40492   6.206   1.786   7.025
13383SOL    HW140493   6.114   1.769   7.060
13383SOL    HW240494   6.234   1.878   7.051
13384SOL     OW40495   6.192   0.964   5.709
13384SOL    HW140496   6.199   1.048   5.655
13384SOL    HW240497   6.238   0.977   5.797
13385SOL     OW40498   5.708   0.643   6.149
13385SOL    HW140499   5.663   0.555   6.166
13385SOL    HW240500   5.707   0.697   6.233
13386SOL     OW40501   7.428   1.767   5.945
13386SOL    HW140502   7.482   1.738   6.025
13386SOL    HW240503   7.458   1.857   5.916
13387SOL     OW40504   5.613   1.596   5.703
13387SOL    HW140505   5.594   1.500   5.724
13387SOL    HW240506   5.580   1.654   5.778
13388SOL     OW40507   7.275   0.922   6.198
13388SOL    HW140508   7.370   0.893   6.206
13388SOL    HW240509   7.267   0.987   6.123
13389SOL     OW40510   7.227   1.108   6.018
13389SOL    HW140511   7.313   1.110   5.966
13389SOL    HW240512   7.241   1.155   6.106
13390SOL     OW40513   5.699   0.737   7.183
13390SOL    HW140514   5.787   0.724   7.228
13390SOL    HW240515   5.686   0.834   7.161
13391SOL     OW40516   6.199   1.365   6.312
13391SOL    HW140517   6.150   1.278   6.321
13391SOL    HW240518   6.176   1.408   6.225
13392SOL     OW40519   6.879   1.228   7.009
13392SOL    HW140520   6.916   1.155   6.951
13392SOL    HW240521   6.931   1.233   7.094
13393SOL     OW40522   5.783   0.976   6.850
13393SOL    HW140523   5.872   0.931   6.836
13393SOL    HW240524   5.710   0.911   6.831
13394SOL     OW40525   7.111   0.999   5.776
13394SOL    HW140526   7.048   0.923   5.789
13394SOL    HW240527   7.159   1.017   5.862
13395SOL     OW40528   6.773   1.792   7.202
13395SOL    HW140529   6.797   1.852   7.126
13395SOL    HW240530   6.780   1.697   7.172
13396SOL     OW40531   5.903   0.251   7.387
13396SOL    HW140532   5.974   0.322   7.393
13396SOL    HW240533   5.815   0.290   7.415
13397SOL     OW40534   7.052   1.417   6.539
13397SOL    HW140535   6.993   1.423   6.619
13397SOL    HW240536   7.037   1.329   6.493
13398SOL     OW40537   7.253   1.714   6.158
13398SOL    HW140538   7.212   1.691   6.070
13398SOL    HW240539   7.235   1.640   6.223
13399SOL     OW40540   6.184   0.729   5.856
13399SOL    HW140541   6.208   0.798   5.788
13399SOL    HW240542   6.106   0.762   5.910
13400SOL     OW40543   7.162   1.662   5.893
13400SOL    HW140544   7.251   1.708   5.896
13400SOL    HW240545   7.141   1.638   5.798
13401SOL     OW40546   6.393   0.605   7.051
13401SOL    HW140547   6.346   0.602   7.140
13401SOL    HW240548   6.342   0.550   6.985
13402SOL     OW40549   6.980   0.469   7.260
13402SOL    HW140550   6.960   0.512   7.348
13402SOL    HW240551   7.058   0.407   7.269
13403SOL     OW40552   6.559   0.890   7.158
13403SOL    HW140553   6.605   0.806   7.129
13403SOL    HW240554   6.503   0.924   7.083
13404SOL     OW40555   6.577   0.410   6.828
13404SOL    HW140556   6.500   0.444   6.882
13404SOL    HW240557   6.543   0.359   6.749
13405SOL     OW40558   6.627   0.701   6.015
13405SOL    HW140559   6.653   0.697   6.111
13405SOL    HW240560   6.542   0.650   6.001
13406SOL     OW40561   5.662   0.811   6.375
13406SOL    HW140562   5.761   0.799   6.384
13406SOL    HW240563   5.638   0.906   6.396
13407SOL     OW40564   5.716   1.821   7.157
13407SOL    HW140565   5.706   1.806   7.256
13407SOL    HW240566   5.630   1.857   7.121
13408SOL     OW40567   6.451   0.348   5.781
13408SOL    HW140568   6.510   0.411   5.732
13408SOL    HW240569   6.470   0.254   5.752
13409SOL     OW40570   7.305   0.585   7.417
13409SOL    HW140571   7.279   0.674   7.381
13409SOL    HW240572   7.303   0.517   7.344
13410SOL     OW40573   6.948   1.144   6.131
13410SOL    HW140574   7.031   1.115   6.083
13410SOL    HW240575   6.899   1.211   6.075
13411SOL     OW40576   6.136   0.196   6.471
13411SOL    HW140577   6.131   0.191   6.571
13411SOL    HW240578   6.138   0.292   6.442
13412SOL     OW40579   6.594   1.456   6.063
13412SOL    HW140580   6.548   1.528   6.011
13412SOL    HW240581   6.590   1.476   6.161
13413SOL     OW40582   5.937   1.801   6.439
13413SOL    HW140583   5.987   1.715   6.445
13413SOL    HW240584   6.002   1.878   6.436
13414SOL     OW40585   7.381   1.066   6.459
13414SOL    HW140586   7.319   1.051   6.383
13414SOL    HW240587   7.329   1.077   6.544
13415SOL     OW40588   6.813   1.550   7.092
13415SOL    HW140589   6.819   1.473   7.156
13415SOL    HW240590   6.761   1.524   7.012
13416SOL     OW40591   5.907   0.943   5.828
13416SOL    HW140592   5.989   0.982   5.786
13416SOL    HW240593   5.880   0.861   5.779
13417SOL     OW40594   7.044   0.735   6.314
13417SOL    HW140595   7.039   0.670   6.389
13417SOL    HW240596   7.124   0.794   6.327
13418SOL     OW40597   6.047   1.266   7.313
13418SOL    HW140598   5.997   1.267   7.227
13418SOL    HW240599   5.984   1.248   7.389
13419SOL     OW40600   6.697   1.776   5.823
13419SOL    HW140601   6.637   1.714   5.873
13419SOL    HW240602   6.728   1.732   5.738
13420SOL     OW40603   5.788   0.285   7.084
13420SOL    HW140604   5.708   0.345   7.071
13420SOL    HW240605   5.778   0.236   7.170
13421SOL     OW40606   7.218   1.377   5.667
13421SOL    HW140607   7.186   1.471   5.657
13421SOL    HW240608   7.142   1.314   5.655
13422SOL     OW40609   6.050   1.743   5.909
13422SOL    HW140610   6.083   1.782   5.995
13422SOL    HW240611   6.126   1.736   5.844
13423SOL     OW40612   5.835   1.785   6.827
13423SOL    HW140613   5.892   1.720   6.877
13423SOL    HW240614   5.819   1.752   6.734
13424SOL     OW40615   6.526   1.698   6.490
13424SOL    HW140616   6.606   1.641   6.511
13424SOL    HW240617   6.477   1.658   6.413
13425SOL     OW40618   5.968   0.700   6.066
13425SOL    HW140619   6.013   0.610   6.063
13425SOL    HW240620   5.874   0.689   6.099
13426SOL     OW40621   6.474   1.514   6.781
13426SOL    HW140622   6.451   1.489   6.687
13426SOL    HW240623   6.535   1.445   6.820
13427SOL     OW40624   6.937   0.590   7.019
13427SOL    HW140625   6.965   0.547   7.104
13427SOL    HW240626   6.962   0.686   7.020
13428SOL     OW40627   6.389   1.402   6.510
13428SOL    HW140628   6.479   1.416   6.468
13428SOL    HW240629   6.318   1.404   6.439
13429SOL     OW40630   6.508   0.503   6.485
13429SOL    HW140631   6.483   0.494   6.389
13429SOL    HW240632   6.556   0.421   6.516
13430SOL     OW40633   6.125   0.064   6.098
13430SOL    HW140634   6.044   0.065   6.156
13430SOL    HW240635   6.128   0.147   6.043
13431SOL     OW40636   7.020   1.188   5.627
13431SOL    HW140637   7.052   1.112   5.684
13431SOL    HW240638   6.928   1.215   5.657
13432SOL     OW40639   5.883   0.035   5.757
13432SOL    HW140640   5.932   0.119   5.736
13432SOL    HW240641   5.945  -0.030   5.802
13433SOL     OW40642   6.521   0.236   6.066
13433SOL    HW140643   6.473   0.277   5.988
13433SOL    HW240644   6.620   0.234   6.047
13434SOL     OW40645   6.662   0.683   7.050
13434SOL    HW140646   6.582   0.622   7.053
13434SOL    HW240647   6.743   0.630   7.026
13435SOL     OW40648   6.813   1.570   6.379
13435SOL    HW140649   6.834   1.644   6.314
13435SOL    HW240650   6.881   1.570   6.452
13436SOL     OW40651   6.045   1.152   6.327
13436SOL    HW140652   5.974   1.125   6.392
13436SOL    HW240653   6.019   1.124   6.234
13437SOL     OW40654   6.857   1.797   6.177
13437SOL    HW140655   6.901   1.861   6.113
13437SOL    HW240656   6.807   1.849   6.247
13438SOL     OW40657   6.618   0.549   5.602
13438SOL    HW140658   6.577   0.631   5.563
13438SOL    HW240659   6.682   0.575   5.675
13439SOL     OW40660   5.664   0.556   6.972
13439SOL    HW140661   5.756   0.555   6.931
13439SOL    HW240662   5.658   0.630   7.039
13440SOL     OW40663   6.147   0.222   6.733
13440SOL    HW140664   6.185   0.138   6.770
13440SOL    HW240665   6.059   0.241   6.777
13441SOL     OW40666   6.452   0.454   6.228
13441SOL    HW140667   6.420   0.526   6.166
13441SOL    HW240668   6.476   0.373   6.175
13442SOL     OW40669   6.603   0.039   6.339
13442SOL    HW140670   6.531   0.044   6.270
13442SOL    HW240671   6.579  -0.030   6.408
13443SOL     OW40672   7.015   1.173   6.453
13443SOL    HW140673   6.960   1.089   6.446
13443SOL    HW240674   7.041   1.202   6.361
13444SOL     OW40675   7.052   0.590   6.578
13444SOL    HW140676   7.022   0.495   6.585
13444SOL    HW240677   7.125   0.606   6.644
13445SOL     OW40678   7.443   0.833   5.963
13445SOL    HW140679   7.485   0.769   6.027
13445SOL    HW240680   7.405   0.782   5.885
13446SOL     OW40681   6.074   1.385   5.760
13446SOL    HW140682   5.987   1.370   5.807
13446SOL    HW240683   6.057   1.411   5.665
13447SOL     OW40684   7.250   1.280   6.243
13447SOL    HW140685   7.349   1.288   6.257
13447SOL    HW240686   7.205   1.364   6.274
13448SOL     OW40687   6.976   0.575   5.664
13448SOL    HW140688   6.922   0.554   5.745
13448SOL    HW240689   7.067   0.534   5.673
13449SOL     OW40690   6.113   0.256   5.914
13449SOL    HW140691   6.140   0.197   5.839
13449SOL    HW240692   6.113   0.351   5.883
13450SOL     OW40693   7.340   1.223   7.174
13450SOL    HW140694   7.431   1.184   7.161
13450SOL    HW240695   7.348   1.319   7.198
13451SOL     OW40696   6.650   1.347   6.926
13451SOL    HW140697   6.570   1.324   6.981
13451SOL    HW240698   6.733   1.321   6.975
13452SOL     OW40699   7.178   1.629   7.211
13452SOL    HW140700   7.205   1.663   7.121
13452SOL    HW240701   7.257   1.591   7.257
13453SOL     OW40702   6.697   1.195   6.686
13453SOL    HW140703   6.657   1.239   6.767
13453SOL    HW240704   6.656   1.232   6.603
13454SOL     OW40705   7.224   1.099   6.665
13454SOL    HW140706   7.229   1.180   6.724
13454SOL    HW240707   7.138   1.101   6.614
13455SOL     OW40708   6.566   1.116   7.305
13455SOL    HW140709   6.467   1.122   7.315
13455SOL    HW240710   6.589   1.036   7.249
13456SOL     OW40711   6.291   1.050   5.954
13456SOL    HW140712   6.277   1.057   6.053
13456SOL    HW240713   6.375   0.999   5.936
13457SOL     OW40714   5.996   0.813   6.837
13457SOL    HW140715   6.082   0.825   6.887
13457SOL    HW240716   5.954   0.726   6.864
13458SOL     OW40717   6.860   0.386   6.848
13458SOL    HW140718   6.881   0.460   6.912
13458SOL    HW240719   6.771   0.403   6.805
13459SOL     OW40720   5.650   1.564   6.917
13459SOL    HW140721   5.604   1.646   6.883
13459SOL    HW240722   5.748   1.583   6.926
13460SOL     OW40723   5.953   1.100   6.087
13460SOL    HW140724   5.946   1.183   6.031
13460SOL    HW240725   5.957   1.020   6.027
13461SOL     OW40726   6.152   0.537   6.451
13461SOL    HW140727   6.164   0.603   6.377
13461SOL    HW240728   6.198   0.571   6.534
13462SOL     OW40729   6.838   1.348   5.974
13462SOL    HW140730   6.888   1.425   6.014
13462SOL    HW240731   6.743   1.350   6.006
13463SOL     OW40732   6.858   1.445   6.728
13463SOL    HW140733   6.905   1.458   6.815
13463SOL    HW240734   6.792   1.371   6.737
13464SOL     OW40735   7.168   0.639   6.058
13464SOL    HW140736   7.137   0.700   6.131
13464SOL    HW240737   7.218   0.691   5.989
13465SOL     OW40738   5.940   1.510   6.915
13465SOL    HW140739   5.919   1.466   6.828
13465SOL    HW240740   6.037   1.536   6.918
13466SOL     OW40741   5.988   0.751   7.184
13466SOL    HW140742   6.056   0.806   7.137
13466SOL    HW240743   6.028   0.663   7.211
13467SOL     OW40744   7.173   0.779   7.256
13467SOL    HW140745   7.081   0.817   7.251
13467SOL    HW240746   7.233   0.826   7.191
13468SOL     OW40747   6.090   0.050   7.326
13468SOL    HW140748   6.048  -0.007   7.256
13468SOL    HW240749   6.024   0.119   7.358
13469SOL     OW40750   6.159   0.870   6.615
13469SOL    HW140751   6.203   0.959   6.606
13469SOL    HW240752   6.096   0.870   6.692
13470SOL     OW40753   6.946   0.862   6.631
13470SOL    HW140754   6.871   0.862   6.565
13470SOL    HW240755   6.983   0.770   6.640
13471SOL     OW40756   6.795   0.525   5.861
13471SOL    HW140757   6.808   0.441   5.915
13471SOL    HW240758   6.766   0.599   5.921
13472SOL     OW40759   5.893   0.213   6.817
13472SOL    HW140760   5.870   0.250   6.907
13472SOL    HW240761   5.863   0.118   6.811
13473SOL     OW40762   5.623   1.310   6.868
13473SOL    HW140763   5.676   1.261   6.936
13473SOL    HW240764   5.645   1.408   6.873
13474SOL     OW40765   6.318   0.634   6.650
13474SOL    HW140766   6.377   0.608   6.574
13474SOL    HW240767   6.290   0.730   6.639
13475SOL     OW40768   7.314   0.935   7.440
13475SOL    HW140769   7.268   0.928   7.351
13475SOL    HW240770   7.252   0.979   7.506
13476SOL     OW40771   5.893   0.063   6.204
13476SOL    HW140772   5.882   0.157   6.237
13476SOL    HW240773   5.888   0.000   6.281
13477SOL     OW40774   6.609   0.766   6.552
13477SOL    HW140775   6.624   0.787   6.648
13477SOL    HW240776   6.579   0.671   6.543
13478SOL     OW40777   6.566   1.573   7.286
13478SOL    HW140778   6.546   1.617   7.198
13478SOL    HW240779   6.605   1.482   7.270
13479SOL     OW40780   7.445   1.518   7.191
13479SOL    HW140781   7.459   1.545   7.096
13479SOL    HW240782   7.528   1.540   7.244
13480SOL     OW40783   5.936   0.898   7.390
13480SOL    HW140784   6.012   0.942   7.438
13480SOL    HW240785   5.971   0.851   7.308
13481SOL     OW40786   6.889   0.838   5.628
13481SOL    HW140787   6.923   0.745   5.643
13481SOL    HW240788   6.907   0.865   5.533
13482SOL     OW40789   6.654   1.333   6.435
13482SOL    HW140790   6.661   1.249   6.380
13482SOL    HW240791   6.716   1.402   6.399
13483SOL     OW40792   5.905   0.810   6.535
13483SOL    HW140793   5.998   0.846   6.540
13483SOL    HW240794   5.899   0.725   6.587
13484SOL     OW40795   5.925   0.509   6.592
13484SOL    HW140796   5.873   0.426   6.575
13484SOL    HW240797   6.002   0.514   6.528
13485SOL     OW40798   5.594   1.326   5.786
13485SOL    HW140799   5.501   1.347   5.755
13485SOL    HW240800   5.604   1.227   5.799
13486SOL     OW40801   5.674   1.801   6.513
13486SOL    HW140802   5.632   1.715   6.486
13486SOL    HW240803   5.768   1.804   6.479
13487SOL     OW40804   6.090   1.568   6.496
13487SOL    HW140805   6.156   1.642   6.505
13487SOL    HW240806   6.134   1.489   6.454
13488SOL     OW40807   6.588   0.796   6.824
13488SOL    HW140808   6.629   0.764   6.910
13488SOL    HW240809   6.492   0.769   6.821
13489SOL     OW40810   5.626   0.544   6.700
13489SOL    HW140811   5.711   0.511   6.659
13489SOL    HW240812   5.639   0.559   6.798
13490SOL     OW40813   5.775   0.520   7.308
13490SOL    HW140814   5.834   0.480   7.238
13490SOL    HW240815   5.717   0.591   7.267
13491SOL     OW40816   6.955   0.950   7.246
13491SOL    HW140817   6.994   1.039   7.266
13491SOL    HW240818   6.965   0.930   7.149
13492SOL     OW40819   6.401   0.572   5.911
13492SOL    HW140820   6.408   0.483   5.865
13492SOL    HW240821   6.307   0.606   5.903
13493SOL     OW40822   5.838   1.564   7.330
13493SOL    HW140823   5.808   1.621   7.406
13493SOL    HW240824   5.831   1.467   7.356
13494SOL     OW40825   6.257   0.464   6.855
13494SOL    HW140826   6.223   0.375   6.825
13494SOL    HW240827   6.283   0.518   6.775
13495SOL     OW40828   6.516   1.678   7.051
13495SOL    HW140829   6.492   1.660   6.956
13495SOL    HW240830   6.546   1.772   7.061
13496SOL     OW40831   6.059   0.500   5.777
13496SOL    HW140832   6.120   0.580   5.781
13496SOL    HW240833   5.964   0.531   5.784
13497SOL     OW40834   5.745   1.137   7.052
13497SOL    HW140835   5.767   1.076   7.128
13497SOL    HW240836   5.755   1.088   6.966
13498SOL     OW40837   6.933   1.059   6.820
13498SOL    HW140838   6.957   0.996   6.746
13498SOL    HW240839   6.843   1.099   6.802
13499SOL     OW40840   6.888   0.855   5.895
13499SOL    HW140841   6.802   0.824   5.937
13499SOL    HW240842   6.884   0.841   5.796
13500SOL     OW40843   7.345   1.747   6.740
13500SOL    HW140844   7.406   1.777   6.667
13500SOL    HW240845   7.307   1.658   6.718
13501SOL     OW40846   6.838   1.731   6.714
13501SOL    HW140847   6.922   1.736   6.660
13501SOL    HW240848   6.815   1.635   6.732
13502SOL     OW40849   5.669   1.258   6.608
13502SOL    HW140850   5.664   1.257   6.708
13502SOL    HW240851   5.586   1.217   6.570
13503SOL     OW40852   6.274   1.662   7.302
13503SOL    HW140853   6.218   1.743   7.311
13503SOL    HW240854   6.326   1.666   7.216
13504SOL     OW40855   6.974   1.573   6.063
13504SOL    HW140856   7.041   1.585   5.989
13504SOL    HW240857   6.934   1.662   6.086
13505SOL     OW40858   5.716   1.794   7.437
13505SOL    HW140859   5.675   1.720   7.490
13505SOL    HW240860   5.780   1.845   7.495
13506SOL     OW40861   6.866   0.927   6.258
13506SOL    HW140862   6.926   0.846   6.260
13506SOL    HW240863   6.906   0.996   6.198
13507SOL     OW40864   6.416   1.273   7.008
13507SOL    HW140865   6.411   1.306   7.103
13507SOL    HW240866   6.330   1.292   6.962
13508SOL     OW40867   6.258   1.616   5.740
13508SOL    HW140868   6.267   1.626   5.641
13508SOL    HW240869   6.218   1.527   5.761
13509SOL     OW40870   7.236   1.720   6.980
13509SOL    HW140871   7.289   1.730   6.896
13509SOL    HW240872   7.209   1.810   7.014
13510SOL     OW40873   5.849   0.326   6.306
13510SOL    HW140874   5.770   0.377   6.272
13510SOL    HW240875   5.840   0.311   6.404
13511SOL     OW40876   6.780   1.612   5.617
13511SOL    HW140877   6.786   1.519   5.654
13511SOL    HW240878   6.721   1.612   5.537
13512SOL     OW40879   6.408   1.002   6.958
13512SOL    HW140880   6.448   1.001   6.866
13512SOL    HW240881   6.418   1.094   6.998
13513SOL     OW40882   6.502   0.910   5.877
13513SOL    HW140883   6.565   0.948   5.809
13513SOL    HW240884   6.542   0.827   5.916
13514SOL     OW40885   7.090   1.607   5.630
13514SOL    HW140886   6.998   1.644   5.637
13514SOL    HW240887   7.128   1.627   5.540
13515SOL     OW40888   5.958   1.288   7.076
13515SOL    HW140889   5.945   1.381   7.042
13515SOL    HW240890   5.874   1.236   7.063
13516SOL     OW40891   7.200   1.292   6.875
13516SOL    HW140892   7.260   1.295   6.955
13516SOL    HW240893   7.125   1.356   6.888
13517SOL     OW40894   6.625   1.098   6.282
13517SOL    HW140895   6.555   1.051   6.336
13517SOL    HW240896   6.684   1.030   6.239
13518SOL     OW40897   6.600   0.236   6.557
13518SOL    HW140898   6.592   0.200   6.464
13518SOL    HW240899   6.598   0.160   6.622
13519SOL     OW40900   6.176   1.487   6.077
13519SOL    HW140901   6.218   1.429   6.007
13519SOL    HW240902   6.132   1.566   6.033
13520SOL     OW40903   5.841   1.348   5.876
13520SOL    HW140904   5.745   1.349   5.849
13520SOL    HW240905   5.853   1.401   5.960
13521SOL     OW40906   5.691   1.013   7.312
13521SOL    HW140907   5.614   0.980   7.366
13521SOL    HW240908   5.776   0.983   7.354
13522SOL     OW40909   5.661   0.345   5.619
13522SOL    HW140910   5.569   0.317   5.590
13522SOL    HW240911   5.692   0.422   5.563
13523SOL     OW40912   7.026   0.856   6.984
13523SOL    HW140913   6.969   0.908   6.921
13523SOL    HW240914   7.122   0.868   6.960
13524SOL     OW40915   5.658   0.166   5.904
13524SOL    HW140916   5.641   0.249   5.850
13524SOL    HW240917   5.748   0.129   5.882
13525SOL     OW40918   6.769   1.335   5.705
13525SOL    HW140919   6.670   1.324   5.707
13525SOL    HW240920   6.803   1.350   5.798
13526SOL     OW40921   6.199   0.842   7.017
13526SOL    HW140922   6.255   0.923   7.000
13526SOL    HW240923   6.258   0.762   7.020
13527SOL     OW40924   7.079   1.767   6.545
13527SOL    HW140925   7.112   1.831   6.476
13527SOL    HW240926   7.145   1.761   6.620
13528SOL     OW40927   6.302   0.565   7.294
13528SOL    HW140928   6.321   0.630   7.368
13528SOL    HW240929   6.362   0.485   7.303
13529SOL     OW40930   7.036   1.220   7.219
13529SOL    HW140931   7.027   1.210   7.318
13529SOL    HW240932   7.132   1.213   7.193
13530SOL     OW40933   5.976   1.741   7.146
13530SOL    HW140934   5.885   1.782   7.144
13530SOL    HW240935   5.969   1.647   7.178
13531SOL     OW40936   7.260   0.883   6.840
13531SOL    HW140937   7.233   0.794   6.803
13531SOL    HW240938   7.261   0.951   6.767
13532SOL     OW40939   6.811   0.325   6.035
13532SOL    HW140940   6.876   0.251   6.024
13532SOL    HW240941   6.831   0.375   6.119
13533SOL     OW40942   6.180   0.745   6.238
13533SOL    HW140943   6.230   0.830   6.219
13533SOL    HW240944   6.092   0.747   6.190
13534SOL     OW40945   7.316   0.934   7.103
13534SOL    HW140946   7.354   1.025   7.118
13534SOL    HW240947   7.308   0.917   7.004
13535SOL     OW40948   6.445   1.374   5.602
13535SOL    HW140949   6.399   1.389   5.690
13535SOL    HW240950   6.489   1.459   5.572
13536SOL     OW40951   6.247   1.790   6.539
13536SOL    HW140952   6.201   1.878   6.526
13536SOL    HW240953   6.346   1.802   6.532
13537SOL     OW40954   6.445   0.956   6.447
13537SOL    HW140955   6.499   0.887   6.495
13537SOL    HW240956   6.413   1.025   6.513
13538SOL     OW40957   6.669   0.984   5.673
13538SOL    HW140958   6.646   1.037   5.591
13538SOL    HW240959   6.750   0.928   5.654
13539SOL     OW40960   7.447   1.569   6.437
13539SOL    HW140961   7.376   1.557   6.367
13539SOL    HW240962   7.448   1.490   6.497
13540SOL     OW40963   5.807   1.314   7.430
13540SOL    HW140964   5.742   1.241   7.409
13540SOL    HW240965   5.811   1.328   7.528
13541SOL     OW40966   5.665   1.240   6.239
13541SOL    HW140967   5.664   1.193   6.327
13541SOL    HW240968   5.747   1.212   6.188
13542SOL     OW40969   6.258   1.391   7.210
13542SOL    HW140970   6.180   1.341   7.248
13542SOL    HW240971   6.255   1.486   7.241
13543SOL     OW40972   6.014   0.424   6.106
13543SOL    HW140973   6.044   0.352   6.044
13543SOL    HW240974   5.975   0.384   6.189
13544SOL     OW40975   7.291   1.487   6.690
13544SOL    HW140976   7.198   1.462   6.663
13544SOL    HW240977   7.317   1.437   6.772
13545SOL     OW40978   5.903   0.547   6.866
13545SOL    HW140979   5.941   0.488   6.938
13545SOL    HW240980   5.943   0.521   6.778
13546SOL     OW40981   6.398   1.586   6.273
13546SOL    HW140982   6.430   1.596   6.179
13546SOL    HW240983   6.319   1.524   6.275
13547SOL     OW40984   6.356   1.330   5.887
13547SOL    HW140985   6.310   1.243   5.904
13547SOL    HW240986   6.447   1.327   5.928
13548SOL     OW40987   6.204   1.567   6.870
13548SOL    HW140988   6.199   1.649   6.927
13548SOL    HW240989   6.293   1.564   6.825
13549SOL     OW40990   6.886   0.453   6.277
13549SOL    HW140991   6.827   0.533   6.281
13549SOL    HW240992   6.901   0.418   6.370
13550SOL     OW40993   5.625   1.077   5.886
13550SOL    HW140994   5.724   1.066   5.877
13550SOL    HW240995   5.585   0.991   5.918
13551SOL     OW40996   6.461   1.646   5.923
13551SOL    HW140997   6.384   1.611   5.869
13551SOL    HW240998   6.429   1.717   5.985
13552SOL     OW40999   5.613   1.596   7.565
13552SOL    HW141000   5.594   1.500   7.586
13552SOL    HW241001   5.580   1.654   7.640
13553SOL     OW41002   7.111   0.999   7.638
13553SOL    HW141003   7.048   0.923   7.651
13553SOL    HW241004   7.159   1.017   7.724
13554SOL     OW41005   5.907   0.943   7.690
13554SOL    HW141006   5.989   0.982   7.648
13554SOL    HW241007   5.880   0.861   7.641
13555SOL     OW41008   6.697   1.776   7.685
13555SOL    HW141009   6.637   1.714   7.735
13555SOL    HW241010   6.728   1.732   7.600
13556SOL     OW41011   7.218   1.377   7.529
13556SOL    HW141012   7.186   1.471   7.519
13556SOL    HW241013   7.142   1.314   7.517
13557SOL     OW41014   7.020   1.188   7.489
13557SOL    HW141015   7.052   1.112   7.546
13557SOL    HW241016   6.928   1.215   7.519
13558SOL     OW41017   6.618   0.549   7.464
13558SOL    HW141018   6.577   0.631   7.425
13558SOL    HW241019   6.682   0.575   7.537
13559SOL     OW41020   6.074   1.385   7.622
13559SOL    HW141021   5.987   1.370   7.669
13559SOL    HW241022   6.057   1.411   7.527
13560SOL     OW41023   6.976   0.575   7.526
13560SOL    HW141024   6.922   0.554   7.607
13560SOL    HW241025   7.067   0.534   7.535
13561SOL     OW41026   6.889   0.838   7.490
13561SOL    HW141027   6.923   0.745   7.505
13561SOL    HW241028   6.907   0.865   7.395
13562SOL     OW41029   6.059   0.500   7.639
13562SOL    HW141030   6.120   0.580   7.643
13562SOL    HW241031   5.964   0.531   7.646
13563SOL     OW41032   6.974   1.573   7.925
13563SOL    HW141033   7.041   1.585   7.851
13563SOL    HW241034   6.934   1.662   7.948
13564SOL     OW41035   6.258   1.616   7.602
13564SOL    HW141036   6.267   1.626   7.503
13564SOL    HW241037   6.218   1.527   7.623
13565SOL     OW41038   6.780   1.612   7.479
13565SOL    HW141039   6.786   1.519   7.516
13565SOL    HW241040   6.721   1.612   7.399
13566SOL     OW41041   7.090   1.607   7.492
13566SOL    HW141042   6.998   1.644   7.499
13566SOL    HW241043   7.128   1.627   7.402
13567SOL     OW41044   5.661   0.345   7.481
13567SOL    HW141045   5.569   0.317   7.452
13567SOL    HW241046   5.692   0.422   7.425
13568SOL     OW41047   6.445   1.374   7.464
13568SOL    HW141048   6.399   1.389   7.552
13568SOL    HW241049   6.489   1.459   7.434
13569SOL     OW41050   6.669   0.984   7.535
13569SOL    HW141051   6.646   1.037   7.453
13569SOL    HW241052   6.750   0.928   7.516
13570SOL     OW41053   5.625   1.077   7.748
13570SOL    HW141054   5.724   1.066   7.739
13570SOL    HW241055   5.585   0.991   7.780
13571SOL     OW41056   5.811   2.137   0.996
13571SOL    HW141057   5.846   2.120   1.088
13571SOL    HW241058   5.723   2.092   0.984
13572SOL     OW41059   5.605   2.230   0.647
13572SOL    HW141060   5.523   2.273   0.686
13572SOL    HW241061   5.577   2.157   0.584
13573SOL     OW41062   6.155   3.137   1.165
13573SOL    HW141063   6.062   3.130   1.128
13573SOL    HW241064   6.166   3.226   1.209
13574SOL     OW41065   7.141   3.373   0.703
13574SOL    HW141066   7.084   3.357   0.784
13574SOL    HW241067   7.082   3.383   0.623
13575SOL     OW41068   6.721   2.565   0.717
13575SOL    HW141069   6.778   2.643   0.692
13575SOL    HW241070   6.661   2.591   0.793
13576SOL     OW41071   7.341   2.469   0.231
13576SOL    HW141072   7.329   2.456   0.132
13576SOL    HW241073   7.311   2.388   0.280
13577SOL     OW41074   6.354   3.006   1.023
13577SOL    HW141075   6.276   3.023   1.083
13577SOL    HW241076   6.388   3.093   0.987
13578SOL     OW41077   6.436   2.660   1.823
13578SOL    HW141078   6.432   2.736   1.888
13578SOL    HW241079   6.458   2.696   1.732
13579SOL     OW41080   6.271   2.874   0.665
13579SOL    HW141081   6.340   2.858   0.735
13579SOL    HW241082   6.198   2.931   0.703
13580SOL     OW41083   6.272   3.023   1.803
13580SOL    HW141084   6.332   3.102   1.817
13580SOL    HW241085   6.186   3.054   1.762
13581SOL     OW41086   5.921   3.297   1.061
13581SOL    HW141087   5.843   3.266   1.008
13581SOL    HW241088   5.979   3.355   1.004
13582SOL     OW41089   7.046   3.367   1.339
13582SOL    HW141090   7.070   3.461   1.365
13582SOL    HW241091   7.030   3.313   1.421
13583SOL     OW41092   6.024   2.254   1.499
13583SOL    HW141093   6.106   2.198   1.508
13583SOL    HW241094   5.943   2.196   1.503
13584SOL     OW41095   7.189   2.309   0.737
13584SOL    HW141096   7.115   2.355   0.687
13584SOL    HW241097   7.240   2.377   0.790
13585SOL     OW41098   5.817   3.575   0.483
13585SOL    HW141099   5.851   3.652   0.537
13585SOL    HW241100   5.861   3.575   0.393
13586SOL     OW41101   6.713   3.203   1.690
13586SOL    HW141102   6.760   3.203   1.778
13586SOL    HW241103   6.665   3.116   1.679
13587SOL     OW41104   5.816   3.296   0.538
13587SOL    HW141105   5.790   3.392   0.538
13587SOL    HW241106   5.745   3.242   0.583
13588SOL     OW41107   5.826   2.953   0.886
13588SOL    HW141108   5.840   2.869   0.938
13588SOL    HW241109   5.771   3.017   0.941
13589SOL     OW41110   6.206   3.648   1.439
13589SOL    HW141111   6.114   3.631   1.474
13589SOL    HW241112   6.234   3.740   1.465
13590SOL     OW41113   7.180   1.976   1.480
13590SOL    HW141114   7.162   2.043   1.408
13590SOL    HW241115   7.177   2.022   1.569
13591SOL     OW41116   5.708   2.505   0.563
13591SOL    HW141117   5.663   2.417   0.580
13591SOL    HW241118   5.707   2.559   0.647
13592SOL     OW41119   7.428   3.629   0.359
13592SOL    HW141120   7.482   3.600   0.439
13592SOL    HW241121   7.458   3.719   0.330
13593SOL     OW41122   7.275   2.784   0.612
13593SOL    HW141123   7.370   2.755   0.620
13593SOL    HW241124   7.267   2.849   0.537
13594SOL     OW41125   5.699   2.599   1.597
13594SOL    HW141126   5.787   2.586   1.642
13594SOL    HW241127   5.686   2.696   1.575
13595SOL     OW41128   6.199   3.227   0.726
13595SOL    HW141129   6.150   3.140   0.735
13595SOL    HW241130   6.176   3.270   0.639
13596SOL     OW41131   6.879   3.090   1.423
13596SOL    HW141132   6.916   3.017   1.365
13596SOL    HW241133   6.931   3.095   1.508
13597SOL     OW41134   6.395   1.866   0.502
13597SOL    HW141135   6.435   1.957   0.493
13597SOL    HW241136   6.295   1.874   0.508
13598SOL     OW41137   5.783   2.838   1.264
13598SOL    HW141138   5.872   2.793   1.250
13598SOL    HW241139   5.710   2.773   1.245
13599SOL     OW41140   6.773   3.654   1.616
13599SOL    HW141141   6.797   3.714   1.540
13599SOL    HW241142   6.780   3.559   1.586
13600SOL     OW41143   5.903   2.113   1.801
13600SOL    HW141144   5.974   2.184   1.807
13600SOL    HW241145   5.815   2.152   1.829
13601SOL     OW41146   7.052   3.279   0.953
13601SOL    HW141147   6.993   3.285   1.033
13601SOL    HW241148   7.037   3.191   0.907
13602SOL     OW41149   7.253   3.576   0.572
13602SOL    HW141150   7.212   3.553   0.484
13602SOL    HW241151   7.235   3.502   0.637
13603SOL     OW41152   6.867   2.207   0.944
13603SOL    HW141153   6.781   2.157   0.931
13603SOL    HW241154   6.929   2.153   1.000
13604SOL     OW41155   6.393   2.467   1.465
13604SOL    HW141156   6.346   2.464   1.554
13604SOL    HW241157   6.342   2.412   1.399
13605SOL     OW41158   6.980   2.331   1.674
13605SOL    HW141159   6.960   2.374   1.762
13605SOL    HW241160   7.058   2.269   1.683
13606SOL     OW41161   6.559   2.752   1.572
13606SOL    HW141162   6.605   2.668   1.543
13606SOL    HW241163   6.503   2.786   1.497
13607SOL     OW41164   6.577   2.272   1.242
13607SOL    HW141165   6.500   2.306   1.296
13607SOL    HW241166   6.543   2.221   1.163
13608SOL     OW41167   6.627   2.563   0.429
13608SOL    HW141168   6.653   2.559   0.525
13608SOL    HW241169   6.542   2.512   0.415
13609SOL     OW41170   5.662   2.673   0.789
13609SOL    HW141171   5.761   2.661   0.798
13609SOL    HW241172   5.638   2.768   0.810
13610SOL     OW41173   5.716   3.683   1.571
13610SOL    HW141174   5.706   3.668   1.670
13610SOL    HW241175   5.630   3.719   1.535
13611SOL     OW41176   7.305   2.447   1.831
13611SOL    HW141177   7.279   2.536   1.795
13611SOL    HW241178   7.303   2.379   1.758
13612SOL     OW41179   6.948   3.006   0.545
13612SOL    HW141180   7.031   2.977   0.497
13612SOL    HW241181   6.899   3.073   0.489
13613SOL     OW41182   6.136   2.058   0.885
13613SOL    HW141183   6.131   2.053   0.985
13613SOL    HW241184   6.138   2.154   0.856
13614SOL     OW41185   6.594   3.318   0.477
13614SOL    HW141186   6.548   3.390   0.425
13614SOL    HW241187   6.590   3.338   0.575
13615SOL     OW41188   5.937   3.663   0.853
13615SOL    HW141189   5.987   3.577   0.859
13615SOL    HW241190   6.002   3.740   0.850
13616SOL     OW41191   7.381   2.928   0.873
13616SOL    HW141192   7.319   2.913   0.797
13616SOL    HW241193   7.329   2.939   0.958
13617SOL     OW41194   6.813   3.412   1.506
13617SOL    HW141195   6.819   3.335   1.570
13617SOL    HW241196   6.761   3.386   1.426
13618SOL     OW41197   7.044   2.597   0.728
13618SOL    HW141198   7.039   2.532   0.803
13618SOL    HW241199   7.124   2.656   0.741
13619SOL     OW41200   6.047   3.128   1.727
13619SOL    HW141201   5.997   3.129   1.641
13619SOL    HW241202   5.984   3.110   1.803
13620SOL     OW41203   5.788   2.147   1.498
13620SOL    HW141204   5.708   2.207   1.485
13620SOL    HW241205   5.778   2.098   1.584
13621SOL     OW41206   6.986   1.969   0.426
13621SOL    HW141207   6.962   1.932   0.336
13621SOL    HW241208   7.085   1.985   0.430
13622SOL     OW41209   5.835   3.647   1.241
13622SOL    HW141210   5.892   3.582   1.291
13622SOL    HW241211   5.819   3.614   1.148
13623SOL     OW41212   6.526   3.560   0.904
13623SOL    HW141213   6.606   3.503   0.925
13623SOL    HW241214   6.477   3.520   0.827
13624SOL     OW41215   5.968   2.562   0.480
13624SOL    HW141216   6.013   2.472   0.477
13624SOL    HW241217   5.874   2.551   0.513
13625SOL     OW41218   7.133   2.084   1.729
13625SOL    HW141219   7.128   2.121   1.821
13625SOL    HW241220   7.061   2.015   1.717
13626SOL     OW41221   6.367   2.126   1.749
13626SOL    HW141222   6.434   2.065   1.792
13626SOL    HW241223   6.294   2.145   1.814
13627SOL     OW41224   6.474   3.376   1.195
13627SOL    HW141225   6.451   3.351   1.101
13627SOL    HW241226   6.535   3.307   1.234
13628SOL     OW41227   6.937   2.452   1.433
13628SOL    HW141228   6.965   2.409   1.518
13628SOL    HW241229   6.962   2.548   1.434
13629SOL     OW41230   6.389   3.264   0.924
13629SOL    HW141231   6.479   3.278   0.882
13629SOL    HW241232   6.318   3.266   0.853
13630SOL     OW41233   6.508   2.365   0.899
13630SOL    HW141234   6.483   2.356   0.803
13630SOL    HW241235   6.556   2.283   0.930
13631SOL     OW41236   6.125   1.926   0.512
13631SOL    HW141237   6.044   1.927   0.570
13631SOL    HW241238   6.128   2.009   0.457
13632SOL     OW41239   6.521   2.098   0.480
13632SOL    HW141240   6.473   2.139   0.402
13632SOL    HW241241   6.620   2.096   0.461
13633SOL     OW41242   6.662   2.545   1.464
13633SOL    HW141243   6.582   2.484   1.467
13633SOL    HW241244   6.743   2.492   1.440
13634SOL     OW41245   6.813   3.432   0.793
13634SOL    HW141246   6.834   3.506   0.728
13634SOL    HW241247   6.881   3.432   0.866
13635SOL     OW41248   6.045   3.014   0.741
13635SOL    HW141249   5.974   2.987   0.806
13635SOL    HW241250   6.019   2.986   0.648
13636SOL     OW41251   6.857   3.659   0.591
13636SOL    HW141252   6.901   3.723   0.527
13636SOL    HW241253   6.807   3.711   0.661
13637SOL     OW41254   6.618   2.411   0.016
13637SOL    HW141255   6.577   2.493  -0.023
13637SOL    HW241256   6.682   2.437   0.089
13638SOL     OW41257   5.664   2.418   1.386
13638SOL    HW141258   5.756   2.417   1.345
13638SOL    HW241259   5.658   2.492   1.453
13639SOL     OW41260   6.147   2.084   1.147
13639SOL    HW141261   6.185   2.000   1.184
13639SOL    HW241262   6.059   2.103   1.191
13640SOL     OW41263   6.452   2.316   0.642
13640SOL    HW141264   6.420   2.388   0.580
13640SOL    HW241265   6.476   2.235   0.589
13641SOL     OW41266   6.603   1.901   0.753
13641SOL    HW141267   6.531   1.906   0.684
13641SOL    HW241268   6.579   1.832   0.822
13642SOL     OW41269   7.015   3.035   0.867
13642SOL    HW141270   6.960   2.951   0.860
13642SOL    HW241271   7.041   3.064   0.775
13643SOL     OW41272   7.052   2.452   0.992
13643SOL    HW141273   7.022   2.357   0.999
13643SOL    HW241274   7.125   2.468   1.058
13644SOL     OW41275   7.250   3.142   0.657
13644SOL    HW141276   7.349   3.150   0.671
13644SOL    HW241277   7.205   3.226   0.688
13645SOL     OW41278   6.113   2.118   0.328
13645SOL    HW141279   6.140   2.059   0.253
13645SOL    HW241280   6.113   2.213   0.297
13646SOL     OW41281   7.340   3.085   1.588
13646SOL    HW141282   7.431   3.046   1.575
13646SOL    HW241283   7.348   3.181   1.612
13647SOL     OW41284   6.650   3.209   1.340
13647SOL    HW141285   6.570   3.186   1.395
13647SOL    HW241286   6.733   3.183   1.389
13648SOL     OW41287   7.178   3.491   1.625
13648SOL    HW141288   7.205   3.525   1.535
13648SOL    HW241289   7.257   3.453   1.671
13649SOL     OW41290   6.697   3.057   1.100
13649SOL    HW141291   6.657   3.101   1.181
13649SOL    HW241292   6.656   3.094   1.017
13650SOL     OW41293   7.224   2.961   1.079
13650SOL    HW141294   7.229   3.042   1.138
13650SOL    HW241295   7.138   2.963   1.028
13651SOL     OW41296   6.501   1.951   1.402
13651SOL    HW141297   6.526   1.931   1.307
13651SOL    HW241298   6.573   2.007   1.444
13652SOL     OW41299   6.566   2.978   1.719
13652SOL    HW141300   6.467   2.984   1.729
13652SOL    HW241301   6.589   2.898   1.663
13653SOL     OW41302   5.996   2.675   1.251
13653SOL    HW141303   6.082   2.687   1.301
13653SOL    HW241304   5.954   2.588   1.278
13654SOL     OW41305   6.860   2.248   1.262
13654SOL    HW141306   6.881   2.322   1.326
13654SOL    HW241307   6.771   2.265   1.219
13655SOL     OW41308   5.650   3.426   1.331
13655SOL    HW141309   5.604   3.508   1.297
13655SOL    HW241310   5.748   3.445   1.340
13656SOL     OW41311   5.953   2.962   0.501
13656SOL    HW141312   5.946   3.045   0.445
13656SOL    HW241313   5.957   2.882   0.441
13657SOL     OW41314   6.152   2.399   0.865
13657SOL    HW141315   6.164   2.465   0.791
13657SOL    HW241316   6.198   2.433   0.948
13658SOL     OW41317   6.838   3.210   0.388
13658SOL    HW141318   6.888   3.287   0.428
13658SOL    HW241319   6.743   3.212   0.420
13659SOL     OW41320   6.858   3.307   1.142
13659SOL    HW141321   6.905   3.320   1.229
13659SOL    HW241322   6.792   3.233   1.151
13660SOL     OW41323   7.168   2.501   0.472
13660SOL    HW141324   7.137   2.562   0.545
13660SOL    HW241325   7.218   2.553   0.403
13661SOL     OW41326   5.940   3.372   1.329
13661SOL    HW141327   5.919   3.328   1.242
13661SOL    HW241328   6.037   3.398   1.332
13662SOL     OW41329   5.988   2.613   1.598
13662SOL    HW141330   6.056   2.668   1.551
13662SOL    HW241331   6.028   2.525   1.625
13663SOL     OW41332   7.173   2.641   1.670
13663SOL    HW141333   7.081   2.679   1.665
13663SOL    HW241334   7.233   2.688   1.605
13664SOL     OW41335   6.599   1.967   1.770
13664SOL    HW141336   6.605   2.052   1.718
13664SOL    HW241337   6.631   1.891   1.713
13665SOL     OW41338   6.090   1.912   1.740
13665SOL    HW141339   6.048   1.855   1.670
13665SOL    HW241340   6.024   1.981   1.772
13666SOL     OW41341   6.159   2.732   1.029
13666SOL    HW141342   6.203   2.821   1.020
13666SOL    HW241343   6.096   2.732   1.106
13667SOL     OW41344   6.946   2.724   1.045
13667SOL    HW141345   6.871   2.724   0.979
13667SOL    HW241346   6.983   2.632   1.054
13668SOL     OW41347   6.795   2.387   0.275
13668SOL    HW141348   6.808   2.303   0.329
13668SOL    HW241349   6.766   2.461   0.335
13669SOL     OW41350   5.893   2.075   1.231
13669SOL    HW141351   5.870   2.112   1.321
13669SOL    HW241352   5.863   1.980   1.225
13670SOL     OW41353   5.623   3.172   1.282
13670SOL    HW141354   5.676   3.123   1.350
13670SOL    HW241355   5.645   3.270   1.287
13671SOL     OW41356   6.318   2.496   1.064
13671SOL    HW141357   6.377   2.470   0.988
13671SOL    HW241358   6.290   2.592   1.053
13672SOL     OW41359   7.314   2.797   1.854
13672SOL    HW141360   7.268   2.790   1.765
13672SOL    HW241361   7.252   2.841   1.920
13673SOL     OW41362   5.893   1.925   0.618
13673SOL    HW141363   5.882   2.019   0.651
13673SOL    HW241364   5.888   1.862   0.695
13674SOL     OW41365   6.609   2.628   0.966
13674SOL    HW141366   6.624   2.649   1.062
13674SOL    HW241367   6.579   2.533   0.957
13675SOL     OW41368   6.566   3.435   1.700
13675SOL    HW141369   6.546   3.479   1.612
13675SOL    HW241370   6.605   3.344   1.684
13676SOL     OW41371   7.445   3.380   1.605
13676SOL    HW141372   7.459   3.407   1.510
13676SOL    HW241373   7.528   3.402   1.658
13677SOL     OW41374   5.936   2.760   1.804
13677SOL    HW141375   6.012   2.804   1.852
13677SOL    HW241376   5.971   2.713   1.722
13678SOL     OW41377   6.654   3.195   0.849
13678SOL    HW141378   6.661   3.111   0.794
13678SOL    HW241379   6.716   3.264   0.813
13679SOL     OW41380   5.905   2.672   0.949
13679SOL    HW141381   5.998   2.708   0.954
13679SOL    HW241382   5.899   2.587   1.001
13680SOL     OW41383   5.925   2.371   1.006
13680SOL    HW141384   5.873   2.288   0.989
13680SOL    HW241385   6.002   2.376   0.942
13681SOL     OW41386   6.724   2.242   1.678
13681SOL    HW141387   6.679   2.305   1.742
13681SOL    HW241388   6.817   2.273   1.661
13682SOL     OW41389   6.746   2.069   1.477
13682SOL    HW141390   6.746   2.133   1.554
13682SOL    HW241391   6.774   2.117   1.394
13683SOL     OW41392   5.674   3.663   0.927
13683SOL    HW141393   5.632   3.577   0.900
13683SOL    HW241394   5.768   3.666   0.893
13684SOL     OW41395   6.090   3.430   0.910
13684SOL    HW141396   6.156   3.504   0.919
13684SOL    HW241397   6.134   3.351   0.868
13685SOL     OW41398   6.588   2.658   1.238
13685SOL    HW141399   6.629   2.626   1.324
13685SOL    HW241400   6.492   2.631   1.235
13686SOL     OW41401   5.626   2.406   1.114
13686SOL    HW141402   5.711   2.373   1.073
13686SOL    HW241403   5.639   2.421   1.212
13687SOL     OW41404   5.775   2.382   1.722
13687SOL    HW141405   5.834   2.342   1.652
13687SOL    HW241406   5.717   2.453   1.681
13688SOL     OW41407   6.955   2.812   1.660
13688SOL    HW141408   6.994   2.901   1.680
13688SOL    HW241409   6.965   2.792   1.563
13689SOL     OW41410   7.243   2.466   1.206
13689SOL    HW141411   7.205   2.397   1.268
13689SOL    HW241412   7.325   2.430   1.162
13690SOL     OW41413   5.838   3.426   1.744
13690SOL    HW141414   5.808   3.483   1.820
13690SOL    HW241415   5.831   3.329   1.770
13691SOL     OW41416   6.257   2.326   1.269
13691SOL    HW141417   6.223   2.237   1.239
13691SOL    HW241418   6.283   2.380   1.189
13692SOL     OW41419   6.516   3.540   1.465
13692SOL    HW141420   6.492   3.522   1.370
13692SOL    HW241421   6.546   3.634   1.475
13693SOL     OW41422   5.745   2.999   1.466
13693SOL    HW141423   5.767   2.938   1.542
13693SOL    HW241424   5.755   2.950   1.380
13694SOL     OW41425   6.933   2.921   1.234
13694SOL    HW141426   6.957   2.858   1.160
13694SOL    HW241427   6.843   2.961   1.216
13695SOL     OW41428   6.888   2.717   0.309
13695SOL    HW141429   6.802   2.686   0.351
13695SOL    HW241430   6.884   2.703   0.210
13696SOL     OW41431   7.345   3.609   1.154
13696SOL    HW141432   7.406   3.639   1.081
13696SOL    HW241433   7.307   3.520   1.132
13697SOL     OW41434   6.838   3.593   1.128
13697SOL    HW141435   6.922   3.598   1.074
13697SOL    HW241436   6.815   3.497   1.146
13698SOL     OW41437   5.669   3.120   1.022
13698SOL    HW141438   5.664   3.119   1.122
13698SOL    HW241439   5.586   3.079   0.984
13699SOL     OW41440   6.274   3.524   1.716
13699SOL    HW141441   6.218   3.605   1.725
13699SOL    HW241442   6.326   3.528   1.630
13700SOL     OW41443   7.312   1.997   0.523
13700SOL    HW141444   7.385   1.980   0.456
13700SOL    HW241445   7.281   1.910   0.561
13701SOL     OW41446   6.974   3.435   0.477
13701SOL    HW141447   7.041   3.447   0.403
13701SOL    HW241448   6.934   3.524   0.500
13702SOL     OW41449   5.716   3.656   1.851
13702SOL    HW141450   5.675   3.582   1.904
13702SOL    HW241451   5.780   3.707   1.909
13703SOL     OW41452   6.866   2.789   0.672
13703SOL    HW141453   6.926   2.708   0.674
13703SOL    HW241454   6.906   2.858   0.612
13704SOL     OW41455   6.416   3.135   1.422
13704SOL    HW141456   6.411   3.168   1.517
13704SOL    HW241457   6.330   3.154   1.376
13705SOL     OW41458   7.236   3.582   1.394
13705SOL    HW141459   7.289   3.592   1.310
13705SOL    HW241460   7.209   3.672   1.428
13706SOL     OW41461   7.427   2.037   0.963
13706SOL    HW141462   7.466   1.952   0.927
13706SOL    HW241463   7.329   2.039   0.944
13707SOL     OW41464   5.849   2.188   0.720
13707SOL    HW141465   5.770   2.239   0.686
13707SOL    HW241466   5.840   2.173   0.818
13708SOL     OW41467   6.408   2.864   1.372
13708SOL    HW141468   6.448   2.863   1.280
13708SOL    HW241469   6.418   2.956   1.412
13709SOL     OW41470   5.958   3.150   1.490
13709SOL    HW141471   5.945   3.243   1.456
13709SOL    HW241472   5.874   3.098   1.477
13710SOL     OW41473   7.200   3.154   1.289
13710SOL    HW141474   7.260   3.157   1.369
13710SOL    HW241475   7.125   3.218   1.302
13711SOL     OW41476   6.625   2.960   0.696
13711SOL    HW141477   6.555   2.913   0.750
13711SOL    HW241478   6.684   2.892   0.653
13712SOL     OW41479   6.600   2.098   0.971
13712SOL    HW141480   6.592   2.062   0.878
13712SOL    HW241481   6.598   2.022   1.036
13713SOL     OW41482   6.176   3.349   0.491
13713SOL    HW141483   6.218   3.291   0.421
13713SOL    HW241484   6.132   3.428   0.447
13714SOL     OW41485   7.295   2.247   1.381
13714SOL    HW141486   7.368   2.316   1.385
13714SOL    HW241487   7.323   2.172   1.322
13715SOL     OW41488   5.691   2.875   1.726
13715SOL    HW141489   5.614   2.842   1.780
13715SOL    HW241490   5.776   2.845   1.768
13716SOL     OW41491   6.258   2.065   1.489
13716SOL    HW141492   6.348   2.049   1.449
13716SOL    HW241493   6.266   2.070   1.588
13717SOL     OW41494   7.026   2.718   1.398
13717SOL    HW141495   6.969   2.770   1.335
13717SOL    HW241496   7.122   2.730   1.374
13718SOL     OW41497   6.199   2.704   1.431
13718SOL    HW141498   6.255   2.785   1.414
13718SOL    HW241499   6.258   2.624   1.434
13719SOL     OW41500   7.079   3.629   0.959
13719SOL    HW141501   7.112   3.693   0.890
13719SOL    HW241502   7.145   3.623   1.034
13720SOL     OW41503   6.302   2.427   1.708
13720SOL    HW141504   6.321   2.492   1.782
13720SOL    HW241505   6.362   2.347   1.717
13721SOL     OW41506   7.036   3.082   1.633
13721SOL    HW141507   7.027   3.072   1.732
13721SOL    HW241508   7.132   3.075   1.607
13722SOL     OW41509   5.976   3.603   1.560
13722SOL    HW141510   5.885   3.644   1.558
13722SOL    HW241511   5.969   3.509   1.592
13723SOL     OW41512   7.260   2.745   1.254
13723SOL    HW141513   7.233   2.656   1.217
13723SOL    HW241514   7.261   2.813   1.181
13724SOL     OW41515   6.811   2.187   0.449
13724SOL    HW141516   6.876   2.113   0.438
13724SOL    HW241517   6.831   2.237   0.533
13725SOL     OW41518   6.180   2.607   0.652
13725SOL    HW141519   6.230   2.692   0.633
13725SOL    HW241520   6.092   2.609   0.604
13726SOL     OW41521   7.363   2.204   1.642
13726SOL    HW141522   7.346   2.235   1.548
13726SOL    HW241523   7.279   2.167   1.680
13727SOL     OW41524   7.316   2.796   1.517
13727SOL    HW141525   7.354   2.887   1.532
13727SOL    HW241526   7.308   2.779   1.418
13728SOL     OW41527   6.247   3.652   0.953
13728SOL    HW141528   6.201   3.740   0.940
13728SOL    HW241529   6.346   3.664   0.946
13729SOL     OW41530   6.445   2.818   0.861
13729SOL    HW141531   6.499   2.749   0.909
13729SOL    HW241532   6.413   2.887   0.927
13730SOL     OW41533   7.447   3.431   0.851
13730SOL    HW141534   7.376   3.419   0.781
13730SOL    HW241535   7.448   3.352   0.911
13731SOL     OW41536   5.807   3.176   1.844
13731SOL    HW141537   5.742   3.103   1.823
13731SOL    HW241538   5.811   3.190   1.942
13732SOL     OW41539   5.665   3.102   0.653
13732SOL    HW141540   5.664   3.055   0.741
13732SOL    HW241541   5.747   3.074   0.602
13733SOL     OW41542   6.258   3.253   1.624
13733SOL    HW141543   6.180   3.203   1.662
13733SOL    HW241544   6.255   3.348   1.655
13734SOL     OW41545   7.410   2.054   1.227
13734SOL    HW141546   7.406   1.964   1.271
13734SOL    HW241547   7.413   2.043   1.128
13735SOL     OW41548   6.014   2.286   0.520
13735SOL    HW141549   6.044   2.214   0.458
13735SOL    HW241550   5.975   2.246   0.603
13736SOL     OW41551   7.291   3.349   1.104
13736SOL    HW141552   7.198   3.324   1.077
13736SOL    HW241553   7.317   3.299   1.186
13737SOL     OW41554   5.903   2.409   1.280
13737SOL    HW141555   5.941   2.350   1.352
13737SOL    HW241556   5.943   2.383   1.192
13738SOL     OW41557   6.398   3.448   0.687
13738SOL    HW141558   6.430   3.458   0.593
13738SOL    HW241559   6.319   3.386   0.689
13739SOL     OW41560   7.010   2.076   1.112
13739SOL    HW141561   7.062   2.011   1.167
13739SOL    HW241562   6.961   2.139   1.173
13740SOL     OW41563   6.587   1.896   1.154
13740SOL    HW141564   6.524   1.824   1.123
13740SOL    HW241565   6.680   1.860   1.154
13741SOL     OW41566   6.204   3.429   1.284
13741SOL    HW141567   6.199   3.511   1.341
13741SOL    HW241568   6.293   3.426   1.239
13742SOL     OW41569   6.886   2.315   0.691
13742SOL    HW141570   6.827   2.395   0.695
13742SOL    HW241571   6.901   2.280   0.784
13743SOL     OW41572   7.179   2.083   0.882
13743SOL    HW141573   7.095   2.082   0.936
13743SOL    HW241574   7.181   2.166   0.826
13744SOL     OW41575   6.461   3.508   0.337
13744SOL    HW141576   6.384   3.473   0.283
13744SOL    HW241577   6.429   3.579   0.399
13745SOL     OW41578   5.816   2.490   1.975
13745SOL    HW141579   5.723   2.488   2.012
13745SOL    HW241580   5.817   2.451   1.883
13746SOL     OW41581   5.811   2.137   2.858
13746SOL    HW141582   5.846   2.120   2.950
13746SOL    HW241583   5.723   2.092   2.846
13747SOL     OW41584   5.605   2.230   2.509
13747SOL    HW141585   5.523   2.273   2.548
13747SOL    HW241586   5.577   2.157   2.446
13748SOL     OW41587   6.155   3.137   3.027
13748SOL    HW141588   6.062   3.130   2.990
13748SOL    HW241589   6.166   3.226   3.071
13749SOL     OW41590   7.141   3.373   2.565
13749SOL    HW141591   7.084   3.357   2.646
13749SOL    HW241592   7.082   3.383   2.485
13750SOL     OW41593   6.721   2.565   2.579
13750SOL    HW141594   6.778   2.643   2.554
13750SOL    HW241595   6.661   2.591   2.655
13751SOL     OW41596   7.341   2.469   2.093
13751SOL    HW141597   7.329   2.456   1.994
13751SOL    HW241598   7.311   2.388   2.142
13752SOL     OW41599   6.354   3.006   2.885
13752SOL    HW141600   6.276   3.023   2.945
13752SOL    HW241601   6.388   3.093   2.849
13753SOL     OW41602   6.436   2.660   3.685
13753SOL    HW141603   6.432   2.736   3.750
13753SOL    HW241604   6.458   2.696   3.594
13754SOL     OW41605   6.271   2.874   2.527
13754SOL    HW141606   6.340   2.858   2.597
13754SOL    HW241607   6.198   2.931   2.565
13755SOL     OW41608   6.272   3.023   3.665
13755SOL    HW141609   6.332   3.102   3.679
13755SOL    HW241610   6.186   3.054   3.624
13756SOL     OW41611   5.921   3.297   2.923
13756SOL    HW141612   5.843   3.266   2.870
13756SOL    HW241613   5.979   3.355   2.866
13757SOL     OW41614   7.046   3.367   3.201
13757SOL    HW141615   7.070   3.461   3.227
13757SOL    HW241616   7.030   3.313   3.283
13758SOL     OW41617   6.024   2.254   3.361
13758SOL    HW141618   6.106   2.198   3.370
13758SOL    HW241619   5.943   2.196   3.365
13759SOL     OW41620   7.189   2.309   2.599
13759SOL    HW141621   7.115   2.355   2.549
13759SOL    HW241622   7.240   2.377   2.652
13760SOL     OW41623   5.817   3.575   2.345
13760SOL    HW141624   5.851   3.652   2.399
13760SOL    HW241625   5.861   3.575   2.255
13761SOL     OW41626   6.713   3.203   3.552
13761SOL    HW141627   6.760   3.203   3.640
13761SOL    HW241628   6.665   3.116   3.541
13762SOL     OW41629   5.816   3.296   2.400
13762SOL    HW141630   5.790   3.392   2.400
13762SOL    HW241631   5.745   3.242   2.445
13763SOL     OW41632   5.826   2.953   2.748
13763SOL    HW141633   5.840   2.869   2.800
13763SOL    HW241634   5.771   3.017   2.803
13764SOL     OW41635   6.206   3.648   3.301
13764SOL    HW141636   6.114   3.631   3.336
13764SOL    HW241637   6.234   3.740   3.327
13765SOL     OW41638   6.192   2.826   1.985
13765SOL    HW141639   6.199   2.910   1.931
13765SOL    HW241640   6.238   2.839   2.073
13766SOL     OW41641   7.180   1.976   3.342
13766SOL    HW141642   7.162   2.043   3.270
13766SOL    HW241643   7.177   2.022   3.431
13767SOL     OW41644   5.708   2.505   2.425
13767SOL    HW141645   5.663   2.417   2.442
13767SOL    HW241646   5.707   2.559   2.509
13768SOL     OW41647   7.428   3.629   2.221
13768SOL    HW141648   7.482   3.600   2.301
13768SOL    HW241649   7.458   3.719   2.192
13769SOL     OW41650   5.613   3.458   1.979
13769SOL    HW141651   5.594   3.362   2.000
13769SOL    HW241652   5.580   3.516   2.054
13770SOL     OW41653   7.275   2.784   2.474
13770SOL    HW141654   7.370   2.755   2.482
13770SOL    HW241655   7.267   2.849   2.399
13771SOL     OW41656   7.227   2.970   2.294
13771SOL    HW141657   7.313   2.972   2.242
13771SOL    HW241658   7.241   3.017   2.382
13772SOL     OW41659   5.699   2.599   3.459
13772SOL    HW141660   5.787   2.586   3.504
13772SOL    HW241661   5.686   2.696   3.437
13773SOL     OW41662   6.199   3.227   2.588
13773SOL    HW141663   6.150   3.140   2.597
13773SOL    HW241664   6.176   3.270   2.501
13774SOL     OW41665   6.879   3.090   3.285
13774SOL    HW141666   6.916   3.017   3.227
13774SOL    HW241667   6.931   3.095   3.370
13775SOL     OW41668   6.395   1.866   2.364
13775SOL    HW141669   6.435   1.957   2.355
13775SOL    HW241670   6.295   1.874   2.370
13776SOL     OW41671   5.783   2.838   3.126
13776SOL    HW141672   5.872   2.793   3.112
13776SOL    HW241673   5.710   2.773   3.107
13777SOL     OW41674   7.111   2.861   2.052
13777SOL    HW141675   7.048   2.785   2.065
13777SOL    HW241676   7.159   2.879   2.138
13778SOL     OW41677   6.773   3.654   3.478
13778SOL    HW141678   6.797   3.714   3.402
13778SOL    HW241679   6.780   3.559   3.448
13779SOL     OW41680   5.903   2.113   3.663
13779SOL    HW141681   5.974   2.184   3.669
13779SOL    HW241682   5.815   2.152   3.691
13780SOL     OW41683   7.052   3.279   2.815
13780SOL    HW141684   6.993   3.285   2.895
13780SOL    HW241685   7.037   3.191   2.769
13781SOL     OW41686   7.253   3.576   2.434
13781SOL    HW141687   7.212   3.553   2.346
13781SOL    HW241688   7.235   3.502   2.499
13782SOL     OW41689   6.184   2.591   2.132
13782SOL    HW141690   6.208   2.660   2.064
13782SOL    HW241691   6.106   2.624   2.186
13783SOL     OW41692   6.867   2.207   2.806
13783SOL    HW141693   6.781   2.157   2.793
13783SOL    HW241694   6.929   2.153   2.862
13784SOL     OW41695   7.162   3.524   2.169
13784SOL    HW141696   7.251   3.570   2.172
13784SOL    HW241697   7.141   3.500   2.074
13785SOL     OW41698   6.393   2.467   3.327
13785SOL    HW141699   6.346   2.464   3.416
13785SOL    HW241700   6.342   2.412   3.261
13786SOL     OW41701   6.980   2.331   3.536
13786SOL    HW141702   6.960   2.374   3.624
13786SOL    HW241703   7.058   2.269   3.545
13787SOL     OW41704   6.559   2.752   3.434
13787SOL    HW141705   6.605   2.668   3.405
13787SOL    HW241706   6.503   2.786   3.359
13788SOL     OW41707   6.577   2.272   3.104
13788SOL    HW141708   6.500   2.306   3.158
13788SOL    HW241709   6.543   2.221   3.025
13789SOL     OW41710   6.627   2.563   2.291
13789SOL    HW141711   6.653   2.559   2.387
13789SOL    HW241712   6.542   2.512   2.277
13790SOL     OW41713   5.662   2.673   2.651
13790SOL    HW141714   5.761   2.661   2.660
13790SOL    HW241715   5.638   2.768   2.672
13791SOL     OW41716   5.716   3.683   3.433
13791SOL    HW141717   5.706   3.668   3.532
13791SOL    HW241718   5.630   3.719   3.397
13792SOL     OW41719   6.451   2.210   2.057
13792SOL    HW141720   6.510   2.273   2.008
13792SOL    HW241721   6.470   2.116   2.028
13793SOL     OW41722   7.305   2.447   3.693
13793SOL    HW141723   7.279   2.536   3.657
13793SOL    HW241724   7.303   2.379   3.620
13794SOL     OW41725   6.948   3.006   2.407
13794SOL    HW141726   7.031   2.977   2.359
13794SOL    HW241727   6.899   3.073   2.351
13795SOL     OW41728   6.136   2.058   2.747
13795SOL    HW141729   6.131   2.053   2.847
13795SOL    HW241730   6.138   2.154   2.718
13796SOL     OW41731   6.594   3.318   2.339
13796SOL    HW141732   6.548   3.390   2.287
13796SOL    HW241733   6.590   3.338   2.437
13797SOL     OW41734   5.937   3.663   2.715
13797SOL    HW141735   5.987   3.577   2.721
13797SOL    HW241736   6.002   3.740   2.712
13798SOL     OW41737   7.381   2.928   2.735
13798SOL    HW141738   7.319   2.913   2.659
13798SOL    HW241739   7.329   2.939   2.820
13799SOL     OW41740   6.813   3.412   3.368
13799SOL    HW141741   6.819   3.335   3.432
13799SOL    HW241742   6.761   3.386   3.288
13800SOL     OW41743   5.907   2.805   2.104
13800SOL    HW141744   5.989   2.844   2.062
13800SOL    HW241745   5.880   2.723   2.055
13801SOL     OW41746   7.044   2.597   2.590
13801SOL    HW141747   7.039   2.532   2.665
13801SOL    HW241748   7.124   2.656   2.603
13802SOL     OW41749   6.047   3.128   3.589
13802SOL    HW141750   5.997   3.129   3.503
13802SOL    HW241751   5.984   3.110   3.665
13803SOL     OW41752   6.697   3.638   2.099
13803SOL    HW141753   6.637   3.576   2.149
13803SOL    HW241754   6.728   3.594   2.014
13804SOL     OW41755   5.788   2.147   3.360
13804SOL    HW141756   5.708   2.207   3.347
13804SOL    HW241757   5.778   2.098   3.446
13805SOL     OW41758   7.218   3.239   1.943
13805SOL    HW141759   7.186   3.333   1.933
13805SOL    HW241760   7.142   3.176   1.931
13806SOL     OW41761   6.050   3.605   2.185
13806SOL    HW141762   6.083   3.644   2.271
13806SOL    HW241763   6.126   3.598   2.120
13807SOL     OW41764   6.986   1.969   2.288
13807SOL    HW141765   6.962   1.932   2.198
13807SOL    HW241766   7.085   1.985   2.292
13808SOL     OW41767   5.835   3.647   3.103
13808SOL    HW141768   5.892   3.582   3.153
13808SOL    HW241769   5.819   3.614   3.010
13809SOL     OW41770   6.526   3.560   2.766
13809SOL    HW141771   6.606   3.503   2.787
13809SOL    HW241772   6.477   3.520   2.689
13810SOL     OW41773   5.968   2.562   2.342
13810SOL    HW141774   6.013   2.472   2.339
13810SOL    HW241775   5.874   2.551   2.375
13811SOL     OW41776   7.133   2.084   3.591
13811SOL    HW141777   7.128   2.121   3.683
13811SOL    HW241778   7.061   2.015   3.579
13812SOL     OW41779   6.200   1.984   1.979
13812SOL    HW141780   6.298   1.962   1.986
13812SOL    HW241781   6.169   1.967   1.886
13813SOL     OW41782   6.367   2.126   3.611
13813SOL    HW141783   6.434   2.065   3.654
13813SOL    HW241784   6.294   2.145   3.676
13814SOL     OW41785   6.474   3.376   3.057
13814SOL    HW141786   6.451   3.351   2.963
13814SOL    HW241787   6.535   3.307   3.096
13815SOL     OW41788   6.937   2.452   3.295
13815SOL    HW141789   6.965   2.409   3.380
13815SOL    HW241790   6.962   2.548   3.296
13816SOL     OW41791   6.389   3.264   2.786
13816SOL    HW141792   6.479   3.278   2.744
13816SOL    HW241793   6.318   3.266   2.715
13817SOL     OW41794   6.508   2.365   2.761
13817SOL    HW141795   6.483   2.356   2.665
13817SOL    HW241796   6.556   2.283   2.792
13818SOL     OW41797   6.125   1.926   2.374
13818SOL    HW141798   6.044   1.927   2.432
13818SOL    HW241799   6.128   2.009   2.319
13819SOL     OW41800   7.020   3.050   1.903
13819SOL    HW141801   7.052   2.974   1.960
13819SOL    HW241802   6.928   3.077   1.933
13820SOL     OW41803   5.883   1.897   2.033
13820SOL    HW141804   5.932   1.981   2.012
13820SOL    HW241805   5.945   1.832   2.078
13821SOL     OW41806   6.521   2.098   2.342
13821SOL    HW141807   6.473   2.139   2.264
13821SOL    HW241808   6.620   2.096   2.323
13822SOL     OW41809   6.662   2.545   3.326
13822SOL    HW141810   6.582   2.484   3.329
13822SOL    HW241811   6.743   2.492   3.302
13823SOL     OW41812   6.813   3.432   2.655
13823SOL    HW141813   6.834   3.506   2.590
13823SOL    HW241814   6.881   3.432   2.728
13824SOL     OW41815   6.045   3.014   2.603
13824SOL    HW141816   5.974   2.987   2.668
13824SOL    HW241817   6.019   2.986   2.510
13825SOL     OW41818   6.857   3.659   2.453
13825SOL    HW141819   6.901   3.723   2.389
13825SOL    HW241820   6.807   3.711   2.523
13826SOL     OW41821   6.618   2.411   1.878
13826SOL    HW141822   6.577   2.493   1.839
13826SOL    HW241823   6.682   2.437   1.951
13827SOL     OW41824   5.664   2.418   3.248
13827SOL    HW141825   5.756   2.417   3.207
13827SOL    HW241826   5.658   2.492   3.315
13828SOL     OW41827   6.147   2.084   3.009
13828SOL    HW141828   6.185   2.000   3.046
13828SOL    HW241829   6.059   2.103   3.053
13829SOL     OW41830   6.452   2.316   2.504
13829SOL    HW141831   6.420   2.388   2.442
13829SOL    HW241832   6.476   2.235   2.451
13830SOL     OW41833   6.603   1.901   2.615
13830SOL    HW141834   6.531   1.906   2.546
13830SOL    HW241835   6.579   1.832   2.684
13831SOL     OW41836   7.015   3.035   2.729
13831SOL    HW141837   6.960   2.951   2.722
13831SOL    HW241838   7.041   3.064   2.637
13832SOL     OW41839   7.052   2.452   2.854
13832SOL    HW141840   7.022   2.357   2.861
13832SOL    HW241841   7.125   2.468   2.920
13833SOL     OW41842   7.443   2.695   2.239
13833SOL    HW141843   7.485   2.631   2.303
13833SOL    HW241844   7.405   2.644   2.161
13834SOL     OW41845   6.074   3.247   2.036
13834SOL    HW141846   5.987   3.232   2.083
13834SOL    HW241847   6.057   3.273   1.941
13835SOL     OW41848   7.250   3.142   2.519
13835SOL    HW141849   7.349   3.150   2.533
13835SOL    HW241850   7.205   3.226   2.550
13836SOL     OW41851   6.976   2.437   1.940
13836SOL    HW141852   6.922   2.416   2.021
13836SOL    HW241853   7.067   2.396   1.949
13837SOL     OW41854   6.113   2.118   2.190
13837SOL    HW141855   6.140   2.059   2.115
13837SOL    HW241856   6.113   2.213   2.159
13838SOL     OW41857   7.340   3.085   3.450
13838SOL    HW141858   7.431   3.046   3.437
13838SOL    HW241859   7.348   3.181   3.474
13839SOL     OW41860   6.650   3.209   3.202
13839SOL    HW141861   6.570   3.186   3.257
13839SOL    HW241862   6.733   3.183   3.251
13840SOL     OW41863   7.178   3.491   3.487
13840SOL    HW141864   7.205   3.525   3.397
13840SOL    HW241865   7.257   3.453   3.533
13841SOL     OW41866   6.697   3.057   2.962
13841SOL    HW141867   6.657   3.101   3.043
13841SOL    HW241868   6.656   3.094   2.879
13842SOL     OW41869   7.224   2.961   2.941
13842SOL    HW141870   7.229   3.042   3.000
13842SOL    HW241871   7.138   2.963   2.890
13843SOL     OW41872   6.501   1.951   3.264
13843SOL    HW141873   6.526   1.931   3.169
13843SOL    HW241874   6.573   2.007   3.306
13844SOL     OW41875   6.566   2.978   3.581
13844SOL    HW141876   6.467   2.984   3.591
13844SOL    HW241877   6.589   2.898   3.525
13845SOL     OW41878   6.291   2.912   2.230
13845SOL    HW141879   6.277   2.919   2.329
13845SOL    HW241880   6.375   2.861   2.212
13846SOL     OW41881   5.996   2.675   3.113
13846SOL    HW141882   6.082   2.687   3.163
13846SOL    HW241883   5.954   2.588   3.140
13847SOL     OW41884   6.860   2.248   3.124
13847SOL    HW141885   6.881   2.322   3.188
13847SOL    HW241886   6.771   2.265   3.081
13848SOL     OW41887   5.650   3.426   3.193
13848SOL    HW141888   5.604   3.508   3.159
13848SOL    HW241889   5.748   3.445   3.202
13849SOL     OW41890   5.953   2.962   2.363
13849SOL    HW141891   5.946   3.045   2.307
13849SOL    HW241892   5.957   2.882   2.303
13850SOL     OW41893   6.152   2.399   2.727
13850SOL    HW141894   6.164   2.465   2.653
13850SOL    HW241895   6.198   2.433   2.810
13851SOL     OW41896   6.838   3.210   2.250
13851SOL    HW141897   6.888   3.287   2.290
13851SOL    HW241898   6.743   3.212   2.282
13852SOL     OW41899   6.858   3.307   3.004
13852SOL    HW141900   6.905   3.320   3.091
13852SOL    HW241901   6.792   3.233   3.013
13853SOL     OW41902   7.168   2.501   2.334
13853SOL    HW141903   7.137   2.562   2.407
13853SOL    HW241904   7.218   2.553   2.265
13854SOL     OW41905   5.940   3.372   3.191
13854SOL    HW141906   5.919   3.328   3.104
13854SOL    HW241907   6.037   3.398   3.194
13855SOL     OW41908   5.988   2.613   3.460
13855SOL    HW141909   6.056   2.668   3.413
13855SOL    HW241910   6.028   2.525   3.487
13856SOL     OW41911   7.173   2.641   3.532
13856SOL    HW141912   7.081   2.679   3.527
13856SOL    HW241913   7.233   2.688   3.467
13857SOL     OW41914   6.599   1.967   3.632
13857SOL    HW141915   6.605   2.052   3.580
13857SOL    HW241916   6.631   1.891   3.575
13858SOL     OW41917   6.090   1.912   3.602
13858SOL    HW141918   6.048   1.855   3.532
13858SOL    HW241919   6.024   1.981   3.634
13859SOL     OW41920   6.159   2.732   2.891
13859SOL    HW141921   6.203   2.821   2.882
13859SOL    HW241922   6.096   2.732   2.968
13860SOL     OW41923   6.946   2.724   2.907
13860SOL    HW141924   6.871   2.724   2.841
13860SOL    HW241925   6.983   2.632   2.916
13861SOL     OW41926   6.795   2.387   2.137
13861SOL    HW141927   6.808   2.303   2.191
13861SOL    HW241928   6.766   2.461   2.197
13862SOL     OW41929   5.893   2.075   3.093
13862SOL    HW141930   5.870   2.112   3.183
13862SOL    HW241931   5.863   1.980   3.087
13863SOL     OW41932   5.623   3.172   3.144
13863SOL    HW141933   5.676   3.123   3.212
13863SOL    HW241934   5.645   3.270   3.149
13864SOL     OW41935   6.318   2.496   2.926
13864SOL    HW141936   6.377   2.470   2.850
13864SOL    HW241937   6.290   2.592   2.915
13865SOL     OW41938   7.314   2.797   3.716
13865SOL    HW141939   7.268   2.790   3.627
13865SOL    HW241940   7.252   2.841   3.782
13866SOL     OW41941   5.893   1.925   2.480
13866SOL    HW141942   5.882   2.019   2.513
13866SOL    HW241943   5.888   1.862   2.557
13867SOL     OW41944   7.208   2.229   2.236
13867SOL    HW141945   7.210   2.153   2.300
13867SOL    HW241946   7.160   2.306   2.276
13868SOL     OW41947   6.609   2.628   2.828
13868SOL    HW141948   6.624   2.649   2.924
13868SOL    HW241949   6.579   2.533   2.819
13869SOL     OW41950   6.566   3.435   3.562
13869SOL    HW141951   6.546   3.479   3.474
13869SOL    HW241952   6.605   3.344   3.546
13870SOL     OW41953   7.445   3.380   3.467
13870SOL    HW141954   7.459   3.407   3.372
13870SOL    HW241955   7.528   3.402   3.520
13871SOL     OW41956   5.936   2.760   3.666
13871SOL    HW141957   6.012   2.804   3.714
13871SOL    HW241958   5.971   2.713   3.584
13872SOL     OW41959   7.126   2.136   1.987
13872SOL    HW141960   7.065   2.061   2.010
13872SOL    HW241961   7.148   2.188   2.070
13873SOL     OW41962   6.889   2.700   1.904
13873SOL    HW141963   6.923   2.607   1.919
13873SOL    HW241964   6.907   2.727   1.809
13874SOL     OW41965   6.654   3.195   2.711
13874SOL    HW141966   6.661   3.111   2.656
13874SOL    HW241967   6.716   3.264   2.675
13875SOL     OW41968   5.905   2.672   2.811
13875SOL    HW141969   5.998   2.708   2.816
13875SOL    HW241970   5.899   2.587   2.863
13876SOL     OW41971   5.925   2.371   2.868
13876SOL    HW141972   5.873   2.288   2.851
13876SOL    HW241973   6.002   2.376   2.804
13877SOL     OW41974   6.724   2.242   3.540
13877SOL    HW141975   6.679   2.305   3.604
13877SOL    HW241976   6.817   2.273   3.523
13878SOL     OW41977   6.746   2.069   3.339
13878SOL    HW141978   6.746   2.133   3.416
13878SOL    HW241979   6.774   2.117   3.256
13879SOL     OW41980   5.594   3.188   2.062
13879SOL    HW141981   5.501   3.209   2.031
13879SOL    HW241982   5.604   3.089   2.075
13880SOL     OW41983   5.674   3.663   2.789
13880SOL    HW141984   5.632   3.577   2.762
13880SOL    HW241985   5.768   3.666   2.755
13881SOL     OW41986   6.090   3.430   2.772
13881SOL    HW141987   6.156   3.504   2.781
13881SOL    HW241988   6.134   3.351   2.730
13882SOL     OW41989   6.588   2.658   3.100
13882SOL    HW141990   6.629   2.626   3.186
13882SOL    HW241991   6.492   2.631   3.097
13883SOL     OW41992   5.626   2.406   2.976
13883SOL    HW141993   5.711   2.373   2.935
13883SOL    HW241994   5.639   2.421   3.074
13884SOL     OW41995   5.775   2.382   3.584
13884SOL    HW141996   5.834   2.342   3.514
13884SOL    HW241997   5.717   2.453   3.543
13885SOL     OW41998   6.955   2.812   3.522
13885SOL    HW141999   6.994   2.901   3.542
13885SOL    HW242000   6.965   2.792   3.425
13886SOL     OW42001   6.401   2.434   2.187
13886SOL    HW142002   6.408   2.345   2.141
13886SOL    HW242003   6.307   2.468   2.179
13887SOL     OW42004   7.243   2.466   3.068
13887SOL    HW142005   7.205   2.397   3.130
13887SOL    HW242006   7.325   2.430   3.024
13888SOL     OW42007   5.838   3.426   3.606
13888SOL    HW142008   5.808   3.483   3.682
13888SOL    HW242009   5.831   3.329   3.632
13889SOL     OW42010   6.257   2.326   3.131
13889SOL    HW142011   6.223   2.237   3.101
13889SOL    HW242012   6.283   2.380   3.051
13890SOL     OW42013   6.516   3.540   3.327
13890SOL    HW142014   6.492   3.522   3.232
13890SOL    HW242015   6.546   3.634   3.337
13891SOL     OW42016   6.059   2.362   2.053
13891SOL    HW142017   6.120   2.442   2.057
13891SOL    HW242018   5.964   2.393   2.060
13892SOL     OW42019   5.745   2.999   3.328
13892SOL    HW142020   5.767   2.938   3.404
13892SOL    HW242021   5.755   2.950   3.242
13893SOL     OW42022   6.933   2.921   3.096
13893SOL    HW142023   6.957   2.858   3.022
13893SOL    HW242024   6.843   2.961   3.078
13894SOL     OW42025   6.888   2.717   2.171
13894SOL    HW142026   6.802   2.686   2.213
13894SOL    HW242027   6.884   2.703   2.072
13895SOL     OW42028   7.345   3.609   3.016
13895SOL    HW142029   7.406   3.639   2.943
13895SOL    HW242030   7.307   3.520   2.994
13896SOL     OW42031   6.838   3.593   2.990
13896SOL    HW142032   6.922   3.598   2.936
13896SOL    HW242033   6.815   3.497   3.008
13897SOL     OW42034   5.669   3.120   2.884
13897SOL    HW142035   5.664   3.119   2.984
13897SOL    HW242036   5.586   3.079   2.846
13898SOL     OW42037   6.274   3.524   3.578
13898SOL    HW142038   6.218   3.605   3.587
13898SOL    HW242039   6.326   3.528   3.492
13899SOL     OW42040   7.312   1.997   2.385
13899SOL    HW142041   7.385   1.980   2.318
13899SOL    HW242042   7.281   1.910   2.423
13900SOL     OW42043   6.974   3.435   2.339
13900SOL    HW142044   7.041   3.447   2.265
13900SOL    HW242045   6.934   3.524   2.362
13901SOL     OW42046   5.716   3.656   3.713
13901SOL    HW142047   5.675   3.582   3.766
13901SOL    HW242048   5.780   3.707   3.771
13902SOL     OW42049   6.866   2.789   2.534
13902SOL    HW142050   6.926   2.708   2.536
13902SOL    HW242051   6.906   2.858   2.474
13903SOL     OW42052   6.416   3.135   3.284
13903SOL    HW142053   6.411   3.168   3.379
13903SOL    HW242054   6.330   3.154   3.238
13904SOL     OW42055   6.258   3.478   2.016
13904SOL    HW142056   6.267   3.488   1.917
13904SOL    HW242057   6.218   3.389   2.037
13905SOL     OW42058   7.236   3.582   3.256
13905SOL    HW142059   7.289   3.592   3.172
13905SOL    HW242060   7.209   3.672   3.290
13906SOL     OW42061   7.427   2.037   2.825
13906SOL    HW142062   7.466   1.952   2.789
13906SOL    HW242063   7.329   2.039   2.806
13907SOL     OW42064   5.849   2.188   2.582
13907SOL    HW142065   5.770   2.239   2.548
13907SOL    HW242066   5.840   2.173   2.680
13908SOL     OW42067   6.780   3.474   1.893
13908SOL    HW142068   6.786   3.381   1.930
13908SOL    HW242069   6.721   3.474   1.813
13909SOL     OW42070   6.408   2.864   3.234
13909SOL    HW142071   6.448   2.863   3.142
13909SOL    HW242072   6.418   2.956   3.274
13910SOL     OW42073   6.502   2.772   2.153
13910SOL    HW142074   6.565   2.810   2.085
13910SOL    HW242075   6.542   2.689   2.192
13911SOL     OW42076   7.090   3.469   1.906
13911SOL    HW142077   6.998   3.506   1.913
13911SOL    HW242078   7.128   3.489   1.816
13912SOL     OW42079   5.958   3.150   3.352
13912SOL    HW142080   5.945   3.243   3.318
13912SOL    HW242081   5.874   3.098   3.339
13913SOL     OW42082   7.200   3.154   3.151
13913SOL    HW142083   7.260   3.157   3.231
13913SOL    HW242084   7.125   3.218   3.164
13914SOL     OW42085   6.625   2.960   2.558
13914SOL    HW142086   6.555   2.913   2.612
13914SOL    HW242087   6.684   2.892   2.515
13915SOL     OW42088   6.600   2.098   2.833
13915SOL    HW142089   6.592   2.062   2.740
13915SOL    HW242090   6.598   2.022   2.898
13916SOL     OW42091   6.176   3.349   2.353
13916SOL    HW142092   6.218   3.291   2.283
13916SOL    HW242093   6.132   3.428   2.309
13917SOL     OW42094   7.295   2.247   3.243
13917SOL    HW142095   7.368   2.316   3.247
13917SOL    HW242096   7.323   2.172   3.184
13918SOL     OW42097   5.841   3.210   2.152
13918SOL    HW142098   5.745   3.211   2.125
13918SOL    HW242099   5.853   3.263   2.236
13919SOL     OW42100   5.691   2.875   3.588
13919SOL    HW142101   5.614   2.842   3.642
13919SOL    HW242102   5.776   2.845   3.630
13920SOL     OW42103   6.258   2.065   3.351
13920SOL    HW142104   6.348   2.049   3.311
13920SOL    HW242105   6.266   2.070   3.450
13921SOL     OW42106   5.661   2.207   1.895
13921SOL    HW142107   5.569   2.179   1.866
13921SOL    HW242108   5.692   2.284   1.839
13922SOL     OW42109   7.026   2.718   3.260
13922SOL    HW142110   6.969   2.770   3.197
13922SOL    HW242111   7.122   2.730   3.236
13923SOL     OW42112   5.658   2.028   2.180
13923SOL    HW142113   5.641   2.111   2.126
13923SOL    HW242114   5.748   1.991   2.158
13924SOL     OW42115   6.769   3.197   1.981
13924SOL    HW142116   6.670   3.186   1.983
13924SOL    HW242117   6.803   3.212   2.074
13925SOL     OW42118   6.199   2.704   3.293
13925SOL    HW142119   6.255   2.785   3.276
13925SOL    HW242120   6.258   2.624   3.296
13926SOL     OW42121   7.079   3.629   2.821
13926SOL    HW142122   7.112   3.693   2.752
13926SOL    HW242123   7.145   3.623   2.896
13927SOL     OW42124   6.302   2.427   3.570
13927SOL    HW142125   6.321   2.492   3.644
13927SOL    HW242126   6.362   2.347   3.579
13928SOL     OW42127   7.036   3.082   3.495
13928SOL    HW142128   7.027   3.072   3.594
13928SOL    HW242129   7.132   3.075   3.469
13929SOL     OW42130   5.976   3.603   3.422
13929SOL    HW142131   5.885   3.644   3.420
13929SOL    HW242132   5.969   3.509   3.454
13930SOL     OW42133   7.260   2.745   3.116
13930SOL    HW142134   7.233   2.656   3.079
13930SOL    HW242135   7.261   2.813   3.043
13931SOL     OW42136   6.811   2.187   2.311
13931SOL    HW142137   6.876   2.113   2.300
13931SOL    HW242138   6.831   2.237   2.395
13932SOL     OW42139   6.180   2.607   2.514
13932SOL    HW142140   6.230   2.692   2.495
13932SOL    HW242141   6.092   2.609   2.466
13933SOL     OW42142   7.363   2.204   3.504
13933SOL    HW142143   7.346   2.235   3.410
13933SOL    HW242144   7.279   2.167   3.542
13934SOL     OW42145   7.316   2.796   3.379
13934SOL    HW142146   7.354   2.887   3.394
13934SOL    HW242147   7.308   2.779   3.280
13935SOL     OW42148   6.445   3.236   1.878
13935SOL    HW142149   6.399   3.251   1.966
13935SOL    HW242150   6.489   3.321   1.848
13936SOL     OW42151   6.247   3.652   2.815
13936SOL    HW142152   6.201   3.740   2.802
13936SOL    HW242153   6.346   3.664   2.808
13937SOL     OW42154   6.445   2.818   2.723
13937SOL    HW142155   6.499   2.749   2.771
13937SOL    HW242156   6.413   2.887   2.789
13938SOL     OW42157   6.669   2.846   1.949
13938SOL    HW142158   6.646   2.899   1.867
13938SOL    HW242159   6.750   2.790   1.930
13939SOL     OW42160   7.447   3.431   2.713
13939SOL    HW142161   7.376   3.419   2.643
13939SOL    HW242162   7.448   3.352   2.773
13940SOL     OW42163   5.807   3.176   3.706
13940SOL    HW142164   5.742   3.103   3.685
13940SOL    HW242165   5.811   3.190   3.804
13941SOL     OW42166   5.665   3.102   2.515
13941SOL    HW142167   5.664   3.055   2.603
13941SOL    HW242168   5.747   3.074   2.464
13942SOL     OW42169   6.258   3.253   3.486
13942SOL    HW142170   6.180   3.203   3.524
13942SOL    HW242171   6.255   3.348   3.517
13943SOL     OW42172   7.410   2.054   3.089
13943SOL    HW142173   7.406   1.964   3.133
13943SOL    HW242174   7.413   2.043   2.990
13944SOL     OW42175   6.014   2.286   2.382
13944SOL    HW142176   6.044   2.214   2.320
13944SOL    HW242177   5.975   2.246   2.465
13945SOL     OW42178   7.291   3.349   2.966
13945SOL    HW142179   7.198   3.324   2.939
13945SOL    HW242180   7.317   3.299   3.048
13946SOL     OW42181   5.903   2.409   3.142
13946SOL    HW142182   5.941   2.350   3.214
13946SOL    HW242183   5.943   2.383   3.054
13947SOL     OW42184   6.398   3.448   2.549
13947SOL    HW142185   6.430   3.458   2.455
13947SOL    HW242186   6.319   3.386   2.551
13948SOL     OW42187   7.010   2.076   2.974
13948SOL    HW142188   7.062   2.011   3.029
13948SOL    HW242189   6.961   2.139   3.035
13949SOL     OW42190   6.587   1.896   3.016
13949SOL    HW142191   6.524   1.824   2.985
13949SOL    HW242192   6.680   1.860   3.016
13950SOL     OW42193   6.356   3.192   2.163
13950SOL    HW142194   6.310   3.105   2.180
13950SOL    HW242195   6.447   3.189   2.204
13951SOL     OW42196   6.204   3.429   3.146
13951SOL    HW142197   6.199   3.511   3.203
13951SOL    HW242198   6.293   3.426   3.101
13952SOL     OW42199   6.938   1.914   2.030
13952SOL    HW142200   6.973   1.873   1.946
13952SOL    HW242201   6.848   1.876   2.050
13953SOL     OW42202   6.886   2.315   2.553
13953SOL    HW142203   6.827   2.395   2.557
13953SOL    HW242204   6.901   2.280   2.646
13954SOL     OW42205   7.179   2.083   2.744
13954SOL    HW142206   7.095   2.082   2.798
13954SOL    HW242207   7.181   2.166   2.688
13955SOL     OW42208   5.625   2.939   2.162
13955SOL    HW142209   5.724   2.928   2.153
13955SOL    HW242210   5.585   2.853   2.194
13956SOL     OW42211   6.461   3.508   2.199
13956SOL    HW142212   6.384   3.473   2.145
13956SOL    HW242213   6.429   3.579   2.261
13957SOL     OW42214   5.816   2.490   3.837
13957SOL    HW142215   5.723   2.488   3.874
13957SOL    HW242216   5.817   2.451   3.745
13958SOL     OW42217   5.811   2.137   4.720
13958SOL    HW142218   5.846   2.120   4.812
13958SOL    HW242219   5.723   2.092   4.708
13959SOL     OW42220   5.605   2.230   4.371
13959SOL    HW142221   5.523   2.273   4.410
13959SOL    HW242222   5.577   2.157   4.308
13960SOL     OW42223   6.155   3.137   4.889
13960SOL    HW142224   6.062   3.130   4.852
13960SOL    HW242225   6.166   3.226   4.933
13961SOL     OW42226   7.141   3.373   4.427
13961SOL    HW142227   7.084   3.357   4.508
13961SOL    HW242228   7.082   3.383   4.347
13962SOL     OW42229   6.721   2.565   4.441
13962SOL    HW142230   6.778   2.643   4.416
13962SOL    HW242231   6.661   2.591   4.517
13963SOL     OW42232   7.341   2.469   3.955
13963SOL    HW142233   7.329   2.456   3.856
13963SOL    HW242234   7.311   2.388   4.004
13964SOL     OW42235   6.354   3.006   4.747
13964SOL    HW142236   6.276   3.023   4.807
13964SOL    HW242237   6.388   3.093   4.711
13965SOL     OW42238   6.436   2.660   5.547
13965SOL    HW142239   6.432   2.736   5.612
13965SOL    HW242240   6.458   2.696   5.456
13966SOL     OW42241   6.271   2.874   4.389
13966SOL    HW142242   6.340   2.858   4.459
13966SOL    HW242243   6.198   2.931   4.427
13967SOL     OW42244   6.272   3.023   5.527
13967SOL    HW142245   6.332   3.102   5.541
13967SOL    HW242246   6.186   3.054   5.486
13968SOL     OW42247   5.921   3.297   4.785
13968SOL    HW142248   5.843   3.266   4.732
13968SOL    HW242249   5.979   3.355   4.728
13969SOL     OW42250   7.046   3.367   5.063
13969SOL    HW142251   7.070   3.461   5.089
13969SOL    HW242252   7.030   3.313   5.145
13970SOL     OW42253   6.024   2.254   5.223
13970SOL    HW142254   6.106   2.198   5.232
13970SOL    HW242255   5.943   2.196   5.227
13971SOL     OW42256   7.189   2.309   4.461
13971SOL    HW142257   7.115   2.355   4.411
13971SOL    HW242258   7.240   2.377   4.514
13972SOL     OW42259   5.817   3.575   4.207
13972SOL    HW142260   5.851   3.652   4.261
13972SOL    HW242261   5.861   3.575   4.117
13973SOL     OW42262   6.713   3.203   5.414
13973SOL    HW142263   6.760   3.203   5.502
13973SOL    HW242264   6.665   3.116   5.403
13974SOL     OW42265   5.816   3.296   4.262
13974SOL    HW142266   5.790   3.392   4.262
13974SOL    HW242267   5.745   3.242   4.307
13975SOL     OW42268   5.826   2.953   4.610
13975SOL    HW142269   5.840   2.869   4.662
13975SOL    HW242270   5.771   3.017   4.665
13976SOL     OW42271   6.206   3.648   5.163
13976SOL    HW142272   6.114   3.631   5.198
13976SOL    HW242273   6.234   3.740   5.189
13977SOL     OW42274   6.192   2.826   3.847
13977SOL    HW142275   6.199   2.910   3.793
13977SOL    HW242276   6.238   2.839   3.935
13978SOL     OW42277   7.180   1.976   5.204
13978SOL    HW142278   7.162   2.043   5.132
13978SOL    HW242279   7.177   2.022   5.293
13979SOL     OW42280   5.708   2.505   4.287
13979SOL    HW142281   5.663   2.417   4.304
13979SOL    HW242282   5.707   2.559   4.371
13980SOL     OW42283   7.428   3.629   4.083
13980SOL    HW142284   7.482   3.600   4.163
13980SOL    HW242285   7.458   3.719   4.054
13981SOL     OW42286   5.613   3.458   3.841
13981SOL    HW142287   5.594   3.362   3.862
13981SOL    HW242288   5.580   3.516   3.916
13982SOL     OW42289   7.275   2.784   4.336
13982SOL    HW142290   7.370   2.755   4.344
13982SOL    HW242291   7.267   2.849   4.261
13983SOL     OW42292   7.227   2.970   4.156
13983SOL    HW142293   7.313   2.972   4.104
13983SOL    HW242294   7.241   3.017   4.244
13984SOL     OW42295   5.699   2.599   5.321
13984SOL    HW142296   5.787   2.586   5.366
13984SOL    HW242297   5.686   2.696   5.299
13985SOL     OW42298   6.199   3.227   4.450
13985SOL    HW142299   6.150   3.140   4.459
13985SOL    HW242300   6.176   3.270   4.363
13986SOL     OW42301   6.879   3.090   5.147
13986SOL    HW142302   6.916   3.017   5.089
13986SOL    HW242303   6.931   3.095   5.232
13987SOL     OW42304   6.395   1.866   4.226
13987SOL    HW142305   6.435   1.957   4.217
13987SOL    HW242306   6.295   1.874   4.232
13988SOL     OW42307   5.783   2.838   4.988
13988SOL    HW142308   5.872   2.793   4.974
13988SOL    HW242309   5.710   2.773   4.969
13989SOL     OW42310   7.111   2.861   3.914
13989SOL    HW142311   7.048   2.785   3.927
13989SOL    HW242312   7.159   2.879   4.000
13990SOL     OW42313   6.773   3.654   5.340
13990SOL    HW142314   6.797   3.714   5.264
13990SOL    HW242315   6.780   3.559   5.310
13991SOL     OW42316   5.903   2.113   5.525
13991SOL    HW142317   5.974   2.184   5.531
13991SOL    HW242318   5.815   2.152   5.553
13992SOL     OW42319   7.052   3.279   4.677
13992SOL    HW142320   6.993   3.285   4.757
13992SOL    HW242321   7.037   3.191   4.631
13993SOL     OW42322   7.253   3.576   4.296
13993SOL    HW142323   7.212   3.553   4.208
13993SOL    HW242324   7.235   3.502   4.361
13994SOL     OW42325   6.184   2.591   3.994
13994SOL    HW142326   6.208   2.660   3.926
13994SOL    HW242327   6.106   2.624   4.048
13995SOL     OW42328   6.867   2.207   4.668
13995SOL    HW142329   6.781   2.157   4.655
13995SOL    HW242330   6.929   2.153   4.724
13996SOL     OW42331   7.162   3.524   4.031
13996SOL    HW142332   7.251   3.570   4.034
13996SOL    HW242333   7.141   3.500   3.936
13997SOL     OW42334   6.393   2.467   5.189
13997SOL    HW142335   6.346   2.464   5.278
13997SOL    HW242336   6.342   2.412   5.123
13998SOL     OW42337   6.980   2.331   5.398
13998SOL    HW142338   6.960   2.374   5.486
13998SOL    HW242339   7.058   2.269   5.407
13999SOL     OW42340   6.559   2.752   5.296
13999SOL    HW142341   6.605   2.668   5.267
13999SOL    HW242342   6.503   2.786   5.221
14000SOL     OW42343   6.577   2.272   4.966
14000SOL    HW142344   6.500   2.306   5.020
14000SOL    HW242345   6.543   2.221   4.887
14001SOL     OW42346   6.627   2.563   4.153
14001SOL    HW142347   6.653   2.559   4.249
14001SOL    HW242348   6.542   2.512   4.139
14002SOL     OW42349   5.662   2.673   4.513
14002SOL    HW142350   5.761   2.661   4.522
14002SOL    HW242351   5.638   2.768   4.534
14003SOL     OW42352   5.716   3.683   5.295
14003SOL    HW142353   5.706   3.668   5.394
14003SOL    HW242354   5.630   3.719   5.259
14004SOL     OW42355   6.451   2.210   3.919
14004SOL    HW142356   6.510   2.273   3.870
14004SOL    HW242357   6.470   2.116   3.890
14005SOL     OW42358   7.305   2.447   5.555
14005SOL    HW142359   7.279   2.536   5.519
14005SOL    HW242360   7.303   2.379   5.482
14006SOL     OW42361   6.948   3.006   4.269
14006SOL    HW142362   7.031   2.977   4.221
14006SOL    HW242363   6.899   3.073   4.213
14007SOL     OW42364   6.136   2.058   4.609
14007SOL    HW142365   6.131   2.053   4.709
14007SOL    HW242366   6.138   2.154   4.580
14008SOL     OW42367   6.594   3.318   4.201
14008SOL    HW142368   6.548   3.390   4.149
14008SOL    HW242369   6.590   3.338   4.299
14009SOL     OW42370   5.937   3.663   4.577
14009SOL    HW142371   5.987   3.577   4.583
14009SOL    HW242372   6.002   3.740   4.574
14010SOL     OW42373   7.381   2.928   4.597
14010SOL    HW142374   7.319   2.913   4.521
14010SOL    HW242375   7.329   2.939   4.682
14011SOL     OW42376   6.813   3.412   5.230
14011SOL    HW142377   6.819   3.335   5.294
14011SOL    HW242378   6.761   3.386   5.150
14012SOL     OW42379   5.907   2.805   3.966
14012SOL    HW142380   5.989   2.844   3.924
14012SOL    HW242381   5.880   2.723   3.917
14013SOL     OW42382   7.044   2.597   4.452
14013SOL    HW142383   7.039   2.532   4.527
14013SOL    HW242384   7.124   2.656   4.465
14014SOL     OW42385   6.047   3.128   5.451
14014SOL    HW142386   5.997   3.129   5.365
14014SOL    HW242387   5.984   3.110   5.527
14015SOL     OW42388   6.697   3.638   3.961
14015SOL    HW142389   6.637   3.576   4.011
14015SOL    HW242390   6.728   3.594   3.876
14016SOL     OW42391   5.788   2.147   5.222
14016SOL    HW142392   5.708   2.207   5.209
14016SOL    HW242393   5.778   2.098   5.308
14017SOL     OW42394   7.218   3.239   3.805
14017SOL    HW142395   7.186   3.333   3.795
14017SOL    HW242396   7.142   3.176   3.793
14018SOL     OW42397   6.050   3.605   4.047
14018SOL    HW142398   6.083   3.644   4.133
14018SOL    HW242399   6.126   3.598   3.982
14019SOL     OW42400   6.986   1.969   4.150
14019SOL    HW142401   6.962   1.932   4.060
14019SOL    HW242402   7.085   1.985   4.154
14020SOL     OW42403   5.835   3.647   4.965
14020SOL    HW142404   5.892   3.582   5.015
14020SOL    HW242405   5.819   3.614   4.872
14021SOL     OW42406   6.526   3.560   4.628
14021SOL    HW142407   6.606   3.503   4.649
14021SOL    HW242408   6.477   3.520   4.551
14022SOL     OW42409   5.968   2.562   4.204
14022SOL    HW142410   6.013   2.472   4.201
14022SOL    HW242411   5.874   2.551   4.237
14023SOL     OW42412   7.133   2.084   5.453
14023SOL    HW142413   7.128   2.121   5.545
14023SOL    HW242414   7.061   2.015   5.441
14024SOL     OW42415   6.200   1.984   3.841
14024SOL    HW142416   6.298   1.962   3.848
14024SOL    HW242417   6.169   1.967   3.748
14025SOL     OW42418   6.367   2.126   5.473
14025SOL    HW142419   6.434   2.065   5.516
14025SOL    HW242420   6.294   2.145   5.538
14026SOL     OW42421   6.474   3.376   4.919
14026SOL    HW142422   6.451   3.351   4.825
14026SOL    HW242423   6.535   3.307   4.958
14027SOL     OW42424   6.389   3.264   4.648
14027SOL    HW142425   6.479   3.278   4.606
14027SOL    HW242426   6.318   3.266   4.577
14028SOL     OW42427   6.508   2.365   4.623
14028SOL    HW142428   6.483   2.356   4.527
14028SOL    HW242429   6.556   2.283   4.654
14029SOL     OW42430   6.125   1.926   4.236
14029SOL    HW142431   6.044   1.927   4.294
14029SOL    HW242432   6.128   2.009   4.181
14030SOL     OW42433   7.020   3.050   3.765
14030SOL    HW142434   7.052   2.974   3.822
14030SOL    HW242435   6.928   3.077   3.795
14031SOL     OW42436   5.883   1.897   3.895
14031SOL    HW142437   5.932   1.981   3.874
14031SOL    HW242438   5.945   1.832   3.940
14032SOL     OW42439   6.521   2.098   4.204
14032SOL    HW142440   6.473   2.139   4.126
14032SOL    HW242441   6.620   2.096   4.185
14033SOL     OW42442   6.662   2.545   5.188
14033SOL    HW142443   6.582   2.484   5.191
14033SOL    HW242444   6.743   2.492   5.164
14034SOL     OW42445   6.813   3.432   4.517
14034SOL    HW142446   6.834   3.506   4.452
14034SOL    HW242447   6.881   3.432   4.590
14035SOL     OW42448   6.045   3.014   4.465
14035SOL    HW142449   5.974   2.987   4.530
14035SOL    HW242450   6.019   2.986   4.372
14036SOL     OW42451   6.857   3.659   4.315
14036SOL    HW142452   6.901   3.723   4.251
14036SOL    HW242453   6.807   3.711   4.385
14037SOL     OW42454   6.618   2.411   3.740
14037SOL    HW142455   6.577   2.493   3.701
14037SOL    HW242456   6.682   2.437   3.813
14038SOL     OW42457   5.664   2.418   5.110
14038SOL    HW142458   5.756   2.417   5.069
14038SOL    HW242459   5.658   2.492   5.177
14039SOL     OW42460   6.147   2.084   4.871
14039SOL    HW142461   6.185   2.000   4.908
14039SOL    HW242462   6.059   2.103   4.915
14040SOL     OW42463   6.452   2.316   4.366
14040SOL    HW142464   6.420   2.388   4.304
14040SOL    HW242465   6.476   2.235   4.313
14041SOL     OW42466   6.603   1.901   4.477
14041SOL    HW142467   6.531   1.906   4.408
14041SOL    HW242468   6.579   1.832   4.546
14042SOL     OW42469   7.015   3.035   4.591
14042SOL    HW142470   6.960   2.951   4.584
14042SOL    HW242471   7.041   3.064   4.499
14043SOL     OW42472   7.052   2.452   4.716
14043SOL    HW142473   7.022   2.357   4.723
14043SOL    HW242474   7.125   2.468   4.782
14044SOL     OW42475   7.443   2.695   4.101
14044SOL    HW142476   7.485   2.631   4.165
14044SOL    HW242477   7.405   2.644   4.023
14045SOL     OW42478   6.074   3.247   3.898
14045SOL    HW142479   5.987   3.232   3.945
14045SOL    HW242480   6.057   3.273   3.803
14046SOL     OW42481   7.250   3.142   4.381
14046SOL    HW142482   7.349   3.150   4.395
14046SOL    HW242483   7.205   3.226   4.412
14047SOL     OW42484   6.976   2.437   3.802
14047SOL    HW142485   6.922   2.416   3.883
14047SOL    HW242486   7.067   2.396   3.811
14048SOL     OW42487   6.113   2.118   4.052
14048SOL    HW142488   6.140   2.059   3.977
14048SOL    HW242489   6.113   2.213   4.021
14049SOL     OW42490   7.340   3.085   5.312
14049SOL    HW142491   7.431   3.046   5.299
14049SOL    HW242492   7.348   3.181   5.336
14050SOL     OW42493   6.650   3.209   5.064
14050SOL    HW142494   6.570   3.186   5.119
14050SOL    HW242495   6.733   3.183   5.113
14051SOL     OW42496   7.178   3.491   5.349
14051SOL    HW142497   7.205   3.525   5.259
14051SOL    HW242498   7.257   3.453   5.395
14052SOL     OW42499   6.697   3.057   4.824
14052SOL    HW142500   6.657   3.101   4.905
14052SOL    HW242501   6.656   3.094   4.741
14053SOL     OW42502   7.224   2.961   4.803
14053SOL    HW142503   7.229   3.042   4.862
14053SOL    HW242504   7.138   2.963   4.752
14054SOL     OW42505   6.501   1.951   5.126
14054SOL    HW142506   6.526   1.931   5.031
14054SOL    HW242507   6.573   2.007   5.168
14055SOL     OW42508   6.566   2.978   5.443
14055SOL    HW142509   6.467   2.984   5.453
14055SOL    HW242510   6.589   2.898   5.387
14056SOL     OW42511   6.291   2.912   4.092
14056SOL    HW142512   6.277   2.919   4.191
14056SOL    HW242513   6.375   2.861   4.074
14057SOL     OW42514   5.996   2.675   4.975
14057SOL    HW142515   6.082   2.687   5.025
14057SOL    HW242516   5.954   2.588   5.002
14058SOL     OW42517   6.860   2.248   4.986
14058SOL    HW142518   6.881   2.322   5.050
14058SOL    HW242519   6.771   2.265   4.943
14059SOL     OW42520   5.650   3.426   5.055
14059SOL    HW142521   5.604   3.508   5.021
14059SOL    HW242522   5.748   3.445   5.064
14060SOL     OW42523   5.953   2.962   4.225
14060SOL    HW142524   5.946   3.045   4.169
14060SOL    HW242525   5.957   2.882   4.165
14061SOL     OW42526   6.152   2.399   4.589
14061SOL    HW142527   6.164   2.465   4.515
14061SOL    HW242528   6.198   2.433   4.672
14062SOL     OW42529   6.838   3.210   4.112
14062SOL    HW142530   6.888   3.287   4.152
14062SOL    HW242531   6.743   3.212   4.144
14063SOL     OW42532   6.858   3.307   4.866
14063SOL    HW142533   6.905   3.320   4.953
14063SOL    HW242534   6.792   3.233   4.875
14064SOL     OW42535   7.168   2.501   4.196
14064SOL    HW142536   7.137   2.562   4.269
14064SOL    HW242537   7.218   2.553   4.127
14065SOL     OW42538   5.940   3.372   5.053
14065SOL    HW142539   5.919   3.328   4.966
14065SOL    HW242540   6.037   3.398   5.056
14066SOL     OW42541   5.988   2.613   5.322
14066SOL    HW142542   6.056   2.668   5.275
14066SOL    HW242543   6.028   2.525   5.349
14067SOL     OW42544   7.173   2.641   5.394
14067SOL    HW142545   7.081   2.679   5.389
14067SOL    HW242546   7.233   2.688   5.329
14068SOL     OW42547   6.599   1.967   5.494
14068SOL    HW142548   6.605   2.052   5.442
14068SOL    HW242549   6.631   1.891   5.437
14069SOL     OW42550   6.090   1.912   5.464
14069SOL    HW142551   6.048   1.855   5.394
14069SOL    HW242552   6.024   1.981   5.496
14070SOL     OW42553   6.159   2.732   4.753
14070SOL    HW142554   6.203   2.821   4.744
14070SOL    HW242555   6.096   2.732   4.830
14071SOL     OW42556   6.946   2.724   4.769
14071SOL    HW142557   6.871   2.724   4.703
14071SOL    HW242558   6.983   2.632   4.778
14072SOL     OW42559   6.795   2.387   3.999
14072SOL    HW142560   6.808   2.303   4.053
14072SOL    HW242561   6.766   2.461   4.059
14073SOL     OW42562   5.893   2.075   4.955
14073SOL    HW142563   5.870   2.112   5.045
14073SOL    HW242564   5.863   1.980   4.949
14074SOL     OW42565   5.623   3.172   5.006
14074SOL    HW142566   5.676   3.123   5.074
14074SOL    HW242567   5.645   3.270   5.011
14075SOL     OW42568   6.318   2.496   4.788
14075SOL    HW142569   6.377   2.470   4.712
14075SOL    HW242570   6.290   2.592   4.777
14076SOL     OW42571   7.314   2.797   5.578
14076SOL    HW142572   7.268   2.790   5.489
14076SOL    HW242573   7.252   2.841   5.644
14077SOL     OW42574   5.893   1.925   4.342
14077SOL    HW142575   5.882   2.019   4.375
14077SOL    HW242576   5.888   1.862   4.419
14078SOL     OW42577   7.208   2.229   4.098
14078SOL    HW142578   7.210   2.153   4.162
14078SOL    HW242579   7.160   2.306   4.138
14079SOL     OW42580   6.609   2.628   4.690
14079SOL    HW142581   6.624   2.649   4.786
14079SOL    HW242582   6.579   2.533   4.681
14080SOL     OW42583   6.566   3.435   5.424
14080SOL    HW142584   6.546   3.479   5.336
14080SOL    HW242585   6.605   3.344   5.408
14081SOL     OW42586   7.445   3.380   5.329
14081SOL    HW142587   7.459   3.407   5.234
14081SOL    HW242588   7.528   3.402   5.382
14082SOL     OW42589   5.936   2.760   5.528
14082SOL    HW142590   6.012   2.804   5.576
14082SOL    HW242591   5.971   2.713   5.446
14083SOL     OW42592   7.126   2.136   3.849
14083SOL    HW142593   7.065   2.061   3.872
14083SOL    HW242594   7.148   2.188   3.932
14084SOL     OW42595   6.889   2.700   3.766
14084SOL    HW142596   6.923   2.607   3.781
14084SOL    HW242597   6.907   2.727   3.671
14085SOL     OW42598   6.654   3.195   4.573
14085SOL    HW142599   6.661   3.111   4.518
14085SOL    HW242600   6.716   3.264   4.537
14086SOL     OW42601   5.905   2.672   4.673
14086SOL    HW142602   5.998   2.708   4.678
14086SOL    HW242603   5.899   2.587   4.725
14087SOL     OW42604   5.925   2.371   4.730
14087SOL    HW142605   5.873   2.288   4.713
14087SOL    HW242606   6.002   2.376   4.666
14088SOL     OW42607   6.724   2.242   5.402
14088SOL    HW142608   6.679   2.305   5.466
14088SOL    HW242609   6.817   2.273   5.385
14089SOL     OW42610   6.746   2.069   5.201
14089SOL    HW142611   6.746   2.133   5.278
14089SOL    HW242612   6.774   2.117   5.118
14090SOL     OW42613   5.594   3.188   3.924
14090SOL    HW142614   5.501   3.209   3.893
14090SOL    HW242615   5.604   3.089   3.937
14091SOL     OW42616   5.674   3.663   4.651
14091SOL    HW142617   5.632   3.577   4.624
14091SOL    HW242618   5.768   3.666   4.617
14092SOL     OW42619   6.090   3.430   4.634
14092SOL    HW142620   6.156   3.504   4.643
14092SOL    HW242621   6.134   3.351   4.592
14093SOL     OW42622   6.588   2.658   4.962
14093SOL    HW142623   6.629   2.626   5.048
14093SOL    HW242624   6.492   2.631   4.959
14094SOL     OW42625   5.626   2.406   4.838
14094SOL    HW142626   5.711   2.373   4.797
14094SOL    HW242627   5.639   2.421   4.936
14095SOL     OW42628   5.775   2.382   5.446
14095SOL    HW142629   5.834   2.342   5.376
14095SOL    HW242630   5.717   2.453   5.405
14096SOL     OW42631   6.955   2.812   5.384
14096SOL    HW142632   6.994   2.901   5.404
14096SOL    HW242633   6.965   2.792   5.287
14097SOL     OW42634   6.401   2.434   4.049
14097SOL    HW142635   6.408   2.345   4.003
14097SOL    HW242636   6.307   2.468   4.041
14098SOL     OW42637   7.243   2.466   4.930
14098SOL    HW142638   7.205   2.397   4.992
14098SOL    HW242639   7.325   2.430   4.886
14099SOL     OW42640   5.838   3.426   5.468
14099SOL    HW142641   5.808   3.483   5.544
14099SOL    HW242642   5.831   3.329   5.494
14100SOL     OW42643   6.257   2.326   4.993
14100SOL    HW142644   6.223   2.237   4.963
14100SOL    HW242645   6.283   2.380   4.913
14101SOL     OW42646   6.516   3.540   5.189
14101SOL    HW142647   6.492   3.522   5.094
14101SOL    HW242648   6.546   3.634   5.199
14102SOL     OW42649   6.059   2.362   3.915
14102SOL    HW142650   6.120   2.442   3.919
14102SOL    HW242651   5.964   2.393   3.922
14103SOL     OW42652   5.745   2.999   5.190
14103SOL    HW142653   5.767   2.938   5.266
14103SOL    HW242654   5.755   2.950   5.104
14104SOL     OW42655   6.933   2.921   4.958
14104SOL    HW142656   6.957   2.858   4.884
14104SOL    HW242657   6.843   2.961   4.940
14105SOL     OW42658   6.888   2.717   4.033
14105SOL    HW142659   6.802   2.686   4.075
14105SOL    HW242660   6.884   2.703   3.934
14106SOL     OW42661   7.345   3.609   4.878
14106SOL    HW142662   7.406   3.639   4.805
14106SOL    HW242663   7.307   3.520   4.856
14107SOL     OW42664   6.838   3.593   4.852
14107SOL    HW142665   6.922   3.598   4.798
14107SOL    HW242666   6.815   3.497   4.870
14108SOL     OW42667   5.669   3.120   4.746
14108SOL    HW142668   5.664   3.119   4.846
14108SOL    HW242669   5.586   3.079   4.708
14109SOL     OW42670   6.274   3.524   5.440
14109SOL    HW142671   6.218   3.605   5.449
14109SOL    HW242672   6.326   3.528   5.354
14110SOL     OW42673   7.312   1.997   4.247
14110SOL    HW142674   7.385   1.980   4.180
14110SOL    HW242675   7.281   1.910   4.285
14111SOL     OW42676   6.974   3.435   4.201
14111SOL    HW142677   7.041   3.447   4.127
14111SOL    HW242678   6.934   3.524   4.224
14112SOL     OW42679   5.716   3.656   5.575
14112SOL    HW142680   5.675   3.582   5.628
14112SOL    HW242681   5.780   3.707   5.633
14113SOL     OW42682   6.866   2.789   4.396
14113SOL    HW142683   6.926   2.708   4.398
14113SOL    HW242684   6.906   2.858   4.336
14114SOL     OW42685   6.416   3.135   5.146
14114SOL    HW142686   6.411   3.168   5.241
14114SOL    HW242687   6.330   3.154   5.100
14115SOL     OW42688   6.258   3.478   3.878
14115SOL    HW142689   6.267   3.488   3.779
14115SOL    HW242690   6.218   3.389   3.899
14116SOL     OW42691   7.236   3.582   5.118
14116SOL    HW142692   7.289   3.592   5.034
14116SOL    HW242693   7.209   3.672   5.152
14117SOL     OW42694   7.427   2.037   4.687
14117SOL    HW142695   7.466   1.952   4.651
14117SOL    HW242696   7.329   2.039   4.668
14118SOL     OW42697   5.849   2.188   4.444
14118SOL    HW142698   5.770   2.239   4.410
14118SOL    HW242699   5.840   2.173   4.542
14119SOL     OW42700   6.780   3.474   3.755
14119SOL    HW142701   6.786   3.381   3.792
14119SOL    HW242702   6.721   3.474   3.675
14120SOL     OW42703   6.408   2.864   5.096
14120SOL    HW142704   6.448   2.863   5.004
14120SOL    HW242705   6.418   2.956   5.136
14121SOL     OW42706   6.502   2.772   4.015
14121SOL    HW142707   6.565   2.810   3.947
14121SOL    HW242708   6.542   2.689   4.054
14122SOL     OW42709   7.090   3.469   3.768
14122SOL    HW142710   6.998   3.506   3.775
14122SOL    HW242711   7.128   3.489   3.678
14123SOL     OW42712   5.958   3.150   5.214
14123SOL    HW142713   5.945   3.243   5.180
14123SOL    HW242714   5.874   3.098   5.201
14124SOL     OW42715   7.200   3.154   5.013
14124SOL    HW142716   7.260   3.157   5.093
14124SOL    HW242717   7.125   3.218   5.026
14125SOL     OW42718   6.625   2.960   4.420
14125SOL    HW142719   6.555   2.913   4.474
14125SOL    HW242720   6.684   2.892   4.377
14126SOL     OW42721   6.600   2.098   4.695
14126SOL    HW142722   6.592   2.062   4.602
14126SOL    HW242723   6.598   2.022   4.760
14127SOL     OW42724   6.176   3.349   4.215
14127SOL    HW142725   6.218   3.291   4.145
14127SOL    HW242726   6.132   3.428   4.171
14128SOL     OW42727   7.295   2.247   5.105
14128SOL    HW142728   7.368   2.316   5.109
14128SOL    HW242729   7.323   2.172   5.046
14129SOL     OW42730   5.841   3.210   4.014
14129SOL    HW142731   5.745   3.211   3.987
14129SOL    HW242732   5.853   3.263   4.098
14130SOL     OW42733   5.691   2.875   5.450
14130SOL    HW142734   5.614   2.842   5.504
14130SOL    HW242735   5.776   2.845   5.492
14131SOL     OW42736   6.258   2.065   5.213
14131SOL    HW142737   6.348   2.049   5.173
14131SOL    HW242738   6.266   2.070   5.312
14132SOL     OW42739   5.661   2.207   3.757
14132SOL    HW142740   5.569   2.179   3.728
14132SOL    HW242741   5.692   2.284   3.701
14133SOL     OW42742   7.026   2.718   5.122
14133SOL    HW142743   6.969   2.770   5.059
14133SOL    HW242744   7.122   2.730   5.098
14134SOL     OW42745   5.658   2.028   4.042
14134SOL    HW142746   5.641   2.111   3.988
14134SOL    HW242747   5.748   1.991   4.020
14135SOL     OW42748   6.769   3.197   3.843
14135SOL    HW142749   6.670   3.186   3.845
14135SOL    HW242750   6.803   3.212   3.936
14136SOL     OW42751   6.199   2.704   5.155
14136SOL    HW142752   6.255   2.785   5.138
14136SOL    HW242753   6.258   2.624   5.158
14137SOL     OW42754   7.079   3.629   4.683
14137SOL    HW142755   7.112   3.693   4.614
14137SOL    HW242756   7.145   3.623   4.758
14138SOL     OW42757   6.302   2.427   5.432
14138SOL    HW142758   6.321   2.492   5.506
14138SOL    HW242759   6.362   2.347   5.441
14139SOL     OW42760   7.036   3.082   5.357
14139SOL    HW142761   7.027   3.072   5.456
14139SOL    HW242762   7.132   3.075   5.331
14140SOL     OW42763   5.976   3.603   5.284
14140SOL    HW142764   5.885   3.644   5.282
14140SOL    HW242765   5.969   3.509   5.316
14141SOL     OW42766   7.260   2.745   4.978
14141SOL    HW142767   7.233   2.656   4.941
14141SOL    HW242768   7.261   2.813   4.905
14142SOL     OW42769   6.811   2.187   4.173
14142SOL    HW142770   6.876   2.113   4.162
14142SOL    HW242771   6.831   2.237   4.257
14143SOL     OW42772   6.180   2.607   4.376
14143SOL    HW142773   6.230   2.692   4.357
14143SOL    HW242774   6.092   2.609   4.328
14144SOL     OW42775   7.363   2.204   5.366
14144SOL    HW142776   7.346   2.235   5.272
14144SOL    HW242777   7.279   2.167   5.404
14145SOL     OW42778   7.316   2.796   5.241
14145SOL    HW142779   7.354   2.887   5.256
14145SOL    HW242780   7.308   2.779   5.142
14146SOL     OW42781   6.445   3.236   3.740
14146SOL    HW142782   6.399   3.251   3.828
14146SOL    HW242783   6.489   3.321   3.710
14147SOL     OW42784   6.247   3.652   4.677
14147SOL    HW142785   6.201   3.740   4.664
14147SOL    HW242786   6.346   3.664   4.670
14148SOL     OW42787   6.445   2.818   4.585
14148SOL    HW142788   6.499   2.749   4.633
14148SOL    HW242789   6.413   2.887   4.651
14149SOL     OW42790   6.669   2.846   3.811
14149SOL    HW142791   6.646   2.899   3.729
14149SOL    HW242792   6.750   2.790   3.792
14150SOL     OW42793   7.447   3.431   4.575
14150SOL    HW142794   7.376   3.419   4.505
14150SOL    HW242795   7.448   3.352   4.635
14151SOL     OW42796   5.807   3.176   5.568
14151SOL    HW142797   5.742   3.103   5.547
14151SOL    HW242798   5.811   3.190   5.666
14152SOL     OW42799   5.665   3.102   4.377
14152SOL    HW142800   5.664   3.055   4.465
14152SOL    HW242801   5.747   3.074   4.326
14153SOL     OW42802   6.258   3.253   5.348
14153SOL    HW142803   6.180   3.203   5.386
14153SOL    HW242804   6.255   3.348   5.379
14154SOL     OW42805   7.410   2.054   4.951
14154SOL    HW142806   7.406   1.964   4.995
14154SOL    HW242807   7.413   2.043   4.852
14155SOL     OW42808   6.014   2.286   4.244
14155SOL    HW142809   6.044   2.214   4.182
14155SOL    HW242810   5.975   2.246   4.327
14156SOL     OW42811   7.291   3.349   4.828
14156SOL    HW142812   7.198   3.324   4.801
14156SOL    HW242813   7.317   3.299   4.910
14157SOL     OW42814   5.903   2.409   5.004
14157SOL    HW142815   5.941   2.350   5.076
14157SOL    HW242816   5.943   2.383   4.916
14158SOL     OW42817   6.398   3.448   4.411
14158SOL    HW142818   6.430   3.458   4.317
14158SOL    HW242819   6.319   3.386   4.413
14159SOL     OW42820   7.010   2.076   4.836
14159SOL    HW142821   7.062   2.011   4.891
14159SOL    HW242822   6.961   2.139   4.897
14160SOL     OW42823   6.587   1.896   4.878
14160SOL    HW142824   6.524   1.824   4.847
14160SOL    HW242825   6.680   1.860   4.878
14161SOL     OW42826   6.356   3.192   4.025
14161SOL    HW142827   6.310   3.105   4.042
14161SOL    HW242828   6.447   3.189   4.066
14162SOL     OW42829   6.204   3.429   5.008
14162SOL    HW142830   6.199   3.511   5.065
14162SOL    HW242831   6.293   3.426   4.963
14163SOL     OW42832   6.938   1.914   3.892
14163SOL    HW142833   6.973   1.873   3.808
14163SOL    HW242834   6.848   1.876   3.912
14164SOL     OW42835   6.886   2.315   4.415
14164SOL    HW142836   6.827   2.395   4.419
14164SOL    HW242837   6.901   2.280   4.508
14165SOL     OW42838   7.179   2.083   4.606
14165SOL    HW142839   7.095   2.082   4.660
14165SOL    HW242840   7.181   2.166   4.550
14166SOL     OW42841   5.625   2.939   4.024
14166SOL    HW142842   5.724   2.928   4.015
14166SOL    HW242843   5.585   2.853   4.056
14167SOL     OW42844   6.461   3.508   4.061
14167SOL    HW142845   6.384   3.473   4.007
14167SOL    HW242846   6.429   3.579   4.123
14168SOL     OW42847   5.816   2.490   5.699
14168SOL    HW142848   5.723   2.488   5.736
14168SOL    HW242849   5.817   2.451   5.607
14169SOL     OW42850   5.811   2.137   6.582
14169SOL    HW142851   5.846   2.120   6.674
14169SOL    HW242852   5.723   2.092   6.570
14170SOL     OW42853   5.605   2.230   6.233
14170SOL    HW142854   5.523   2.273   6.272
14170SOL    HW242855   5.577   2.157   6.170
14171SOL     OW42856   6.155   3.137   6.751
14171SOL    HW142857   6.062   3.130   6.714
14171SOL    HW242858   6.166   3.226   6.795
14172SOL     OW42859   7.141   3.373   6.289
14172SOL    HW142860   7.084   3.357   6.370
14172SOL    HW242861   7.082   3.383   6.209
14173SOL     OW42862   6.721   2.565   6.303
14173SOL    HW142863   6.778   2.643   6.278
14173SOL    HW242864   6.661   2.591   6.379
14174SOL     OW42865   7.341   2.469   5.817
14174SOL    HW142866   7.329   2.456   5.718
14174SOL    HW242867   7.311   2.388   5.866
14175SOL     OW42868   6.354   3.006   6.609
14175SOL    HW142869   6.276   3.023   6.669
14175SOL    HW242870   6.388   3.093   6.573
14176SOL     OW42871   6.436   2.660   7.409
14176SOL    HW142872   6.432   2.736   7.474
14176SOL    HW242873   6.458   2.696   7.318
14177SOL     OW42874   6.271   2.874   6.251
14177SOL    HW142875   6.340   2.858   6.321
14177SOL    HW242876   6.198   2.931   6.289
14178SOL     OW42877   6.272   3.023   7.389
14178SOL    HW142878   6.332   3.102   7.403
14178SOL    HW242879   6.186   3.054   7.348
14179SOL     OW42880   5.921   3.297   6.647
14179SOL    HW142881   5.843   3.266   6.594
14179SOL    HW242882   5.979   3.355   6.590
14180SOL     OW42883   7.046   3.367   6.925
14180SOL    HW142884   7.070   3.461   6.951
14180SOL    HW242885   7.030   3.313   7.007
14181SOL     OW42886   6.024   2.254   7.085
14181SOL    HW142887   6.106   2.198   7.094
14181SOL    HW242888   5.943   2.196   7.089
14182SOL     OW42889   7.189   2.309   6.323
14182SOL    HW142890   7.115   2.355   6.273
14182SOL    HW242891   7.240   2.377   6.376
14183SOL     OW42892   5.817   3.575   6.069
14183SOL    HW142893   5.851   3.652   6.123
14183SOL    HW242894   5.861   3.575   5.979
14184SOL     OW42895   6.713   3.203   7.276
14184SOL    HW142896   6.760   3.203   7.364
14184SOL    HW242897   6.665   3.116   7.265
14185SOL     OW42898   5.816   3.296   6.124
14185SOL    HW142899   5.790   3.392   6.124
14185SOL    HW242900   5.745   3.242   6.169
14186SOL     OW42901   5.826   2.953   6.472
14186SOL    HW142902   5.840   2.869   6.524
14186SOL    HW242903   5.771   3.017   6.527
14187SOL     OW42904   6.206   3.648   7.025
14187SOL    HW142905   6.114   3.631   7.060
14187SOL    HW242906   6.234   3.740   7.051
14188SOL     OW42907   6.192   2.826   5.709
14188SOL    HW142908   6.199   2.910   5.655
14188SOL    HW242909   6.238   2.839   5.797
14189SOL     OW42910   7.180   1.976   7.066
14189SOL    HW142911   7.162   2.043   6.994
14189SOL    HW242912   7.177   2.022   7.155
14190SOL     OW42913   5.708   2.505   6.149
14190SOL    HW142914   5.663   2.417   6.166
14190SOL    HW242915   5.707   2.559   6.233
14191SOL     OW42916   7.428   3.629   5.945
14191SOL    HW142917   7.482   3.600   6.025
14191SOL    HW242918   7.458   3.719   5.916
14192SOL     OW42919   5.613   3.458   5.703
14192SOL    HW142920   5.594   3.362   5.724
14192SOL    HW242921   5.580   3.516   5.778
14193SOL     OW42922   7.275   2.784   6.198
14193SOL    HW142923   7.370   2.755   6.206
14193SOL    HW242924   7.267   2.849   6.123
14194SOL     OW42925   7.227   2.970   6.018
14194SOL    HW142926   7.313   2.972   5.966
14194SOL    HW242927   7.241   3.017   6.106
14195SOL     OW42928   5.699   2.599   7.183
14195SOL    HW142929   5.787   2.586   7.228
14195SOL    HW242930   5.686   2.696   7.161
14196SOL     OW42931   6.199   3.227   6.312
14196SOL    HW142932   6.150   3.140   6.321
14196SOL    HW242933   6.176   3.270   6.225
14197SOL     OW42934   6.879   3.090   7.009
14197SOL    HW142935   6.916   3.017   6.951
14197SOL    HW242936   6.931   3.095   7.094
14198SOL     OW42937   6.395   1.866   6.088
14198SOL    HW142938   6.435   1.957   6.079
14198SOL    HW242939   6.295   1.874   6.094
14199SOL     OW42940   5.783   2.838   6.850
14199SOL    HW142941   5.872   2.793   6.836
14199SOL    HW242942   5.710   2.773   6.831
14200SOL     OW42943   7.111   2.861   5.776
14200SOL    HW142944   7.048   2.785   5.789
14200SOL    HW242945   7.159   2.879   5.862
14201SOL     OW42946   6.773   3.654   7.202
14201SOL    HW142947   6.797   3.714   7.126
14201SOL    HW242948   6.780   3.559   7.172
14202SOL     OW42949   5.903   2.113   7.387
14202SOL    HW142950   5.974   2.184   7.393
14202SOL    HW242951   5.815   2.152   7.415
14203SOL     OW42952   7.052   3.279   6.539
14203SOL    HW142953   6.993   3.285   6.619
14203SOL    HW242954   7.037   3.191   6.493
14204SOL     OW42955   7.253   3.576   6.158
14204SOL    HW142956   7.212   3.553   6.070
14204SOL    HW242957   7.235   3.502   6.223
14205SOL     OW42958   6.184   2.591   5.856
14205SOL    HW142959   6.208   2.660   5.788
14205SOL    HW242960   6.106   2.624   5.910
14206SOL     OW42961   6.867   2.207   6.530
14206SOL    HW142962   6.781   2.157   6.517
14206SOL    HW242963   6.929   2.153   6.586
14207SOL     OW42964   7.162   3.524   5.893
14207SOL    HW142965   7.251   3.570   5.896
14207SOL    HW242966   7.141   3.500   5.798
14208SOL     OW42967   6.393   2.467   7.051
14208SOL    HW142968   6.346   2.464   7.140
14208SOL    HW242969   6.342   2.412   6.985
14209SOL     OW42970   6.980   2.331   7.260
14209SOL    HW142971   6.960   2.374   7.348
14209SOL    HW242972   7.058   2.269   7.269
14210SOL     OW42973   6.559   2.752   7.158
14210SOL    HW142974   6.605   2.668   7.129
14210SOL    HW242975   6.503   2.786   7.083
14211SOL     OW42976   6.577   2.272   6.828
14211SOL    HW142977   6.500   2.306   6.882
14211SOL    HW242978   6.543   2.221   6.749
14212SOL     OW42979   6.627   2.563   6.015
14212SOL    HW142980   6.653   2.559   6.111
14212SOL    HW242981   6.542   2.512   6.001
14213SOL     OW42982   5.662   2.673   6.375
14213SOL    HW142983   5.761   2.661   6.384
14213SOL    HW242984   5.638   2.768   6.396
14214SOL     OW42985   5.716   3.683   7.157
14214SOL    HW142986   5.706   3.668   7.256
14214SOL    HW242987   5.630   3.719   7.121
14215SOL     OW42988   6.451   2.210   5.781
14215SOL    HW142989   6.510   2.273   5.732
14215SOL    HW242990   6.470   2.116   5.752
14216SOL     OW42991   7.305   2.447   7.417
14216SOL    HW142992   7.279   2.536   7.381
14216SOL    HW242993   7.303   2.379   7.344
14217SOL     OW42994   6.948   3.006   6.131
14217SOL    HW142995   7.031   2.977   6.083
14217SOL    HW242996   6.899   3.073   6.075
14218SOL     OW42997   6.136   2.058   6.471
14218SOL    HW142998   6.131   2.053   6.571
14218SOL    HW242999   6.138   2.154   6.442
14219SOL     OW43000   6.594   3.318   6.063
14219SOL    HW143001   6.548   3.390   6.011
14219SOL    HW243002   6.590   3.338   6.161
14220SOL     OW43003   5.937   3.663   6.439
14220SOL    HW143004   5.987   3.577   6.445
14220SOL    HW243005   6.002   3.740   6.436
14221SOL     OW43006   7.381   2.928   6.459
14221SOL    HW143007   7.319   2.913   6.383
14221SOL    HW243008   7.329   2.939   6.544
14222SOL     OW43009   6.813   3.412   7.092
14222SOL    HW143010   6.819   3.335   7.156
14222SOL    HW243011   6.761   3.386   7.012
14223SOL     OW43012   5.907   2.805   5.828
14223SOL    HW143013   5.989   2.844   5.786
14223SOL    HW243014   5.880   2.723   5.779
14224SOL     OW43015   7.044   2.597   6.314
14224SOL    HW143016   7.039   2.532   6.389
14224SOL    HW243017   7.124   2.656   6.327
14225SOL     OW43018   6.047   3.128   7.313
14225SOL    HW143019   5.997   3.129   7.227
14225SOL    HW243020   5.984   3.110   7.389
14226SOL     OW43021   6.697   3.638   5.823
14226SOL    HW143022   6.637   3.576   5.873
14226SOL    HW243023   6.728   3.594   5.738
14227SOL     OW43024   5.788   2.147   7.084
14227SOL    HW143025   5.708   2.207   7.071
14227SOL    HW243026   5.778   2.098   7.170
14228SOL     OW43027   7.218   3.239   5.667
14228SOL    HW143028   7.186   3.333   5.657
14228SOL    HW243029   7.142   3.176   5.655
14229SOL     OW43030   6.050   3.605   5.909
14229SOL    HW143031   6.083   3.644   5.995
14229SOL    HW243032   6.126   3.598   5.844
14230SOL     OW43033   6.986   1.969   6.012
14230SOL    HW143034   6.962   1.932   5.922
14230SOL    HW243035   7.085   1.985   6.016
14231SOL     OW43036   5.835   3.647   6.827
14231SOL    HW143037   5.892   3.582   6.877
14231SOL    HW243038   5.819   3.614   6.734
14232SOL     OW43039   6.526   3.560   6.490
14232SOL    HW143040   6.606   3.503   6.511
14232SOL    HW243041   6.477   3.520   6.413
14233SOL     OW43042   5.968   2.562   6.066
14233SOL    HW143043   6.013   2.472   6.063
14233SOL    HW243044   5.874   2.551   6.099
14234SOL     OW43045   7.133   2.084   7.315
14234SOL    HW143046   7.128   2.121   7.407
14234SOL    HW243047   7.061   2.015   7.303
14235SOL     OW43048   6.200   1.984   5.703
14235SOL    HW143049   6.298   1.962   5.710
14235SOL    HW243050   6.169   1.967   5.610
14236SOL     OW43051   6.367   2.126   7.335
14236SOL    HW143052   6.434   2.065   7.378
14236SOL    HW243053   6.294   2.145   7.400
14237SOL     OW43054   6.474   3.376   6.781
14237SOL    HW143055   6.451   3.351   6.687
14237SOL    HW243056   6.535   3.307   6.820
14238SOL     OW43057   6.937   2.452   7.019
14238SOL    HW143058   6.965   2.409   7.104
14238SOL    HW243059   6.962   2.548   7.020
14239SOL     OW43060   6.389   3.264   6.510
14239SOL    HW143061   6.479   3.278   6.468
14239SOL    HW243062   6.318   3.266   6.439
14240SOL     OW43063   6.508   2.365   6.485
14240SOL    HW143064   6.483   2.356   6.389
14240SOL    HW243065   6.556   2.283   6.516
14241SOL     OW43066   6.125   1.926   6.098
14241SOL    HW143067   6.044   1.927   6.156
14241SOL    HW243068   6.128   2.009   6.043
14242SOL     OW43069   7.020   3.050   5.627
14242SOL    HW143070   7.052   2.974   5.684
14242SOL    HW243071   6.928   3.077   5.657
14243SOL     OW43072   5.883   1.897   5.757
14243SOL    HW143073   5.932   1.981   5.736
14243SOL    HW243074   5.945   1.832   5.802
14244SOL     OW43075   6.521   2.098   6.066
14244SOL    HW143076   6.473   2.139   5.988
14244SOL    HW243077   6.620   2.096   6.047
14245SOL     OW43078   6.662   2.545   7.050
14245SOL    HW143079   6.582   2.484   7.053
14245SOL    HW243080   6.743   2.492   7.026
14246SOL     OW43081   6.813   3.432   6.379
14246SOL    HW143082   6.834   3.506   6.314
14246SOL    HW243083   6.881   3.432   6.452
14247SOL     OW43084   6.045   3.014   6.327
14247SOL    HW143085   5.974   2.987   6.392
14247SOL    HW243086   6.019   2.986   6.234
14248SOL     OW43087   6.857   3.659   6.177
14248SOL    HW143088   6.901   3.723   6.113
14248SOL    HW243089   6.807   3.711   6.247
14249SOL     OW43090   6.618   2.411   5.602
14249SOL    HW143091   6.577   2.493   5.563
14249SOL    HW243092   6.682   2.437   5.675
14250SOL     OW43093   5.664   2.418   6.972
14250SOL    HW143094   5.756   2.417   6.931
14250SOL    HW243095   5.658   2.492   7.039
14251SOL     OW43096   6.147   2.084   6.733
14251SOL    HW143097   6.185   2.000   6.770
14251SOL    HW243098   6.059   2.103   6.777
14252SOL     OW43099   6.452   2.316   6.228
14252SOL    HW143100   6.420   2.388   6.166
14252SOL    HW243101   6.476   2.235   6.175
14253SOL     OW43102   6.603   1.901   6.339
14253SOL    HW143103   6.531   1.906   6.270
14253SOL    HW243104   6.579   1.832   6.408
14254SOL     OW43105   7.015   3.035   6.453
14254SOL    HW143106   6.960   2.951   6.446
14254SOL    HW243107   7.041   3.064   6.361
14255SOL     OW43108   7.052   2.452   6.578
14255SOL    HW143109   7.022   2.357   6.585
14255SOL    HW243110   7.125   2.468   6.644
14256SOL     OW43111   7.443   2.695   5.963
14256SOL    HW143112   7.485   2.631   6.027
14256SOL    HW243113   7.405   2.644   5.885
14257SOL     OW43114   6.074   3.247   5.760
14257SOL    HW143115   5.987   3.232   5.807
14257SOL    HW243116   6.057   3.273   5.665
14258SOL     OW43117   7.250   3.142   6.243
14258SOL    HW143118   7.349   3.150   6.257
14258SOL    HW243119   7.205   3.226   6.274
14259SOL     OW43120   6.976   2.437   5.664
14259SOL    HW143121   6.922   2.416   5.745
14259SOL    HW243122   7.067   2.396   5.673
14260SOL     OW43123   6.113   2.118   5.914
14260SOL    HW143124   6.140   2.059   5.839
14260SOL    HW243125   6.113   2.213   5.883
14261SOL     OW43126   7.340   3.085   7.174
14261SOL    HW143127   7.431   3.046   7.161
14261SOL    HW243128   7.348   3.181   7.198
14262SOL     OW43129   6.650   3.209   6.926
14262SOL    HW143130   6.570   3.186   6.981
14262SOL    HW243131   6.733   3.183   6.975
14263SOL     OW43132   7.178   3.491   7.211
14263SOL    HW143133   7.205   3.525   7.121
14263SOL    HW243134   7.257   3.453   7.257
14264SOL     OW43135   6.697   3.057   6.686
14264SOL    HW143136   6.657   3.101   6.767
14264SOL    HW243137   6.656   3.094   6.603
14265SOL     OW43138   7.224   2.961   6.665
14265SOL    HW143139   7.229   3.042   6.724
14265SOL    HW243140   7.138   2.963   6.614
14266SOL     OW43141   6.501   1.951   6.988
14266SOL    HW143142   6.526   1.931   6.893
14266SOL    HW243143   6.573   2.007   7.030
14267SOL     OW43144   6.566   2.978   7.305
14267SOL    HW143145   6.467   2.984   7.315
14267SOL    HW243146   6.589   2.898   7.249
14268SOL     OW43147   6.291   2.912   5.954
14268SOL    HW143148   6.277   2.919   6.053
14268SOL    HW243149   6.375   2.861   5.936
14269SOL     OW43150   5.996   2.675   6.837
14269SOL    HW143151   6.082   2.687   6.887
14269SOL    HW243152   5.954   2.588   6.864
14270SOL     OW43153   6.860   2.248   6.848
14270SOL    HW143154   6.881   2.322   6.912
14270SOL    HW243155   6.771   2.265   6.805
14271SOL     OW43156   5.650   3.426   6.917
14271SOL    HW143157   5.604   3.508   6.883
14271SOL    HW243158   5.748   3.445   6.926
14272SOL     OW43159   5.953   2.962   6.087
14272SOL    HW143160   5.946   3.045   6.031
14272SOL    HW243161   5.957   2.882   6.027
14273SOL     OW43162   6.152   2.399   6.451
14273SOL    HW143163   6.164   2.465   6.377
14273SOL    HW243164   6.198   2.433   6.534
14274SOL     OW43165   6.838   3.210   5.974
14274SOL    HW143166   6.888   3.287   6.014
14274SOL    HW243167   6.743   3.212   6.006
14275SOL     OW43168   6.858   3.307   6.728
14275SOL    HW143169   6.905   3.320   6.815
14275SOL    HW243170   6.792   3.233   6.737
14276SOL     OW43171   7.168   2.501   6.058
14276SOL    HW143172   7.137   2.562   6.131
14276SOL    HW243173   7.218   2.553   5.989
14277SOL     OW43174   5.940   3.372   6.915
14277SOL    HW143175   5.919   3.328   6.828
14277SOL    HW243176   6.037   3.398   6.918
14278SOL     OW43177   5.988   2.613   7.184
14278SOL    HW143178   6.056   2.668   7.137
14278SOL    HW243179   6.028   2.525   7.211
14279SOL     OW43180   7.173   2.641   7.256
14279SOL    HW143181   7.081   2.679   7.251
14279SOL    HW243182   7.233   2.688   7.191
14280SOL     OW43183   6.599   1.967   7.356
14280SOL    HW143184   6.605   2.052   7.304
14280SOL    HW243185   6.631   1.891   7.299
14281SOL     OW43186   6.090   1.912   7.326
14281SOL    HW143187   6.048   1.855   7.256
14281SOL    HW243188   6.024   1.981   7.358
14282SOL     OW43189   6.159   2.732   6.615
14282SOL    HW143190   6.203   2.821   6.606
14282SOL    HW243191   6.096   2.732   6.692
14283SOL     OW43192   6.946   2.724   6.631
14283SOL    HW143193   6.871   2.724   6.565
14283SOL    HW243194   6.983   2.632   6.640
14284SOL     OW43195   6.795   2.387   5.861
14284SOL    HW143196   6.808   2.303   5.915
14284SOL    HW243197   6.766   2.461   5.921
14285SOL     OW43198   5.893   2.075   6.817
14285SOL    HW143199   5.870   2.112   6.907
14285SOL    HW243200   5.863   1.980   6.811
14286SOL     OW43201   5.623   3.172   6.868
14286SOL    HW143202   5.676   3.123   6.936
14286SOL    HW243203   5.645   3.270   6.873
14287SOL     OW43204   6.318   2.496   6.650
14287SOL    HW143205   6.377   2.470   6.574
14287SOL    HW243206   6.290   2.592   6.639
14288SOL     OW43207   7.314   2.797   7.440
14288SOL    HW143208   7.268   2.790   7.351
14288SOL    HW243209   7.252   2.841   7.506
14289SOL     OW43210   5.893   1.925   6.204
14289SOL    HW143211   5.882   2.019   6.237
14289SOL    HW243212   5.888   1.862   6.281
14290SOL     OW43213   7.208   2.229   5.960
14290SOL    HW143214   7.210   2.153   6.024
14290SOL    HW243215   7.160   2.306   6.000
14291SOL     OW43216   6.609   2.628   6.552
14291SOL    HW143217   6.624   2.649   6.648
14291SOL    HW243218   6.579   2.533   6.543
14292SOL     OW43219   6.566   3.435   7.286
14292SOL    HW143220   6.546   3.479   7.198
14292SOL    HW243221   6.605   3.344   7.270
14293SOL     OW43222   7.445   3.380   7.191
14293SOL    HW143223   7.459   3.407   7.096
14293SOL    HW243224   7.528   3.402   7.244
14294SOL     OW43225   5.936   2.760   7.390
14294SOL    HW143226   6.012   2.804   7.438
14294SOL    HW243227   5.971   2.713   7.308
14295SOL     OW43228   7.126   2.136   5.711
14295SOL    HW143229   7.065   2.061   5.734
14295SOL    HW243230   7.148   2.188   5.794
14296SOL     OW43231   6.889   2.700   5.628
14296SOL    HW143232   6.923   2.607   5.643
14296SOL    HW243233   6.907   2.727   5.533
14297SOL     OW43234   6.654   3.195   6.435
14297SOL    HW143235   6.661   3.111   6.380
14297SOL    HW243236   6.716   3.264   6.399
14298SOL     OW43237   5.905   2.672   6.535
14298SOL    HW143238   5.998   2.708   6.540
14298SOL    HW243239   5.899   2.587   6.587
14299SOL     OW43240   5.925   2.371   6.592
14299SOL    HW143241   5.873   2.288   6.575
14299SOL    HW243242   6.002   2.376   6.528
14300SOL     OW43243   6.724   2.242   7.264
14300SOL    HW143244   6.679   2.305   7.328
14300SOL    HW243245   6.817   2.273   7.247
14301SOL     OW43246   6.746   2.069   7.063
14301SOL    HW143247   6.746   2.133   7.140
14301SOL    HW243248   6.774   2.117   6.980
14302SOL     OW43249   5.594   3.188   5.786
14302SOL    HW143250   5.501   3.209   5.755
14302SOL    HW243251   5.604   3.089   5.799
14303SOL     OW43252   5.674   3.663   6.513
14303SOL    HW143253   5.632   3.577   6.486
14303SOL    HW243254   5.768   3.666   6.479
14304SOL     OW43255   6.090   3.430   6.496
14304SOL    HW143256   6.156   3.504   6.505
14304SOL    HW243257   6.134   3.351   6.454
14305SOL     OW43258   6.588   2.658   6.824
14305SOL    HW143259   6.629   2.626   6.910
14305SOL    HW243260   6.492   2.631   6.821
14306SOL     OW43261   5.626   2.406   6.700
14306SOL    HW143262   5.711   2.373   6.659
14306SOL    HW243263   5.639   2.421   6.798
14307SOL     OW43264   5.775   2.382   7.308
14307SOL    HW143265   5.834   2.342   7.238
14307SOL    HW243266   5.717   2.453   7.267
14308SOL     OW43267   6.955   2.812   7.246
14308SOL    HW143268   6.994   2.901   7.266
14308SOL    HW243269   6.965   2.792   7.149
14309SOL     OW43270   6.401   2.434   5.911
14309SOL    HW143271   6.408   2.345   5.865
14309SOL    HW243272   6.307   2.468   5.903
14310SOL     OW43273   7.243   2.466   6.792
14310SOL    HW143274   7.205   2.397   6.854
14310SOL    HW243275   7.325   2.430   6.748
14311SOL     OW43276   5.838   3.426   7.330
14311SOL    HW143277   5.808   3.483   7.406
14311SOL    HW243278   5.831   3.329   7.356
14312SOL     OW43279   6.257   2.326   6.855
14312SOL    HW143280   6.223   2.237   6.825
14312SOL    HW243281   6.283   2.380   6.775
14313SOL     OW43282   6.516   3.540   7.051
14313SOL    HW143283   6.492   3.522   6.956
14313SOL    HW243284   6.546   3.634   7.061
14314SOL     OW43285   6.059   2.362   5.777
14314SOL    HW143286   6.120   2.442   5.781
14314SOL    HW243287   5.964   2.393   5.784
14315SOL     OW43288   5.745   2.999   7.052
14315SOL    HW143289   5.767   2.938   7.128
14315SOL    HW243290   5.755   2.950   6.966
14316SOL     OW43291   6.933   2.921   6.820
14316SOL    HW143292   6.957   2.858   6.746
14316SOL    HW243293   6.843   2.961   6.802
14317SOL     OW43294   6.888   2.717   5.895
14317SOL    HW143295   6.802   2.686   5.937
14317SOL    HW243296   6.884   2.703   5.796
14318SOL     OW43297   7.345   3.609   6.740
14318SOL    HW143298   7.406   3.639   6.667
14318SOL    HW243299   7.307   3.520   6.718
14319SOL     OW43300   6.838   3.593   6.714
14319SOL    HW143301   6.922   3.598   6.660
14319SOL    HW243302   6.815   3.497   6.732
14320SOL     OW43303   5.669   3.120   6.608
14320SOL    HW143304   5.664   3.119   6.708
14320SOL    HW243305   5.586   3.079   6.570
14321SOL     OW43306   6.274   3.524   7.302
14321SOL    HW143307   6.218   3.605   7.311
14321SOL    HW243308   6.326   3.528   7.216
14322SOL     OW43309   7.312   1.997   6.109
14322SOL    HW143310   7.385   1.980   6.042
14322SOL    HW243311   7.281   1.910   6.147
14323SOL     OW43312   6.974   3.435   6.063
14323SOL    HW143313   7.041   3.447   5.989
14323SOL    HW243314   6.934   3.524   6.086
14324SOL     OW43315   5.716   3.656   7.437
14324SOL    HW143316   5.675   3.582   7.490
14324SOL    HW243317   5.780   3.707   7.495
14325SOL     OW43318   6.866   2.789   6.258
14325SOL    HW143319   6.926   2.708   6.260
14325SOL    HW243320   6.906   2.858   6.198
14326SOL     OW43321   6.416   3.135   7.008
14326SOL    HW143322   6.411   3.168   7.103
14326SOL    HW243323   6.330   3.154   6.962
14327SOL     OW43324   6.258   3.478   5.740
14327SOL    HW143325   6.267   3.488   5.641
14327SOL    HW243326   6.218   3.389   5.761
14328SOL     OW43327   7.236   3.582   6.980
14328SOL    HW143328   7.289   3.592   6.896
14328SOL    HW243329   7.209   3.672   7.014
14329SOL     OW43330   7.427   2.037   6.549
14329SOL    HW143331   7.466   1.952   6.513
14329SOL    HW243332   7.329   2.039   6.530
14330SOL     OW43333   5.849   2.188   6.306
14330SOL    HW143334   5.770   2.239   6.272
14330SOL    HW243335   5.840   2.173   6.404
14331SOL     OW43336   6.780   3.474   5.617
14331SOL    HW143337   6.786   3.381   5.654
14331SOL    HW243338   6.721   3.474   5.537
14332SOL     OW43339   6.408   2.864   6.958
14332SOL    HW143340   6.448   2.863   6.866
14332SOL    HW243341   6.418   2.956   6.998
14333SOL     OW43342   6.502   2.772   5.877
14333SOL    HW143343   6.565   2.810   5.809
14333SOL    HW243344   6.542   2.689   5.916
14334SOL     OW43345   7.090   3.469   5.630
14334SOL    HW143346   6.998   3.506   5.637
14334SOL    HW243347   7.128   3.489   5.540
14335SOL     OW43348   5.958   3.150   7.076
14335SOL    HW143349   5.945   3.243   7.042
14335SOL    HW243350   5.874   3.098   7.063
14336SOL     OW43351   7.200   3.154   6.875
14336SOL    HW143352   7.260   3.157   6.955
14336SOL    HW243353   7.125   3.218   6.888
14337SOL     OW43354   6.625   2.960   6.282
14337SOL    HW143355   6.555   2.913   6.336
14337SOL    HW243356   6.684   2.892   6.239
14338SOL     OW43357   6.600   2.098   6.557
14338SOL    HW143358   6.592   2.062   6.464
14338SOL    HW243359   6.598   2.022   6.622
14339SOL     OW43360   6.176   3.349   6.077
14339SOL    HW143361   6.218   3.291   6.007
14339SOL    HW243362   6.132   3.428   6.033
14340SOL     OW43363   7.295   2.247   6.967
14340SOL    HW143364   7.368   2.316   6.971
14340SOL    HW243365   7.323   2.172   6.908
14341SOL     OW43366   5.841   3.210   5.876
14341SOL    HW143367   5.745   3.211   5.849
14341SOL    HW243368   5.853   3.263   5.960
14342SOL     OW43369   5.691   2.875   7.312
14342SOL    HW143370   5.614   2.842   7.366
14342SOL    HW243371   5.776   2.845   7.354
14343SOL     OW43372   6.258   2.065   7.075
14343SOL    HW143373   6.348   2.049   7.035
14343SOL    HW243374   6.266   2.070   7.174
14344SOL     OW43375   5.661   2.207   5.619
14344SOL    HW143376   5.569   2.179   5.590
14344SOL    HW243377   5.692   2.284   5.563
14345SOL     OW43378   7.026   2.718   6.984
14345SOL    HW143379   6.969   2.770   6.921
14345SOL    HW243380   7.122   2.730   6.960
14346SOL     OW43381   5.658   2.028   5.904
14346SOL    HW143382   5.641   2.111   5.850
14346SOL    HW243383   5.748   1.991   5.882
14347SOL     OW43384   6.769   3.197   5.705
14347SOL    HW143385   6.670   3.186   5.707
14347SOL    HW243386   6.803   3.212   5.798
14348SOL     OW43387   6.199   2.704   7.017
14348SOL    HW143388   6.255   2.785   7.000
14348SOL    HW243389   6.258   2.624   7.020
14349SOL     OW43390   7.079   3.629   6.545
14349SOL    HW143391   7.112   3.693   6.476
14349SOL    HW243392   7.145   3.623   6.620
14350SOL     OW43393   6.302   2.427   7.294
14350SOL    HW143394   6.321   2.492   7.368
14350SOL    HW243395   6.362   2.347   7.303
14351SOL     OW43396   7.036   3.082   7.219
14351SOL    HW143397   7.027   3.072   7.318
14351SOL    HW243398   7.132   3.075   7.193
14352SOL     OW43399   5.976   3.603   7.146
14352SOL    HW143400   5.885   3.644   7.144
14352SOL    HW243401   5.969   3.509   7.178
14353SOL     OW43402   7.260   2.745   6.840
14353SOL    HW143403   7.233   2.656   6.803
14353SOL    HW243404   7.261   2.813   6.767
14354SOL     OW43405   6.811   2.187   6.035
14354SOL    HW143406   6.876   2.113   6.024
14354SOL    HW243407   6.831   2.237   6.119
14355SOL     OW43408   6.180   2.607   6.238
14355SOL    HW143409   6.230   2.692   6.219
14355SOL    HW243410   6.092   2.609   6.190
14356SOL     OW43411   7.363   2.204   7.228
14356SOL    HW143412   7.346   2.235   7.134
14356SOL    HW243413   7.279   2.167   7.266
14357SOL     OW43414   7.316   2.796   7.103
14357SOL    HW143415   7.354   2.887   7.118
14357SOL    HW243416   7.308   2.779   7.004
14358SOL     OW43417   6.445   3.236   5.602
14358SOL    HW143418   6.399   3.251   5.690
14358SOL    HW243419   6.489   3.321   5.572
14359SOL     OW43420   6.247   3.652   6.539
14359SOL    HW143421   6.201   3.740   6.526
14359SOL    HW243422   6.346   3.664   6.532
14360SOL     OW43423   6.445   2.818   6.447
14360SOL    HW143424   6.499   2.749   6.495
14360SOL    HW243425   6.413   2.887   6.513
14361SOL     OW43426   6.669   2.846   5.673
14361SOL    HW143427   6.646   2.899   5.591
14361SOL    HW243428   6.750   2.790   5.654
14362SOL     OW43429   7.447   3.431   6.437
14362SOL    HW143430   7.376   3.419   6.367
14362SOL    HW243431   7.448   3.352   6.497
14363SOL     OW43432   5.807   3.176   7.430
14363SOL    HW143433   5.742   3.103   7.409
14363SOL    HW243434   5.811   3.190   7.528
14364SOL     OW43435   5.665   3.102   6.239
14364SOL    HW143436   5.664   3.055   6.327
14364SOL    HW243437   5.747   3.074   6.188
14365SOL     OW43438   6.258   3.253   7.210
14365SOL    HW143439   6.180   3.203   7.248
14365SOL    HW243440   6.255   3.348   7.241
14366SOL     OW43441   7.410   2.054   6.813
14366SOL    HW143442   7.406   1.964   6.857
14366SOL    HW243443   7.413   2.043   6.714
14367SOL     OW43444   6.014   2.286   6.106
14367SOL    HW143445   6.044   2.214   6.044
14367SOL    HW243446   5.975   2.246   6.189
14368SOL     OW43447   7.291   3.349   6.690
14368SOL    HW143448   7.198   3.324   6.663
14368SOL    HW243449   7.317   3.299   6.772
14369SOL     OW43450   5.903   2.409   6.866
14369SOL    HW143451   5.941   2.350   6.938
14369SOL    HW243452   5.943   2.383   6.778
14370SOL     OW43453   6.398   3.448   6.273
14370SOL    HW143454   6.430   3.458   6.179
14370SOL    HW243455   6.319   3.386   6.275
14371SOL     OW43456   7.010   2.076   6.698
14371SOL    HW143457   7.062   2.011   6.753
14371SOL    HW243458   6.961   2.139   6.759
14372SOL     OW43459   6.587   1.896   6.740
14372SOL    HW143460   6.524   1.824   6.709
14372SOL    HW243461   6.680   1.860   6.740
14373SOL     OW43462   6.356   3.192   5.887
14373SOL    HW143463   6.310   3.105   5.904
14373SOL    HW243464   6.447   3.189   5.928
14374SOL     OW43465   6.204   3.429   6.870
14374SOL    HW143466   6.199   3.511   6.927
14374SOL    HW243467   6.293   3.426   6.825
14375SOL     OW43468   6.938   1.914   5.754
14375SOL    HW143469   6.973   1.873   5.670
14375SOL    HW243470   6.848   1.876   5.774
14376SOL     OW43471   6.886   2.315   6.277
14376SOL    HW143472   6.827   2.395   6.281
14376SOL    HW243473   6.901   2.280   6.370
14377SOL     OW43474   7.179   2.083   6.468
14377SOL    HW143475   7.095   2.082   6.522
14377SOL    HW243476   7.181   2.166   6.412
14378SOL     OW43477   5.625   2.939   5.886
14378SOL    HW143478   5.724   2.928   5.877
14378SOL    HW243479   5.585   2.853   5.918
14379SOL     OW43480   6.461   3.508   5.923
14379SOL    HW143481   6.384   3.473   5.869
14379SOL    HW243482   6.429   3.579   5.985
14380SOL     OW43483   5.613   3.458   7.565
14380SOL    HW143484   5.594   3.362   7.586
14380SOL    HW243485   5.580   3.516   7.640
14381SOL     OW43486   7.111   2.861   7.638
14381SOL    HW143487   7.048   2.785   7.651
14381SOL    HW243488   7.159   2.879   7.724
14382SOL     OW43489   5.907   2.805   7.690
14382SOL    HW143490   5.989   2.844   7.648
14382SOL    HW243491   5.880   2.723   7.641
14383SOL     OW43492   6.697   3.638   7.685
14383SOL    HW143493   6.637   3.576   7.735
14383SOL    HW243494   6.728   3.594   7.600
14384SOL     OW43495   7.218   3.239   7.529
14384SOL    HW143496   7.186   3.333   7.519
14384SOL    HW243497   7.142   3.176   7.517
14385SOL     OW43498   7.020   3.050   7.489
14385SOL    HW143499   7.052   2.974   7.546
14385SOL    HW243500   6.928   3.077   7.519
14386SOL     OW43501   6.618   2.411   7.464
14386SOL    HW143502   6.577   2.493   7.425
14386SOL    HW243503   6.682   2.437   7.537
14387SOL     OW43504   6.074   3.247   7.622
14387SOL    HW143505   5.987   3.232   7.669
14387SOL    HW243506   6.057   3.273   7.527
14388SOL     OW43507   6.976   2.437   7.526
14388SOL    HW143508   6.922   2.416   7.607
14388SOL    HW243509   7.067   2.396   7.535
14389SOL     OW43510   7.126   2.136   7.573
14389SOL    HW143511   7.065   2.061   7.596
14389SOL    HW243512   7.148   2.188   7.656
14390SOL     OW43513   6.889   2.700   7.490
14390SOL    HW143514   6.923   2.607   7.505
14390SOL    HW243515   6.907   2.727   7.395
14391SOL     OW43516   6.059   2.362   7.639
14391SOL    HW143517   6.120   2.442   7.643
14391SOL    HW243518   5.964   2.393   7.646
14392SOL     OW43519   6.974   3.435   7.925
14392SOL    HW143520   7.041   3.447   7.851
14392SOL    HW243521   6.934   3.524   7.948
14393SOL     OW43522   6.258   3.478   7.602
14393SOL    HW143523   6.267   3.488   7.503
14393SOL    HW243524   6.218   3.389   7.623
14394SOL     OW43525   6.780   3.474   7.479
14394SOL    HW143526   6.786   3.381   7.516
14394SOL    HW243527   6.721   3.474   7.399
14395SOL     OW43528   7.090   3.469   7.492
14395SOL    HW143529   6.998   3.506   7.499
14395SOL    HW243530   7.128   3.489   7.402
14396SOL     OW43531   5.661   2.207   7.481
14396SOL    HW143532   5.569   2.179   7.452
14396SOL    HW243533   5.692   2.284   7.425
14397SOL     OW43534   6.445   3.236   7.464
14397SOL    HW143535   6.399   3.251   7.552
14397SOL    HW243536   6.489   3.321   7.434
14398SOL     OW43537   6.669   2.846   7.535
14398SOL    HW143538   6.646   2.899   7.453
14398SOL    HW243539   6.750   2.790   7.516
14399SOL     OW43540   6.938   1.914   7.616
14399SOL    HW143541   6.973   1.873   7.532
14399SOL    HW243542   6.848   1.876   7.636
14400SOL     OW43543   5.625   2.939   7.748
14400SOL    HW143544   5.724   2.928   7.739
14400SOL    HW243545   5.585   2.853   7.780
14401SOL     OW43546   5.811   3.999   0.996
14401SOL    HW143547   5.846   3.982   1.088
14401SOL    HW243548   5.723   3.954   0.984
14402SOL     OW43549   5.605   4.092   0.647
14402SOL    HW143550   5.523   4.135   0.686
14402SOL    HW243551   5.577   4.019   0.584
14403SOL     OW43552   6.155   4.999   1.165
14403SOL    HW143553   6.062   4.992   1.128
14403SOL    HW243554   6.166   5.088   1.209
14404SOL     OW43555   7.141   5.235   0.703
14404SOL    HW143556   7.084   5.219   0.784
14404SOL    HW243557   7.082   5.245   0.623
14405SOL     OW43558   6.721   4.427   0.717
14405SOL    HW143559   6.778   4.505   0.692
14405SOL    HW243560   6.661   4.453   0.793
14406SOL     OW43561   7.341   4.331   0.231
14406SOL    HW143562   7.329   4.318   0.132
14406SOL    HW243563   7.311   4.250   0.280
14407SOL     OW43564   6.354   4.868   1.023
14407SOL    HW143565   6.276   4.885   1.083
14407SOL    HW243566   6.388   4.955   0.987
14408SOL     OW43567   6.436   4.522   1.823
14408SOL    HW143568   6.432   4.598   1.888
14408SOL    HW243569   6.458   4.558   1.732
14409SOL     OW43570   6.271   4.736   0.665
14409SOL    HW143571   6.340   4.720   0.735
14409SOL    HW243572   6.198   4.793   0.703
14410SOL     OW43573   6.272   4.885   1.803
14410SOL    HW143574   6.332   4.964   1.817
14410SOL    HW243575   6.186   4.916   1.762
14411SOL     OW43576   5.921   5.159   1.061
14411SOL    HW143577   5.843   5.128   1.008
14411SOL    HW243578   5.979   5.217   1.004
14412SOL     OW43579   7.046   5.229   1.339
14412SOL    HW143580   7.070   5.323   1.365
14412SOL    HW243581   7.030   5.175   1.421
14413SOL     OW43582   6.024   4.116   1.499
14413SOL    HW143583   6.106   4.060   1.508
14413SOL    HW243584   5.943   4.058   1.503
14414SOL     OW43585   7.189   4.171   0.737
14414SOL    HW143586   7.115   4.217   0.687
14414SOL    HW243587   7.240   4.239   0.790
14415SOL     OW43588   5.817   5.437   0.483
14415SOL    HW143589   5.851   5.514   0.537
14415SOL    HW243590   5.861   5.437   0.393
14416SOL     OW43591   6.713   5.065   1.690
14416SOL    HW143592   6.760   5.065   1.778
14416SOL    HW243593   6.665   4.978   1.679
14417SOL     OW43594   5.816   5.158   0.538
14417SOL    HW143595   5.790   5.254   0.538
14417SOL    HW243596   5.745   5.104   0.583
14418SOL     OW43597   5.826   4.815   0.886
14418SOL    HW143598   5.840   4.731   0.938
14418SOL    HW243599   5.771   4.879   0.941
14419SOL     OW43600   6.206   5.510   1.439
14419SOL    HW143601   6.114   5.493   1.474
14419SOL    HW243602   6.234   5.602   1.465
14420SOL     OW43603   6.192   4.688   0.123
14420SOL    HW143604   6.199   4.772   0.069
14420SOL    HW243605   6.238   4.701   0.211
14421SOL     OW43606   5.708   4.367   0.563
14421SOL    HW143607   5.663   4.279   0.580
14421SOL    HW243608   5.707   4.421   0.647
14422SOL     OW43609   7.428   5.491   0.359
14422SOL    HW143610   7.482   5.462   0.439
14422SOL    HW243611   7.458   5.581   0.330
14423SOL     OW43612   5.613   5.320   0.117
14423SOL    HW143613   5.594   5.224   0.138
14423SOL    HW243614   5.580   5.378   0.192
14424SOL     OW43615   7.275   4.646   0.612
14424SOL    HW143616   7.370   4.617   0.620
14424SOL    HW243617   7.267   4.711   0.537
14425SOL     OW43618   7.227   4.832   0.432
14425SOL    HW143619   7.313   4.834   0.380
14425SOL    HW243620   7.241   4.879   0.520
14426SOL     OW43621   5.699   4.461   1.597
14426SOL    HW143622   5.787   4.448   1.642
14426SOL    HW243623   5.686   4.558   1.575
14427SOL     OW43624   6.199   5.089   0.726
14427SOL    HW143625   6.150   5.002   0.735
14427SOL    HW243626   6.176   5.132   0.639
14428SOL     OW43627   6.879   4.952   1.423
14428SOL    HW143628   6.916   4.879   1.365
14428SOL    HW243629   6.931   4.957   1.508
14429SOL     OW43630   6.395   3.728   0.502
14429SOL    HW143631   6.435   3.819   0.493
14429SOL    HW243632   6.295   3.736   0.508
14430SOL     OW43633   5.783   4.700   1.264
14430SOL    HW143634   5.872   4.655   1.250
14430SOL    HW243635   5.710   4.635   1.245
14431SOL     OW43636   6.773   5.516   1.616
14431SOL    HW143637   6.797   5.576   1.540
14431SOL    HW243638   6.780   5.421   1.586
14432SOL     OW43639   5.903   3.975   1.801
14432SOL    HW143640   5.974   4.046   1.807
14432SOL    HW243641   5.815   4.014   1.829
14433SOL     OW43642   7.052   5.141   0.953
14433SOL    HW143643   6.993   5.147   1.033
14433SOL    HW243644   7.037   5.053   0.907
14434SOL     OW43645   7.253   5.438   0.572
14434SOL    HW143646   7.212   5.415   0.484
14434SOL    HW243647   7.235   5.364   0.637
14435SOL     OW43648   6.867   4.069   0.944
14435SOL    HW143649   6.781   4.019   0.931
14435SOL    HW243650   6.929   4.015   1.000
14436SOL     OW43651   7.162   5.386   0.307
14436SOL    HW143652   7.251   5.432   0.310
14436SOL    HW243653   7.141   5.362   0.212
14437SOL     OW43654   6.393   4.329   1.465
14437SOL    HW143655   6.346   4.326   1.554
14437SOL    HW243656   6.342   4.274   1.399
14438SOL     OW43657   6.980   4.193   1.674
14438SOL    HW143658   6.960   4.236   1.762
14438SOL    HW243659   7.058   4.131   1.683
14439SOL     OW43660   6.559   4.614   1.572
14439SOL    HW143661   6.605   4.530   1.543
14439SOL    HW243662   6.503   4.648   1.497
14440SOL     OW43663   6.577   4.134   1.242
14440SOL    HW143664   6.500   4.168   1.296
14440SOL    HW243665   6.543   4.083   1.163
14441SOL     OW43666   6.627   4.425   0.429
14441SOL    HW143667   6.653   4.421   0.525
14441SOL    HW243668   6.542   4.374   0.415
14442SOL     OW43669   5.662   4.535   0.789
14442SOL    HW143670   5.761   4.523   0.798
14442SOL    HW243671   5.638   4.630   0.810
14443SOL     OW43672   5.716   5.545   1.571
14443SOL    HW143673   5.706   5.530   1.670
14443SOL    HW243674   5.630   5.581   1.535
14444SOL     OW43675   7.305   4.309   1.831
14444SOL    HW143676   7.279   4.398   1.795
14444SOL    HW243677   7.303   4.241   1.758
14445SOL     OW43678   6.948   4.868   0.545
14445SOL    HW143679   7.031   4.839   0.497
14445SOL    HW243680   6.899   4.935   0.489
14446SOL     OW43681   6.136   3.920   0.885
14446SOL    HW143682   6.131   3.915   0.985
14446SOL    HW243683   6.138   4.016   0.856
14447SOL     OW43684   6.594   5.180   0.477
14447SOL    HW143685   6.548   5.252   0.425
14447SOL    HW243686   6.590   5.200   0.575
14448SOL     OW43687   5.937   5.525   0.853
14448SOL    HW143688   5.987   5.439   0.859
14448SOL    HW243689   6.002   5.602   0.850
14449SOL     OW43690   7.381   4.790   0.873
14449SOL    HW143691   7.319   4.775   0.797
14449SOL    HW243692   7.329   4.801   0.958
14450SOL     OW43693   6.813   5.274   1.506
14450SOL    HW143694   6.819   5.197   1.570
14450SOL    HW243695   6.761   5.248   1.426
14451SOL     OW43696   7.044   4.459   0.728
14451SOL    HW143697   7.039   4.394   0.803
14451SOL    HW243698   7.124   4.518   0.741
14452SOL     OW43699   6.047   4.990   1.727
14452SOL    HW143700   5.997   4.991   1.641
14452SOL    HW243701   5.984   4.972   1.803
14453SOL     OW43702   5.788   4.009   1.498
14453SOL    HW143703   5.708   4.069   1.485
14453SOL    HW243704   5.778   3.960   1.584
14454SOL     OW43705   6.050   5.467   0.323
14454SOL    HW143706   6.083   5.506   0.409
14454SOL    HW243707   6.126   5.460   0.258
14455SOL     OW43708   6.986   3.831   0.426
14455SOL    HW143709   6.962   3.794   0.336
14455SOL    HW243710   7.085   3.847   0.430
14456SOL     OW43711   5.835   5.509   1.241
14456SOL    HW143712   5.892   5.444   1.291
14456SOL    HW243713   5.819   5.476   1.148
14457SOL     OW43714   6.526   5.422   0.904
14457SOL    HW143715   6.606   5.365   0.925
14457SOL    HW243716   6.477   5.382   0.827
14458SOL     OW43717   5.968   4.424   0.480
14458SOL    HW143718   6.013   4.334   0.477
14458SOL    HW243719   5.874   4.413   0.513
14459SOL     OW43720   7.133   3.946   1.729
14459SOL    HW143721   7.128   3.983   1.821
14459SOL    HW243722   7.061   3.877   1.717
14460SOL     OW43723   6.367   3.988   1.749
14460SOL    HW143724   6.434   3.927   1.792
14460SOL    HW243725   6.294   4.007   1.814
14461SOL     OW43726   6.474   5.238   1.195
14461SOL    HW143727   6.451   5.213   1.101
14461SOL    HW243728   6.535   5.169   1.234
14462SOL     OW43729   6.937   4.314   1.433
14462SOL    HW143730   6.965   4.271   1.518
14462SOL    HW243731   6.962   4.410   1.434
14463SOL     OW43732   6.389   5.126   0.924
14463SOL    HW143733   6.479   5.140   0.882
14463SOL    HW243734   6.318   5.128   0.853
14464SOL     OW43735   6.508   4.227   0.899
14464SOL    HW143736   6.483   4.218   0.803
14464SOL    HW243737   6.556   4.145   0.930
14465SOL     OW43738   6.125   3.788   0.512
14465SOL    HW143739   6.044   3.789   0.570
14465SOL    HW243740   6.128   3.871   0.457
14466SOL     OW43741   6.521   3.960   0.480
14466SOL    HW143742   6.473   4.001   0.402
14466SOL    HW243743   6.620   3.958   0.461
14467SOL     OW43744   6.662   4.407   1.464
14467SOL    HW143745   6.582   4.346   1.467
14467SOL    HW243746   6.743   4.354   1.440
14468SOL     OW43747   6.813   5.294   0.793
14468SOL    HW143748   6.834   5.368   0.728
14468SOL    HW243749   6.881   5.294   0.866
14469SOL     OW43750   6.045   4.876   0.741
14469SOL    HW143751   5.974   4.849   0.806
14469SOL    HW243752   6.019   4.848   0.648
14470SOL     OW43753   6.857   5.521   0.591
14470SOL    HW143754   6.901   5.585   0.527
14470SOL    HW243755   6.807   5.573   0.661
14471SOL     OW43756   5.664   4.280   1.386
14471SOL    HW143757   5.756   4.279   1.345
14471SOL    HW243758   5.658   4.354   1.453
14472SOL     OW43759   6.147   3.946   1.147
14472SOL    HW143760   6.185   3.862   1.184
14472SOL    HW243761   6.059   3.965   1.191
14473SOL     OW43762   6.452   4.178   0.642
14473SOL    HW143763   6.420   4.250   0.580
14473SOL    HW243764   6.476   4.097   0.589
14474SOL     OW43765   6.603   3.763   0.753
14474SOL    HW143766   6.531   3.768   0.684
14474SOL    HW243767   6.579   3.694   0.822
14475SOL     OW43768   7.015   4.897   0.867
14475SOL    HW143769   6.960   4.813   0.860
14475SOL    HW243770   7.041   4.926   0.775
14476SOL     OW43771   7.052   4.314   0.992
14476SOL    HW143772   7.022   4.219   0.999
14476SOL    HW243773   7.125   4.330   1.058
14477SOL     OW43774   6.074   5.109   0.174
14477SOL    HW143775   5.987   5.094   0.221
14477SOL    HW243776   6.057   5.135   0.079
14478SOL     OW43777   7.250   5.004   0.657
14478SOL    HW143778   7.349   5.012   0.671
14478SOL    HW243779   7.205   5.088   0.688
14479SOL     OW43780   6.113   3.980   0.328
14479SOL    HW143781   6.140   3.921   0.253
14479SOL    HW243782   6.113   4.075   0.297
14480SOL     OW43783   7.340   4.947   1.588
14480SOL    HW143784   7.431   4.908   1.575
14480SOL    HW243785   7.348   5.043   1.612
14481SOL     OW43786   6.650   5.071   1.340
14481SOL    HW143787   6.570   5.048   1.395
14481SOL    HW243788   6.733   5.045   1.389
14482SOL     OW43789   7.178   5.353   1.625
14482SOL    HW143790   7.205   5.387   1.535
14482SOL    HW243791   7.257   5.315   1.671
14483SOL     OW43792   6.697   4.919   1.100
14483SOL    HW143793   6.657   4.963   1.181
14483SOL    HW243794   6.656   4.956   1.017
14484SOL     OW43795   7.224   4.823   1.079
14484SOL    HW143796   7.229   4.904   1.138
14484SOL    HW243797   7.138   4.825   1.028
14485SOL     OW43798   6.501   3.813   1.402
14485SOL    HW143799   6.526   3.793   1.307
14485SOL    HW243800   6.573   3.869   1.444
14486SOL     OW43801   6.566   4.840   1.719
14486SOL    HW143802   6.467   4.846   1.729
14486SOL    HW243803   6.589   4.760   1.663
14487SOL     OW43804   6.291   4.774   0.368
14487SOL    HW143805   6.277   4.781   0.467
14487SOL    HW243806   6.375   4.723   0.350
14488SOL     OW43807   5.996   4.537   1.251
14488SOL    HW143808   6.082   4.549   1.301
14488SOL    HW243809   5.954   4.450   1.278
14489SOL     OW43810   6.860   4.110   1.262
14489SOL    HW143811   6.881   4.184   1.326
14489SOL    HW243812   6.771   4.127   1.219
14490SOL     OW43813   5.650   5.288   1.331
14490SOL    HW143814   5.604   5.370   1.297
14490SOL    HW243815   5.748   5.307   1.340
14491SOL     OW43816   5.953   4.824   0.501
14491SOL    HW143817   5.946   4.907   0.445
14491SOL    HW243818   5.957   4.744   0.441
14492SOL     OW43819   6.152   4.261   0.865
14492SOL    HW143820   6.164   4.327   0.791
14492SOL    HW243821   6.198   4.295   0.948
14493SOL     OW43822   6.838   5.072   0.388
14493SOL    HW143823   6.888   5.149   0.428
14493SOL    HW243824   6.743   5.074   0.420
14494SOL     OW43825   6.858   5.169   1.142
14494SOL    HW143826   6.905   5.182   1.229
14494SOL    HW243827   6.792   5.095   1.151
14495SOL     OW43828   7.168   4.363   0.472
14495SOL    HW143829   7.137   4.424   0.545
14495SOL    HW243830   7.218   4.415   0.403
14496SOL     OW43831   5.940   5.234   1.329
14496SOL    HW143832   5.919   5.190   1.242
14496SOL    HW243833   6.037   5.260   1.332
14497SOL     OW43834   5.988   4.475   1.598
14497SOL    HW143835   6.056   4.530   1.551
14497SOL    HW243836   6.028   4.387   1.625
14498SOL     OW43837   7.173   4.503   1.670
14498SOL    HW143838   7.081   4.541   1.665
14498SOL    HW243839   7.233   4.550   1.605
14499SOL     OW43840   6.599   3.829   1.770
14499SOL    HW143841   6.605   3.914   1.718
14499SOL    HW243842   6.631   3.753   1.713
14500SOL     OW43843   6.090   3.774   1.740
14500SOL    HW143844   6.048   3.717   1.670
14500SOL    HW243845   6.024   3.843   1.772
14501SOL     OW43846   6.159   4.594   1.029
14501SOL    HW143847   6.203   4.683   1.020
14501SOL    HW243848   6.096   4.594   1.106
14502SOL     OW43849   6.946   4.586   1.045
14502SOL    HW143850   6.871   4.586   0.979
14502SOL    HW243851   6.983   4.494   1.054
14503SOL     OW43852   6.795   4.249   0.275
14503SOL    HW143853   6.808   4.165   0.329
14503SOL    HW243854   6.766   4.323   0.335
14504SOL     OW43855   5.893   3.937   1.231
14504SOL    HW143856   5.870   3.974   1.321
14504SOL    HW243857   5.863   3.842   1.225
14505SOL     OW43858   5.623   5.034   1.282
14505SOL    HW143859   5.676   4.985   1.350
14505SOL    HW243860   5.645   5.132   1.287
14506SOL     OW43861   6.318   4.358   1.064
14506SOL    HW143862   6.377   4.332   0.988
14506SOL    HW243863   6.290   4.454   1.053
14507SOL     OW43864   7.314   4.659   1.854
14507SOL    HW143865   7.268   4.652   1.765
14507SOL    HW243866   7.252   4.703   1.920
14508SOL     OW43867   5.893   3.787   0.618
14508SOL    HW143868   5.882   3.881   0.651
14508SOL    HW243869   5.888   3.724   0.695
14509SOL     OW43870   6.609   4.490   0.966
14509SOL    HW143871   6.624   4.511   1.062
14509SOL    HW243872   6.579   4.395   0.957
14510SOL     OW43873   6.566   5.297   1.700
14510SOL    HW143874   6.546   5.341   1.612
14510SOL    HW243875   6.605   5.206   1.684
14511SOL     OW43876   7.445   5.242   1.605
14511SOL    HW143877   7.459   5.269   1.510
14511SOL    HW243878   7.528   5.264   1.658
14512SOL     OW43879   5.936   4.622   1.804
14512SOL    HW143880   6.012   4.666   1.852
14512SOL    HW243881   5.971   4.575   1.722
14513SOL     OW43882   6.654   5.057   0.849
14513SOL    HW143883   6.661   4.973   0.794
14513SOL    HW243884   6.716   5.126   0.813
14514SOL     OW43885   5.905   4.534   0.949
14514SOL    HW143886   5.998   4.570   0.954
14514SOL    HW243887   5.899   4.449   1.001
14515SOL     OW43888   5.925   4.233   1.006
14515SOL    HW143889   5.873   4.150   0.989
14515SOL    HW243890   6.002   4.238   0.942
14516SOL     OW43891   6.724   4.104   1.678
14516SOL    HW143892   6.679   4.167   1.742
14516SOL    HW243893   6.817   4.135   1.661
14517SOL     OW43894   6.746   3.931   1.477
14517SOL    HW143895   6.746   3.995   1.554
14517SOL    HW243896   6.774   3.979   1.394
14518SOL     OW43897   5.594   5.050   0.200
14518SOL    HW143898   5.501   5.071   0.169
14518SOL    HW243899   5.604   4.951   0.213
14519SOL     OW43900   6.090   5.292   0.910
14519SOL    HW143901   6.156   5.366   0.919
14519SOL    HW243902   6.134   5.213   0.868
14520SOL     OW43903   6.588   4.520   1.238
14520SOL    HW143904   6.629   4.488   1.324
14520SOL    HW243905   6.492   4.493   1.235
14521SOL     OW43906   5.626   4.268   1.114
14521SOL    HW143907   5.711   4.235   1.073
14521SOL    HW243908   5.639   4.283   1.212
14522SOL     OW43909   5.775   4.244   1.722
14522SOL    HW143910   5.834   4.204   1.652
14522SOL    HW243911   5.717   4.315   1.681
14523SOL     OW43912   6.955   4.674   1.660
14523SOL    HW143913   6.994   4.763   1.680
14523SOL    HW243914   6.965   4.654   1.563
14524SOL     OW43915   7.243   4.328   1.206
14524SOL    HW143916   7.205   4.259   1.268
14524SOL    HW243917   7.325   4.292   1.162
14525SOL     OW43918   5.838   5.288   1.744
14525SOL    HW143919   5.808   5.345   1.820
14525SOL    HW243920   5.831   5.191   1.770
14526SOL     OW43921   6.257   4.188   1.269
14526SOL    HW143922   6.223   4.099   1.239
14526SOL    HW243923   6.283   4.242   1.189
14527SOL     OW43924   6.516   5.402   1.465
14527SOL    HW143925   6.492   5.384   1.370
14527SOL    HW243926   6.546   5.496   1.475
14528SOL     OW43927   5.745   4.861   1.466
14528SOL    HW143928   5.767   4.800   1.542
14528SOL    HW243929   5.755   4.812   1.380
14529SOL     OW43930   6.933   4.783   1.234
14529SOL    HW143931   6.957   4.720   1.160
14529SOL    HW243932   6.843   4.823   1.216
14530SOL     OW43933   7.345   5.471   1.154
14530SOL    HW143934   7.406   5.501   1.081
14530SOL    HW243935   7.307   5.382   1.132
14531SOL     OW43936   6.838   5.455   1.128
14531SOL    HW143937   6.922   5.460   1.074
14531SOL    HW243938   6.815   5.359   1.146
14532SOL     OW43939   5.669   4.982   1.022
14532SOL    HW143940   5.664   4.981   1.122
14532SOL    HW243941   5.586   4.941   0.984
14533SOL     OW43942   6.274   5.386   1.716
14533SOL    HW143943   6.218   5.467   1.725
14533SOL    HW243944   6.326   5.390   1.630
14534SOL     OW43945   7.312   3.859   0.523
14534SOL    HW143946   7.385   3.842   0.456
14534SOL    HW243947   7.281   3.772   0.561
14535SOL     OW43948   6.974   5.297   0.477
14535SOL    HW143949   7.041   5.309   0.403
14535SOL    HW243950   6.934   5.386   0.500
14536SOL     OW43951   5.716   5.518   1.851
14536SOL    HW143952   5.675   5.444   1.904
14536SOL    HW243953   5.780   5.569   1.909
14537SOL     OW43954   6.866   4.651   0.672
14537SOL    HW143955   6.926   4.570   0.674
14537SOL    HW243956   6.906   4.720   0.612
14538SOL     OW43957   6.416   4.997   1.422
14538SOL    HW143958   6.411   5.030   1.517
14538SOL    HW243959   6.330   5.016   1.376
14539SOL     OW43960   7.236   5.444   1.394
14539SOL    HW143961   7.289   5.454   1.310
14539SOL    HW243962   7.209   5.534   1.428
14540SOL     OW43963   7.427   3.899   0.963
14540SOL    HW143964   7.466   3.814   0.927
14540SOL    HW243965   7.329   3.901   0.944
14541SOL     OW43966   5.849   4.050   0.720
14541SOL    HW143967   5.770   4.101   0.686
14541SOL    HW243968   5.840   4.035   0.818
14542SOL     OW43969   6.408   4.726   1.372
14542SOL    HW143970   6.448   4.725   1.280
14542SOL    HW243971   6.418   4.818   1.412
14543SOL     OW43972   6.502   4.634   0.291
14543SOL    HW143973   6.565   4.672   0.223
14543SOL    HW243974   6.542   4.551   0.330
14544SOL     OW43975   5.958   5.012   1.490
14544SOL    HW143976   5.945   5.105   1.456
14544SOL    HW243977   5.874   4.960   1.477
14545SOL     OW43978   7.200   5.016   1.289
14545SOL    HW143979   7.260   5.019   1.369
14545SOL    HW243980   7.125   5.080   1.302
14546SOL     OW43981   6.625   4.822   0.696
14546SOL    HW143982   6.555   4.775   0.750
14546SOL    HW243983   6.684   4.754   0.653
14547SOL     OW43984   6.600   3.960   0.971
14547SOL    HW143985   6.592   3.924   0.878
14547SOL    HW243986   6.598   3.884   1.036
14548SOL     OW43987   6.176   5.211   0.491
14548SOL    HW143988   6.218   5.153   0.421
14548SOL    HW243989   6.132   5.290   0.447
14549SOL     OW43990   7.295   4.109   1.381
14549SOL    HW143991   7.368   4.178   1.385
14549SOL    HW243992   7.323   4.034   1.322
14550SOL     OW43993   5.841   5.072   0.290
14550SOL    HW143994   5.745   5.073   0.263
14550SOL    HW243995   5.853   5.125   0.374
14551SOL     OW43996   5.691   4.737   1.726
14551SOL    HW143997   5.614   4.704   1.780
14551SOL    HW243998   5.776   4.707   1.768
14552SOL     OW43999   6.258   3.927   1.489
14552SOL    HW144000   6.348   3.911   1.449
14552SOL    HW244001   6.266   3.932   1.588
14553SOL     OW44002   7.026   4.580   1.398
14553SOL    HW144003   6.969   4.632   1.335
14553SOL    HW244004   7.122   4.592   1.374
14554SOL     OW44005   6.199   4.566   1.431
14554SOL    HW144006   6.255   4.647   1.414
14554SOL    HW244007   6.258   4.486   1.434
14555SOL     OW44008   7.079   5.491   0.959
14555SOL    HW144009   7.112   5.555   0.890
14555SOL    HW244010   7.145   5.485   1.034
14556SOL     OW44011   6.302   4.289   1.708
14556SOL    HW144012   6.321   4.354   1.782
14556SOL    HW244013   6.362   4.209   1.717
14557SOL     OW44014   7.036   4.944   1.633
14557SOL    HW144015   7.027   4.934   1.732
14557SOL    HW244016   7.132   4.937   1.607
14558SOL     OW44017   5.976   5.465   1.560
14558SOL    HW144018   5.885   5.506   1.558
14558SOL    HW244019   5.969   5.371   1.592
14559SOL     OW44020   7.260   4.607   1.254
14559SOL    HW144021   7.233   4.518   1.217
14559SOL    HW244022   7.261   4.675   1.181
14560SOL     OW44023   6.811   4.049   0.449
14560SOL    HW144024   6.876   3.975   0.438
14560SOL    HW244025   6.831   4.099   0.533
14561SOL     OW44026   6.180   4.469   0.652
14561SOL    HW144027   6.230   4.554   0.633
14561SOL    HW244028   6.092   4.471   0.604
14562SOL     OW44029   7.363   4.066   1.642
14562SOL    HW144030   7.346   4.097   1.548
14562SOL    HW244031   7.279   4.029   1.680
14563SOL     OW44032   7.316   4.658   1.517
14563SOL    HW144033   7.354   4.749   1.532
14563SOL    HW244034   7.308   4.641   1.418
14564SOL     OW44035   6.247   5.514   0.953
14564SOL    HW144036   6.201   5.602   0.940
14564SOL    HW244037   6.346   5.526   0.946
14565SOL     OW44038   6.445   4.680   0.861
14565SOL    HW144039   6.499   4.611   0.909
14565SOL    HW244040   6.413   4.749   0.927
14566SOL     OW44041   7.447   5.293   0.851
14566SOL    HW144042   7.376   5.281   0.781
14566SOL    HW244043   7.448   5.214   0.911
14567SOL     OW44044   5.807   5.038   1.844
14567SOL    HW144045   5.742   4.965   1.823
14567SOL    HW244046   5.811   5.052   1.942
14568SOL     OW44047   5.665   4.964   0.653
14568SOL    HW144048   5.664   4.917   0.741
14568SOL    HW244049   5.747   4.936   0.602
14569SOL     OW44050   6.258   5.115   1.624
14569SOL    HW144051   6.180   5.065   1.662
14569SOL    HW244052   6.255   5.210   1.655
14570SOL     OW44053   7.410   3.916   1.227
14570SOL    HW144054   7.406   3.826   1.271
14570SOL    HW244055   7.413   3.905   1.128
14571SOL     OW44056   6.014   4.148   0.520
14571SOL    HW144057   6.044   4.076   0.458
14571SOL    HW244058   5.975   4.108   0.603
14572SOL     OW44059   7.291   5.211   1.104
14572SOL    HW144060   7.198   5.186   1.077
14572SOL    HW244061   7.317   5.161   1.186
14573SOL     OW44062   5.903   4.271   1.280
14573SOL    HW144063   5.941   4.212   1.352
14573SOL    HW244064   5.943   4.245   1.192
14574SOL     OW44065   6.398   5.310   0.687
14574SOL    HW144066   6.430   5.320   0.593
14574SOL    HW244067   6.319   5.248   0.689
14575SOL     OW44068   7.010   3.938   1.112
14575SOL    HW144069   7.062   3.873   1.167
14575SOL    HW244070   6.961   4.001   1.173
14576SOL     OW44071   6.587   3.758   1.154
14576SOL    HW144072   6.524   3.686   1.123
14576SOL    HW244073   6.680   3.722   1.154
14577SOL     OW44074   6.356   5.054   0.301
14577SOL    HW144075   6.310   4.967   0.318
14577SOL    HW244076   6.447   5.051   0.342
14578SOL     OW44077   6.204   5.291   1.284
14578SOL    HW144078   6.199   5.373   1.341
14578SOL    HW244079   6.293   5.288   1.239
14579SOL     OW44080   6.886   4.177   0.691
14579SOL    HW144081   6.827   4.257   0.695
14579SOL    HW244082   6.901   4.142   0.784
14580SOL     OW44083   7.179   3.945   0.882
14580SOL    HW144084   7.095   3.944   0.936
14580SOL    HW244085   7.181   4.028   0.826
14581SOL     OW44086   5.625   4.801   0.300
14581SOL    HW144087   5.724   4.790   0.291
14581SOL    HW244088   5.585   4.715   0.332
14582SOL     OW44089   6.461   5.370   0.337
14582SOL    HW144090   6.384   5.335   0.283
14582SOL    HW244091   6.429   5.441   0.399
14583SOL     OW44092   5.816   4.352   1.975
14583SOL    HW144093   5.723   4.350   2.012
14583SOL    HW244094   5.817   4.313   1.883
14584SOL     OW44095   5.811   3.999   2.858
14584SOL    HW144096   5.846   3.982   2.950
14584SOL    HW244097   5.723   3.954   2.846
14585SOL     OW44098   5.605   4.092   2.509
14585SOL    HW144099   5.523   4.135   2.548
14585SOL    HW244100   5.577   4.019   2.446
14586SOL     OW44101   6.155   4.999   3.027
14586SOL    HW144102   6.062   4.992   2.990
14586SOL    HW244103   6.166   5.088   3.071
14587SOL     OW44104   7.141   5.235   2.565
14587SOL    HW144105   7.084   5.219   2.646
14587SOL    HW244106   7.082   5.245   2.485
14588SOL     OW44107   6.721   4.427   2.579
14588SOL    HW144108   6.778   4.505   2.554
14588SOL    HW244109   6.661   4.453   2.655
14589SOL     OW44110   7.341   4.331   2.093
14589SOL    HW144111   7.329   4.318   1.994
14589SOL    HW244112   7.311   4.250   2.142
14590SOL     OW44113   6.354   4.868   2.885
14590SOL    HW144114   6.276   4.885   2.945
14590SOL    HW244115   6.388   4.955   2.849
14591SOL     OW44116   6.436   4.522   3.685
14591SOL    HW144117   6.432   4.598   3.750
14591SOL    HW244118   6.458   4.558   3.594
14592SOL     OW44119   6.271   4.736   2.527
14592SOL    HW144120   6.340   4.720   2.597
14592SOL    HW244121   6.198   4.793   2.565
14593SOL     OW44122   6.272   4.885   3.665
14593SOL    HW144123   6.332   4.964   3.679
14593SOL    HW244124   6.186   4.916   3.624
14594SOL     OW44125   5.921   5.159   2.923
14594SOL    HW144126   5.843   5.128   2.870
14594SOL    HW244127   5.979   5.217   2.866
14595SOL     OW44128   7.046   5.229   3.201
14595SOL    HW144129   7.070   5.323   3.227
14595SOL    HW244130   7.030   5.175   3.283
14596SOL     OW44131   6.024   4.116   3.361
14596SOL    HW144132   6.106   4.060   3.370
14596SOL    HW244133   5.943   4.058   3.365
14597SOL     OW44134   7.189   4.171   2.599
14597SOL    HW144135   7.115   4.217   2.549
14597SOL    HW244136   7.240   4.239   2.652
14598SOL     OW44137   5.817   5.437   2.345
14598SOL    HW144138   5.851   5.514   2.399
14598SOL    HW244139   5.861   5.437   2.255
14599SOL     OW44140   6.713   5.065   3.552
14599SOL    HW144141   6.760   5.065   3.640
14599SOL    HW244142   6.665   4.978   3.541
14600SOL     OW44143   5.816   5.158   2.400
14600SOL    HW144144   5.790   5.254   2.400
14600SOL    HW244145   5.745   5.104   2.445
14601SOL     OW44146   5.826   4.815   2.748
14601SOL    HW144147   5.840   4.731   2.800
14601SOL    HW244148   5.771   4.879   2.803
14602SOL     OW44149   6.206   5.510   3.301
14602SOL    HW144150   6.114   5.493   3.336
14602SOL    HW244151   6.234   5.602   3.327
14603SOL     OW44152   6.192   4.688   1.985
14603SOL    HW144153   6.199   4.772   1.931
14603SOL    HW244154   6.238   4.701   2.073
14604SOL     OW44155   7.180   3.838   3.342
14604SOL    HW144156   7.162   3.905   3.270
14604SOL    HW244157   7.177   3.884   3.431
14605SOL     OW44158   5.708   4.367   2.425
14605SOL    HW144159   5.663   4.279   2.442
14605SOL    HW244160   5.707   4.421   2.509
14606SOL     OW44161   7.428   5.491   2.221
14606SOL    HW144162   7.482   5.462   2.301
14606SOL    HW244163   7.458   5.581   2.192
14607SOL     OW44164   5.613   5.320   1.979
14607SOL    HW144165   5.594   5.224   2.000
14607SOL    HW244166   5.580   5.378   2.054
14608SOL     OW44167   7.275   4.646   2.474
14608SOL    HW144168   7.370   4.617   2.482
14608SOL    HW244169   7.267   4.711   2.399
14609SOL     OW44170   7.227   4.832   2.294
14609SOL    HW144171   7.313   4.834   2.242
14609SOL    HW244172   7.241   4.879   2.382
14610SOL     OW44173   5.699   4.461   3.459
14610SOL    HW144174   5.787   4.448   3.504
14610SOL    HW244175   5.686   4.558   3.437
14611SOL     OW44176   6.199   5.089   2.588
14611SOL    HW144177   6.150   5.002   2.597
14611SOL    HW244178   6.176   5.132   2.501
14612SOL     OW44179   6.879   4.952   3.285
14612SOL    HW144180   6.916   4.879   3.227
14612SOL    HW244181   6.931   4.957   3.370
14613SOL     OW44182   6.395   3.728   2.364
14613SOL    HW144183   6.435   3.819   2.355
14613SOL    HW244184   6.295   3.736   2.370
14614SOL     OW44185   5.783   4.700   3.126
14614SOL    HW144186   5.872   4.655   3.112
14614SOL    HW244187   5.710   4.635   3.107
14615SOL     OW44188   7.111   4.723   2.052
14615SOL    HW144189   7.048   4.647   2.065
14615SOL    HW244190   7.159   4.741   2.138
14616SOL     OW44191   6.773   5.516   3.478
14616SOL    HW144192   6.797   5.576   3.402
14616SOL    HW244193   6.780   5.421   3.448
14617SOL     OW44194   5.903   3.975   3.663
14617SOL    HW144195   5.974   4.046   3.669
14617SOL    HW244196   5.815   4.014   3.691
14618SOL     OW44197   7.052   5.141   2.815
14618SOL    HW144198   6.993   5.147   2.895
14618SOL    HW244199   7.037   5.053   2.769
14619SOL     OW44200   7.253   5.438   2.434
14619SOL    HW144201   7.212   5.415   2.346
14619SOL    HW244202   7.235   5.364   2.499
14620SOL     OW44203   6.184   4.453   2.132
14620SOL    HW144204   6.208   4.522   2.064
14620SOL    HW244205   6.106   4.486   2.186
14621SOL     OW44206   6.867   4.069   2.806
14621SOL    HW144207   6.781   4.019   2.793
14621SOL    HW244208   6.929   4.015   2.862
14622SOL     OW44209   7.162   5.386   2.169
14622SOL    HW144210   7.251   5.432   2.172
14622SOL    HW244211   7.141   5.362   2.074
14623SOL     OW44212   6.393   4.329   3.327
14623SOL    HW144213   6.346   4.326   3.416
14623SOL    HW244214   6.342   4.274   3.261
14624SOL     OW44215   6.980   4.193   3.536
14624SOL    HW144216   6.960   4.236   3.624
14624SOL    HW244217   7.058   4.131   3.545
14625SOL     OW44218   6.559   4.614   3.434
14625SOL    HW144219   6.605   4.530   3.405
14625SOL    HW244220   6.503   4.648   3.359
14626SOL     OW44221   6.577   4.134   3.104
14626SOL    HW144222   6.500   4.168   3.158
14626SOL    HW244223   6.543   4.083   3.025
14627SOL     OW44224   6.627   4.425   2.291
14627SOL    HW144225   6.653   4.421   2.387
14627SOL    HW244226   6.542   4.374   2.277
14628SOL     OW44227   5.662   4.535   2.651
14628SOL    HW144228   5.761   4.523   2.660
14628SOL    HW244229   5.638   4.630   2.672
14629SOL     OW44230   5.716   5.545   3.433
14629SOL    HW144231   5.706   5.530   3.532
14629SOL    HW244232   5.630   5.581   3.397
14630SOL     OW44233   6.451   4.072   2.057
14630SOL    HW144234   6.510   4.135   2.008
14630SOL    HW244235   6.470   3.978   2.028
14631SOL     OW44236   7.305   4.309   3.693
14631SOL    HW144237   7.279   4.398   3.657
14631SOL    HW244238   7.303   4.241   3.620
14632SOL     OW44239   6.948   4.868   2.407
14632SOL    HW144240   7.031   4.839   2.359
14632SOL    HW244241   6.899   4.935   2.351
14633SOL     OW44242   6.136   3.920   2.747
14633SOL    HW144243   6.131   3.915   2.847
14633SOL    HW244244   6.138   4.016   2.718
14634SOL     OW44245   6.594   5.180   2.339
14634SOL    HW144246   6.548   5.252   2.287
14634SOL    HW244247   6.590   5.200   2.437
14635SOL     OW44248   5.937   5.525   2.715
14635SOL    HW144249   5.987   5.439   2.721
14635SOL    HW244250   6.002   5.602   2.712
14636SOL     OW44251   7.381   4.790   2.735
14636SOL    HW144252   7.319   4.775   2.659
14636SOL    HW244253   7.329   4.801   2.820
14637SOL     OW44254   6.813   5.274   3.368
14637SOL    HW144255   6.819   5.197   3.432
14637SOL    HW244256   6.761   5.248   3.288
14638SOL     OW44257   5.907   4.667   2.104
14638SOL    HW144258   5.989   4.706   2.062
14638SOL    HW244259   5.880   4.585   2.055
14639SOL     OW44260   7.044   4.459   2.590
14639SOL    HW144261   7.039   4.394   2.665
14639SOL    HW244262   7.124   4.518   2.603
14640SOL     OW44263   6.047   4.990   3.589
14640SOL    HW144264   5.997   4.991   3.503
14640SOL    HW244265   5.984   4.972   3.665
14641SOL     OW44266   6.697   5.500   2.099
14641SOL    HW144267   6.637   5.438   2.149
14641SOL    HW244268   6.728   5.456   2.014
14642SOL     OW44269   5.788   4.009   3.360
14642SOL    HW144270   5.708   4.069   3.347
14642SOL    HW244271   5.778   3.960   3.446
14643SOL     OW44272   7.218   5.101   1.943
14643SOL    HW144273   7.186   5.195   1.933
14643SOL    HW244274   7.142   5.038   1.931
14644SOL     OW44275   6.050   5.467   2.185
14644SOL    HW144276   6.083   5.506   2.271
14644SOL    HW244277   6.126   5.460   2.120
14645SOL     OW44278   6.986   3.831   2.288
14645SOL    HW144279   6.962   3.794   2.198
14645SOL    HW244280   7.085   3.847   2.292
14646SOL     OW44281   5.835   5.509   3.103
14646SOL    HW144282   5.892   5.444   3.153
14646SOL    HW244283   5.819   5.476   3.010
14647SOL     OW44284   6.526   5.422   2.766
14647SOL    HW144285   6.606   5.365   2.787
14647SOL    HW244286   6.477   5.382   2.689
14648SOL     OW44287   5.968   4.424   2.342
14648SOL    HW144288   6.013   4.334   2.339
14648SOL    HW244289   5.874   4.413   2.375
14649SOL     OW44290   7.133   3.946   3.591
14649SOL    HW144291   7.128   3.983   3.683
14649SOL    HW244292   7.061   3.877   3.579
14650SOL     OW44293   6.200   3.846   1.979
14650SOL    HW144294   6.298   3.824   1.986
14650SOL    HW244295   6.169   3.829   1.886
14651SOL     OW44296   6.367   3.988   3.611
14651SOL    HW144297   6.434   3.927   3.654
14651SOL    HW244298   6.294   4.007   3.676
14652SOL     OW44299   6.474   5.238   3.057
14652SOL    HW144300   6.451   5.213   2.963
14652SOL    HW244301   6.535   5.169   3.096
14653SOL     OW44302   6.937   4.314   3.295
14653SOL    HW144303   6.965   4.271   3.380
14653SOL    HW244304   6.962   4.410   3.296
14654SOL     OW44305   6.389   5.126   2.786
14654SOL    HW144306   6.479   5.140   2.744
14654SOL    HW244307   6.318   5.128   2.715
14655SOL     OW44308   6.508   4.227   2.761
14655SOL    HW144309   6.483   4.218   2.665
14655SOL    HW244310   6.556   4.145   2.792
14656SOL     OW44311   6.125   3.788   2.374
14656SOL    HW144312   6.044   3.789   2.432
14656SOL    HW244313   6.128   3.871   2.319
14657SOL     OW44314   7.020   4.912   1.903
14657SOL    HW144315   7.052   4.836   1.960
14657SOL    HW244316   6.928   4.939   1.933
14658SOL     OW44317   5.883   3.759   2.033
14658SOL    HW144318   5.932   3.843   2.012
14658SOL    HW244319   5.945   3.694   2.078
14659SOL     OW44320   6.521   3.960   2.342
14659SOL    HW144321   6.473   4.001   2.264
14659SOL    HW244322   6.620   3.958   2.323
14660SOL     OW44323   6.662   4.407   3.326
14660SOL    HW144324   6.582   4.346   3.329
14660SOL    HW244325   6.743   4.354   3.302
14661SOL     OW44326   6.813   5.294   2.655
14661SOL    HW144327   6.834   5.368   2.590
14661SOL    HW244328   6.881   5.294   2.728
14662SOL     OW44329   6.045   4.876   2.603
14662SOL    HW144330   5.974   4.849   2.668
14662SOL    HW244331   6.019   4.848   2.510
14663SOL     OW44332   6.857   5.521   2.453
14663SOL    HW144333   6.901   5.585   2.389
14663SOL    HW244334   6.807   5.573   2.523
14664SOL     OW44335   6.618   4.273   1.878
14664SOL    HW144336   6.577   4.355   1.839
14664SOL    HW244337   6.682   4.299   1.951
14665SOL     OW44338   5.664   4.280   3.248
14665SOL    HW144339   5.756   4.279   3.207
14665SOL    HW244340   5.658   4.354   3.315
14666SOL     OW44341   6.147   3.946   3.009
14666SOL    HW144342   6.185   3.862   3.046
14666SOL    HW244343   6.059   3.965   3.053
14667SOL     OW44344   6.452   4.178   2.504
14667SOL    HW144345   6.420   4.250   2.442
14667SOL    HW244346   6.476   4.097   2.451
14668SOL     OW44347   6.603   3.763   2.615
14668SOL    HW144348   6.531   3.768   2.546
14668SOL    HW244349   6.579   3.694   2.684
14669SOL     OW44350   7.015   4.897   2.729
14669SOL    HW144351   6.960   4.813   2.722
14669SOL    HW244352   7.041   4.926   2.637
14670SOL     OW44353   7.052   4.314   2.854
14670SOL    HW144354   7.022   4.219   2.861
14670SOL    HW244355   7.125   4.330   2.920
14671SOL     OW44356   7.443   4.557   2.239
14671SOL    HW144357   7.485   4.493   2.303
14671SOL    HW244358   7.405   4.506   2.161
14672SOL     OW44359   6.074   5.109   2.036
14672SOL    HW144360   5.987   5.094   2.083
14672SOL    HW244361   6.057   5.135   1.941
14673SOL     OW44362   7.250   5.004   2.519
14673SOL    HW144363   7.349   5.012   2.533
14673SOL    HW244364   7.205   5.088   2.550
14674SOL     OW44365   6.976   4.299   1.940
14674SOL    HW144366   6.922   4.278   2.021
14674SOL    HW244367   7.067   4.258   1.949
14675SOL     OW44368   6.113   3.980   2.190
14675SOL    HW144369   6.140   3.921   2.115
14675SOL    HW244370   6.113   4.075   2.159
14676SOL     OW44371   7.340   4.947   3.450
14676SOL    HW144372   7.431   4.908   3.437
14676SOL    HW244373   7.348   5.043   3.474
14677SOL     OW44374   6.650   5.071   3.202
14677SOL    HW144375   6.570   5.048   3.257
14677SOL    HW244376   6.733   5.045   3.251
14678SOL     OW44377   7.178   5.353   3.487
14678SOL    HW144378   7.205   5.387   3.397
14678SOL    HW244379   7.257   5.315   3.533
14679SOL     OW44380   6.697   4.919   2.962
14679SOL    HW144381   6.657   4.963   3.043
14679SOL    HW244382   6.656   4.956   2.879
14680SOL     OW44383   7.224   4.823   2.941
14680SOL    HW144384   7.229   4.904   3.000
14680SOL    HW244385   7.138   4.825   2.890
14681SOL     OW44386   6.501   3.813   3.264
14681SOL    HW144387   6.526   3.793   3.169
14681SOL    HW244388   6.573   3.869   3.306
14682SOL     OW44389   6.566   4.840   3.581
14682SOL    HW144390   6.467   4.846   3.591
14682SOL    HW244391   6.589   4.760   3.525
14683SOL     OW44392   6.291   4.774   2.230
14683SOL    HW144393   6.277   4.781   2.329
14683SOL    HW244394   6.375   4.723   2.212
14684SOL     OW44395   5.996   4.537   3.113
14684SOL    HW144396   6.082   4.549   3.163
14684SOL    HW244397   5.954   4.450   3.140
14685SOL     OW44398   6.860   4.110   3.124
14685SOL    HW144399   6.881   4.184   3.188
14685SOL    HW244400   6.771   4.127   3.081
14686SOL     OW44401   5.650   5.288   3.193
14686SOL    HW144402   5.604   5.370   3.159
14686SOL    HW244403   5.748   5.307   3.202
14687SOL     OW44404   5.953   4.824   2.363
14687SOL    HW144405   5.946   4.907   2.307
14687SOL    HW244406   5.957   4.744   2.303
14688SOL     OW44407   6.152   4.261   2.727
14688SOL    HW144408   6.164   4.327   2.653
14688SOL    HW244409   6.198   4.295   2.810
14689SOL     OW44410   6.838   5.072   2.250
14689SOL    HW144411   6.888   5.149   2.290
14689SOL    HW244412   6.743   5.074   2.282
14690SOL     OW44413   6.858   5.169   3.004
14690SOL    HW144414   6.905   5.182   3.091
14690SOL    HW244415   6.792   5.095   3.013
14691SOL     OW44416   7.168   4.363   2.334
14691SOL    HW144417   7.137   4.424   2.407
14691SOL    HW244418   7.218   4.415   2.265
14692SOL     OW44419   5.940   5.234   3.191
14692SOL    HW144420   5.919   5.190   3.104
14692SOL    HW244421   6.037   5.260   3.194
14693SOL     OW44422   5.988   4.475   3.460
14693SOL    HW144423   6.056   4.530   3.413
14693SOL    HW244424   6.028   4.387   3.487
14694SOL     OW44425   7.173   4.503   3.532
14694SOL    HW144426   7.081   4.541   3.527
14694SOL    HW244427   7.233   4.550   3.467
14695SOL     OW44428   6.599   3.829   3.632
14695SOL    HW144429   6.605   3.914   3.580
14695SOL    HW244430   6.631   3.753   3.575
14696SOL     OW44431   6.090   3.774   3.602
14696SOL    HW144432   6.048   3.717   3.532
14696SOL    HW244433   6.024   3.843   3.634
14697SOL     OW44434   6.159   4.594   2.891
14697SOL    HW144435   6.203   4.683   2.882
14697SOL    HW244436   6.096   4.594   2.968
14698SOL     OW44437   6.946   4.586   2.907
14698SOL    HW144438   6.871   4.586   2.841
14698SOL    HW244439   6.983   4.494   2.916
14699SOL     OW44440   6.795   4.249   2.137
14699SOL    HW144441   6.808   4.165   2.191
14699SOL    HW244442   6.766   4.323   2.197
14700SOL     OW44443   5.893   3.937   3.093
14700SOL    HW144444   5.870   3.974   3.183
14700SOL    HW244445   5.863   3.842   3.087
14701SOL     OW44446   5.623   5.034   3.144
14701SOL    HW144447   5.676   4.985   3.212
14701SOL    HW244448   5.645   5.132   3.149
14702SOL     OW44449   6.318   4.358   2.926
14702SOL    HW144450   6.377   4.332   2.850
14702SOL    HW244451   6.290   4.454   2.915
14703SOL     OW44452   7.314   4.659   3.716
14703SOL    HW144453   7.268   4.652   3.627
14703SOL    HW244454   7.252   4.703   3.782
14704SOL     OW44455   5.893   3.787   2.480
14704SOL    HW144456   5.882   3.881   2.513
14704SOL    HW244457   5.888   3.724   2.557
14705SOL     OW44458   7.208   4.091   2.236
14705SOL    HW144459   7.210   4.015   2.300
14705SOL    HW244460   7.160   4.168   2.276
14706SOL     OW44461   6.609   4.490   2.828
14706SOL    HW144462   6.624   4.511   2.924
14706SOL    HW244463   6.579   4.395   2.819
14707SOL     OW44464   6.566   5.297   3.562
14707SOL    HW144465   6.546   5.341   3.474
14707SOL    HW244466   6.605   5.206   3.546
14708SOL     OW44467   7.445   5.242   3.467
14708SOL    HW144468   7.459   5.269   3.372
14708SOL    HW244469   7.528   5.264   3.520
14709SOL     OW44470   5.936   4.622   3.666
14709SOL    HW144471   6.012   4.666   3.714
14709SOL    HW244472   5.971   4.575   3.584
14710SOL     OW44473   7.126   3.998   1.987
14710SOL    HW144474   7.065   3.923   2.010
14710SOL    HW244475   7.148   4.050   2.070
14711SOL     OW44476   6.889   4.562   1.904
14711SOL    HW144477   6.923   4.469   1.919
14711SOL    HW244478   6.907   4.589   1.809
14712SOL     OW44479   6.654   5.057   2.711
14712SOL    HW144480   6.661   4.973   2.656
14712SOL    HW244481   6.716   5.126   2.675
14713SOL     OW44482   5.905   4.534   2.811
14713SOL    HW144483   5.998   4.570   2.816
14713SOL    HW244484   5.899   4.449   2.863
14714SOL     OW44485   5.925   4.233   2.868
14714SOL    HW144486   5.873   4.150   2.851
14714SOL    HW244487   6.002   4.238   2.804
14715SOL     OW44488   6.724   4.104   3.540
14715SOL    HW144489   6.679   4.167   3.604
14715SOL    HW244490   6.817   4.135   3.523
14716SOL     OW44491   6.746   3.931   3.339
14716SOL    HW144492   6.746   3.995   3.416
14716SOL    HW244493   6.774   3.979   3.256
14717SOL     OW44494   5.594   5.050   2.062
14717SOL    HW144495   5.501   5.071   2.031
14717SOL    HW244496   5.604   4.951   2.075
14718SOL     OW44497   5.674   5.525   2.789
14718SOL    HW144498   5.632   5.439   2.762
14718SOL    HW244499   5.768   5.528   2.755
14719SOL     OW44500   6.090   5.292   2.772
14719SOL    HW144501   6.156   5.366   2.781
14719SOL    HW244502   6.134   5.213   2.730
14720SOL     OW44503   6.588   4.520   3.100
14720SOL    HW144504   6.629   4.488   3.186
14720SOL    HW244505   6.492   4.493   3.097
14721SOL     OW44506   5.626   4.268   2.976
14721SOL    HW144507   5.711   4.235   2.935
14721SOL    HW244508   5.639   4.283   3.074
14722SOL     OW44509   5.775   4.244   3.584
14722SOL    HW144510   5.834   4.204   3.514
14722SOL    HW244511   5.717   4.315   3.543
14723SOL     OW44512   6.955   4.674   3.522
14723SOL    HW144513   6.994   4.763   3.542
14723SOL    HW244514   6.965   4.654   3.425
14724SOL     OW44515   6.401   4.296   2.187
14724SOL    HW144516   6.408   4.207   2.141
14724SOL    HW244517   6.307   4.330   2.179
14725SOL     OW44518   5.838   5.288   3.606
14725SOL    HW144519   5.808   5.345   3.682
14725SOL    HW244520   5.831   5.191   3.632
14726SOL     OW44521   6.257   4.188   3.131
14726SOL    HW144522   6.223   4.099   3.101
14726SOL    HW244523   6.283   4.242   3.051
14727SOL     OW44524   6.516   5.402   3.327
14727SOL    HW144525   6.492   5.384   3.232
14727SOL    HW244526   6.546   5.496   3.337
14728SOL     OW44527   6.059   4.224   2.053
14728SOL    HW144528   6.120   4.304   2.057
14728SOL    HW244529   5.964   4.255   2.060
14729SOL     OW44530   5.745   4.861   3.328
14729SOL    HW144531   5.767   4.800   3.404
14729SOL    HW244532   5.755   4.812   3.242
14730SOL     OW44533   6.933   4.783   3.096
14730SOL    HW144534   6.957   4.720   3.022
14730SOL    HW244535   6.843   4.823   3.078
14731SOL     OW44536   6.888   4.579   2.171
14731SOL    HW144537   6.802   4.548   2.213
14731SOL    HW244538   6.884   4.565   2.072
14732SOL     OW44539   7.345   5.471   3.016
14732SOL    HW144540   7.406   5.501   2.943
14732SOL    HW244541   7.307   5.382   2.994
14733SOL     OW44542   6.838   5.455   2.990
14733SOL    HW144543   6.922   5.460   2.936
14733SOL    HW244544   6.815   5.359   3.008
14734SOL     OW44545   5.669   4.982   2.884
14734SOL    HW144546   5.664   4.981   2.984
14734SOL    HW244547   5.586   4.941   2.846
14735SOL     OW44548   6.274   5.386   3.578
14735SOL    HW144549   6.218   5.467   3.587
14735SOL    HW244550   6.326   5.390   3.492
14736SOL     OW44551   7.312   3.859   2.385
14736SOL    HW144552   7.385   3.842   2.318
14736SOL    HW244553   7.281   3.772   2.423
14737SOL     OW44554   6.974   5.297   2.339
14737SOL    HW144555   7.041   5.309   2.265
14737SOL    HW244556   6.934   5.386   2.362
14738SOL     OW44557   5.716   5.518   3.713
14738SOL    HW144558   5.675   5.444   3.766
14738SOL    HW244559   5.780   5.569   3.771
14739SOL     OW44560   6.866   4.651   2.534
14739SOL    HW144561   6.926   4.570   2.536
14739SOL    HW244562   6.906   4.720   2.474
14740SOL     OW44563   6.416   4.997   3.284
14740SOL    HW144564   6.411   5.030   3.379
14740SOL    HW244565   6.330   5.016   3.238
14741SOL     OW44566   6.258   5.340   2.016
14741SOL    HW144567   6.267   5.350   1.917
14741SOL    HW244568   6.218   5.251   2.037
14742SOL     OW44569   7.236   5.444   3.256
14742SOL    HW144570   7.289   5.454   3.172
14742SOL    HW244571   7.209   5.534   3.290
14743SOL     OW44572   7.427   3.899   2.825
14743SOL    HW144573   7.466   3.814   2.789
14743SOL    HW244574   7.329   3.901   2.806
14744SOL     OW44575   5.849   4.050   2.582
14744SOL    HW144576   5.770   4.101   2.548
14744SOL    HW244577   5.840   4.035   2.680
14745SOL     OW44578   6.780   5.336   1.893
14745SOL    HW144579   6.786   5.243   1.930
14745SOL    HW244580   6.721   5.336   1.813
14746SOL     OW44581   6.408   4.726   3.234
14746SOL    HW144582   6.448   4.725   3.142
14746SOL    HW244583   6.418   4.818   3.274
14747SOL     OW44584   6.502   4.634   2.153
14747SOL    HW144585   6.565   4.672   2.085
14747SOL    HW244586   6.542   4.551   2.192
14748SOL     OW44587   7.090   5.331   1.906
14748SOL    HW144588   6.998   5.368   1.913
14748SOL    HW244589   7.128   5.351   1.816
14749SOL     OW44590   5.958   5.012   3.352
14749SOL    HW144591   5.945   5.105   3.318
14749SOL    HW244592   5.874   4.960   3.339
14750SOL     OW44593   7.200   5.016   3.151
14750SOL    HW144594   7.260   5.019   3.231
14750SOL    HW244595   7.125   5.080   3.164
14751SOL     OW44596   6.625   4.822   2.558
14751SOL    HW144597   6.555   4.775   2.612
14751SOL    HW244598   6.684   4.754   2.515
14752SOL     OW44599   6.600   3.960   2.833
14752SOL    HW144600   6.592   3.924   2.740
14752SOL    HW244601   6.598   3.884   2.898
14753SOL     OW44602   6.176   5.211   2.353
14753SOL    HW144603   6.218   5.153   2.283
14753SOL    HW244604   6.132   5.290   2.309
14754SOL     OW44605   7.295   4.109   3.243
14754SOL    HW144606   7.368   4.178   3.247
14754SOL    HW244607   7.323   4.034   3.184
14755SOL     OW44608   5.841   5.072   2.152
14755SOL    HW144609   5.745   5.073   2.125
14755SOL    HW244610   5.853   5.125   2.236
14756SOL     OW44611   5.691   4.737   3.588
14756SOL    HW144612   5.614   4.704   3.642
14756SOL    HW244613   5.776   4.707   3.630
14757SOL     OW44614   6.258   3.927   3.351
14757SOL    HW144615   6.348   3.911   3.311
14757SOL    HW244616   6.266   3.932   3.450
14758SOL     OW44617   5.661   4.069   1.895
14758SOL    HW144618   5.569   4.041   1.866
14758SOL    HW244619   5.692   4.146   1.839
14759SOL     OW44620   7.026   4.580   3.260
14759SOL    HW144621   6.969   4.632   3.197
14759SOL    HW244622   7.122   4.592   3.236
14760SOL     OW44623   5.658   3.890   2.180
14760SOL    HW144624   5.641   3.973   2.126
14760SOL    HW244625   5.748   3.853   2.158
14761SOL     OW44626   6.769   5.059   1.981
14761SOL    HW144627   6.670   5.048   1.983
14761SOL    HW244628   6.803   5.074   2.074
14762SOL     OW44629   6.199   4.566   3.293
14762SOL    HW144630   6.255   4.647   3.276
14762SOL    HW244631   6.258   4.486   3.296
14763SOL     OW44632   7.079   5.491   2.821
14763SOL    HW144633   7.112   5.555   2.752
14763SOL    HW244634   7.145   5.485   2.896
14764SOL     OW44635   6.302   4.289   3.570
14764SOL    HW144636   6.321   4.354   3.644
14764SOL    HW244637   6.362   4.209   3.579
14765SOL     OW44638   7.036   4.944   3.495
14765SOL    HW144639   7.027   4.934   3.594
14765SOL    HW244640   7.132   4.937   3.469
14766SOL     OW44641   5.976   5.465   3.422
14766SOL    HW144642   5.885   5.506   3.420
14766SOL    HW244643   5.969   5.371   3.454
14767SOL     OW44644   7.260   4.607   3.116
14767SOL    HW144645   7.233   4.518   3.079
14767SOL    HW244646   7.261   4.675   3.043
14768SOL     OW44647   6.811   4.049   2.311
14768SOL    HW144648   6.876   3.975   2.300
14768SOL    HW244649   6.831   4.099   2.395
14769SOL     OW44650   6.180   4.469   2.514
14769SOL    HW144651   6.230   4.554   2.495
14769SOL    HW244652   6.092   4.471   2.466
14770SOL     OW44653   7.363   4.066   3.504
14770SOL    HW144654   7.346   4.097   3.410
14770SOL    HW244655   7.279   4.029   3.542
14771SOL     OW44656   7.316   4.658   3.379
14771SOL    HW144657   7.354   4.749   3.394
14771SOL    HW244658   7.308   4.641   3.280
14772SOL     OW44659   6.445   5.098   1.878
14772SOL    HW144660   6.399   5.113   1.966
14772SOL    HW244661   6.489   5.183   1.848
14773SOL     OW44662   6.247   5.514   2.815
14773SOL    HW144663   6.201   5.602   2.802
14773SOL    HW244664   6.346   5.526   2.808
14774SOL     OW44665   6.445   4.680   2.723
14774SOL    HW144666   6.499   4.611   2.771
14774SOL    HW244667   6.413   4.749   2.789
14775SOL     OW44668   6.669   4.708   1.949
14775SOL    HW144669   6.646   4.761   1.867
14775SOL    HW244670   6.750   4.652   1.930
14776SOL     OW44671   7.447   5.293   2.713
14776SOL    HW144672   7.376   5.281   2.643
14776SOL    HW244673   7.448   5.214   2.773
14777SOL     OW44674   5.807   5.038   3.706
14777SOL    HW144675   5.742   4.965   3.685
14777SOL    HW244676   5.811   5.052   3.804
14778SOL     OW44677   5.665   4.964   2.515
14778SOL    HW144678   5.664   4.917   2.603
14778SOL    HW244679   5.747   4.936   2.464
14779SOL     OW44680   6.258   5.115   3.486
14779SOL    HW144681   6.180   5.065   3.524
14779SOL    HW244682   6.255   5.210   3.517
14780SOL     OW44683   7.410   3.916   3.089
14780SOL    HW144684   7.406   3.826   3.133
14780SOL    HW244685   7.413   3.905   2.990
14781SOL     OW44686   6.014   4.148   2.382
14781SOL    HW144687   6.044   4.076   2.320
14781SOL    HW244688   5.975   4.108   2.465
14782SOL     OW44689   7.291   5.211   2.966
14782SOL    HW144690   7.198   5.186   2.939
14782SOL    HW244691   7.317   5.161   3.048
14783SOL     OW44692   5.903   4.271   3.142
14783SOL    HW144693   5.941   4.212   3.214
14783SOL    HW244694   5.943   4.245   3.054
14784SOL     OW44695   6.398   5.310   2.549
14784SOL    HW144696   6.430   5.320   2.455
14784SOL    HW244697   6.319   5.248   2.551
14785SOL     OW44698   7.010   3.938   2.974
14785SOL    HW144699   7.062   3.873   3.029
14785SOL    HW244700   6.961   4.001   3.035
14786SOL     OW44701   6.587   3.758   3.016
14786SOL    HW144702   6.524   3.686   2.985
14786SOL    HW244703   6.680   3.722   3.016
14787SOL     OW44704   6.356   5.054   2.163
14787SOL    HW144705   6.310   4.967   2.180
14787SOL    HW244706   6.447   5.051   2.204
14788SOL     OW44707   6.204   5.291   3.146
14788SOL    HW144708   6.199   5.373   3.203
14788SOL    HW244709   6.293   5.288   3.101
14789SOL     OW44710   6.938   3.776   2.030
14789SOL    HW144711   6.973   3.735   1.946
14789SOL    HW244712   6.848   3.738   2.050
14790SOL     OW44713   6.886   4.177   2.553
14790SOL    HW144714   6.827   4.257   2.557
14790SOL    HW244715   6.901   4.142   2.646
14791SOL     OW44716   7.179   3.945   2.744
14791SOL    HW144717   7.095   3.944   2.798
14791SOL    HW244718   7.181   4.028   2.688
14792SOL     OW44719   5.625   4.801   2.162
14792SOL    HW144720   5.724   4.790   2.153
14792SOL    HW244721   5.585   4.715   2.194
14793SOL     OW44722   6.461   5.370   2.199
14793SOL    HW144723   6.384   5.335   2.145
14793SOL    HW244724   6.429   5.441   2.261
14794SOL     OW44725   5.816   4.352   3.837
14794SOL    HW144726   5.723   4.350   3.874
14794SOL    HW244727   5.817   4.313   3.745
14795SOL     OW44728   5.811   3.999   4.720
14795SOL    HW144729   5.846   3.982   4.812
14795SOL    HW244730   5.723   3.954   4.708
14796SOL     OW44731   5.605   4.092   4.371
14796SOL    HW144732   5.523   4.135   4.410
14796SOL    HW244733   5.577   4.019   4.308
14797SOL     OW44734   6.155   4.999   4.889
14797SOL    HW144735   6.062   4.992   4.852
14797SOL    HW244736   6.166   5.088   4.933
14798SOL     OW44737   7.141   5.235   4.427
14798SOL    HW144738   7.084   5.219   4.508
14798SOL    HW244739   7.082   5.245   4.347
14799SOL     OW44740   6.721   4.427   4.441
14799SOL    HW144741   6.778   4.505   4.416
14799SOL    HW244742   6.661   4.453   4.517
14800SOL     OW44743   7.341   4.331   3.955
14800SOL    HW144744   7.329   4.318   3.856
14800SOL    HW244745   7.311   4.250   4.004
14801SOL     OW44746   6.354   4.868   4.747
14801SOL    HW144747   6.276   4.885   4.807
14801SOL    HW244748   6.388   4.955   4.711
14802SOL     OW44749   6.436   4.522   5.547
14802SOL    HW144750   6.432   4.598   5.612
14802SOL    HW244751   6.458   4.558   5.456
14803SOL     OW44752   6.271   4.736   4.389
14803SOL    HW144753   6.340   4.720   4.459
14803SOL    HW244754   6.198   4.793   4.427
14804SOL     OW44755   6.272   4.885   5.527
14804SOL    HW144756   6.332   4.964   5.541
14804SOL    HW244757   6.186   4.916   5.486
14805SOL     OW44758   5.921   5.159   4.785
14805SOL    HW144759   5.843   5.128   4.732
14805SOL    HW244760   5.979   5.217   4.728
14806SOL     OW44761   7.046   5.229   5.063
14806SOL    HW144762   7.070   5.323   5.089
14806SOL    HW244763   7.030   5.175   5.145
14807SOL     OW44764   6.024   4.116   5.223
14807SOL    HW144765   6.106   4.060   5.232
14807SOL    HW244766   5.943   4.058   5.227
14808SOL     OW44767   7.189   4.171   4.461
14808SOL    HW144768   7.115   4.217   4.411
14808SOL    HW244769   7.240   4.239   4.514
14809SOL     OW44770   5.817   5.437   4.207
14809SOL    HW144771   5.851   5.514   4.261
14809SOL    HW244772   5.861   5.437   4.117
14810SOL     OW44773   6.713   5.065   5.414
14810SOL    HW144774   6.760   5.065   5.502
14810SOL    HW244775   6.665   4.978   5.403
14811SOL     OW44776   5.816   5.158   4.262
14811SOL    HW144777   5.790   5.254   4.262
14811SOL    HW244778   5.745   5.104   4.307
14812SOL     OW44779   5.826   4.815   4.610
14812SOL    HW144780   5.840   4.731   4.662
14812SOL    HW244781   5.771   4.879   4.665
14813SOL     OW44782   6.206   5.510   5.163
14813SOL    HW144783   6.114   5.493   5.198
14813SOL    HW244784   6.234   5.602   5.189
14814SOL     OW44785   6.192   4.688   3.847
14814SOL    HW144786   6.199   4.772   3.793
14814SOL    HW244787   6.238   4.701   3.935
14815SOL     OW44788   7.180   3.838   5.204
14815SOL    HW144789   7.162   3.905   5.132
14815SOL    HW244790   7.177   3.884   5.293
14816SOL     OW44791   5.708   4.367   4.287
14816SOL    HW144792   5.663   4.279   4.304
14816SOL    HW244793   5.707   4.421   4.371
14817SOL     OW44794   7.428   5.491   4.083
14817SOL    HW144795   7.482   5.462   4.163
14817SOL    HW244796   7.458   5.581   4.054
14818SOL     OW44797   5.613   5.320   3.841
14818SOL    HW144798   5.594   5.224   3.862
14818SOL    HW244799   5.580   5.378   3.916
14819SOL     OW44800   7.275   4.646   4.336
14819SOL    HW144801   7.370   4.617   4.344
14819SOL    HW244802   7.267   4.711   4.261
14820SOL     OW44803   7.227   4.832   4.156
14820SOL    HW144804   7.313   4.834   4.104
14820SOL    HW244805   7.241   4.879   4.244
14821SOL     OW44806   5.699   4.461   5.321
14821SOL    HW144807   5.787   4.448   5.366
14821SOL    HW244808   5.686   4.558   5.299
14822SOL     OW44809   6.199   5.089   4.450
14822SOL    HW144810   6.150   5.002   4.459
14822SOL    HW244811   6.176   5.132   4.363
14823SOL     OW44812   6.879   4.952   5.147
14823SOL    HW144813   6.916   4.879   5.089
14823SOL    HW244814   6.931   4.957   5.232
14824SOL     OW44815   6.395   3.728   4.226
14824SOL    HW144816   6.435   3.819   4.217
14824SOL    HW244817   6.295   3.736   4.232
14825SOL     OW44818   5.783   4.700   4.988
14825SOL    HW144819   5.872   4.655   4.974
14825SOL    HW244820   5.710   4.635   4.969
14826SOL     OW44821   7.111   4.723   3.914
14826SOL    HW144822   7.048   4.647   3.927
14826SOL    HW244823   7.159   4.741   4.000
14827SOL     OW44824   6.773   5.516   5.340
14827SOL    HW144825   6.797   5.576   5.264
14827SOL    HW244826   6.780   5.421   5.310
14828SOL     OW44827   5.903   3.975   5.525
14828SOL    HW144828   5.974   4.046   5.531
14828SOL    HW244829   5.815   4.014   5.553
14829SOL     OW44830   7.052   5.141   4.677
14829SOL    HW144831   6.993   5.147   4.757
14829SOL    HW244832   7.037   5.053   4.631
14830SOL     OW44833   7.253   5.438   4.296
14830SOL    HW144834   7.212   5.415   4.208
14830SOL    HW244835   7.235   5.364   4.361
14831SOL     OW44836   6.184   4.453   3.994
14831SOL    HW144837   6.208   4.522   3.926
14831SOL    HW244838   6.106   4.486   4.048
14832SOL     OW44839   6.867   4.069   4.668
14832SOL    HW144840   6.781   4.019   4.655
14832SOL    HW244841   6.929   4.015   4.724
14833SOL     OW44842   7.162   5.386   4.031
14833SOL    HW144843   7.251   5.432   4.034
14833SOL    HW244844   7.141   5.362   3.936
14834SOL     OW44845   6.393   4.329   5.189
14834SOL    HW144846   6.346   4.326   5.278
14834SOL    HW244847   6.342   4.274   5.123
14835SOL     OW44848   6.980   4.193   5.398
14835SOL    HW144849   6.960   4.236   5.486
14835SOL    HW244850   7.058   4.131   5.407
14836SOL     OW44851   6.559   4.614   5.296
14836SOL    HW144852   6.605   4.530   5.267
14836SOL    HW244853   6.503   4.648   5.221
14837SOL     OW44854   6.577   4.134   4.966
14837SOL    HW144855   6.500   4.168   5.020
14837SOL    HW244856   6.543   4.083   4.887
14838SOL     OW44857   6.627   4.425   4.153
14838SOL    HW144858   6.653   4.421   4.249
14838SOL    HW244859   6.542   4.374   4.139
14839SOL     OW44860   5.662   4.535   4.513
14839SOL    HW144861   5.761   4.523   4.522
14839SOL    HW244862   5.638   4.630   4.534
14840SOL     OW44863   5.716   5.545   5.295
14840SOL    HW144864   5.706   5.530   5.394
14840SOL    HW244865   5.630   5.581   5.259
14841SOL     OW44866   6.451   4.072   3.919
14841SOL    HW144867   6.510   4.135   3.870
14841SOL    HW244868   6.470   3.978   3.890
14842SOL     OW44869   7.305   4.309   5.555
14842SOL    HW144870   7.279   4.398   5.519
14842SOL    HW244871   7.303   4.241   5.482
14843SOL     OW44872   6.948   4.868   4.269
14843SOL    HW144873   7.031   4.839   4.221
14843SOL    HW244874   6.899   4.935   4.213
14844SOL     OW44875   6.136   3.920   4.609
14844SOL    HW144876   6.131   3.915   4.709
14844SOL    HW244877   6.138   4.016   4.580
14845SOL     OW44878   6.594   5.180   4.201
14845SOL    HW144879   6.548   5.252   4.149
14845SOL    HW244880   6.590   5.200   4.299
14846SOL     OW44881   5.937   5.525   4.577
14846SOL    HW144882   5.987   5.439   4.583
14846SOL    HW244883   6.002   5.602   4.574
14847SOL     OW44884   7.381   4.790   4.597
14847SOL    HW144885   7.319   4.775   4.521
14847SOL    HW244886   7.329   4.801   4.682
14848SOL     OW44887   6.813   5.274   5.230
14848SOL    HW144888   6.819   5.197   5.294
14848SOL    HW244889   6.761   5.248   5.150
14849SOL     OW44890   5.907   4.667   3.966
14849SOL    HW144891   5.989   4.706   3.924
14849SOL    HW244892   5.880   4.585   3.917
14850SOL     OW44893   7.044   4.459   4.452
14850SOL    HW144894   7.039   4.394   4.527
14850SOL    HW244895   7.124   4.518   4.465
14851SOL     OW44896   6.047   4.990   5.451
14851SOL    HW144897   5.997   4.991   5.365
14851SOL    HW244898   5.984   4.972   5.527
14852SOL     OW44899   6.697   5.500   3.961
14852SOL    HW144900   6.637   5.438   4.011
14852SOL    HW244901   6.728   5.456   3.876
14853SOL     OW44902   5.788   4.009   5.222
14853SOL    HW144903   5.708   4.069   5.209
14853SOL    HW244904   5.778   3.960   5.308
14854SOL     OW44905   7.218   5.101   3.805
14854SOL    HW144906   7.186   5.195   3.795
14854SOL    HW244907   7.142   5.038   3.793
14855SOL     OW44908   6.050   5.467   4.047
14855SOL    HW144909   6.083   5.506   4.133
14855SOL    HW244910   6.126   5.460   3.982
14856SOL     OW44911   6.986   3.831   4.150
14856SOL    HW144912   6.962   3.794   4.060
14856SOL    HW244913   7.085   3.847   4.154
14857SOL     OW44914   5.835   5.509   4.965
14857SOL    HW144915   5.892   5.444   5.015
14857SOL    HW244916   5.819   5.476   4.872
14858SOL     OW44917   6.526   5.422   4.628
14858SOL    HW144918   6.606   5.365   4.649
14858SOL    HW244919   6.477   5.382   4.551
14859SOL     OW44920   5.968   4.424   4.204
14859SOL    HW144921   6.013   4.334   4.201
14859SOL    HW244922   5.874   4.413   4.237
14860SOL     OW44923   7.133   3.946   5.453
14860SOL    HW144924   7.128   3.983   5.545
14860SOL    HW244925   7.061   3.877   5.441
14861SOL     OW44926   6.200   3.846   3.841
14861SOL    HW144927   6.298   3.824   3.848
14861SOL    HW244928   6.169   3.829   3.748
14862SOL     OW44929   6.367   3.988   5.473
14862SOL    HW144930   6.434   3.927   5.516
14862SOL    HW244931   6.294   4.007   5.538
14863SOL     OW44932   6.474   5.238   4.919
14863SOL    HW144933   6.451   5.213   4.825
14863SOL    HW244934   6.535   5.169   4.958
14864SOL     OW44935   6.937   4.314   5.157
14864SOL    HW144936   6.965   4.271   5.242
14864SOL    HW244937   6.962   4.410   5.158
14865SOL     OW44938   6.389   5.126   4.648
14865SOL    HW144939   6.479   5.140   4.606
14865SOL    HW244940   6.318   5.128   4.577
14866SOL     OW44941   6.508   4.227   4.623
14866SOL    HW144942   6.483   4.218   4.527
14866SOL    HW244943   6.556   4.145   4.654
14867SOL     OW44944   6.125   3.788   4.236
14867SOL    HW144945   6.044   3.789   4.294
14867SOL    HW244946   6.128   3.871   4.181
14868SOL     OW44947   7.020   4.912   3.765
14868SOL    HW144948   7.052   4.836   3.822
14868SOL    HW244949   6.928   4.939   3.795
14869SOL     OW44950   5.883   3.759   3.895
14869SOL    HW144951   5.932   3.843   3.874
14869SOL    HW244952   5.945   3.694   3.940
14870SOL     OW44953   6.521   3.960   4.204
14870SOL    HW144954   6.473   4.001   4.126
14870SOL    HW244955   6.620   3.958   4.185
14871SOL     OW44956   6.662   4.407   5.188
14871SOL    HW144957   6.582   4.346   5.191
14871SOL    HW244958   6.743   4.354   5.164
14872SOL     OW44959   6.813   5.294   4.517
14872SOL    HW144960   6.834   5.368   4.452
14872SOL    HW244961   6.881   5.294   4.590
14873SOL     OW44962   6.045   4.876   4.465
14873SOL    HW144963   5.974   4.849   4.530
14873SOL    HW244964   6.019   4.848   4.372
14874SOL     OW44965   6.857   5.521   4.315
14874SOL    HW144966   6.901   5.585   4.251
14874SOL    HW244967   6.807   5.573   4.385
14875SOL     OW44968   6.618   4.273   3.740
14875SOL    HW144969   6.577   4.355   3.701
14875SOL    HW244970   6.682   4.299   3.813
14876SOL     OW44971   5.664   4.280   5.110
14876SOL    HW144972   5.756   4.279   5.069
14876SOL    HW244973   5.658   4.354   5.177
14877SOL     OW44974   6.147   3.946   4.871
14877SOL    HW144975   6.185   3.862   4.908
14877SOL    HW244976   6.059   3.965   4.915
14878SOL     OW44977   6.452   4.178   4.366
14878SOL    HW144978   6.420   4.250   4.304
14878SOL    HW244979   6.476   4.097   4.313
14879SOL     OW44980   6.603   3.763   4.477
14879SOL    HW144981   6.531   3.768   4.408
14879SOL    HW244982   6.579   3.694   4.546
14880SOL     OW44983   7.015   4.897   4.591
14880SOL    HW144984   6.960   4.813   4.584
14880SOL    HW244985   7.041   4.926   4.499
14881SOL     OW44986   7.052   4.314   4.716
14881SOL    HW144987   7.022   4.219   4.723
14881SOL    HW244988   7.125   4.330   4.782
14882SOL     OW44989   7.443   4.557   4.101
14882SOL    HW144990   7.485   4.493   4.165
14882SOL    HW244991   7.405   4.506   4.023
14883SOL     OW44992   6.074   5.109   3.898
14883SOL    HW144993   5.987   5.094   3.945
14883SOL    HW244994   6.057   5.135   3.803
14884SOL     OW44995   7.250   5.004   4.381
14884SOL    HW144996   7.349   5.012   4.395
14884SOL    HW244997   7.205   5.088   4.412
14885SOL     OW44998   6.976   4.299   3.802
14885SOL    HW144999   6.922   4.278   3.883
14885SOL    HW245000   7.067   4.258   3.811
14886SOL     OW45001   6.113   3.980   4.052
14886SOL    HW145002   6.140   3.921   3.977
14886SOL    HW245003   6.113   4.075   4.021
14887SOL     OW45004   7.340   4.947   5.312
14887SOL    HW145005   7.431   4.908   5.299
14887SOL    HW245006   7.348   5.043   5.336
14888SOL     OW45007   6.650   5.071   5.064
14888SOL    HW145008   6.570   5.048   5.119
14888SOL    HW245009   6.733   5.045   5.113
14889SOL     OW45010   7.178   5.353   5.349
14889SOL    HW145011   7.205   5.387   5.259
14889SOL    HW245012   7.257   5.315   5.395
14890SOL     OW45013   6.697   4.919   4.824
14890SOL    HW145014   6.657   4.963   4.905
14890SOL    HW245015   6.656   4.956   4.741
14891SOL     OW45016   7.224   4.823   4.803
14891SOL    HW145017   7.229   4.904   4.862
14891SOL    HW245018   7.138   4.825   4.752
14892SOL     OW45019   6.501   3.813   5.126
14892SOL    HW145020   6.526   3.793   5.031
14892SOL    HW245021   6.573   3.869   5.168
14893SOL     OW45022   6.566   4.840   5.443
14893SOL    HW145023   6.467   4.846   5.453
14893SOL    HW245024   6.589   4.760   5.387
14894SOL     OW45025   6.291   4.774   4.092
14894SOL    HW145026   6.277   4.781   4.191
14894SOL    HW245027   6.375   4.723   4.074
14895SOL     OW45028   5.996   4.537   4.975
14895SOL    HW145029   6.082   4.549   5.025
14895SOL    HW245030   5.954   4.450   5.002
14896SOL     OW45031   6.860   4.110   4.986
14896SOL    HW145032   6.881   4.184   5.050
14896SOL    HW245033   6.771   4.127   4.943
14897SOL     OW45034   5.650   5.288   5.055
14897SOL    HW145035   5.604   5.370   5.021
14897SOL    HW245036   5.748   5.307   5.064
14898SOL     OW45037   5.953   4.824   4.225
14898SOL    HW145038   5.946   4.907   4.169
14898SOL    HW245039   5.957   4.744   4.165
14899SOL     OW45040   6.152   4.261   4.589
14899SOL    HW145041   6.164   4.327   4.515
14899SOL    HW245042   6.198   4.295   4.672
14900SOL     OW45043   6.838   5.072   4.112
14900SOL    HW145044   6.888   5.149   4.152
14900SOL    HW245045   6.743   5.074   4.144
14901SOL     OW45046   6.858   5.169   4.866
14901SOL    HW145047   6.905   5.182   4.953
14901SOL    HW245048   6.792   5.095   4.875
14902SOL     OW45049   7.168   4.363   4.196
14902SOL    HW145050   7.137   4.424   4.269
14902SOL    HW245051   7.218   4.415   4.127
14903SOL     OW45052   5.940   5.234   5.053
14903SOL    HW145053   5.919   5.190   4.966
14903SOL    HW245054   6.037   5.260   5.056
14904SOL     OW45055   5.988   4.475   5.322
14904SOL    HW145056   6.056   4.530   5.275
14904SOL    HW245057   6.028   4.387   5.349
14905SOL     OW45058   7.173   4.503   5.394
14905SOL    HW145059   7.081   4.541   5.389
14905SOL    HW245060   7.233   4.550   5.329
14906SOL     OW45061   6.599   3.829   5.494
14906SOL    HW145062   6.605   3.914   5.442
14906SOL    HW245063   6.631   3.753   5.437
14907SOL     OW45064   6.090   3.774   5.464
14907SOL    HW145065   6.048   3.717   5.394
14907SOL    HW245066   6.024   3.843   5.496
14908SOL     OW45067   6.159   4.594   4.753
14908SOL    HW145068   6.203   4.683   4.744
14908SOL    HW245069   6.096   4.594   4.830
14909SOL     OW45070   6.946   4.586   4.769
14909SOL    HW145071   6.871   4.586   4.703
14909SOL    HW245072   6.983   4.494   4.778
14910SOL     OW45073   6.795   4.249   3.999
14910SOL    HW145074   6.808   4.165   4.053
14910SOL    HW245075   6.766   4.323   4.059
14911SOL     OW45076   5.893   3.937   4.955
14911SOL    HW145077   5.870   3.974   5.045
14911SOL    HW245078   5.863   3.842   4.949
14912SOL     OW45079   5.623   5.034   5.006
14912SOL    HW145080   5.676   4.985   5.074
14912SOL    HW245081   5.645   5.132   5.011
14913SOL     OW45082   6.318   4.358   4.788
14913SOL    HW145083   6.377   4.332   4.712
14913SOL    HW245084   6.290   4.454   4.777
14914SOL     OW45085   7.314   4.659   5.578
14914SOL    HW145086   7.268   4.652   5.489
14914SOL    HW245087   7.252   4.703   5.644
14915SOL     OW45088   5.893   3.787   4.342
14915SOL    HW145089   5.882   3.881   4.375
14915SOL    HW245090   5.888   3.724   4.419
14916SOL     OW45091   7.208   4.091   4.098
14916SOL    HW145092   7.210   4.015   4.162
14916SOL    HW245093   7.160   4.168   4.138
14917SOL     OW45094   6.609   4.490   4.690
14917SOL    HW145095   6.624   4.511   4.786
14917SOL    HW245096   6.579   4.395   4.681
14918SOL     OW45097   6.566   5.297   5.424
14918SOL    HW145098   6.546   5.341   5.336
14918SOL    HW245099   6.605   5.206   5.408
14919SOL     OW45100   7.445   5.242   5.329
14919SOL    HW145101   7.459   5.269   5.234
14919SOL    HW245102   7.528   5.264   5.382
14920SOL     OW45103   5.936   4.622   5.528
14920SOL    HW145104   6.012   4.666   5.576
14920SOL    HW245105   5.971   4.575   5.446
14921SOL     OW45106   7.126   3.998   3.849
14921SOL    HW145107   7.065   3.923   3.872
14921SOL    HW245108   7.148   4.050   3.932
14922SOL     OW45109   6.889   4.562   3.766
14922SOL    HW145110   6.923   4.469   3.781
14922SOL    HW245111   6.907   4.589   3.671
14923SOL     OW45112   6.654   5.057   4.573
14923SOL    HW145113   6.661   4.973   4.518
14923SOL    HW245114   6.716   5.126   4.537
14924SOL     OW45115   5.905   4.534   4.673
14924SOL    HW145116   5.998   4.570   4.678
14924SOL    HW245117   5.899   4.449   4.725
14925SOL     OW45118   5.925   4.233   4.730
14925SOL    HW145119   5.873   4.150   4.713
14925SOL    HW245120   6.002   4.238   4.666
14926SOL     OW45121   6.724   4.104   5.402
14926SOL    HW145122   6.679   4.167   5.466
14926SOL    HW245123   6.817   4.135   5.385
14927SOL     OW45124   6.746   3.931   5.201
14927SOL    HW145125   6.746   3.995   5.278
14927SOL    HW245126   6.774   3.979   5.118
14928SOL     OW45127   5.594   5.050   3.924
14928SOL    HW145128   5.501   5.071   3.893
14928SOL    HW245129   5.604   4.951   3.937
14929SOL     OW45130   5.674   5.525   4.651
14929SOL    HW145131   5.632   5.439   4.624
14929SOL    HW245132   5.768   5.528   4.617
14930SOL     OW45133   6.090   5.292   4.634
14930SOL    HW145134   6.156   5.366   4.643
14930SOL    HW245135   6.134   5.213   4.592
14931SOL     OW45136   6.588   4.520   4.962
14931SOL    HW145137   6.629   4.488   5.048
14931SOL    HW245138   6.492   4.493   4.959
14932SOL     OW45139   5.626   4.268   4.838
14932SOL    HW145140   5.711   4.235   4.797
14932SOL    HW245141   5.639   4.283   4.936
14933SOL     OW45142   5.775   4.244   5.446
14933SOL    HW145143   5.834   4.204   5.376
14933SOL    HW245144   5.717   4.315   5.405
14934SOL     OW45145   6.955   4.674   5.384
14934SOL    HW145146   6.994   4.763   5.404
14934SOL    HW245147   6.965   4.654   5.287
14935SOL     OW45148   6.401   4.296   4.049
14935SOL    HW145149   6.408   4.207   4.003
14935SOL    HW245150   6.307   4.330   4.041
14936SOL     OW45151   7.243   4.328   4.930
14936SOL    HW145152   7.205   4.259   4.992
14936SOL    HW245153   7.325   4.292   4.886
14937SOL     OW45154   5.838   5.288   5.468
14937SOL    HW145155   5.808   5.345   5.544
14937SOL    HW245156   5.831   5.191   5.494
14938SOL     OW45157   6.257   4.188   4.993
14938SOL    HW145158   6.223   4.099   4.963
14938SOL    HW245159   6.283   4.242   4.913
14939SOL     OW45160   6.516   5.402   5.189
14939SOL    HW145161   6.492   5.384   5.094
14939SOL    HW245162   6.546   5.496   5.199
14940SOL     OW45163   6.059   4.224   3.915
14940SOL    HW145164   6.120   4.304   3.919
14940SOL    HW245165   5.964   4.255   3.922
14941SOL     OW45166   5.745   4.861   5.190
14941SOL    HW145167   5.767   4.800   5.266
14941SOL    HW245168   5.755   4.812   5.104
14942SOL     OW45169   6.933   4.783   4.958
14942SOL    HW145170   6.957   4.720   4.884
14942SOL    HW245171   6.843   4.823   4.940
14943SOL     OW45172   6.888   4.579   4.033
14943SOL    HW145173   6.802   4.548   4.075
14943SOL    HW245174   6.884   4.565   3.934
14944SOL     OW45175   7.345   5.471   4.878
14944SOL    HW145176   7.406   5.501   4.805
14944SOL    HW245177   7.307   5.382   4.856
14945SOL     OW45178   6.838   5.455   4.852
14945SOL    HW145179   6.922   5.460   4.798
14945SOL    HW245180   6.815   5.359   4.870
14946SOL     OW45181   5.669   4.982   4.746
14946SOL    HW145182   5.664   4.981   4.846
14946SOL    HW245183   5.586   4.941   4.708
14947SOL     OW45184   6.274   5.386   5.440
14947SOL    HW145185   6.218   5.467   5.449
14947SOL    HW245186   6.326   5.390   5.354
14948SOL     OW45187   6.974   5.297   4.201
14948SOL    HW145188   7.041   5.309   4.127
14948SOL    HW245189   6.934   5.386   4.224
14949SOL     OW45190   5.716   5.518   5.575
14949SOL    HW145191   5.675   5.444   5.628
14949SOL    HW245192   5.780   5.569   5.633
14950SOL     OW45193   6.866   4.651   4.396
14950SOL    HW145194   6.926   4.570   4.398
14950SOL    HW245195   6.906   4.720   4.336
14951SOL     OW45196   6.416   4.997   5.146
14951SOL    HW145197   6.411   5.030   5.241
14951SOL    HW245198   6.330   5.016   5.100
14952SOL     OW45199   6.258   5.340   3.878
14952SOL    HW145200   6.267   5.350   3.779
14952SOL    HW245201   6.218   5.251   3.899
14953SOL     OW45202   7.236   5.444   5.118
14953SOL    HW145203   7.289   5.454   5.034
14953SOL    HW245204   7.209   5.534   5.152
14954SOL     OW45205   7.427   3.899   4.687
14954SOL    HW145206   7.466   3.814   4.651
14954SOL    HW245207   7.329   3.901   4.668
14955SOL     OW45208   5.849   4.050   4.444
14955SOL    HW145209   5.770   4.101   4.410
14955SOL    HW245210   5.840   4.035   4.542
14956SOL     OW45211   6.780   5.336   3.755
14956SOL    HW145212   6.786   5.243   3.792
14956SOL    HW245213   6.721   5.336   3.675
14957SOL     OW45214   6.408   4.726   5.096
14957SOL    HW145215   6.448   4.725   5.004
14957SOL    HW245216   6.418   4.818   5.136
14958SOL     OW45217   6.502   4.634   4.015
14958SOL    HW145218   6.565   4.672   3.947
14958SOL    HW245219   6.542   4.551   4.054
14959SOL     OW45220   7.090   5.331   3.768
14959SOL    HW145221   6.998   5.368   3.775
14959SOL    HW245222   7.128   5.351   3.678
14960SOL     OW45223   5.958   5.012   5.214
14960SOL    HW145224   5.945   5.105   5.180
14960SOL    HW245225   5.874   4.960   5.201
14961SOL     OW45226   7.200   5.016   5.013
14961SOL    HW145227   7.260   5.019   5.093
14961SOL    HW245228   7.125   5.080   5.026
14962SOL     OW45229   6.625   4.822   4.420
14962SOL    HW145230   6.555   4.775   4.474
14962SOL    HW245231   6.684   4.754   4.377
14963SOL     OW45232   6.600   3.960   4.695
14963SOL    HW145233   6.592   3.924   4.602
14963SOL    HW245234   6.598   3.884   4.760
14964SOL     OW45235   6.176   5.211   4.215
14964SOL    HW145236   6.218   5.153   4.145
14964SOL    HW245237   6.132   5.290   4.171
14965SOL     OW45238   7.295   4.109   5.105
14965SOL    HW145239   7.368   4.178   5.109
14965SOL    HW245240   7.323   4.034   5.046
14966SOL     OW45241   5.841   5.072   4.014
14966SOL    HW145242   5.745   5.073   3.987
14966SOL    HW245243   5.853   5.125   4.098
14967SOL     OW45244   5.691   4.737   5.450
14967SOL    HW145245   5.614   4.704   5.504
14967SOL    HW245246   5.776   4.707   5.492
14968SOL     OW45247   6.258   3.927   5.213
14968SOL    HW145248   6.348   3.911   5.173
14968SOL    HW245249   6.266   3.932   5.312
14969SOL     OW45250   5.661   4.069   3.757
14969SOL    HW145251   5.569   4.041   3.728
14969SOL    HW245252   5.692   4.146   3.701
14970SOL     OW45253   7.026   4.580   5.122
14970SOL    HW145254   6.969   4.632   5.059
14970SOL    HW245255   7.122   4.592   5.098
14971SOL     OW45256   5.658   3.890   4.042
14971SOL    HW145257   5.641   3.973   3.988
14971SOL    HW245258   5.748   3.853   4.020
14972SOL     OW45259   6.769   5.059   3.843
14972SOL    HW145260   6.670   5.048   3.845
14972SOL    HW245261   6.803   5.074   3.936
14973SOL     OW45262   6.199   4.566   5.155
14973SOL    HW145263   6.255   4.647   5.138
14973SOL    HW245264   6.258   4.486   5.158
14974SOL     OW45265   7.079   5.491   4.683
14974SOL    HW145266   7.112   5.555   4.614
14974SOL    HW245267   7.145   5.485   4.758
14975SOL     OW45268   6.302   4.289   5.432
14975SOL    HW145269   6.321   4.354   5.506
14975SOL    HW245270   6.362   4.209   5.441
14976SOL     OW45271   7.036   4.944   5.357
14976SOL    HW145272   7.027   4.934   5.456
14976SOL    HW245273   7.132   4.937   5.331
14977SOL     OW45274   5.976   5.465   5.284
14977SOL    HW145275   5.885   5.506   5.282
14977SOL    HW245276   5.969   5.371   5.316
14978SOL     OW45277   7.260   4.607   4.978
14978SOL    HW145278   7.233   4.518   4.941
14978SOL    HW245279   7.261   4.675   4.905
14979SOL     OW45280   6.811   4.049   4.173
14979SOL    HW145281   6.876   3.975   4.162
14979SOL    HW245282   6.831   4.099   4.257
14980SOL     OW45283   6.180   4.469   4.376
14980SOL    HW145284   6.230   4.554   4.357
14980SOL    HW245285   6.092   4.471   4.328
14981SOL     OW45286   7.363   4.066   5.366
14981SOL    HW145287   7.346   4.097   5.272
14981SOL    HW245288   7.279   4.029   5.404
14982SOL     OW45289   7.316   4.658   5.241
14982SOL    HW145290   7.354   4.749   5.256
14982SOL    HW245291   7.308   4.641   5.142
14983SOL     OW45292   6.445   5.098   3.740
14983SOL    HW145293   6.399   5.113   3.828
14983SOL    HW245294   6.489   5.183   3.710
14984SOL     OW45295   6.247   5.514   4.677
14984SOL    HW145296   6.201   5.602   4.664
14984SOL    HW245297   6.346   5.526   4.670
14985SOL     OW45298   6.445   4.680   4.585
14985SOL    HW145299   6.499   4.611   4.633
14985SOL    HW245300   6.413   4.749   4.651
14986SOL     OW45301   6.669   4.708   3.811
14986SOL    HW145302   6.646   4.761   3.729
14986SOL    HW245303   6.750   4.652   3.792
14987SOL     OW45304   7.447   5.293   4.575
14987SOL    HW145305   7.376   5.281   4.505
14987SOL    HW245306   7.448   5.214   4.635
14988SOL     OW45307   5.807   5.038   5.568
14988SOL    HW145308   5.742   4.965   5.547
14988SOL    HW245309   5.811   5.052   5.666
14989SOL     OW45310   5.665   4.964   4.377
14989SOL    HW145311   5.664   4.917   4.465
14989SOL    HW245312   5.747   4.936   4.326
14990SOL     OW45313   6.258   5.115   5.348
14990SOL    HW145314   6.180   5.065   5.386
14990SOL    HW245315   6.255   5.210   5.379
14991SOL     OW45316   7.410   3.916   4.951
14991SOL    HW145317   7.406   3.826   4.995
14991SOL    HW245318   7.413   3.905   4.852
14992SOL     OW45319   6.014   4.148   4.244
14992SOL    HW145320   6.044   4.076   4.182
14992SOL    HW245321   5.975   4.108   4.327
14993SOL     OW45322   7.291   5.211   4.828
14993SOL    HW145323   7.198   5.186   4.801
14993SOL    HW245324   7.317   5.161   4.910
14994SOL     OW45325   5.903   4.271   5.004
14994SOL    HW145326   5.941   4.212   5.076
14994SOL    HW245327   5.943   4.245   4.916
14995SOL     OW45328   6.398   5.310   4.411
14995SOL    HW145329   6.430   5.320   4.317
14995SOL    HW245330   6.319   5.248   4.413
14996SOL     OW45331   7.010   3.938   4.836
14996SOL    HW145332   7.062   3.873   4.891
14996SOL    HW245333   6.961   4.001   4.897
14997SOL     OW45334   6.587   3.758   4.878
14997SOL    HW145335   6.524   3.686   4.847
14997SOL    HW245336   6.680   3.722   4.878
14998SOL     OW45337   6.356   5.054   4.025
14998SOL    HW145338   6.310   4.967   4.042
14998SOL    HW245339   6.447   5.051   4.066
14999SOL     OW45340   6.204   5.291   5.008
14999SOL    HW145341   6.199   5.373   5.065
14999SOL    HW245342   6.293   5.288   4.963
15000SOL     OW45343   6.938   3.776   3.892
15000SOL    HW145344   6.973   3.735   3.808
15000SOL    HW245345   6.848   3.738   3.912
15001SOL     OW45346   6.886   4.177   4.415
15001SOL    HW145347   6.827   4.257   4.419
15001SOL    HW245348   6.901   4.142   4.508
15002SOL     OW45349   7.179   3.945   4.606
15002SOL    HW145350   7.095   3.944   4.660
15002SOL    HW245351   7.181   4.028   4.550
15003SOL     OW45352   5.625   4.801   4.024
15003SOL    HW145353   5.724   4.790   4.015
15003SOL    HW245354   5.585   4.715   4.056
15004SOL     OW45355   6.461   5.370   4.061
15004SOL    HW145356   6.384   5.335   4.007
15004SOL    HW245357   6.429   5.441   4.123
15005SOL     OW45358   5.816   4.352   5.699
15005SOL    HW145359   5.723   4.350   5.736
15005SOL    HW245360   5.817   4.313   5.607
15006SOL     OW45361   5.811   3.999   6.582
15006SOL    HW145362   5.846   3.982   6.674
15006SOL    HW245363   5.723   3.954   6.570
15007SOL     OW45364   5.605   4.092   6.233
15007SOL    HW145365   5.523   4.135   6.272
15007SOL    HW245366   5.577   4.019   6.170
15008SOL     OW45367   6.155   4.999   6.751
15008SOL    HW145368   6.062   4.992   6.714
15008SOL    HW245369   6.166   5.088   6.795
15009SOL     OW45370   7.141   5.235   6.289
15009SOL    HW145371   7.084   5.219   6.370
15009SOL    HW245372   7.082   5.245   6.209
15010SOL     OW45373   6.721   4.427   6.303
15010SOL    HW145374   6.778   4.505   6.278
15010SOL    HW245375   6.661   4.453   6.379
15011SOL     OW45376   7.341   4.331   5.817
15011SOL    HW145377   7.329   4.318   5.718
15011SOL    HW245378   7.311   4.250   5.866
15012SOL     OW45379   6.354   4.868   6.609
15012SOL    HW145380   6.276   4.885   6.669
15012SOL    HW245381   6.388   4.955   6.573
15013SOL     OW45382   6.436   4.522   7.409
15013SOL    HW145383   6.432   4.598   7.474
15013SOL    HW245384   6.458   4.558   7.318
15014SOL     OW45385   6.271   4.736   6.251
15014SOL    HW145386   6.340   4.720   6.321
15014SOL    HW245387   6.198   4.793   6.289
15015SOL     OW45388   6.272   4.885   7.389
15015SOL    HW145389   6.332   4.964   7.403
15015SOL    HW245390   6.186   4.916   7.348
15016SOL     OW45391   5.921   5.159   6.647
15016SOL    HW145392   5.843   5.128   6.594
15016SOL    HW245393   5.979   5.217   6.590
15017SOL     OW45394   7.046   5.229   6.925
15017SOL    HW145395   7.070   5.323   6.951
15017SOL    HW245396   7.030   5.175   7.007
15018SOL     OW45397   6.024   4.116   7.085
15018SOL    HW145398   6.106   4.060   7.094
15018SOL    HW245399   5.943   4.058   7.089
15019SOL     OW45400   7.189   4.171   6.323
15019SOL    HW145401   7.115   4.217   6.273
15019SOL    HW245402   7.240   4.239   6.376
15020SOL     OW45403   5.817   5.437   6.069
15020SOL    HW145404   5.851   5.514   6.123
15020SOL    HW245405   5.861   5.437   5.979
15021SOL     OW45406   6.713   5.065   7.276
15021SOL    HW145407   6.760   5.065   7.364
15021SOL    HW245408   6.665   4.978   7.265
15022SOL     OW45409   5.816   5.158   6.124
15022SOL    HW145410   5.790   5.254   6.124
15022SOL    HW245411   5.745   5.104   6.169
15023SOL     OW45412   5.826   4.815   6.472
15023SOL    HW145413   5.840   4.731   6.524
15023SOL    HW245414   5.771   4.879   6.527
15024SOL     OW45415   6.206   5.510   7.025
15024SOL    HW145416   6.114   5.493   7.060
15024SOL    HW245417   6.234   5.602   7.051
15025SOL     OW45418   6.192   4.688   5.709
15025SOL    HW145419   6.199   4.772   5.655
15025SOL    HW245420   6.238   4.701   5.797
15026SOL     OW45421   7.180   3.838   7.066
15026SOL    HW145422   7.162   3.905   6.994
15026SOL    HW245423   7.177   3.884   7.155
15027SOL     OW45424   5.708   4.367   6.149
15027SOL    HW145425   5.663   4.279   6.166
15027SOL    HW245426   5.707   4.421   6.233
15028SOL     OW45427   7.428   5.491   5.945
15028SOL    HW145428   7.482   5.462   6.025
15028SOL    HW245429   7.458   5.581   5.916
15029SOL     OW45430   5.613   5.320   5.703
15029SOL    HW145431   5.594   5.224   5.724
15029SOL    HW245432   5.580   5.378   5.778
15030SOL     OW45433   7.275   4.646   6.198
15030SOL    HW145434   7.370   4.617   6.206
15030SOL    HW245435   7.267   4.711   6.123
15031SOL     OW45436   7.227   4.832   6.018
15031SOL    HW145437   7.313   4.834   5.966
15031SOL    HW245438   7.241   4.879   6.106
15032SOL     OW45439   5.699   4.461   7.183
15032SOL    HW145440   5.787   4.448   7.228
15032SOL    HW245441   5.686   4.558   7.161
15033SOL     OW45442   6.199   5.089   6.312
15033SOL    HW145443   6.150   5.002   6.321
15033SOL    HW245444   6.176   5.132   6.225
15034SOL     OW45445   6.879   4.952   7.009
15034SOL    HW145446   6.916   4.879   6.951
15034SOL    HW245447   6.931   4.957   7.094
15035SOL     OW45448   6.395   3.728   6.088
15035SOL    HW145449   6.435   3.819   6.079
15035SOL    HW245450   6.295   3.736   6.094
15036SOL     OW45451   5.783   4.700   6.850
15036SOL    HW145452   5.872   4.655   6.836
15036SOL    HW245453   5.710   4.635   6.831
15037SOL     OW45454   7.111   4.723   5.776
15037SOL    HW145455   7.048   4.647   5.789
15037SOL    HW245456   7.159   4.741   5.862
15038SOL     OW45457   6.773   5.516   7.202
15038SOL    HW145458   6.797   5.576   7.126
15038SOL    HW245459   6.780   5.421   7.172
15039SOL     OW45460   5.903   3.975   7.387
15039SOL    HW145461   5.974   4.046   7.393
15039SOL    HW245462   5.815   4.014   7.415
15040SOL     OW45463   7.052   5.141   6.539
15040SOL    HW145464   6.993   5.147   6.619
15040SOL    HW245465   7.037   5.053   6.493
15041SOL     OW45466   7.253   5.438   6.158
15041SOL    HW145467   7.212   5.415   6.070
15041SOL    HW245468   7.235   5.364   6.223
15042SOL     OW45469   6.184   4.453   5.856
15042SOL    HW145470   6.208   4.522   5.788
15042SOL    HW245471   6.106   4.486   5.910
15043SOL     OW45472   6.867   4.069   6.530
15043SOL    HW145473   6.781   4.019   6.517
15043SOL    HW245474   6.929   4.015   6.586
15044SOL     OW45475   7.162   5.386   5.893
15044SOL    HW145476   7.251   5.432   5.896
15044SOL    HW245477   7.141   5.362   5.798
15045SOL     OW45478   6.393   4.329   7.051
15045SOL    HW145479   6.346   4.326   7.140
15045SOL    HW245480   6.342   4.274   6.985
15046SOL     OW45481   6.980   4.193   7.260
15046SOL    HW145482   6.960   4.236   7.348
15046SOL    HW245483   7.058   4.131   7.269
15047SOL     OW45484   6.559   4.614   7.158
15047SOL    HW145485   6.605   4.530   7.129
15047SOL    HW245486   6.503   4.648   7.083
15048SOL     OW45487   6.577   4.134   6.828
15048SOL    HW145488   6.500   4.168   6.882
15048SOL    HW245489   6.543   4.083   6.749
15049SOL     OW45490   6.627   4.425   6.015
15049SOL    HW145491   6.653   4.421   6.111
15049SOL    HW245492   6.542   4.374   6.001
15050SOL     OW45493   5.662   4.535   6.375
15050SOL    HW145494   5.761   4.523   6.384
15050SOL    HW245495   5.638   4.630   6.396
15051SOL     OW45496   5.716   5.545   7.157
15051SOL    HW145497   5.706   5.530   7.256
15051SOL    HW245498   5.630   5.581   7.121
15052SOL     OW45499   6.451   4.072   5.781
15052SOL    HW145500   6.510   4.135   5.732
15052SOL    HW245501   6.470   3.978   5.752
15053SOL     OW45502   7.305   4.309   7.417
15053SOL    HW145503   7.279   4.398   7.381
15053SOL    HW245504   7.303   4.241   7.344
15054SOL     OW45505   6.948   4.868   6.131
15054SOL    HW145506   7.031   4.839   6.083
15054SOL    HW245507   6.899   4.935   6.075
15055SOL     OW45508   6.136   3.920   6.471
15055SOL    HW145509   6.131   3.915   6.571
15055SOL    HW245510   6.138   4.016   6.442
15056SOL     OW45511   6.594   5.180   6.063
15056SOL    HW145512   6.548   5.252   6.011
15056SOL    HW245513   6.590   5.200   6.161
15057SOL     OW45514   5.937   5.525   6.439
15057SOL    HW145515   5.987   5.439   6.445
15057SOL    HW245516   6.002   5.602   6.436
15058SOL     OW45517   7.381   4.790   6.459
15058SOL    HW145518   7.319   4.775   6.383
15058SOL    HW245519   7.329   4.801   6.544
15059SOL     OW45520   6.813   5.274   7.092
15059SOL    HW145521   6.819   5.197   7.156
15059SOL    HW245522   6.761   5.248   7.012
15060SOL     OW45523   5.907   4.667   5.828
15060SOL    HW145524   5.989   4.706   5.786
15060SOL    HW245525   5.880   4.585   5.779
15061SOL     OW45526   7.044   4.459   6.314
15061SOL    HW145527   7.039   4.394   6.389
15061SOL    HW245528   7.124   4.518   6.327
15062SOL     OW45529   6.047   4.990   7.313
15062SOL    HW145530   5.997   4.991   7.227
15062SOL    HW245531   5.984   4.972   7.389
15063SOL     OW45532   6.697   5.500   5.823
15063SOL    HW145533   6.637   5.438   5.873
15063SOL    HW245534   6.728   5.456   5.738
15064SOL     OW45535   5.788   4.009   7.084
15064SOL    HW145536   5.708   4.069   7.071
15064SOL    HW245537   5.778   3.960   7.170
15065SOL     OW45538   7.218   5.101   5.667
15065SOL    HW145539   7.186   5.195   5.657
15065SOL    HW245540   7.142   5.038   5.655
15066SOL     OW45541   6.050   5.467   5.909
15066SOL    HW145542   6.083   5.506   5.995
15066SOL    HW245543   6.126   5.460   5.844
15067SOL     OW45544   6.986   3.831   6.012
15067SOL    HW145545   6.962   3.794   5.922
15067SOL    HW245546   7.085   3.847   6.016
15068SOL     OW45547   5.835   5.509   6.827
15068SOL    HW145548   5.892   5.444   6.877
15068SOL    HW245549   5.819   5.476   6.734
15069SOL     OW45550   6.526   5.422   6.490
15069SOL    HW145551   6.606   5.365   6.511
15069SOL    HW245552   6.477   5.382   6.413
15070SOL     OW45553   5.968   4.424   6.066
15070SOL    HW145554   6.013   4.334   6.063
15070SOL    HW245555   5.874   4.413   6.099
15071SOL     OW45556   7.133   3.946   7.315
15071SOL    HW145557   7.128   3.983   7.407
15071SOL    HW245558   7.061   3.877   7.303
15072SOL     OW45559   6.200   3.846   5.703
15072SOL    HW145560   6.298   3.824   5.710
15072SOL    HW245561   6.169   3.829   5.610
15073SOL     OW45562   6.367   3.988   7.335
15073SOL    HW145563   6.434   3.927   7.378
15073SOL    HW245564   6.294   4.007   7.400
15074SOL     OW45565   6.474   5.238   6.781
15074SOL    HW145566   6.451   5.213   6.687
15074SOL    HW245567   6.535   5.169   6.820
15075SOL     OW45568   6.937   4.314   7.019
15075SOL    HW145569   6.965   4.271   7.104
15075SOL    HW245570   6.962   4.410   7.020
15076SOL     OW45571   6.389   5.126   6.510
15076SOL    HW145572   6.479   5.140   6.468
15076SOL    HW245573   6.318   5.128   6.439
15077SOL     OW45574   6.508   4.227   6.485
15077SOL    HW145575   6.483   4.218   6.389
15077SOL    HW245576   6.556   4.145   6.516
15078SOL     OW45577   6.125   3.788   6.098
15078SOL    HW145578   6.044   3.789   6.156
15078SOL    HW245579   6.128   3.871   6.043
15079SOL     OW45580   7.020   4.912   5.627
15079SOL    HW145581   7.052   4.836   5.684
15079SOL    HW245582   6.928   4.939   5.657
15080SOL     OW45583   5.883   3.759   5.757
15080SOL    HW145584   5.932   3.843   5.736
15080SOL    HW245585   5.945   3.694   5.802
15081SOL     OW45586   6.521   3.960   6.066
15081SOL    HW145587   6.473   4.001   5.988
15081SOL    HW245588   6.620   3.958   6.047
15082SOL     OW45589   6.662   4.407   7.050
15082SOL    HW145590   6.582   4.346   7.053
15082SOL    HW245591   6.743   4.354   7.026
15083SOL     OW45592   6.813   5.294   6.379
15083SOL    HW145593   6.834   5.368   6.314
15083SOL    HW245594   6.881   5.294   6.452
15084SOL     OW45595   6.045   4.876   6.327
15084SOL    HW145596   5.974   4.849   6.392
15084SOL    HW245597   6.019   4.848   6.234
15085SOL     OW45598   6.857   5.521   6.177
15085SOL    HW145599   6.901   5.585   6.113
15085SOL    HW245600   6.807   5.573   6.247
15086SOL     OW45601   6.618   4.273   5.602
15086SOL    HW145602   6.577   4.355   5.563
15086SOL    HW245603   6.682   4.299   5.675
15087SOL     OW45604   5.664   4.280   6.972
15087SOL    HW145605   5.756   4.279   6.931
15087SOL    HW245606   5.658   4.354   7.039
15088SOL     OW45607   6.147   3.946   6.733
15088SOL    HW145608   6.185   3.862   6.770
15088SOL    HW245609   6.059   3.965   6.777
15089SOL     OW45610   6.452   4.178   6.228
15089SOL    HW145611   6.420   4.250   6.166
15089SOL    HW245612   6.476   4.097   6.175
15090SOL     OW45613   6.603   3.763   6.339
15090SOL    HW145614   6.531   3.768   6.270
15090SOL    HW245615   6.579   3.694   6.408
15091SOL     OW45616   7.015   4.897   6.453
15091SOL    HW145617   6.960   4.813   6.446
15091SOL    HW245618   7.041   4.926   6.361
15092SOL     OW45619   7.052   4.314   6.578
15092SOL    HW145620   7.022   4.219   6.585
15092SOL    HW245621   7.125   4.330   6.644
15093SOL     OW45622   7.443   4.557   5.963
15093SOL    HW145623   7.485   4.493   6.027
15093SOL    HW245624   7.405   4.506   5.885
15094SOL     OW45625   6.074   5.109   5.760
15094SOL    HW145626   5.987   5.094   5.807
15094SOL    HW245627   6.057   5.135   5.665
15095SOL     OW45628   7.250   5.004   6.243
15095SOL    HW145629   7.349   5.012   6.257
15095SOL    HW245630   7.205   5.088   6.274
15096SOL     OW45631   6.976   4.299   5.664
15096SOL    HW145632   6.922   4.278   5.745
15096SOL    HW245633   7.067   4.258   5.673
15097SOL     OW45634   6.113   3.980   5.914
15097SOL    HW145635   6.140   3.921   5.839
15097SOL    HW245636   6.113   4.075   5.883
15098SOL     OW45637   7.340   4.947   7.174
15098SOL    HW145638   7.431   4.908   7.161
15098SOL    HW245639   7.348   5.043   7.198
15099SOL     OW45640   6.650   5.071   6.926
15099SOL    HW145641   6.570   5.048   6.981
15099SOL    HW245642   6.733   5.045   6.975
15100SOL     OW45643   7.178   5.353   7.211
15100SOL    HW145644   7.205   5.387   7.121
15100SOL    HW245645   7.257   5.315   7.257
15101SOL     OW45646   6.697   4.919   6.686
15101SOL    HW145647   6.657   4.963   6.767
15101SOL    HW245648   6.656   4.956   6.603
15102SOL     OW45649   7.224   4.823   6.665
15102SOL    HW145650   7.229   4.904   6.724
15102SOL    HW245651   7.138   4.825   6.614
15103SOL     OW45652   6.501   3.813   6.988
15103SOL    HW145653   6.526   3.793   6.893
15103SOL    HW245654   6.573   3.869   7.030
15104SOL     OW45655   6.566   4.840   7.305
15104SOL    HW145656   6.467   4.846   7.315
15104SOL    HW245657   6.589   4.760   7.249
15105SOL     OW45658   6.291   4.774   5.954
15105SOL    HW145659   6.277   4.781   6.053
15105SOL    HW245660   6.375   4.723   5.936
15106SOL     OW45661   5.996   4.537   6.837
15106SOL    HW145662   6.082   4.549   6.887
15106SOL    HW245663   5.954   4.450   6.864
15107SOL     OW45664   6.860   4.110   6.848
15107SOL    HW145665   6.881   4.184   6.912
15107SOL    HW245666   6.771   4.127   6.805
15108SOL     OW45667   5.650   5.288   6.917
15108SOL    HW145668   5.604   5.370   6.883
15108SOL    HW245669   5.748   5.307   6.926
15109SOL     OW45670   5.953   4.824   6.087
15109SOL    HW145671   5.946   4.907   6.031
15109SOL    HW245672   5.957   4.744   6.027
15110SOL     OW45673   6.152   4.261   6.451
15110SOL    HW145674   6.164   4.327   6.377
15110SOL    HW245675   6.198   4.295   6.534
15111SOL     OW45676   6.838   5.072   5.974
15111SOL    HW145677   6.888   5.149   6.014
15111SOL    HW245678   6.743   5.074   6.006
15112SOL     OW45679   6.858   5.169   6.728
15112SOL    HW145680   6.905   5.182   6.815
15112SOL    HW245681   6.792   5.095   6.737
15113SOL     OW45682   7.168   4.363   6.058
15113SOL    HW145683   7.137   4.424   6.131
15113SOL    HW245684   7.218   4.415   5.989
15114SOL     OW45685   5.940   5.234   6.915
15114SOL    HW145686   5.919   5.190   6.828
15114SOL    HW245687   6.037   5.260   6.918
15115SOL     OW45688   5.988   4.475   7.184
15115SOL    HW145689   6.056   4.530   7.137
15115SOL    HW245690   6.028   4.387   7.211
15116SOL     OW45691   7.173   4.503   7.256
15116SOL    HW145692   7.081   4.541   7.251
15116SOL    HW245693   7.233   4.550   7.191
15117SOL     OW45694   6.599   3.829   7.356
15117SOL    HW145695   6.605   3.914   7.304
15117SOL    HW245696   6.631   3.753   7.299
15118SOL     OW45697   6.090   3.774   7.326
15118SOL    HW145698   6.048   3.717   7.256
15118SOL    HW245699   6.024   3.843   7.358
15119SOL     OW45700   6.159   4.594   6.615
15119SOL    HW145701   6.203   4.683   6.606
15119SOL    HW245702   6.096   4.594   6.692
15120SOL     OW45703   6.946   4.586   6.631
15120SOL    HW145704   6.871   4.586   6.565
15120SOL    HW245705   6.983   4.494   6.640
15121SOL     OW45706   6.795   4.249   5.861
15121SOL    HW145707   6.808   4.165   5.915
15121SOL    HW245708   6.766   4.323   5.921
15122SOL     OW45709   5.893   3.937   6.817
15122SOL    HW145710   5.870   3.974   6.907
15122SOL    HW245711   5.863   3.842   6.811
15123SOL     OW45712   5.623   5.034   6.868
15123SOL    HW145713   5.676   4.985   6.936
15123SOL    HW245714   5.645   5.132   6.873
15124SOL     OW45715   6.318   4.358   6.650
15124SOL    HW145716   6.377   4.332   6.574
15124SOL    HW245717   6.290   4.454   6.639
15125SOL     OW45718   7.314   4.659   7.440
15125SOL    HW145719   7.268   4.652   7.351
15125SOL    HW245720   7.252   4.703   7.506
15126SOL     OW45721   5.893   3.787   6.204
15126SOL    HW145722   5.882   3.881   6.237
15126SOL    HW245723   5.888   3.724   6.281
15127SOL     OW45724   7.208   4.091   5.960
15127SOL    HW145725   7.210   4.015   6.024
15127SOL    HW245726   7.160   4.168   6.000
15128SOL     OW45727   6.609   4.490   6.552
15128SOL    HW145728   6.624   4.511   6.648
15128SOL    HW245729   6.579   4.395   6.543
15129SOL     OW45730   6.566   5.297   7.286
15129SOL    HW145731   6.546   5.341   7.198
15129SOL    HW245732   6.605   5.206   7.270
15130SOL     OW45733   7.445   5.242   7.191
15130SOL    HW145734   7.459   5.269   7.096
15130SOL    HW245735   7.528   5.264   7.244
15131SOL     OW45736   5.936   4.622   7.390
15131SOL    HW145737   6.012   4.666   7.438
15131SOL    HW245738   5.971   4.575   7.308
15132SOL     OW45739   7.126   3.998   5.711
15132SOL    HW145740   7.065   3.923   5.734
15132SOL    HW245741   7.148   4.050   5.794
15133SOL     OW45742   6.889   4.562   5.628
15133SOL    HW145743   6.923   4.469   5.643
15133SOL    HW245744   6.907   4.589   5.533
15134SOL     OW45745   6.654   5.057   6.435
15134SOL    HW145746   6.661   4.973   6.380
15134SOL    HW245747   6.716   5.126   6.399
15135SOL     OW45748   5.905   4.534   6.535
15135SOL    HW145749   5.998   4.570   6.540
15135SOL    HW245750   5.899   4.449   6.587
15136SOL     OW45751   5.925   4.233   6.592
15136SOL    HW145752   5.873   4.150   6.575
15136SOL    HW245753   6.002   4.238   6.528
15137SOL     OW45754   6.724   4.104   7.264
15137SOL    HW145755   6.679   4.167   7.328
15137SOL    HW245756   6.817   4.135   7.247
15138SOL     OW45757   6.746   3.931   7.063
15138SOL    HW145758   6.746   3.995   7.140
15138SOL    HW245759   6.774   3.979   6.980
15139SOL     OW45760   5.594   5.050   5.786
15139SOL    HW145761   5.501   5.071   5.755
15139SOL    HW245762   5.604   4.951   5.799
15140SOL     OW45763   5.674   5.525   6.513
15140SOL    HW145764   5.632   5.439   6.486
15140SOL    HW245765   5.768   5.528   6.479
15141SOL     OW45766   6.090   5.292   6.496
15141SOL    HW145767   6.156   5.366   6.505
15141SOL    HW245768   6.134   5.213   6.454
15142SOL     OW45769   6.588   4.520   6.824
15142SOL    HW145770   6.629   4.488   6.910
15142SOL    HW245771   6.492   4.493   6.821
15143SOL     OW45772   5.626   4.268   6.700
15143SOL    HW145773   5.711   4.235   6.659
15143SOL    HW245774   5.639   4.283   6.798
15144SOL     OW45775   5.775   4.244   7.308
15144SOL    HW145776   5.834   4.204   7.238
15144SOL    HW245777   5.717   4.315   7.267
15145SOL     OW45778   6.955   4.674   7.246
15145SOL    HW145779   6.994   4.763   7.266
15145SOL    HW245780   6.965   4.654   7.149
15146SOL     OW45781   6.401   4.296   5.911
15146SOL    HW145782   6.408   4.207   5.865
15146SOL    HW245783   6.307   4.330   5.903
15147SOL     OW45784   7.243   4.328   6.792
15147SOL    HW145785   7.205   4.259   6.854
15147SOL    HW245786   7.325   4.292   6.748
15148SOL     OW45787   5.838   5.288   7.330
15148SOL    HW145788   5.808   5.345   7.406
15148SOL    HW245789   5.831   5.191   7.356
15149SOL     OW45790   6.257   4.188   6.855
15149SOL    HW145791   6.223   4.099   6.825
15149SOL    HW245792   6.283   4.242   6.775
15150SOL     OW45793   6.516   5.402   7.051
15150SOL    HW145794   6.492   5.384   6.956
15150SOL    HW245795   6.546   5.496   7.061
15151SOL     OW45796   6.059   4.224   5.777
15151SOL    HW145797   6.120   4.304   5.781
15151SOL    HW245798   5.964   4.255   5.784
15152SOL     OW45799   5.745   4.861   7.052
15152SOL    HW145800   5.767   4.800   7.128
15152SOL    HW245801   5.755   4.812   6.966
15153SOL     OW45802   6.933   4.783   6.820
15153SOL    HW145803   6.957   4.720   6.746
15153SOL    HW245804   6.843   4.823   6.802
15154SOL     OW45805   6.888   4.579   5.895
15154SOL    HW145806   6.802   4.548   5.937
15154SOL    HW245807   6.884   4.565   5.796
15155SOL     OW45808   7.345   5.471   6.740
15155SOL    HW145809   7.406   5.501   6.667
15155SOL    HW245810   7.307   5.382   6.718
15156SOL     OW45811   6.838   5.455   6.714
15156SOL    HW145812   6.922   5.460   6.660
15156SOL    HW245813   6.815   5.359   6.732
15157SOL     OW45814   5.669   4.982   6.608
15157SOL    HW145815   5.664   4.981   6.708
15157SOL    HW245816   5.586   4.941   6.570
15158SOL     OW45817   6.274   5.386   7.302
15158SOL    HW145818   6.218   5.467   7.311
15158SOL    HW245819   6.326   5.390   7.216
15159SOL     OW45820   7.312   3.859   6.109
15159SOL    HW145821   7.385   3.842   6.042
15159SOL    HW245822   7.281   3.772   6.147
15160SOL     OW45823   6.974   5.297   6.063
15160SOL    HW145824   7.041   5.309   5.989
15160SOL    HW245825   6.934   5.386   6.086
15161SOL     OW45826   5.716   5.518   7.437
15161SOL    HW145827   5.675   5.444   7.490
15161SOL    HW245828   5.780   5.569   7.495
15162SOL     OW45829   6.866   4.651   6.258
15162SOL    HW145830   6.926   4.570   6.260
15162SOL    HW245831   6.906   4.720   6.198
15163SOL     OW45832   6.416   4.997   7.008
15163SOL    HW145833   6.411   5.030   7.103
15163SOL    HW245834   6.330   5.016   6.962
15164SOL     OW45835   6.258   5.340   5.740
15164SOL    HW145836   6.267   5.350   5.641
15164SOL    HW245837   6.218   5.251   5.761
15165SOL     OW45838   7.236   5.444   6.980
15165SOL    HW145839   7.289   5.454   6.896
15165SOL    HW245840   7.209   5.534   7.014
15166SOL     OW45841   7.427   3.899   6.549
15166SOL    HW145842   7.466   3.814   6.513
15166SOL    HW245843   7.329   3.901   6.530
15167SOL     OW45844   5.849   4.050   6.306
15167SOL    HW145845   5.770   4.101   6.272
15167SOL    HW245846   5.840   4.035   6.404
15168SOL     OW45847   6.780   5.336   5.617
15168SOL    HW145848   6.786   5.243   5.654
15168SOL    HW245849   6.721   5.336   5.537
15169SOL     OW45850   6.408   4.726   6.958
15169SOL    HW145851   6.448   4.725   6.866
15169SOL    HW245852   6.418   4.818   6.998
15170SOL     OW45853   6.502   4.634   5.877
15170SOL    HW145854   6.565   4.672   5.809
15170SOL    HW245855   6.542   4.551   5.916
15171SOL     OW45856   7.090   5.331   5.630
15171SOL    HW145857   6.998   5.368   5.637
15171SOL    HW245858   7.128   5.351   5.540
15172SOL     OW45859   5.958   5.012   7.076
15172SOL    HW145860   5.945   5.105   7.042
15172SOL    HW245861   5.874   4.960   7.063
15173SOL     OW45862   7.200   5.016   6.875
15173SOL    HW145863   7.260   5.019   6.955
15173SOL    HW245864   7.125   5.080   6.888
15174SOL     OW45865   6.625   4.822   6.282
15174SOL    HW145866   6.555   4.775   6.336
15174SOL    HW245867   6.684   4.754   6.239
15175SOL     OW45868   6.600   3.960   6.557
15175SOL    HW145869   6.592   3.924   6.464
15175SOL    HW245870   6.598   3.884   6.622
15176SOL     OW45871   6.176   5.211   6.077
15176SOL    HW145872   6.218   5.153   6.007
15176SOL    HW245873   6.132   5.290   6.033
15177SOL     OW45874   7.295   4.109   6.967
15177SOL    HW145875   7.368   4.178   6.971
15177SOL    HW245876   7.323   4.034   6.908
15178SOL     OW45877   5.841   5.072   5.876
15178SOL    HW145878   5.745   5.073   5.849
15178SOL    HW245879   5.853   5.125   5.960
15179SOL     OW45880   5.691   4.737   7.312
15179SOL    HW145881   5.614   4.704   7.366
15179SOL    HW245882   5.776   4.707   7.354
15180SOL     OW45883   6.258   3.927   7.075
15180SOL    HW145884   6.348   3.911   7.035
15180SOL    HW245885   6.266   3.932   7.174
15181SOL     OW45886   5.661   4.069   5.619
15181SOL    HW145887   5.569   4.041   5.590
15181SOL    HW245888   5.692   4.146   5.563
15182SOL     OW45889   7.026   4.580   6.984
15182SOL    HW145890   6.969   4.632   6.921
15182SOL    HW245891   7.122   4.592   6.960
15183SOL     OW45892   5.658   3.890   5.904
15183SOL    HW145893   5.641   3.973   5.850
15183SOL    HW245894   5.748   3.853   5.882
15184SOL     OW45895   6.769   5.059   5.705
15184SOL    HW145896   6.670   5.048   5.707
15184SOL    HW245897   6.803   5.074   5.798
15185SOL     OW45898   6.199   4.566   7.017
15185SOL    HW145899   6.255   4.647   7.000
15185SOL    HW245900   6.258   4.486   7.020
15186SOL     OW45901   7.079   5.491   6.545
15186SOL    HW145902   7.112   5.555   6.476
15186SOL    HW245903   7.145   5.485   6.620
15187SOL     OW45904   6.302   4.289   7.294
15187SOL    HW145905   6.321   4.354   7.368
15187SOL    HW245906   6.362   4.209   7.303
15188SOL     OW45907   7.036   4.944   7.219
15188SOL    HW145908   7.027   4.934   7.318
15188SOL    HW245909   7.132   4.937   7.193
15189SOL     OW45910   7.260   4.607   6.840
15189SOL    HW145911   7.233   4.518   6.803
15189SOL    HW245912   7.261   4.675   6.767
15190SOL     OW45913   6.811   4.049   6.035
15190SOL    HW145914   6.876   3.975   6.024
15190SOL    HW245915   6.831   4.099   6.119
15191SOL     OW45916   6.180   4.469   6.238
15191SOL    HW145917   6.230   4.554   6.219
15191SOL    HW245918   6.092   4.471   6.190
15192SOL     OW45919   7.363   4.066   7.228
15192SOL    HW145920   7.346   4.097   7.134
15192SOL    HW245921   7.279   4.029   7.266
15193SOL     OW45922   7.316   4.658   7.103
15193SOL    HW145923   7.354   4.749   7.118
15193SOL    HW245924   7.308   4.641   7.004
15194SOL     OW45925   6.445   5.098   5.602
15194SOL    HW145926   6.399   5.113   5.690
15194SOL    HW245927   6.489   5.183   5.572
15195SOL     OW45928   6.247   5.514   6.539
15195SOL    HW145929   6.201   5.602   6.526
15195SOL    HW245930   6.346   5.526   6.532
15196SOL     OW45931   6.445   4.680   6.447
15196SOL    HW145932   6.499   4.611   6.495
15196SOL    HW245933   6.413   4.749   6.513
15197SOL     OW45934   6.669   4.708   5.673
15197SOL    HW145935   6.646   4.761   5.591
15197SOL    HW245936   6.750   4.652   5.654
15198SOL     OW45937   7.447   5.293   6.437
15198SOL    HW145938   7.376   5.281   6.367
15198SOL    HW245939   7.448   5.214   6.497
15199SOL     OW45940   5.807   5.038   7.430
15199SOL    HW145941   5.742   4.965   7.409
15199SOL    HW245942   5.811   5.052   7.528
15200SOL     OW45943   5.665   4.964   6.239
15200SOL    HW145944   5.664   4.917   6.327
15200SOL    HW245945   5.747   4.936   6.188
15201SOL     OW45946   6.258   5.115   7.210
15201SOL    HW145947   6.180   5.065   7.248
15201SOL    HW245948   6.255   5.210   7.241
15202SOL     OW45949   7.410   3.916   6.813
15202SOL    HW145950   7.406   3.826   6.857
15202SOL    HW245951   7.413   3.905   6.714
15203SOL     OW45952   6.014   4.148   6.106
15203SOL    HW145953   6.044   4.076   6.044
15203SOL    HW245954   5.975   4.108   6.189
15204SOL     OW45955   7.291   5.211   6.690
15204SOL    HW145956   7.198   5.186   6.663
15204SOL    HW245957   7.317   5.161   6.772
15205SOL     OW45958   5.903   4.271   6.866
15205SOL    HW145959   5.941   4.212   6.938
15205SOL    HW245960   5.943   4.245   6.778
15206SOL     OW45961   6.398   5.310   6.273
15206SOL    HW145962   6.430   5.320   6.179
15206SOL    HW245963   6.319   5.248   6.275
15207SOL     OW45964   7.010   3.938   6.698
15207SOL    HW145965   7.062   3.873   6.753
15207SOL    HW245966   6.961   4.001   6.759
15208SOL     OW45967   6.587   3.758   6.740
15208SOL    HW145968   6.524   3.686   6.709
15208SOL    HW245969   6.680   3.722   6.740
15209SOL     OW45970   6.356   5.054   5.887
15209SOL    HW145971   6.310   4.967   5.904
15209SOL    HW245972   6.447   5.051   5.928
15210SOL     OW45973   6.204   5.291   6.870
15210SOL    HW145974   6.199   5.373   6.927
15210SOL    HW245975   6.293   5.288   6.825
15211SOL     OW45976   6.938   3.776   5.754
15211SOL    HW145977   6.973   3.735   5.670
15211SOL    HW245978   6.848   3.738   5.774
15212SOL     OW45979   6.886   4.177   6.277
15212SOL    HW145980   6.827   4.257   6.281
15212SOL    HW245981   6.901   4.142   6.370
15213SOL     OW45982   7.179   3.945   6.468
15213SOL    HW145983   7.095   3.944   6.522
15213SOL    HW245984   7.181   4.028   6.412
15214SOL     OW45985   5.625   4.801   5.886
15214SOL    HW145986   5.724   4.790   5.877
15214SOL    HW245987   5.585   4.715   5.918
15215SOL     OW45988   6.461   5.370   5.923
15215SOL    HW145989   6.384   5.335   5.869
15215SOL    HW245990   6.429   5.441   5.985
15216SOL     OW45991   7.341   4.331   7.679
15216SOL    HW145992   7.329   4.318   7.580
15216SOL    HW245993   7.311   4.250   7.728
15217SOL     OW45994   5.817   5.437   7.931
15217SOL    HW145995   5.851   5.514   7.985
15217SOL    HW245996   5.861   5.437   7.841
15218SOL     OW45997   5.613   5.320   7.565
15218SOL    HW145998   5.594   5.224   7.586
15218SOL    HW245999   5.580   5.378   7.640
15219SOL     OW46000   7.111   4.723   7.638
15219SOL    HW146001   7.048   4.647   7.651
15219SOL    HW246002   7.159   4.741   7.724
15220SOL     OW46003   5.907   4.667   7.690
15220SOL    HW146004   5.989   4.706   7.648
15220SOL    HW246005   5.880   4.585   7.641
15221SOL     OW46006   6.697   5.500   7.685
15221SOL    HW146007   6.637   5.438   7.735
15221SOL    HW246008   6.728   5.456   7.600
15222SOL     OW46009   7.218   5.101   7.529
15222SOL    HW146010   7.186   5.195   7.519
15222SOL    HW246011   7.142   5.038   7.517
15223SOL     OW46012   6.050   5.467   7.771
15223SOL    HW146013   6.083   5.506   7.857
15223SOL    HW246014   6.126   5.460   7.706
15224SOL     OW46015   7.020   4.912   7.489
15224SOL    HW146016   7.052   4.836   7.546
15224SOL    HW246017   6.928   4.939   7.519
15225SOL     OW46018   6.618   4.273   7.464
15225SOL    HW146019   6.577   4.355   7.425
15225SOL    HW246020   6.682   4.299   7.537
15226SOL     OW46021   6.074   5.109   7.622
15226SOL    HW146022   5.987   5.094   7.669
15226SOL    HW246023   6.057   5.135   7.527
15227SOL     OW46024   6.976   4.299   7.526
15227SOL    HW146025   6.922   4.278   7.607
15227SOL    HW246026   7.067   4.258   7.535
15228SOL     OW46027   5.953   4.824   7.949
15228SOL    HW146028   5.946   4.907   7.893
15228SOL    HW246029   5.957   4.744   7.889
15229SOL     OW46030   7.126   3.998   7.573
15229SOL    HW146031   7.065   3.923   7.596
15229SOL    HW246032   7.148   4.050   7.656
15230SOL     OW46033   6.889   4.562   7.490
15230SOL    HW146034   6.923   4.469   7.505
15230SOL    HW246035   6.907   4.589   7.395
15231SOL     OW46036   5.594   5.050   7.648
15231SOL    HW146037   5.501   5.071   7.617
15231SOL    HW246038   5.604   4.951   7.661
15232SOL     OW46039   6.059   4.224   7.639
15232SOL    HW146040   6.120   4.304   7.643
15232SOL    HW246041   5.964   4.255   7.646
15233SOL     OW46042   6.258   5.340   7.602
15233SOL    HW146043   6.267   5.350   7.503
15233SOL    HW246044   6.218   5.251   7.623
15234SOL     OW46045   6.780   5.336   7.479
15234SOL    HW146046   6.786   5.243   7.516
15234SOL    HW246047   6.721   5.336   7.399
15235SOL     OW46048   7.090   5.331   7.492
15235SOL    HW146049   6.998   5.368   7.499
15235SOL    HW246050   7.128   5.351   7.402
15236SOL     OW46051   6.176   5.211   7.939
15236SOL    HW146052   6.218   5.153   7.869
15236SOL    HW246053   6.132   5.290   7.895
15237SOL     OW46054   5.841   5.072   7.738
15237SOL    HW146055   5.745   5.073   7.711
15237SOL    HW246056   5.853   5.125   7.822
15238SOL     OW46057   5.661   4.069   7.481
15238SOL    HW146058   5.569   4.041   7.452
15238SOL    HW246059   5.692   4.146   7.425
15239SOL     OW46060   6.769   5.059   7.567
15239SOL    HW146061   6.670   5.048   7.569
15239SOL    HW246062   6.803   5.074   7.660
15240SOL     OW46063   6.445   5.098   7.464
15240SOL    HW146064   6.399   5.113   7.552
15240SOL    HW246065   6.489   5.183   7.434
15241SOL     OW46066   6.669   4.708   7.535
15241SOL    HW146067   6.646   4.761   7.453
15241SOL    HW246068   6.750   4.652   7.516
15242SOL     OW46069   6.938   3.776   7.616
15242SOL    HW146070   6.973   3.735   7.532
15242SOL    HW246071   6.848   3.738   7.636
15243SOL     OW46072   5.625   4.801   7.748
15243SOL    HW146073   5.724   4.790   7.739
15243SOL    HW246074   5.585   4.715   7.780
15244SOL     OW46075   6.461   5.370   7.785
15244SOL    HW146076   6.384   5.335   7.731
15244SOL    HW246077   6.429   5.441   7.847
15245SOL     OW46078   5.816   6.214   0.113
15245SOL    HW146079   5.723   6.212   0.150
15245SOL    HW246080   5.817   6.175   0.021
15246SOL     OW46081   5.811   5.861   0.996
15246SOL    HW146082   5.846   5.844   1.088
15246SOL    HW246083   5.723   5.816   0.984
15247SOL     OW46084   5.605   5.954   0.647
15247SOL    HW146085   5.523   5.997   0.686
15247SOL    HW246086   5.577   5.881   0.584
15248SOL     OW46087   6.155   6.861   1.165
15248SOL    HW146088   6.062   6.854   1.128
15248SOL    HW246089   6.166   6.950   1.209
15249SOL     OW46090   7.141   7.097   0.703
15249SOL    HW146091   7.084   7.081   0.784
15249SOL    HW246092   7.082   7.107   0.623
15250SOL     OW46093   6.721   6.289   0.717
15250SOL    HW146094   6.778   6.367   0.692
15250SOL    HW246095   6.661   6.315   0.793
15251SOL     OW46096   6.354   6.730   1.023
15251SOL    HW146097   6.276   6.747   1.083
15251SOL    HW246098   6.388   6.817   0.987
15252SOL     OW46099   6.436   6.384   1.823
15252SOL    HW146100   6.432   6.460   1.888
15252SOL    HW246101   6.458   6.420   1.732
15253SOL     OW46102   6.271   6.598   0.665
15253SOL    HW146103   6.340   6.582   0.735
15253SOL    HW246104   6.198   6.655   0.703
15254SOL     OW46105   5.921   7.021   1.061
15254SOL    HW146106   5.843   6.990   1.008
15254SOL    HW246107   5.979   7.079   1.004
15255SOL     OW46108   7.046   7.091   1.339
15255SOL    HW146109   7.070   7.185   1.365
15255SOL    HW246110   7.030   7.037   1.421
15256SOL     OW46111   6.024   5.978   1.499
15256SOL    HW146112   6.106   5.922   1.508
15256SOL    HW246113   5.943   5.920   1.503
15257SOL     OW46114   7.189   6.033   0.737
15257SOL    HW146115   7.115   6.079   0.687
15257SOL    HW246116   7.240   6.101   0.790
15258SOL     OW46117   5.817   7.299   0.483
15258SOL    HW146118   5.851   7.376   0.537
15258SOL    HW246119   5.861   7.299   0.393
15259SOL     OW46120   5.816   7.020   0.538
15259SOL    HW146121   5.790   7.116   0.538
15259SOL    HW246122   5.745   6.966   0.583
15260SOL     OW46123   5.826   6.677   0.886
15260SOL    HW146124   5.840   6.593   0.938
15260SOL    HW246125   5.771   6.741   0.941
15261SOL     OW46126   6.206   7.372   1.439
15261SOL    HW146127   6.114   7.355   1.474
15261SOL    HW246128   6.234   7.464   1.465
15262SOL     OW46129   6.192   6.550   0.123
15262SOL    HW146130   6.199   6.634   0.069
15262SOL    HW246131   6.238   6.563   0.211
15263SOL     OW46132   7.180   5.700   1.480
15263SOL    HW146133   7.162   5.767   1.408
15263SOL    HW246134   7.177   5.746   1.569
15264SOL     OW46135   5.708   6.229   0.563
15264SOL    HW146136   5.663   6.141   0.580
15264SOL    HW246137   5.707   6.283   0.647
15265SOL     OW46138   7.428   7.353   0.359
15265SOL    HW146139   7.482   7.324   0.439
15265SOL    HW246140   7.458   7.443   0.330
15266SOL     OW46141   5.613   7.182   0.117
15266SOL    HW146142   5.594   7.086   0.138
15266SOL    HW246143   5.580   7.240   0.192
15267SOL     OW46144   7.275   6.508   0.612
15267SOL    HW146145   7.370   6.479   0.620
15267SOL    HW246146   7.267   6.573   0.537
15268SOL     OW46147   7.227   6.694   0.432
15268SOL    HW146148   7.313   6.696   0.380
15268SOL    HW246149   7.241   6.741   0.520
15269SOL     OW46150   6.199   6.951   0.726
15269SOL    HW146151   6.150   6.864   0.735
15269SOL    HW246152   6.176   6.994   0.639
15270SOL     OW46153   6.879   6.814   1.423
15270SOL    HW146154   6.916   6.741   1.365
15270SOL    HW246155   6.931   6.819   1.508
15271SOL     OW46156   6.395   5.590   0.502
15271SOL    HW146157   6.435   5.681   0.493
15271SOL    HW246158   6.295   5.598   0.508
15272SOL     OW46159   5.783   6.562   1.264
15272SOL    HW146160   5.872   6.517   1.250
15272SOL    HW246161   5.710   6.497   1.245
15273SOL     OW46162   6.773   7.378   1.616
15273SOL    HW146163   6.797   7.438   1.540
15273SOL    HW246164   6.780   7.283   1.586
15274SOL     OW46165   5.903   5.837   1.801
15274SOL    HW146166   5.974   5.908   1.807
15274SOL    HW246167   5.815   5.876   1.829
15275SOL     OW46168   7.052   7.003   0.953
15275SOL    HW146169   6.993   7.009   1.033
15275SOL    HW246170   7.037   6.915   0.907
15276SOL     OW46171   7.253   7.300   0.572
15276SOL    HW146172   7.212   7.277   0.484
15276SOL    HW246173   7.235   7.226   0.637
15277SOL     OW46174   6.184   6.315   0.270
15277SOL    HW146175   6.208   6.384   0.202
15277SOL    HW246176   6.106   6.348   0.324
15278SOL     OW46177   6.867   5.931   0.944
15278SOL    HW146178   6.781   5.881   0.931
15278SOL    HW246179   6.929   5.877   1.000
15279SOL     OW46180   7.162   7.248   0.307
15279SOL    HW146181   7.251   7.294   0.310
15279SOL    HW246182   7.141   7.224   0.212
15280SOL     OW46183   6.393   6.191   1.465
15280SOL    HW146184   6.346   6.188   1.554
15280SOL    HW246185   6.342   6.136   1.399
15281SOL     OW46186   6.980   6.055   1.674
15281SOL    HW146187   6.960   6.098   1.762
15281SOL    HW246188   7.058   5.993   1.683
15282SOL     OW46189   6.559   6.476   1.572
15282SOL    HW146190   6.605   6.392   1.543
15282SOL    HW246191   6.503   6.510   1.497
15283SOL     OW46192   6.577   5.996   1.242
15283SOL    HW146193   6.500   6.030   1.296
15283SOL    HW246194   6.543   5.945   1.163
15284SOL     OW46195   5.662   6.397   0.789
15284SOL    HW146196   5.761   6.385   0.798
15284SOL    HW246197   5.638   6.492   0.810
15285SOL     OW46198   5.716   7.407   1.571
15285SOL    HW146199   5.706   7.392   1.670
15285SOL    HW246200   5.630   7.443   1.535
15286SOL     OW46201   7.305   6.171   1.831
15286SOL    HW146202   7.279   6.260   1.795
15286SOL    HW246203   7.303   6.103   1.758
15287SOL     OW46204   6.948   6.730   0.545
15287SOL    HW146205   7.031   6.701   0.497
15287SOL    HW246206   6.899   6.797   0.489
15288SOL     OW46207   6.136   5.782   0.885
15288SOL    HW146208   6.131   5.777   0.985
15288SOL    HW246209   6.138   5.878   0.856
15289SOL     OW46210   6.594   7.042   0.477
15289SOL    HW146211   6.548   7.114   0.425
15289SOL    HW246212   6.590   7.062   0.575
15290SOL     OW46213   5.937   7.387   0.853
15290SOL    HW146214   5.987   7.301   0.859
15290SOL    HW246215   6.002   7.464   0.850
15291SOL     OW46216   7.381   6.652   0.873
15291SOL    HW146217   7.319   6.637   0.797
15291SOL    HW246218   7.329   6.663   0.958
15292SOL     OW46219   5.907   6.529   0.242
15292SOL    HW146220   5.989   6.568   0.200
15292SOL    HW246221   5.880   6.447   0.193
15293SOL     OW46222   7.044   6.321   0.728
15293SOL    HW146223   7.039   6.256   0.803
15293SOL    HW246224   7.124   6.380   0.741
15294SOL     OW46225   5.788   5.871   1.498
15294SOL    HW146226   5.708   5.931   1.485
15294SOL    HW246227   5.778   5.822   1.584
15295SOL     OW46228   6.050   7.329   0.323
15295SOL    HW146229   6.083   7.368   0.409
15295SOL    HW246230   6.126   7.322   0.258
15296SOL     OW46231   6.986   5.693   0.426
15296SOL    HW146232   6.962   5.656   0.336
15296SOL    HW246233   7.085   5.709   0.430
15297SOL     OW46234   6.526   7.284   0.904
15297SOL    HW146235   6.606   7.227   0.925
15297SOL    HW246236   6.477   7.244   0.827
15298SOL     OW46237   5.968   6.286   0.480
15298SOL    HW146238   6.013   6.196   0.477
15298SOL    HW246239   5.874   6.275   0.513
15299SOL     OW46240   7.133   5.808   1.729
15299SOL    HW146241   7.128   5.845   1.821
15299SOL    HW246242   7.061   5.739   1.717
15300SOL     OW46243   6.200   5.708   0.117
15300SOL    HW146244   6.298   5.686   0.124
15300SOL    HW246245   6.169   5.691   0.024
15301SOL     OW46246   6.367   5.850   1.749
15301SOL    HW146247   6.434   5.789   1.792
15301SOL    HW246248   6.294   5.869   1.814
15302SOL     OW46249   6.474   7.100   1.195
15302SOL    HW146250   6.451   7.075   1.101
15302SOL    HW246251   6.535   7.031   1.234
15303SOL     OW46252   6.937   6.176   1.433
15303SOL    HW146253   6.965   6.133   1.518
15303SOL    HW246254   6.962   6.272   1.434
15304SOL     OW46255   6.389   6.988   0.924
15304SOL    HW146256   6.479   7.002   0.882
15304SOL    HW246257   6.318   6.990   0.853
15305SOL     OW46258   6.508   6.089   0.899
15305SOL    HW146259   6.483   6.080   0.803
15305SOL    HW246260   6.556   6.007   0.930
15306SOL     OW46261   6.125   5.650   0.512
15306SOL    HW146262   6.044   5.651   0.570
15306SOL    HW246263   6.128   5.733   0.457
15307SOL     OW46264   5.883   5.621   0.171
15307SOL    HW146265   5.932   5.705   0.150
15307SOL    HW246266   5.945   5.556   0.216
15308SOL     OW46267   6.521   5.822   0.480
15308SOL    HW146268   6.473   5.863   0.402
15308SOL    HW246269   6.620   5.820   0.461
15309SOL     OW46270   6.662   6.269   1.464
15309SOL    HW146271   6.582   6.208   1.467
15309SOL    HW246272   6.743   6.216   1.440
15310SOL     OW46273   6.813   7.156   0.793
15310SOL    HW146274   6.834   7.230   0.728
15310SOL    HW246275   6.881   7.156   0.866
15311SOL     OW46276   6.045   6.738   0.741
15311SOL    HW146277   5.974   6.711   0.806
15311SOL    HW246278   6.019   6.710   0.648
15312SOL     OW46279   6.857   7.383   0.591
15312SOL    HW146280   6.901   7.447   0.527
15312SOL    HW246281   6.807   7.435   0.661
15313SOL     OW46282   5.664   6.142   1.386
15313SOL    HW146283   5.756   6.141   1.345
15313SOL    HW246284   5.658   6.216   1.453
15314SOL     OW46285   6.147   5.808   1.147
15314SOL    HW146286   6.185   5.724   1.184
15314SOL    HW246287   6.059   5.827   1.191
15315SOL     OW46288   6.452   6.040   0.642
15315SOL    HW146289   6.420   6.112   0.580
15315SOL    HW246290   6.476   5.959   0.589
15316SOL     OW46291   6.603   5.625   0.753
15316SOL    HW146292   6.531   5.630   0.684
15316SOL    HW246293   6.579   5.556   0.822
15317SOL     OW46294   7.015   6.759   0.867
15317SOL    HW146295   6.960   6.675   0.860
15317SOL    HW246296   7.041   6.788   0.775
15318SOL     OW46297   7.052   6.176   0.992
15318SOL    HW146298   7.022   6.081   0.999
15318SOL    HW246299   7.125   6.192   1.058
15319SOL     OW46300   7.443   6.419   0.377
15319SOL    HW146301   7.485   6.355   0.441
15319SOL    HW246302   7.405   6.368   0.299
15320SOL     OW46303   6.074   6.971   0.174
15320SOL    HW146304   5.987   6.956   0.221
15320SOL    HW246305   6.057   6.997   0.079
15321SOL     OW46306   7.250   6.866   0.657
15321SOL    HW146307   7.349   6.874   0.671
15321SOL    HW246308   7.205   6.950   0.688
15322SOL     OW46309   6.113   5.842   0.328
15322SOL    HW146310   6.140   5.783   0.253
15322SOL    HW246311   6.113   5.937   0.297
15323SOL     OW46312   7.340   6.809   1.588
15323SOL    HW146313   7.431   6.770   1.575
15323SOL    HW246314   7.348   6.905   1.612
15324SOL     OW46315   6.650   6.933   1.340
15324SOL    HW146316   6.570   6.910   1.395
15324SOL    HW246317   6.733   6.907   1.389
15325SOL     OW46318   7.178   7.215   1.625
15325SOL    HW146319   7.205   7.249   1.535
15325SOL    HW246320   7.257   7.177   1.671
15326SOL     OW46321   6.697   6.781   1.100
15326SOL    HW146322   6.657   6.825   1.181
15326SOL    HW246323   6.656   6.818   1.017
15327SOL     OW46324   7.224   6.685   1.079
15327SOL    HW146325   7.229   6.766   1.138
15327SOL    HW246326   7.138   6.687   1.028
15328SOL     OW46327   6.501   5.675   1.402
15328SOL    HW146328   6.526   5.655   1.307
15328SOL    HW246329   6.573   5.731   1.444
15329SOL     OW46330   6.291   6.636   0.368
15329SOL    HW146331   6.277   6.643   0.467
15329SOL    HW246332   6.375   6.585   0.350
15330SOL     OW46333   5.996   6.399   1.251
15330SOL    HW146334   6.082   6.411   1.301
15330SOL    HW246335   5.954   6.312   1.278
15331SOL     OW46336   6.860   5.972   1.262
15331SOL    HW146337   6.881   6.046   1.326
15331SOL    HW246338   6.771   5.989   1.219
15332SOL     OW46339   5.650   7.150   1.331
15332SOL    HW146340   5.604   7.232   1.297
15332SOL    HW246341   5.748   7.169   1.340
15333SOL     OW46342   5.953   6.686   0.501
15333SOL    HW146343   5.946   6.769   0.445
15333SOL    HW246344   5.957   6.606   0.441
15334SOL     OW46345   6.152   6.123   0.865
15334SOL    HW146346   6.164   6.189   0.791
15334SOL    HW246347   6.198   6.157   0.948
15335SOL     OW46348   6.838   6.934   0.388
15335SOL    HW146349   6.888   7.011   0.428
15335SOL    HW246350   6.743   6.936   0.420
15336SOL     OW46351   6.858   7.031   1.142
15336SOL    HW146352   6.905   7.044   1.229
15336SOL    HW246353   6.792   6.957   1.151
15337SOL     OW46354   7.168   6.225   0.472
15337SOL    HW146355   7.137   6.286   0.545
15337SOL    HW246356   7.218   6.277   0.403
15338SOL     OW46357   5.940   7.096   1.329
15338SOL    HW146358   5.919   7.052   1.242
15338SOL    HW246359   6.037   7.122   1.332
15339SOL     OW46360   5.988   6.337   1.598
15339SOL    HW146361   6.056   6.392   1.551
15339SOL    HW246362   6.028   6.249   1.625
15340SOL     OW46363   7.173   6.365   1.670
15340SOL    HW146364   7.081   6.403   1.665
15340SOL    HW246365   7.233   6.412   1.605
15341SOL     OW46366   6.599   5.691   1.770
15341SOL    HW146367   6.605   5.776   1.718
15341SOL    HW246368   6.631   5.615   1.713
15342SOL     OW46369   6.090   5.636   1.740
15342SOL    HW146370   6.048   5.579   1.670
15342SOL    HW246371   6.024   5.705   1.772
15343SOL     OW46372   6.159   6.456   1.029
15343SOL    HW146373   6.203   6.545   1.020
15343SOL    HW246374   6.096   6.456   1.106
15344SOL     OW46375   6.946   6.448   1.045
15344SOL    HW146376   6.871   6.448   0.979
15344SOL    HW246377   6.983   6.356   1.054
15345SOL     OW46378   5.893   5.799   1.231
15345SOL    HW146379   5.870   5.836   1.321
15345SOL    HW246380   5.863   5.704   1.225
15346SOL     OW46381   5.623   6.896   1.282
15346SOL    HW146382   5.676   6.847   1.350
15346SOL    HW246383   5.645   6.994   1.287
15347SOL     OW46384   6.318   6.220   1.064
15347SOL    HW146385   6.377   6.194   0.988
15347SOL    HW246386   6.290   6.316   1.053
15348SOL     OW46387   7.314   6.521   1.854
15348SOL    HW146388   7.268   6.514   1.765
15348SOL    HW246389   7.252   6.565   1.920
15349SOL     OW46390   5.893   5.649   0.618
15349SOL    HW146391   5.882   5.743   0.651
15349SOL    HW246392   5.888   5.586   0.695
15350SOL     OW46393   6.609   6.352   0.966
15350SOL    HW146394   6.624   6.373   1.062
15350SOL    HW246395   6.579   6.257   0.957
15351SOL     OW46396   7.445   7.104   1.605
15351SOL    HW146397   7.459   7.131   1.510
15351SOL    HW246398   7.528   7.126   1.658
15352SOL     OW46399   6.654   6.919   0.849
15352SOL    HW146400   6.661   6.835   0.794
15352SOL    HW246401   6.716   6.988   0.813
15353SOL     OW46402   5.905   6.396   0.949
15353SOL    HW146403   5.998   6.432   0.954
15353SOL    HW246404   5.899   6.311   1.001
15354SOL     OW46405   5.925   6.095   1.006
15354SOL    HW146406   5.873   6.012   0.989
15354SOL    HW246407   6.002   6.100   0.942
15355SOL     OW46408   6.724   5.966   1.678
15355SOL    HW146409   6.679   6.029   1.742
15355SOL    HW246410   6.817   5.997   1.661
15356SOL     OW46411   6.746   5.793   1.477
15356SOL    HW146412   6.746   5.857   1.554
15356SOL    HW246413   6.774   5.841   1.394
15357SOL     OW46414   5.594   6.912   0.200
15357SOL    HW146415   5.501   6.933   0.169
15357SOL    HW246416   5.604   6.813   0.213
15358SOL     OW46417   5.674   7.387   0.927
15358SOL    HW146418   5.632   7.301   0.900
15358SOL    HW246419   5.768   7.390   0.893
15359SOL     OW46420   6.090   7.154   0.910
15359SOL    HW146421   6.156   7.228   0.919
15359SOL    HW246422   6.134   7.075   0.868
15360SOL     OW46423   6.588   6.382   1.238
15360SOL    HW146424   6.629   6.350   1.324
15360SOL    HW246425   6.492   6.355   1.235
15361SOL     OW46426   5.626   6.130   1.114
15361SOL    HW146427   5.711   6.097   1.073
15361SOL    HW246428   5.639   6.145   1.212
15362SOL     OW46429   5.775   6.106   1.722
15362SOL    HW146430   5.834   6.066   1.652
15362SOL    HW246431   5.717   6.177   1.681
15363SOL     OW46432   6.955   6.536   1.660
15363SOL    HW146433   6.994   6.625   1.680
15363SOL    HW246434   6.965   6.516   1.563
15364SOL     OW46435   7.243   6.190   1.206
15364SOL    HW146436   7.205   6.121   1.268
15364SOL    HW246437   7.325   6.154   1.162
15365SOL     OW46438   6.257   6.050   1.269
15365SOL    HW146439   6.223   5.961   1.239
15365SOL    HW246440   6.283   6.104   1.189
15366SOL     OW46441   6.516   7.264   1.465
15366SOL    HW146442   6.492   7.246   1.370
15366SOL    HW246443   6.546   7.358   1.475
15367SOL     OW46444   6.059   6.086   0.191
15367SOL    HW146445   6.120   6.166   0.195
15367SOL    HW246446   5.964   6.117   0.198
15368SOL     OW46447   6.933   6.645   1.234
15368SOL    HW146448   6.957   6.582   1.160
15368SOL    HW246449   6.843   6.685   1.216
15369SOL     OW46450   7.345   7.333   1.154
15369SOL    HW146451   7.406   7.363   1.081
15369SOL    HW246452   7.307   7.244   1.132
15370SOL     OW46453   6.838   7.317   1.128
15370SOL    HW146454   6.922   7.322   1.074
15370SOL    HW246455   6.815   7.221   1.146
15371SOL     OW46456   5.669   6.844   1.022
15371SOL    HW146457   5.664   6.843   1.122
15371SOL    HW246458   5.586   6.803   0.984
15372SOL     OW46459   6.274   7.248   1.716
15372SOL    HW146460   6.218   7.329   1.725
15372SOL    HW246461   6.326   7.252   1.630
15373SOL     OW46462   7.312   5.721   0.523
15373SOL    HW146463   7.385   5.704   0.456
15373SOL    HW246464   7.281   5.634   0.561
15374SOL     OW46465   6.974   7.159   0.477
15374SOL    HW146466   7.041   7.171   0.403
15374SOL    HW246467   6.934   7.248   0.500
15375SOL     OW46468   5.716   7.380   1.851
15375SOL    HW146469   5.675   7.306   1.904
15375SOL    HW246470   5.780   7.431   1.909
15376SOL     OW46471   6.866   6.513   0.672
15376SOL    HW146472   6.926   6.432   0.674
15376SOL    HW246473   6.906   6.582   0.612
15377SOL     OW46474   6.416   6.859   1.422
15377SOL    HW146475   6.411   6.892   1.517
15377SOL    HW246476   6.330   6.878   1.376
15378SOL     OW46477   7.236   7.306   1.394
15378SOL    HW146478   7.289   7.316   1.310
15378SOL    HW246479   7.209   7.396   1.428
15379SOL     OW46480   7.427   5.761   0.963
15379SOL    HW146481   7.466   5.676   0.927
15379SOL    HW246482   7.329   5.763   0.944
15380SOL     OW46483   5.849   5.912   0.720
15380SOL    HW146484   5.770   5.963   0.686
15380SOL    HW246485   5.840   5.897   0.818
15381SOL     OW46486   6.502   6.496   0.291
15381SOL    HW146487   6.565   6.534   0.223
15381SOL    HW246488   6.542   6.413   0.330
15382SOL     OW46489   5.958   6.874   1.490
15382SOL    HW146490   5.945   6.967   1.456
15382SOL    HW246491   5.874   6.822   1.477
15383SOL     OW46492   7.200   6.878   1.289
15383SOL    HW146493   7.260   6.881   1.369
15383SOL    HW246494   7.125   6.942   1.302
15384SOL     OW46495   6.625   6.684   0.696
15384SOL    HW146496   6.555   6.637   0.750
15384SOL    HW246497   6.684   6.616   0.653
15385SOL     OW46498   6.600   5.822   0.971
15385SOL    HW146499   6.592   5.786   0.878
15385SOL    HW246500   6.598   5.746   1.036
15386SOL     OW46501   6.176   7.073   0.491
15386SOL    HW146502   6.218   7.015   0.421
15386SOL    HW246503   6.132   7.152   0.447
15387SOL     OW46504   7.295   5.971   1.381
15387SOL    HW146505   7.368   6.040   1.385
15387SOL    HW246506   7.323   5.896   1.322
15388SOL     OW46507   5.841   6.934   0.290
15388SOL    HW146508   5.745   6.935   0.263
15388SOL    HW246509   5.853   6.987   0.374
15389SOL     OW46510   6.258   5.789   1.489
15389SOL    HW146511   6.348   5.773   1.449
15389SOL    HW246512   6.266   5.794   1.588
15390SOL     OW46513   5.661   5.931   0.033
15390SOL    HW146514   5.569   5.903   0.004
15390SOL    HW246515   5.692   6.008  -0.023
15391SOL     OW46516   7.026   6.442   1.398
15391SOL    HW146517   6.969   6.494   1.335
15391SOL    HW246518   7.122   6.454   1.374
15392SOL     OW46519   5.658   5.752   0.318
15392SOL    HW146520   5.641   5.835   0.264
15392SOL    HW246521   5.748   5.715   0.296
15393SOL     OW46522   6.199   6.428   1.431
15393SOL    HW146523   6.255   6.509   1.414
15393SOL    HW246524   6.258   6.348   1.434
15394SOL     OW46525   7.079   7.353   0.959
15394SOL    HW146526   7.112   7.417   0.890
15394SOL    HW246527   7.145   7.347   1.034
15395SOL     OW46528   6.302   6.151   1.708
15395SOL    HW146529   6.321   6.216   1.782
15395SOL    HW246530   6.362   6.071   1.717
15396SOL     OW46531   7.036   6.806   1.633
15396SOL    HW146532   7.027   6.796   1.732
15396SOL    HW246533   7.132   6.799   1.607
15397SOL     OW46534   5.976   7.327   1.560
15397SOL    HW146535   5.885   7.368   1.558
15397SOL    HW246536   5.969   7.233   1.592
15398SOL     OW46537   7.260   6.469   1.254
15398SOL    HW146538   7.233   6.380   1.217
15398SOL    HW246539   7.261   6.537   1.181
15399SOL     OW46540   6.811   5.911   0.449
15399SOL    HW146541   6.876   5.837   0.438
15399SOL    HW246542   6.831   5.961   0.533
15400SOL     OW46543   6.180   6.331   0.652
15400SOL    HW146544   6.230   6.416   0.633
15400SOL    HW246545   6.092   6.333   0.604
15401SOL     OW46546   7.363   5.928   1.642
15401SOL    HW146547   7.346   5.959   1.548
15401SOL    HW246548   7.279   5.891   1.680
15402SOL     OW46549   7.316   6.520   1.517
15402SOL    HW146550   7.354   6.611   1.532
15402SOL    HW246551   7.308   6.503   1.418
15403SOL     OW46552   6.247   7.376   0.953
15403SOL    HW146553   6.201   7.464   0.940
15403SOL    HW246554   6.346   7.388   0.946
15404SOL     OW46555   6.445   6.542   0.861
15404SOL    HW146556   6.499   6.473   0.909
15404SOL    HW246557   6.413   6.611   0.927
15405SOL     OW46558   7.447   7.155   0.851
15405SOL    HW146559   7.376   7.143   0.781
15405SOL    HW246560   7.448   7.076   0.911
15406SOL     OW46561   5.665   6.826   0.653
15406SOL    HW146562   5.664   6.779   0.741
15406SOL    HW246563   5.747   6.798   0.602
15407SOL     OW46564   7.410   5.778   1.227
15407SOL    HW146565   7.406   5.688   1.271
15407SOL    HW246566   7.413   5.767   1.128
15408SOL     OW46567   6.014   6.010   0.520
15408SOL    HW146568   6.044   5.938   0.458
15408SOL    HW246569   5.975   5.970   0.603
15409SOL     OW46570   7.291   7.073   1.104
15409SOL    HW146571   7.198   7.048   1.077
15409SOL    HW246572   7.317   7.023   1.186
15410SOL     OW46573   5.903   6.133   1.280
15410SOL    HW146574   5.941   6.074   1.352
15410SOL    HW246575   5.943   6.107   1.192
15411SOL     OW46576   6.398   7.172   0.687
15411SOL    HW146577   6.430   7.182   0.593
15411SOL    HW246578   6.319   7.110   0.689
15412SOL     OW46579   7.010   5.800   1.112
15412SOL    HW146580   7.062   5.735   1.167
15412SOL    HW246581   6.961   5.863   1.173
15413SOL     OW46582   6.587   5.620   1.154
15413SOL    HW146583   6.524   5.548   1.123
15413SOL    HW246584   6.680   5.584   1.154
15414SOL     OW46585   6.356   6.916   0.301
15414SOL    HW146586   6.310   6.829   0.318
15414SOL    HW246587   6.447   6.913   0.342
15415SOL     OW46588   6.204   7.153   1.284
15415SOL    HW146589   6.199   7.235   1.341
15415SOL    HW246590   6.293   7.150   1.239
15416SOL     OW46591   6.886   6.039   0.691
15416SOL    HW146592   6.827   6.119   0.695
15416SOL    HW246593   6.901   6.004   0.784
15417SOL     OW46594   7.179   5.807   0.882
15417SOL    HW146595   7.095   5.806   0.936
15417SOL    HW246596   7.181   5.890   0.826
15418SOL     OW46597   5.625   6.663   0.300
15418SOL    HW146598   5.724   6.652   0.291
15418SOL    HW246599   5.585   6.577   0.332
15419SOL     OW46600   6.461   7.232   0.337
15419SOL    HW146601   6.384   7.197   0.283
15419SOL    HW246602   6.429   7.303   0.399
15420SOL     OW46603   5.816   6.214   1.975
15420SOL    HW146604   5.723   6.212   2.012
15420SOL    HW246605   5.817   6.175   1.883
15421SOL     OW46606   5.605   5.954   2.509
15421SOL    HW146607   5.523   5.997   2.548
15421SOL    HW246608   5.577   5.881   2.446
15422SOL     OW46609   6.155   6.861   3.027
15422SOL    HW146610   6.062   6.854   2.990
15422SOL    HW246611   6.166   6.950   3.071
15423SOL     OW46612   7.141   7.097   2.565
15423SOL    HW146613   7.084   7.081   2.646
15423SOL    HW246614   7.082   7.107   2.485
15424SOL     OW46615   6.721   6.289   2.579
15424SOL    HW146616   6.778   6.367   2.554
15424SOL    HW246617   6.661   6.315   2.655
15425SOL     OW46618   7.341   6.193   2.093
15425SOL    HW146619   7.329   6.180   1.994
15425SOL    HW246620   7.311   6.112   2.142
15426SOL     OW46621   6.354   6.730   2.885
15426SOL    HW146622   6.276   6.747   2.945
15426SOL    HW246623   6.388   6.817   2.849
15427SOL     OW46624   6.436   6.384   3.685
15427SOL    HW146625   6.432   6.460   3.750
15427SOL    HW246626   6.458   6.420   3.594
15428SOL     OW46627   6.271   6.598   2.527
15428SOL    HW146628   6.340   6.582   2.597
15428SOL    HW246629   6.198   6.655   2.565
15429SOL     OW46630   6.272   6.747   3.665
15429SOL    HW146631   6.332   6.826   3.679
15429SOL    HW246632   6.186   6.778   3.624
15430SOL     OW46633   5.921   7.021   2.923
15430SOL    HW146634   5.843   6.990   2.870
15430SOL    HW246635   5.979   7.079   2.866
15431SOL     OW46636   7.046   7.091   3.201
15431SOL    HW146637   7.070   7.185   3.227
15431SOL    HW246638   7.030   7.037   3.283
15432SOL     OW46639   6.024   5.978   3.361
15432SOL    HW146640   6.106   5.922   3.370
15432SOL    HW246641   5.943   5.920   3.365
15433SOL     OW46642   7.189   6.033   2.599
15433SOL    HW146643   7.115   6.079   2.549
15433SOL    HW246644   7.240   6.101   2.652
15434SOL     OW46645   5.817   7.299   2.345
15434SOL    HW146646   5.851   7.376   2.399
15434SOL    HW246647   5.861   7.299   2.255
15435SOL     OW46648   6.713   6.927   3.552
15435SOL    HW146649   6.760   6.927   3.640
15435SOL    HW246650   6.665   6.840   3.541
15436SOL     OW46651   5.816   7.020   2.400
15436SOL    HW146652   5.790   7.116   2.400
15436SOL    HW246653   5.745   6.966   2.445
15437SOL     OW46654   5.826   6.677   2.748
15437SOL    HW146655   5.840   6.593   2.800
15437SOL    HW246656   5.771   6.741   2.803
15438SOL     OW46657   6.206   7.372   3.301
15438SOL    HW146658   6.114   7.355   3.336
15438SOL    HW246659   6.234   7.464   3.327
15439SOL     OW46660   6.192   6.550   1.985
15439SOL    HW146661   6.199   6.634   1.931
15439SOL    HW246662   6.238   6.563   2.073
15440SOL     OW46663   7.180   5.700   3.342
15440SOL    HW146664   7.162   5.767   3.270
15440SOL    HW246665   7.177   5.746   3.431
15441SOL     OW46666   7.428   7.353   2.221
15441SOL    HW146667   7.482   7.324   2.301
15441SOL    HW246668   7.458   7.443   2.192
15442SOL     OW46669   5.613   7.182   1.979
15442SOL    HW146670   5.594   7.086   2.000
15442SOL    HW246671   5.580   7.240   2.054
15443SOL     OW46672   7.275   6.508   2.474
15443SOL    HW146673   7.370   6.479   2.482
15443SOL    HW246674   7.267   6.573   2.399
15444SOL     OW46675   7.227   6.694   2.294
15444SOL    HW146676   7.313   6.696   2.242
15444SOL    HW246677   7.241   6.741   2.382
15445SOL     OW46678   5.699   6.323   3.459
15445SOL    HW146679   5.787   6.310   3.504
15445SOL    HW246680   5.686   6.420   3.437
15446SOL     OW46681   6.199   6.951   2.588
15446SOL    HW146682   6.150   6.864   2.597
15446SOL    HW246683   6.176   6.994   2.501
15447SOL     OW46684   6.879   6.814   3.285
15447SOL    HW146685   6.916   6.741   3.227
15447SOL    HW246686   6.931   6.819   3.370
15448SOL     OW46687   6.395   5.590   2.364
15448SOL    HW146688   6.435   5.681   2.355
15448SOL    HW246689   6.295   5.598   2.370
15449SOL     OW46690   7.111   6.585   2.052
15449SOL    HW146691   7.048   6.509   2.065
15449SOL    HW246692   7.159   6.603   2.138
15450SOL     OW46693   6.773   7.378   3.478
15450SOL    HW146694   6.797   7.438   3.402
15450SOL    HW246695   6.780   7.283   3.448
15451SOL     OW46696   5.903   5.837   3.663
15451SOL    HW146697   5.974   5.908   3.669
15451SOL    HW246698   5.815   5.876   3.691
15452SOL     OW46699   7.052   7.003   2.815
15452SOL    HW146700   6.993   7.009   2.895
15452SOL    HW246701   7.037   6.915   2.769
15453SOL     OW46702   7.253   7.300   2.434
15453SOL    HW146703   7.212   7.277   2.346
15453SOL    HW246704   7.235   7.226   2.499
15454SOL     OW46705   6.184   6.315   2.132
15454SOL    HW146706   6.208   6.384   2.064
15454SOL    HW246707   6.106   6.348   2.186
15455SOL     OW46708   6.867   5.931   2.806
15455SOL    HW146709   6.781   5.881   2.793
15455SOL    HW246710   6.929   5.877   2.862
15456SOL     OW46711   7.162   7.248   2.169
15456SOL    HW146712   7.251   7.294   2.172
15456SOL    HW246713   7.141   7.224   2.074
15457SOL     OW46714   6.393   6.191   3.327
15457SOL    HW146715   6.346   6.188   3.416
15457SOL    HW246716   6.342   6.136   3.261
15458SOL     OW46717   6.980   6.055   3.536
15458SOL    HW146718   6.960   6.098   3.624
15458SOL    HW246719   7.058   5.993   3.545
15459SOL     OW46720   6.559   6.476   3.434
15459SOL    HW146721   6.605   6.392   3.405
15459SOL    HW246722   6.503   6.510   3.359
15460SOL     OW46723   6.577   5.996   3.104
15460SOL    HW146724   6.500   6.030   3.158
15460SOL    HW246725   6.543   5.945   3.025
15461SOL     OW46726   6.627   6.287   2.291
15461SOL    HW146727   6.653   6.283   2.387
15461SOL    HW246728   6.542   6.236   2.277
15462SOL     OW46729   5.716   7.407   3.433
15462SOL    HW146730   5.706   7.392   3.532
15462SOL    HW246731   5.630   7.443   3.397
15463SOL     OW46732   6.451   5.934   2.057
15463SOL    HW146733   6.510   5.997   2.008
15463SOL    HW246734   6.470   5.840   2.028
15464SOL     OW46735   7.305   6.171   3.693
15464SOL    HW146736   7.279   6.260   3.657
15464SOL    HW246737   7.303   6.103   3.620
15465SOL     OW46738   6.948   6.730   2.407
15465SOL    HW146739   7.031   6.701   2.359
15465SOL    HW246740   6.899   6.797   2.351
15466SOL     OW46741   6.594   7.042   2.339
15466SOL    HW146742   6.548   7.114   2.287
15466SOL    HW246743   6.590   7.062   2.437
15467SOL     OW46744   5.937   7.387   2.715
15467SOL    HW146745   5.987   7.301   2.721
15467SOL    HW246746   6.002   7.464   2.712
15468SOL     OW46747   7.381   6.652   2.735
15468SOL    HW146748   7.319   6.637   2.659
15468SOL    HW246749   7.329   6.663   2.820
15469SOL     OW46750   6.813   7.136   3.368
15469SOL    HW146751   6.819   7.059   3.432
15469SOL    HW246752   6.761   7.110   3.288
15470SOL     OW46753   7.044   6.321   2.590
15470SOL    HW146754   7.039   6.256   2.665
15470SOL    HW246755   7.124   6.380   2.603
15471SOL     OW46756   6.047   6.852   3.589
15471SOL    HW146757   5.997   6.853   3.503
15471SOL    HW246758   5.984   6.834   3.665
15472SOL     OW46759   6.697   7.362   2.099
15472SOL    HW146760   6.637   7.300   2.149
15472SOL    HW246761   6.728   7.318   2.014
15473SOL     OW46762   5.788   5.871   3.360
15473SOL    HW146763   5.708   5.931   3.347
15473SOL    HW246764   5.778   5.822   3.446
15474SOL     OW46765   7.218   6.963   1.943
15474SOL    HW146766   7.186   7.057   1.933
15474SOL    HW246767   7.142   6.900   1.931
15475SOL     OW46768   6.986   5.693   2.288
15475SOL    HW146769   6.962   5.656   2.198
15475SOL    HW246770   7.085   5.709   2.292
15476SOL     OW46771   5.835   7.371   3.103
15476SOL    HW146772   5.892   7.306   3.153
15476SOL    HW246773   5.819   7.338   3.010
15477SOL     OW46774   6.526   7.284   2.766
15477SOL    HW146775   6.606   7.227   2.787
15477SOL    HW246776   6.477   7.244   2.689
15478SOL     OW46777   7.133   5.808   3.591
15478SOL    HW146778   7.128   5.845   3.683
15478SOL    HW246779   7.061   5.739   3.579
15479SOL     OW46780   6.200   5.708   1.979
15479SOL    HW146781   6.298   5.686   1.986
15479SOL    HW246782   6.169   5.691   1.886
15480SOL     OW46783   6.367   5.850   3.611
15480SOL    HW146784   6.434   5.789   3.654
15480SOL    HW246785   6.294   5.869   3.676
15481SOL     OW46786   6.474   7.100   3.057
15481SOL    HW146787   6.451   7.075   2.963
15481SOL    HW246788   6.535   7.031   3.096
15482SOL     OW46789   6.937   6.176   3.295
15482SOL    HW146790   6.965   6.133   3.380
15482SOL    HW246791   6.962   6.272   3.296
15483SOL     OW46792   6.389   6.988   2.786
15483SOL    HW146793   6.479   7.002   2.744
15483SOL    HW246794   6.318   6.990   2.715
15484SOL     OW46795   6.508   6.089   2.761
15484SOL    HW146796   6.483   6.080   2.665
15484SOL    HW246797   6.556   6.007   2.792
15485SOL     OW46798   6.125   5.650   2.374
15485SOL    HW146799   6.044   5.651   2.432
15485SOL    HW246800   6.128   5.733   2.319
15486SOL     OW46801   5.883   5.621   2.033
15486SOL    HW146802   5.932   5.705   2.012
15486SOL    HW246803   5.945   5.556   2.078
15487SOL     OW46804   6.521   5.822   2.342
15487SOL    HW146805   6.473   5.863   2.264
15487SOL    HW246806   6.620   5.820   2.323
15488SOL     OW46807   6.662   6.269   3.326
15488SOL    HW146808   6.582   6.208   3.329
15488SOL    HW246809   6.743   6.216   3.302
15489SOL     OW46810   6.813   7.156   2.655
15489SOL    HW146811   6.834   7.230   2.590
15489SOL    HW246812   6.881   7.156   2.728
15490SOL     OW46813   6.045   6.738   2.603
15490SOL    HW146814   5.974   6.711   2.668
15490SOL    HW246815   6.019   6.710   2.510
15491SOL     OW46816   6.857   7.383   2.453
15491SOL    HW146817   6.901   7.447   2.389
15491SOL    HW246818   6.807   7.435   2.523
15492SOL     OW46819   6.618   6.135   1.878
15492SOL    HW146820   6.577   6.217   1.839
15492SOL    HW246821   6.682   6.161   1.951
15493SOL     OW46822   6.147   5.808   3.009
15493SOL    HW146823   6.185   5.724   3.046
15493SOL    HW246824   6.059   5.827   3.053
15494SOL     OW46825   6.452   6.040   2.504
15494SOL    HW146826   6.420   6.112   2.442
15494SOL    HW246827   6.476   5.959   2.451
15495SOL     OW46828   6.603   5.625   2.615
15495SOL    HW146829   6.531   5.630   2.546
15495SOL    HW246830   6.579   5.556   2.684
15496SOL     OW46831   7.015   6.759   2.729
15496SOL    HW146832   6.960   6.675   2.722
15496SOL    HW246833   7.041   6.788   2.637
15497SOL     OW46834   7.052   6.176   2.854
15497SOL    HW146835   7.022   6.081   2.861
15497SOL    HW246836   7.125   6.192   2.920
15498SOL     OW46837   7.443   6.419   2.239
15498SOL    HW146838   7.485   6.355   2.303
15498SOL    HW246839   7.405   6.368   2.161
15499SOL     OW46840   7.250   6.866   2.519
15499SOL    HW146841   7.349   6.874   2.533
15499SOL    HW246842   7.205   6.950   2.550
15500SOL     OW46843   6.976   6.161   1.940
15500SOL    HW146844   6.922   6.140   2.021
15500SOL    HW246845   7.067   6.120   1.949
15501SOL     OW46846   6.113   5.842   2.190
15501SOL    HW146847   6.140   5.783   2.115
15501SOL    HW246848   6.113   5.937   2.159
15502SOL     OW46849   7.340   6.809   3.450
15502SOL    HW146850   7.431   6.770   3.437
15502SOL    HW246851   7.348   6.905   3.474
15503SOL     OW46852   6.650   6.933   3.202
15503SOL    HW146853   6.570   6.910   3.257
15503SOL    HW246854   6.733   6.907   3.251
15504SOL     OW46855   7.178   7.215   3.487
15504SOL    HW146856   7.205   7.249   3.397
15504SOL    HW246857   7.257   7.177   3.533
15505SOL     OW46858   6.697   6.781   2.962
15505SOL    HW146859   6.657   6.825   3.043
15505SOL    HW246860   6.656   6.818   2.879
15506SOL     OW46861   7.224   6.685   2.941
15506SOL    HW146862   7.229   6.766   3.000
15506SOL    HW246863   7.138   6.687   2.890
15507SOL     OW46864   6.501   5.675   3.264
15507SOL    HW146865   6.526   5.655   3.169
15507SOL    HW246866   6.573   5.731   3.306
15508SOL     OW46867   6.566   6.702   3.581
15508SOL    HW146868   6.467   6.708   3.591
15508SOL    HW246869   6.589   6.622   3.525
15509SOL     OW46870   6.291   6.636   2.230
15509SOL    HW146871   6.277   6.643   2.329
15509SOL    HW246872   6.375   6.585   2.212
15510SOL     OW46873   5.996   6.399   3.113
15510SOL    HW146874   6.082   6.411   3.163
15510SOL    HW246875   5.954   6.312   3.140
15511SOL     OW46876   6.860   5.972   3.124
15511SOL    HW146877   6.881   6.046   3.188
15511SOL    HW246878   6.771   5.989   3.081
15512SOL     OW46879   5.650   7.150   3.193
15512SOL    HW146880   5.604   7.232   3.159
15512SOL    HW246881   5.748   7.169   3.202
15513SOL     OW46882   5.953   6.686   2.363
15513SOL    HW146883   5.946   6.769   2.307
15513SOL    HW246884   5.957   6.606   2.303
15514SOL     OW46885   6.838   6.934   2.250
15514SOL    HW146886   6.888   7.011   2.290
15514SOL    HW246887   6.743   6.936   2.282
15515SOL     OW46888   6.858   7.031   3.004
15515SOL    HW146889   6.905   7.044   3.091
15515SOL    HW246890   6.792   6.957   3.013
15516SOL     OW46891   7.168   6.225   2.334
15516SOL    HW146892   7.137   6.286   2.407
15516SOL    HW246893   7.218   6.277   2.265
15517SOL     OW46894   5.940   7.096   3.191
15517SOL    HW146895   5.919   7.052   3.104
15517SOL    HW246896   6.037   7.122   3.194
15518SOL     OW46897   5.988   6.337   3.460
15518SOL    HW146898   6.056   6.392   3.413
15518SOL    HW246899   6.028   6.249   3.487
15519SOL     OW46900   7.173   6.365   3.532
15519SOL    HW146901   7.081   6.403   3.527
15519SOL    HW246902   7.233   6.412   3.467
15520SOL     OW46903   6.599   5.691   3.632
15520SOL    HW146904   6.605   5.776   3.580
15520SOL    HW246905   6.631   5.615   3.575
15521SOL     OW46906   6.090   5.636   3.602
15521SOL    HW146907   6.048   5.579   3.532
15521SOL    HW246908   6.024   5.705   3.634
15522SOL     OW46909   6.159   6.456   2.891
15522SOL    HW146910   6.203   6.545   2.882
15522SOL    HW246911   6.096   6.456   2.968
15523SOL     OW46912   6.946   6.448   2.907
15523SOL    HW146913   6.871   6.448   2.841
15523SOL    HW246914   6.983   6.356   2.916
15524SOL     OW46915   6.795   6.111   2.137
15524SOL    HW146916   6.808   6.027   2.191
15524SOL    HW246917   6.766   6.185   2.197
15525SOL     OW46918   5.893   5.799   3.093
15525SOL    HW146919   5.870   5.836   3.183
15525SOL    HW246920   5.863   5.704   3.087
15526SOL     OW46921   5.623   6.896   3.144
15526SOL    HW146922   5.676   6.847   3.212
15526SOL    HW246923   5.645   6.994   3.149
15527SOL     OW46924   6.318   6.220   2.926
15527SOL    HW146925   6.377   6.194   2.850
15527SOL    HW246926   6.290   6.316   2.915
15528SOL     OW46927   7.314   6.521   3.716
15528SOL    HW146928   7.268   6.514   3.627
15528SOL    HW246929   7.252   6.565   3.782
15529SOL     OW46930   5.893   5.649   2.480
15529SOL    HW146931   5.882   5.743   2.513
15529SOL    HW246932   5.888   5.586   2.557
15530SOL     OW46933   7.208   5.953   2.236
15530SOL    HW146934   7.210   5.877   2.300
15530SOL    HW246935   7.160   6.030   2.276
15531SOL     OW46936   6.609   6.352   2.828
15531SOL    HW146937   6.624   6.373   2.924
15531SOL    HW246938   6.579   6.257   2.819
15532SOL     OW46939   6.566   7.159   3.562
15532SOL    HW146940   6.546   7.203   3.474
15532SOL    HW246941   6.605   7.068   3.546
15533SOL     OW46942   7.445   7.104   3.467
15533SOL    HW146943   7.459   7.131   3.372
15533SOL    HW246944   7.528   7.126   3.520
15534SOL     OW46945   5.936   6.484   3.666
15534SOL    HW146946   6.012   6.528   3.714
15534SOL    HW246947   5.971   6.437   3.584
15535SOL     OW46948   7.126   5.860   1.987
15535SOL    HW146949   7.065   5.785   2.010
15535SOL    HW246950   7.148   5.912   2.070
15536SOL     OW46951   6.889   6.424   1.904
15536SOL    HW146952   6.923   6.331   1.919
15536SOL    HW246953   6.907   6.451   1.809
15537SOL     OW46954   6.654   6.919   2.711
15537SOL    HW146955   6.661   6.835   2.656
15537SOL    HW246956   6.716   6.988   2.675
15538SOL     OW46957   6.724   5.966   3.540
15538SOL    HW146958   6.679   6.029   3.604
15538SOL    HW246959   6.817   5.997   3.523
15539SOL     OW46960   6.746   5.793   3.339
15539SOL    HW146961   6.746   5.857   3.416
15539SOL    HW246962   6.774   5.841   3.256
15540SOL     OW46963   5.594   6.912   2.062
15540SOL    HW146964   5.501   6.933   2.031
15540SOL    HW246965   5.604   6.813   2.075
15541SOL     OW46966   5.674   7.387   2.789
15541SOL    HW146967   5.632   7.301   2.762
15541SOL    HW246968   5.768   7.390   2.755
15542SOL     OW46969   6.090   7.154   2.772
15542SOL    HW146970   6.156   7.228   2.781
15542SOL    HW246971   6.134   7.075   2.730
15543SOL     OW46972   6.588   6.382   3.100
15543SOL    HW146973   6.629   6.350   3.186
15543SOL    HW246974   6.492   6.355   3.097
15544SOL     OW46975   5.775   6.106   3.584
15544SOL    HW146976   5.834   6.066   3.514
15544SOL    HW246977   5.717   6.177   3.543
15545SOL     OW46978   6.955   6.536   3.522
15545SOL    HW146979   6.994   6.625   3.542
15545SOL    HW246980   6.965   6.516   3.425
15546SOL     OW46981   6.401   6.158   2.187
15546SOL    HW146982   6.408   6.069   2.141
15546SOL    HW246983   6.307   6.192   2.179
15547SOL     OW46984   7.243   6.190   3.068
15547SOL    HW146985   7.205   6.121   3.130
15547SOL    HW246986   7.325   6.154   3.024
15548SOL     OW46987   5.838   7.150   3.606
15548SOL    HW146988   5.808   7.207   3.682
15548SOL    HW246989   5.831   7.053   3.632
15549SOL     OW46990   6.257   6.050   3.131
15549SOL    HW146991   6.223   5.961   3.101
15549SOL    HW246992   6.283   6.104   3.051
15550SOL     OW46993   6.516   7.264   3.327
15550SOL    HW146994   6.492   7.246   3.232
15550SOL    HW246995   6.546   7.358   3.337
15551SOL     OW46996   6.059   6.086   2.053
15551SOL    HW146997   6.120   6.166   2.057
15551SOL    HW246998   5.964   6.117   2.060
15552SOL     OW46999   5.745   6.723   3.328
15552SOL    HW147000   5.767   6.662   3.404
15552SOL    HW247001   5.755   6.674   3.242
15553SOL     OW47002   6.933   6.645   3.096
15553SOL    HW147003   6.957   6.582   3.022
15553SOL    HW247004   6.843   6.685   3.078
15554SOL     OW47005   6.888   6.441   2.171
15554SOL    HW147006   6.802   6.410   2.213
15554SOL    HW247007   6.884   6.427   2.072
15555SOL     OW47008   7.345   7.333   3.016
15555SOL    HW147009   7.406   7.363   2.943
15555SOL    HW247010   7.307   7.244   2.994
15556SOL     OW47011   6.838   7.317   2.990
15556SOL    HW147012   6.922   7.322   2.936
15556SOL    HW247013   6.815   7.221   3.008
15557SOL     OW47014   5.669   6.844   2.884
15557SOL    HW147015   5.664   6.843   2.984
15557SOL    HW247016   5.586   6.803   2.846
15558SOL     OW47017   6.274   7.248   3.578
15558SOL    HW147018   6.218   7.329   3.587
15558SOL    HW247019   6.326   7.252   3.492
15559SOL     OW47020   7.312   5.721   2.385
15559SOL    HW147021   7.385   5.704   2.318
15559SOL    HW247022   7.281   5.634   2.423
15560SOL     OW47023   6.974   7.159   2.339
15560SOL    HW147024   7.041   7.171   2.265
15560SOL    HW247025   6.934   7.248   2.362
15561SOL     OW47026   5.716   7.380   3.713
15561SOL    HW147027   5.675   7.306   3.766
15561SOL    HW247028   5.780   7.431   3.771
15562SOL     OW47029   6.866   6.513   2.534
15562SOL    HW147030   6.926   6.432   2.536
15562SOL    HW247031   6.906   6.582   2.474
15563SOL     OW47032   6.416   6.859   3.284
15563SOL    HW147033   6.411   6.892   3.379
15563SOL    HW247034   6.330   6.878   3.238
15564SOL     OW47035   7.236   7.306   3.256
15564SOL    HW147036   7.289   7.316   3.172
15564SOL    HW247037   7.209   7.396   3.290
15565SOL     OW47038   7.427   5.761   2.825
15565SOL    HW147039   7.466   5.676   2.789
15565SOL    HW247040   7.329   5.763   2.806
15566SOL     OW47041   6.780   7.198   1.893
15566SOL    HW147042   6.786   7.105   1.930
15566SOL    HW247043   6.721   7.198   1.813
15567SOL     OW47044   6.408   6.588   3.234
15567SOL    HW147045   6.448   6.587   3.142
15567SOL    HW247046   6.418   6.680   3.274
15568SOL     OW47047   6.502   6.496   2.153
15568SOL    HW147048   6.565   6.534   2.085
15568SOL    HW247049   6.542   6.413   2.192
15569SOL     OW47050   7.090   7.193   1.906
15569SOL    HW147051   6.998   7.230   1.913
15569SOL    HW247052   7.128   7.213   1.816
15570SOL     OW47053   5.958   6.874   3.352
15570SOL    HW147054   5.945   6.967   3.318
15570SOL    HW247055   5.874   6.822   3.339
15571SOL     OW47056   7.200   6.878   3.151
15571SOL    HW147057   7.260   6.881   3.231
15571SOL    HW247058   7.125   6.942   3.164
15572SOL     OW47059   6.625   6.684   2.558
15572SOL    HW147060   6.555   6.637   2.612
15572SOL    HW247061   6.684   6.616   2.515
15573SOL     OW47062   6.600   5.822   2.833
15573SOL    HW147063   6.592   5.786   2.740
15573SOL    HW247064   6.598   5.746   2.898
15574SOL     OW47065   6.176   7.073   2.353
15574SOL    HW147066   6.218   7.015   2.283
15574SOL    HW247067   6.132   7.152   2.309
15575SOL     OW47068   7.295   5.971   3.243
15575SOL    HW147069   7.368   6.040   3.247
15575SOL    HW247070   7.323   5.896   3.184
15576SOL     OW47071   5.841   6.934   2.152
15576SOL    HW147072   5.745   6.935   2.125
15576SOL    HW247073   5.853   6.987   2.236
15577SOL     OW47074   5.691   6.599   3.588
15577SOL    HW147075   5.614   6.566   3.642
15577SOL    HW247076   5.776   6.569   3.630
15578SOL     OW47077   6.258   5.789   3.351
15578SOL    HW147078   6.348   5.773   3.311
15578SOL    HW247079   6.266   5.794   3.450
15579SOL     OW47080   5.661   5.931   1.895
15579SOL    HW147081   5.569   5.903   1.866
15579SOL    HW247082   5.692   6.008   1.839
15580SOL     OW47083   7.026   6.442   3.260
15580SOL    HW147084   6.969   6.494   3.197
15580SOL    HW247085   7.122   6.454   3.236
15581SOL     OW47086   5.658   5.752   2.180
15581SOL    HW147087   5.641   5.835   2.126
15581SOL    HW247088   5.748   5.715   2.158
15582SOL     OW47089   6.199   6.428   3.293
15582SOL    HW147090   6.255   6.509   3.276
15582SOL    HW247091   6.258   6.348   3.296
15583SOL     OW47092   7.079   7.353   2.821
15583SOL    HW147093   7.112   7.417   2.752
15583SOL    HW247094   7.145   7.347   2.896
15584SOL     OW47095   6.302   6.151   3.570
15584SOL    HW147096   6.321   6.216   3.644
15584SOL    HW247097   6.362   6.071   3.579
15585SOL     OW47098   7.036   6.806   3.495
15585SOL    HW147099   7.027   6.796   3.594
15585SOL    HW247100   7.132   6.799   3.469
15586SOL     OW47101   5.976   7.327   3.422
15586SOL    HW147102   5.885   7.368   3.420
15586SOL    HW247103   5.969   7.233   3.454
15587SOL     OW47104   7.260   6.469   3.116
15587SOL    HW147105   7.233   6.380   3.079
15587SOL    HW247106   7.261   6.537   3.043
15588SOL     OW47107   6.811   5.911   2.311
15588SOL    HW147108   6.876   5.837   2.300
15588SOL    HW247109   6.831   5.961   2.395
15589SOL     OW47110   6.180   6.331   2.514
15589SOL    HW147111   6.230   6.416   2.495
15589SOL    HW247112   6.092   6.333   2.466
15590SOL     OW47113   7.363   5.928   3.504
15590SOL    HW147114   7.346   5.959   3.410
15590SOL    HW247115   7.279   5.891   3.542
15591SOL     OW47116   7.316   6.520   3.379
15591SOL    HW147117   7.354   6.611   3.394
15591SOL    HW247118   7.308   6.503   3.280
15592SOL     OW47119   6.247   7.376   2.815
15592SOL    HW147120   6.201   7.464   2.802
15592SOL    HW247121   6.346   7.388   2.808
15593SOL     OW47122   6.445   6.542   2.723
15593SOL    HW147123   6.499   6.473   2.771
15593SOL    HW247124   6.413   6.611   2.789
15594SOL     OW47125   7.447   7.155   2.713
15594SOL    HW147126   7.376   7.143   2.643
15594SOL    HW247127   7.448   7.076   2.773
15595SOL     OW47128   5.807   6.900   3.706
15595SOL    HW147129   5.742   6.827   3.685
15595SOL    HW247130   5.811   6.914   3.804
15596SOL     OW47131   5.665   6.826   2.515
15596SOL    HW147132   5.664   6.779   2.603
15596SOL    HW247133   5.747   6.798   2.464
15597SOL     OW47134   6.258   6.977   3.486
15597SOL    HW147135   6.180   6.927   3.524
15597SOL    HW247136   6.255   7.072   3.517
15598SOL     OW47137   7.410   5.778   3.089
15598SOL    HW147138   7.406   5.688   3.133
15598SOL    HW247139   7.413   5.767   2.990
15599SOL     OW47140   7.291   7.073   2.966
15599SOL    HW147141   7.198   7.048   2.939
15599SOL    HW247142   7.317   7.023   3.048
15600SOL     OW47143   5.903   6.133   3.142
15600SOL    HW147144   5.941   6.074   3.214
15600SOL    HW247145   5.943   6.107   3.054
15601SOL     OW47146   6.398   7.172   2.549
15601SOL    HW147147   6.430   7.182   2.455
15601SOL    HW247148   6.319   7.110   2.551
15602SOL     OW47149   7.010   5.800   2.974
15602SOL    HW147150   7.062   5.735   3.029
15602SOL    HW247151   6.961   5.863   3.035
15603SOL     OW47152   6.587   5.620   3.016
15603SOL    HW147153   6.524   5.548   2.985
15603SOL    HW247154   6.680   5.584   3.016
15604SOL     OW47155   6.356   6.916   2.163
15604SOL    HW147156   6.310   6.829   2.180
15604SOL    HW247157   6.447   6.913   2.204
15605SOL     OW47158   6.204   7.153   3.146
15605SOL    HW147159   6.199   7.235   3.203
15605SOL    HW247160   6.293   7.150   3.101
15606SOL     OW47161   6.938   5.638   2.030
15606SOL    HW147162   6.973   5.597   1.946
15606SOL    HW247163   6.848   5.600   2.050
15607SOL     OW47164   6.886   6.039   2.553
15607SOL    HW147165   6.827   6.119   2.557
15607SOL    HW247166   6.901   6.004   2.646
15608SOL     OW47167   7.179   5.807   2.744
15608SOL    HW147168   7.095   5.806   2.798
15608SOL    HW247169   7.181   5.890   2.688
15609SOL     OW47170   5.816   6.214   3.837
15609SOL    HW147171   5.723   6.212   3.874
15609SOL    HW247172   5.817   6.175   3.745
15610SOL     OW47173   5.811   5.861   4.720
15610SOL    HW147174   5.846   5.844   4.812
15610SOL    HW247175   5.723   5.816   4.708
15611SOL     OW47176   5.605   5.954   4.371
15611SOL    HW147177   5.523   5.997   4.410
15611SOL    HW247178   5.577   5.881   4.308
15612SOL     OW47179   6.155   6.861   4.889
15612SOL    HW147180   6.062   6.854   4.852
15612SOL    HW247181   6.166   6.950   4.933
15613SOL     OW47182   7.141   7.097   4.427
15613SOL    HW147183   7.084   7.081   4.508
15613SOL    HW247184   7.082   7.107   4.347
15614SOL     OW47185   6.721   6.289   4.441
15614SOL    HW147186   6.778   6.367   4.416
15614SOL    HW247187   6.661   6.315   4.517
15615SOL     OW47188   7.341   6.193   3.955
15615SOL    HW147189   7.329   6.180   3.856
15615SOL    HW247190   7.311   6.112   4.004
15616SOL     OW47191   6.354   6.730   4.747
15616SOL    HW147192   6.276   6.747   4.807
15616SOL    HW247193   6.388   6.817   4.711
15617SOL     OW47194   6.436   6.384   5.547
15617SOL    HW147195   6.432   6.460   5.612
15617SOL    HW247196   6.458   6.420   5.456
15618SOL     OW47197   6.271   6.598   4.389
15618SOL    HW147198   6.340   6.582   4.459
15618SOL    HW247199   6.198   6.655   4.427
15619SOL     OW47200   6.272   6.747   5.527
15619SOL    HW147201   6.332   6.826   5.541
15619SOL    HW247202   6.186   6.778   5.486
15620SOL     OW47203   5.921   7.021   4.785
15620SOL    HW147204   5.843   6.990   4.732
15620SOL    HW247205   5.979   7.079   4.728
15621SOL     OW47206   7.046   7.091   5.063
15621SOL    HW147207   7.070   7.185   5.089
15621SOL    HW247208   7.030   7.037   5.145
15622SOL     OW47209   6.024   5.978   5.223
15622SOL    HW147210   6.106   5.922   5.232
15622SOL    HW247211   5.943   5.920   5.227
15623SOL     OW47212   7.189   6.033   4.461
15623SOL    HW147213   7.115   6.079   4.411
15623SOL    HW247214   7.240   6.101   4.514
15624SOL     OW47215   5.817   7.299   4.207
15624SOL    HW147216   5.851   7.376   4.261
15624SOL    HW247217   5.861   7.299   4.117
15625SOL     OW47218   6.713   6.927   5.414
15625SOL    HW147219   6.760   6.927   5.502
15625SOL    HW247220   6.665   6.840   5.403
15626SOL     OW47221   5.816   7.020   4.262
15626SOL    HW147222   5.790   7.116   4.262
15626SOL    HW247223   5.745   6.966   4.307
15627SOL     OW47224   5.826   6.677   4.610
15627SOL    HW147225   5.840   6.593   4.662
15627SOL    HW247226   5.771   6.741   4.665
15628SOL     OW47227   6.206   7.372   5.163
15628SOL    HW147228   6.114   7.355   5.198
15628SOL    HW247229   6.234   7.464   5.189
15629SOL     OW47230   6.192   6.550   3.847
15629SOL    HW147231   6.199   6.634   3.793
15629SOL    HW247232   6.238   6.563   3.935
15630SOL     OW47233   7.180   5.700   5.204
15630SOL    HW147234   7.162   5.767   5.132
15630SOL    HW247235   7.177   5.746   5.293
15631SOL     OW47236   5.708   6.229   4.287
15631SOL    HW147237   5.663   6.141   4.304
15631SOL    HW247238   5.707   6.283   4.371
15632SOL     OW47239   7.428   7.353   4.083
15632SOL    HW147240   7.482   7.324   4.163
15632SOL    HW247241   7.458   7.443   4.054
15633SOL     OW47242   5.613   7.182   3.841
15633SOL    HW147243   5.594   7.086   3.862
15633SOL    HW247244   5.580   7.240   3.916
15634SOL     OW47245   7.275   6.508   4.336
15634SOL    HW147246   7.370   6.479   4.344
15634SOL    HW247247   7.267   6.573   4.261
15635SOL     OW47248   7.227   6.694   4.156
15635SOL    HW147249   7.313   6.696   4.104
15635SOL    HW247250   7.241   6.741   4.244
15636SOL     OW47251   5.699   6.323   5.321
15636SOL    HW147252   5.787   6.310   5.366
15636SOL    HW247253   5.686   6.420   5.299
15637SOL     OW47254   6.199   6.951   4.450
15637SOL    HW147255   6.150   6.864   4.459
15637SOL    HW247256   6.176   6.994   4.363
15638SOL     OW47257   6.879   6.814   5.147
15638SOL    HW147258   6.916   6.741   5.089
15638SOL    HW247259   6.931   6.819   5.232
15639SOL     OW47260   6.395   5.590   4.226
15639SOL    HW147261   6.435   5.681   4.217
15639SOL    HW247262   6.295   5.598   4.232
15640SOL     OW47263   5.783   6.562   4.988
15640SOL    HW147264   5.872   6.517   4.974
15640SOL    HW247265   5.710   6.497   4.969
15641SOL     OW47266   7.111   6.585   3.914
15641SOL    HW147267   7.048   6.509   3.927
15641SOL    HW247268   7.159   6.603   4.000
15642SOL     OW47269   6.773   7.378   5.340
15642SOL    HW147270   6.797   7.438   5.264
15642SOL    HW247271   6.780   7.283   5.310
15643SOL     OW47272   5.903   5.837   5.525
15643SOL    HW147273   5.974   5.908   5.531
15643SOL    HW247274   5.815   5.876   5.553
15644SOL     OW47275   7.052   7.003   4.677
15644SOL    HW147276   6.993   7.009   4.757
15644SOL    HW247277   7.037   6.915   4.631
15645SOL     OW47278   7.253   7.300   4.296
15645SOL    HW147279   7.212   7.277   4.208
15645SOL    HW247280   7.235   7.226   4.361
15646SOL     OW47281   6.184   6.315   3.994
15646SOL    HW147282   6.208   6.384   3.926
15646SOL    HW247283   6.106   6.348   4.048
15647SOL     OW47284   6.867   5.931   4.668
15647SOL    HW147285   6.781   5.881   4.655
15647SOL    HW247286   6.929   5.877   4.724
15648SOL     OW47287   7.162   7.248   4.031
15648SOL    HW147288   7.251   7.294   4.034
15648SOL    HW247289   7.141   7.224   3.936
15649SOL     OW47290   6.393   6.191   5.189
15649SOL    HW147291   6.346   6.188   5.278
15649SOL    HW247292   6.342   6.136   5.123
15650SOL     OW47293   6.980   6.055   5.398
15650SOL    HW147294   6.960   6.098   5.486
15650SOL    HW247295   7.058   5.993   5.407
15651SOL     OW47296   6.559   6.476   5.296
15651SOL    HW147297   6.605   6.392   5.267
15651SOL    HW247298   6.503   6.510   5.221
15652SOL     OW47299   6.577   5.996   4.966
15652SOL    HW147300   6.500   6.030   5.020
15652SOL    HW247301   6.543   5.945   4.887
15653SOL     OW47302   6.627   6.287   4.153
15653SOL    HW147303   6.653   6.283   4.249
15653SOL    HW247304   6.542   6.236   4.139
15654SOL     OW47305   5.662   6.397   4.513
15654SOL    HW147306   5.761   6.385   4.522
15654SOL    HW247307   5.638   6.492   4.534
15655SOL     OW47308   5.716   7.407   5.295
15655SOL    HW147309   5.706   7.392   5.394
15655SOL    HW247310   5.630   7.443   5.259
15656SOL     OW47311   6.451   5.934   3.919
15656SOL    HW147312   6.510   5.997   3.870
15656SOL    HW247313   6.470   5.840   3.890
15657SOL     OW47314   7.305   6.171   5.555
15657SOL    HW147315   7.279   6.260   5.519
15657SOL    HW247316   7.303   6.103   5.482
15658SOL     OW47317   6.948   6.730   4.269
15658SOL    HW147318   7.031   6.701   4.221
15658SOL    HW247319   6.899   6.797   4.213
15659SOL     OW47320   6.136   5.782   4.609
15659SOL    HW147321   6.131   5.777   4.709
15659SOL    HW247322   6.138   5.878   4.580
15660SOL     OW47323   6.594   7.042   4.201
15660SOL    HW147324   6.548   7.114   4.149
15660SOL    HW247325   6.590   7.062   4.299
15661SOL     OW47326   5.937   7.387   4.577
15661SOL    HW147327   5.987   7.301   4.583
15661SOL    HW247328   6.002   7.464   4.574
15662SOL     OW47329   7.381   6.652   4.597
15662SOL    HW147330   7.319   6.637   4.521
15662SOL    HW247331   7.329   6.663   4.682
15663SOL     OW47332   6.813   7.136   5.230
15663SOL    HW147333   6.819   7.059   5.294
15663SOL    HW247334   6.761   7.110   5.150
15664SOL     OW47335   5.907   6.529   3.966
15664SOL    HW147336   5.989   6.568   3.924
15664SOL    HW247337   5.880   6.447   3.917
15665SOL     OW47338   7.044   6.321   4.452
15665SOL    HW147339   7.039   6.256   4.527
15665SOL    HW247340   7.124   6.380   4.465
15666SOL     OW47341   6.047   6.852   5.451
15666SOL    HW147342   5.997   6.853   5.365
15666SOL    HW247343   5.984   6.834   5.527
15667SOL     OW47344   6.697   7.362   3.961
15667SOL    HW147345   6.637   7.300   4.011
15667SOL    HW247346   6.728   7.318   3.876
15668SOL     OW47347   5.788   5.871   5.222
15668SOL    HW147348   5.708   5.931   5.209
15668SOL    HW247349   5.778   5.822   5.308
15669SOL     OW47350   7.218   6.963   3.805
15669SOL    HW147351   7.186   7.057   3.795
15669SOL    HW247352   7.142   6.900   3.793
15670SOL     OW47353   6.050   7.329   4.047
15670SOL    HW147354   6.083   7.368   4.133
15670SOL    HW247355   6.126   7.322   3.982
15671SOL     OW47356   6.986   5.693   4.150
15671SOL    HW147357   6.962   5.656   4.060
15671SOL    HW247358   7.085   5.709   4.154
15672SOL     OW47359   5.835   7.371   4.965
15672SOL    HW147360   5.892   7.306   5.015
15672SOL    HW247361   5.819   7.338   4.872
15673SOL     OW47362   6.526   7.284   4.628
15673SOL    HW147363   6.606   7.227   4.649
15673SOL    HW247364   6.477   7.244   4.551
15674SOL     OW47365   5.968   6.286   4.204
15674SOL    HW147366   6.013   6.196   4.201
15674SOL    HW247367   5.874   6.275   4.237
15675SOL     OW47368   7.133   5.808   5.453
15675SOL    HW147369   7.128   5.845   5.545
15675SOL    HW247370   7.061   5.739   5.441
15676SOL     OW47371   6.200   5.708   3.841
15676SOL    HW147372   6.298   5.686   3.848
15676SOL    HW247373   6.169   5.691   3.748
15677SOL     OW47374   6.367   5.850   5.473
15677SOL    HW147375   6.434   5.789   5.516
15677SOL    HW247376   6.294   5.869   5.538
15678SOL     OW47377   6.474   7.100   4.919
15678SOL    HW147378   6.451   7.075   4.825
15678SOL    HW247379   6.535   7.031   4.958
15679SOL     OW47380   6.937   6.176   5.157
15679SOL    HW147381   6.965   6.133   5.242
15679SOL    HW247382   6.962   6.272   5.158
15680SOL     OW47383   6.389   6.988   4.648
15680SOL    HW147384   6.479   7.002   4.606
15680SOL    HW247385   6.318   6.990   4.577
15681SOL     OW47386   6.508   6.089   4.623
15681SOL    HW147387   6.483   6.080   4.527
15681SOL    HW247388   6.556   6.007   4.654
15682SOL     OW47389   6.125   5.650   4.236
15682SOL    HW147390   6.044   5.651   4.294
15682SOL    HW247391   6.128   5.733   4.181
15683SOL     OW47392   7.020   6.774   3.765
15683SOL    HW147393   7.052   6.698   3.822
15683SOL    HW247394   6.928   6.801   3.795
15684SOL     OW47395   5.883   5.621   3.895
15684SOL    HW147396   5.932   5.705   3.874
15684SOL    HW247397   5.945   5.556   3.940
15685SOL     OW47398   6.521   5.822   4.204
15685SOL    HW147399   6.473   5.863   4.126
15685SOL    HW247400   6.620   5.820   4.185
15686SOL     OW47401   6.662   6.269   5.188
15686SOL    HW147402   6.582   6.208   5.191
15686SOL    HW247403   6.743   6.216   5.164
15687SOL     OW47404   6.813   7.156   4.517
15687SOL    HW147405   6.834   7.230   4.452
15687SOL    HW247406   6.881   7.156   4.590
15688SOL     OW47407   6.045   6.738   4.465
15688SOL    HW147408   5.974   6.711   4.530
15688SOL    HW247409   6.019   6.710   4.372
15689SOL     OW47410   6.857   7.383   4.315
15689SOL    HW147411   6.901   7.447   4.251
15689SOL    HW247412   6.807   7.435   4.385
15690SOL     OW47413   6.618   6.135   3.740
15690SOL    HW147414   6.577   6.217   3.701
15690SOL    HW247415   6.682   6.161   3.813
15691SOL     OW47416   5.664   6.142   5.110
15691SOL    HW147417   5.756   6.141   5.069
15691SOL    HW247418   5.658   6.216   5.177
15692SOL     OW47419   6.147   5.808   4.871
15692SOL    HW147420   6.185   5.724   4.908
15692SOL    HW247421   6.059   5.827   4.915
15693SOL     OW47422   6.452   6.040   4.366
15693SOL    HW147423   6.420   6.112   4.304
15693SOL    HW247424   6.476   5.959   4.313
15694SOL     OW47425   6.603   5.625   4.477
15694SOL    HW147426   6.531   5.630   4.408
15694SOL    HW247427   6.579   5.556   4.546
15695SOL     OW47428   7.015   6.759   4.591
15695SOL    HW147429   6.960   6.675   4.584
15695SOL    HW247430   7.041   6.788   4.499
15696SOL     OW47431   7.052   6.176   4.716
15696SOL    HW147432   7.022   6.081   4.723
15696SOL    HW247433   7.125   6.192   4.782
15697SOL     OW47434   7.443   6.419   4.101
15697SOL    HW147435   7.485   6.355   4.165
15697SOL    HW247436   7.405   6.368   4.023
15698SOL     OW47437   6.074   6.971   3.898
15698SOL    HW147438   5.987   6.956   3.945
15698SOL    HW247439   6.057   6.997   3.803
15699SOL     OW47440   7.250   6.866   4.381
15699SOL    HW147441   7.349   6.874   4.395
15699SOL    HW247442   7.205   6.950   4.412
15700SOL     OW47443   6.976   6.161   3.802
15700SOL    HW147444   6.922   6.140   3.883
15700SOL    HW247445   7.067   6.120   3.811
15701SOL     OW47446   6.113   5.842   4.052
15701SOL    HW147447   6.140   5.783   3.977
15701SOL    HW247448   6.113   5.937   4.021
15702SOL     OW47449   7.340   6.809   5.312
15702SOL    HW147450   7.431   6.770   5.299
15702SOL    HW247451   7.348   6.905   5.336
15703SOL     OW47452   6.650   6.933   5.064
15703SOL    HW147453   6.570   6.910   5.119
15703SOL    HW247454   6.733   6.907   5.113
15704SOL     OW47455   7.178   7.215   5.349
15704SOL    HW147456   7.205   7.249   5.259
15704SOL    HW247457   7.257   7.177   5.395
15705SOL     OW47458   6.697   6.781   4.824
15705SOL    HW147459   6.657   6.825   4.905
15705SOL    HW247460   6.656   6.818   4.741
15706SOL     OW47461   7.224   6.685   4.803
15706SOL    HW147462   7.229   6.766   4.862
15706SOL    HW247463   7.138   6.687   4.752
15707SOL     OW47464   6.501   5.675   5.126
15707SOL    HW147465   6.526   5.655   5.031
15707SOL    HW247466   6.573   5.731   5.168
15708SOL     OW47467   6.566   6.702   5.443
15708SOL    HW147468   6.467   6.708   5.453
15708SOL    HW247469   6.589   6.622   5.387
15709SOL     OW47470   6.291   6.636   4.092
15709SOL    HW147471   6.277   6.643   4.191
15709SOL    HW247472   6.375   6.585   4.074
15710SOL     OW47473   5.996   6.399   4.975
15710SOL    HW147474   6.082   6.411   5.025
15710SOL    HW247475   5.954   6.312   5.002
15711SOL     OW47476   6.860   5.972   4.986
15711SOL    HW147477   6.881   6.046   5.050
15711SOL    HW247478   6.771   5.989   4.943
15712SOL     OW47479   5.650   7.150   5.055
15712SOL    HW147480   5.604   7.232   5.021
15712SOL    HW247481   5.748   7.169   5.064
15713SOL     OW47482   5.953   6.686   4.225
15713SOL    HW147483   5.946   6.769   4.169
15713SOL    HW247484   5.957   6.606   4.165
15714SOL     OW47485   6.152   6.123   4.589
15714SOL    HW147486   6.164   6.189   4.515
15714SOL    HW247487   6.198   6.157   4.672
15715SOL     OW47488   6.838   6.934   4.112
15715SOL    HW147489   6.888   7.011   4.152
15715SOL    HW247490   6.743   6.936   4.144
15716SOL     OW47491   6.858   7.031   4.866
15716SOL    HW147492   6.905   7.044   4.953
15716SOL    HW247493   6.792   6.957   4.875
15717SOL     OW47494   7.168   6.225   4.196
15717SOL    HW147495   7.137   6.286   4.269
15717SOL    HW247496   7.218   6.277   4.127
15718SOL     OW47497   5.940   7.096   5.053
15718SOL    HW147498   5.919   7.052   4.966
15718SOL    HW247499   6.037   7.122   5.056
15719SOL     OW47500   5.988   6.337   5.322
15719SOL    HW147501   6.056   6.392   5.275
15719SOL    HW247502   6.028   6.249   5.349
15720SOL     OW47503   7.173   6.365   5.394
15720SOL    HW147504   7.081   6.403   5.389
15720SOL    HW247505   7.233   6.412   5.329
15721SOL     OW47506   6.599   5.691   5.494
15721SOL    HW147507   6.605   5.776   5.442
15721SOL    HW247508   6.631   5.615   5.437
15722SOL     OW47509   6.090   5.636   5.464
15722SOL    HW147510   6.048   5.579   5.394
15722SOL    HW247511   6.024   5.705   5.496
15723SOL     OW47512   6.159   6.456   4.753
15723SOL    HW147513   6.203   6.545   4.744
15723SOL    HW247514   6.096   6.456   4.830
15724SOL     OW47515   6.946   6.448   4.769
15724SOL    HW147516   6.871   6.448   4.703
15724SOL    HW247517   6.983   6.356   4.778
15725SOL     OW47518   6.795   6.111   3.999
15725SOL    HW147519   6.808   6.027   4.053
15725SOL    HW247520   6.766   6.185   4.059
15726SOL     OW47521   5.893   5.799   4.955
15726SOL    HW147522   5.870   5.836   5.045
15726SOL    HW247523   5.863   5.704   4.949
15727SOL     OW47524   5.623   6.896   5.006
15727SOL    HW147525   5.676   6.847   5.074
15727SOL    HW247526   5.645   6.994   5.011
15728SOL     OW47527   6.318   6.220   4.788
15728SOL    HW147528   6.377   6.194   4.712
15728SOL    HW247529   6.290   6.316   4.777
15729SOL     OW47530   7.314   6.521   5.578
15729SOL    HW147531   7.268   6.514   5.489
15729SOL    HW247532   7.252   6.565   5.644
15730SOL     OW47533   5.893   5.649   4.342
15730SOL    HW147534   5.882   5.743   4.375
15730SOL    HW247535   5.888   5.586   4.419
15731SOL     OW47536   7.208   5.953   4.098
15731SOL    HW147537   7.210   5.877   4.162
15731SOL    HW247538   7.160   6.030   4.138
15732SOL     OW47539   6.609   6.352   4.690
15732SOL    HW147540   6.624   6.373   4.786
15732SOL    HW247541   6.579   6.257   4.681
15733SOL     OW47542   6.566   7.159   5.424
15733SOL    HW147543   6.546   7.203   5.336
15733SOL    HW247544   6.605   7.068   5.408
15734SOL     OW47545   7.445   7.104   5.329
15734SOL    HW147546   7.459   7.131   5.234
15734SOL    HW247547   7.528   7.126   5.382
15735SOL     OW47548   5.936   6.484   5.528
15735SOL    HW147549   6.012   6.528   5.576
15735SOL    HW247550   5.971   6.437   5.446
15736SOL     OW47551   7.126   5.860   3.849
15736SOL    HW147552   7.065   5.785   3.872
15736SOL    HW247553   7.148   5.912   3.932
15737SOL     OW47554   6.889   6.424   3.766
15737SOL    HW147555   6.923   6.331   3.781
15737SOL    HW247556   6.907   6.451   3.671
15738SOL     OW47557   6.654   6.919   4.573
15738SOL    HW147558   6.661   6.835   4.518
15738SOL    HW247559   6.716   6.988   4.537
15739SOL     OW47560   5.905   6.396   4.673
15739SOL    HW147561   5.998   6.432   4.678
15739SOL    HW247562   5.899   6.311   4.725
15740SOL     OW47563   5.925   6.095   4.730
15740SOL    HW147564   5.873   6.012   4.713
15740SOL    HW247565   6.002   6.100   4.666
15741SOL     OW47566   6.724   5.966   5.402
15741SOL    HW147567   6.679   6.029   5.466
15741SOL    HW247568   6.817   5.997   5.385
15742SOL     OW47569   6.746   5.793   5.201
15742SOL    HW147570   6.746   5.857   5.278
15742SOL    HW247571   6.774   5.841   5.118
15743SOL     OW47572   5.594   6.912   3.924
15743SOL    HW147573   5.501   6.933   3.893
15743SOL    HW247574   5.604   6.813   3.937
15744SOL     OW47575   5.674   7.387   4.651
15744SOL    HW147576   5.632   7.301   4.624
15744SOL    HW247577   5.768   7.390   4.617
15745SOL     OW47578   6.090   7.154   4.634
15745SOL    HW147579   6.156   7.228   4.643
15745SOL    HW247580   6.134   7.075   4.592
15746SOL     OW47581   6.588   6.382   4.962
15746SOL    HW147582   6.629   6.350   5.048
15746SOL    HW247583   6.492   6.355   4.959
15747SOL     OW47584   5.626   6.130   4.838
15747SOL    HW147585   5.711   6.097   4.797
15747SOL    HW247586   5.639   6.145   4.936
15748SOL     OW47587   5.775   6.106   5.446
15748SOL    HW147588   5.834   6.066   5.376
15748SOL    HW247589   5.717   6.177   5.405
15749SOL     OW47590   6.955   6.536   5.384
15749SOL    HW147591   6.994   6.625   5.404
15749SOL    HW247592   6.965   6.516   5.287
15750SOL     OW47593   6.401   6.158   4.049
15750SOL    HW147594   6.408   6.069   4.003
15750SOL    HW247595   6.307   6.192   4.041
15751SOL     OW47596   7.243   6.190   4.930
15751SOL    HW147597   7.205   6.121   4.992
15751SOL    HW247598   7.325   6.154   4.886
15752SOL     OW47599   5.838   7.150   5.468
15752SOL    HW147600   5.808   7.207   5.544
15752SOL    HW247601   5.831   7.053   5.494
15753SOL     OW47602   6.257   6.050   4.993
15753SOL    HW147603   6.223   5.961   4.963
15753SOL    HW247604   6.283   6.104   4.913
15754SOL     OW47605   6.516   7.264   5.189
15754SOL    HW147606   6.492   7.246   5.094
15754SOL    HW247607   6.546   7.358   5.199
15755SOL     OW47608   6.059   6.086   3.915
15755SOL    HW147609   6.120   6.166   3.919
15755SOL    HW247610   5.964   6.117   3.922
15756SOL     OW47611   5.745   6.723   5.190
15756SOL    HW147612   5.767   6.662   5.266
15756SOL    HW247613   5.755   6.674   5.104
15757SOL     OW47614   6.933   6.645   4.958
15757SOL    HW147615   6.957   6.582   4.884
15757SOL    HW247616   6.843   6.685   4.940
15758SOL     OW47617   6.888   6.441   4.033
15758SOL    HW147618   6.802   6.410   4.075
15758SOL    HW247619   6.884   6.427   3.934
15759SOL     OW47620   7.345   7.333   4.878
15759SOL    HW147621   7.406   7.363   4.805
15759SOL    HW247622   7.307   7.244   4.856
15760SOL     OW47623   6.838   7.317   4.852
15760SOL    HW147624   6.922   7.322   4.798
15760SOL    HW247625   6.815   7.221   4.870
15761SOL     OW47626   5.669   6.844   4.746
15761SOL    HW147627   5.664   6.843   4.846
15761SOL    HW247628   5.586   6.803   4.708
15762SOL     OW47629   6.274   7.248   5.440
15762SOL    HW147630   6.218   7.329   5.449
15762SOL    HW247631   6.326   7.252   5.354
15763SOL     OW47632   7.312   5.721   4.247
15763SOL    HW147633   7.385   5.704   4.180
15763SOL    HW247634   7.281   5.634   4.285
15764SOL     OW47635   6.974   7.159   4.201
15764SOL    HW147636   7.041   7.171   4.127
15764SOL    HW247637   6.934   7.248   4.224
15765SOL     OW47638   5.716   7.380   5.575
15765SOL    HW147639   5.675   7.306   5.628
15765SOL    HW247640   5.780   7.431   5.633
15766SOL     OW47641   6.866   6.513   4.396
15766SOL    HW147642   6.926   6.432   4.398
15766SOL    HW247643   6.906   6.582   4.336
15767SOL     OW47644   6.416   6.859   5.146
15767SOL    HW147645   6.411   6.892   5.241
15767SOL    HW247646   6.330   6.878   5.100
15768SOL     OW47647   6.258   7.202   3.878
15768SOL    HW147648   6.267   7.212   3.779
15768SOL    HW247649   6.218   7.113   3.899
15769SOL     OW47650   7.236   7.306   5.118
15769SOL    HW147651   7.289   7.316   5.034
15769SOL    HW247652   7.209   7.396   5.152
15770SOL     OW47653   7.427   5.761   4.687
15770SOL    HW147654   7.466   5.676   4.651
15770SOL    HW247655   7.329   5.763   4.668
15771SOL     OW47656   5.849   5.912   4.444
15771SOL    HW147657   5.770   5.963   4.410
15771SOL    HW247658   5.840   5.897   4.542
15772SOL     OW47659   6.780   7.198   3.755
15772SOL    HW147660   6.786   7.105   3.792
15772SOL    HW247661   6.721   7.198   3.675
15773SOL     OW47662   6.408   6.588   5.096
15773SOL    HW147663   6.448   6.587   5.004
15773SOL    HW247664   6.418   6.680   5.136
15774SOL     OW47665   6.502   6.496   4.015
15774SOL    HW147666   6.565   6.534   3.947
15774SOL    HW247667   6.542   6.413   4.054
15775SOL     OW47668   7.090   7.193   3.768
15775SOL    HW147669   6.998   7.230   3.775
15775SOL    HW247670   7.128   7.213   3.678
15776SOL     OW47671   5.958   6.874   5.214
15776SOL    HW147672   5.945   6.967   5.180
15776SOL    HW247673   5.874   6.822   5.201
15777SOL     OW47674   7.200   6.878   5.013
15777SOL    HW147675   7.260   6.881   5.093
15777SOL    HW247676   7.125   6.942   5.026
15778SOL     OW47677   6.625   6.684   4.420
15778SOL    HW147678   6.555   6.637   4.474
15778SOL    HW247679   6.684   6.616   4.377
15779SOL     OW47680   6.600   5.822   4.695
15779SOL    HW147681   6.592   5.786   4.602
15779SOL    HW247682   6.598   5.746   4.760
15780SOL     OW47683   6.176   7.073   4.215
15780SOL    HW147684   6.218   7.015   4.145
15780SOL    HW247685   6.132   7.152   4.171
15781SOL     OW47686   7.295   5.971   5.105
15781SOL    HW147687   7.368   6.040   5.109
15781SOL    HW247688   7.323   5.896   5.046
15782SOL     OW47689   5.841   6.934   4.014
15782SOL    HW147690   5.745   6.935   3.987
15782SOL    HW247691   5.853   6.987   4.098
15783SOL     OW47692   5.691   6.599   5.450
15783SOL    HW147693   5.614   6.566   5.504
15783SOL    HW247694   5.776   6.569   5.492
15784SOL     OW47695   6.258   5.789   5.213
15784SOL    HW147696   6.348   5.773   5.173
15784SOL    HW247697   6.266   5.794   5.312
15785SOL     OW47698   5.661   5.931   3.757
15785SOL    HW147699   5.569   5.903   3.728
15785SOL    HW247700   5.692   6.008   3.701
15786SOL     OW47701   7.026   6.442   5.122
15786SOL    HW147702   6.969   6.494   5.059
15786SOL    HW247703   7.122   6.454   5.098
15787SOL     OW47704   5.658   5.752   4.042
15787SOL    HW147705   5.641   5.835   3.988
15787SOL    HW247706   5.748   5.715   4.020
15788SOL     OW47707   6.769   6.921   3.843
15788SOL    HW147708   6.670   6.910   3.845
15788SOL    HW247709   6.803   6.936   3.936
15789SOL     OW47710   6.199   6.428   5.155
15789SOL    HW147711   6.255   6.509   5.138
15789SOL    HW247712   6.258   6.348   5.158
15790SOL     OW47713   7.079   7.353   4.683
15790SOL    HW147714   7.112   7.417   4.614
15790SOL    HW247715   7.145   7.347   4.758
15791SOL     OW47716   6.302   6.151   5.432
15791SOL    HW147717   6.321   6.216   5.506
15791SOL    HW247718   6.362   6.071   5.441
15792SOL     OW47719   7.036   6.806   5.357
15792SOL    HW147720   7.027   6.796   5.456
15792SOL    HW247721   7.132   6.799   5.331
15793SOL     OW47722   5.976   7.327   5.284
15793SOL    HW147723   5.885   7.368   5.282
15793SOL    HW247724   5.969   7.233   5.316
15794SOL     OW47725   7.260   6.469   4.978
15794SOL    HW147726   7.233   6.380   4.941
15794SOL    HW247727   7.261   6.537   4.905
15795SOL     OW47728   6.811   5.911   4.173
15795SOL    HW147729   6.876   5.837   4.162
15795SOL    HW247730   6.831   5.961   4.257
15796SOL     OW47731   6.180   6.331   4.376
15796SOL    HW147732   6.230   6.416   4.357
15796SOL    HW247733   6.092   6.333   4.328
15797SOL     OW47734   7.363   5.928   5.366
15797SOL    HW147735   7.346   5.959   5.272
15797SOL    HW247736   7.279   5.891   5.404
15798SOL     OW47737   7.316   6.520   5.241
15798SOL    HW147738   7.354   6.611   5.256
15798SOL    HW247739   7.308   6.503   5.142
15799SOL     OW47740   6.445   6.960   3.740
15799SOL    HW147741   6.399   6.975   3.828
15799SOL    HW247742   6.489   7.045   3.710
15800SOL     OW47743   6.247   7.376   4.677
15800SOL    HW147744   6.201   7.464   4.664
15800SOL    HW247745   6.346   7.388   4.670
15801SOL     OW47746   6.445   6.542   4.585
15801SOL    HW147747   6.499   6.473   4.633
15801SOL    HW247748   6.413   6.611   4.651
15802SOL     OW47749   6.669   6.570   3.811
15802SOL    HW147750   6.646   6.623   3.729
15802SOL    HW247751   6.750   6.514   3.792
15803SOL     OW47752   7.447   7.155   4.575
15803SOL    HW147753   7.376   7.143   4.505
15803SOL    HW247754   7.448   7.076   4.635
15804SOL     OW47755   5.807   6.900   5.568
15804SOL    HW147756   5.742   6.827   5.547
15804SOL    HW247757   5.811   6.914   5.666
15805SOL     OW47758   5.665   6.826   4.377
15805SOL    HW147759   5.664   6.779   4.465
15805SOL    HW247760   5.747   6.798   4.326
15806SOL     OW47761   6.258   6.977   5.348
15806SOL    HW147762   6.180   6.927   5.386
15806SOL    HW247763   6.255   7.072   5.379
15807SOL     OW47764   7.410   5.778   4.951
15807SOL    HW147765   7.406   5.688   4.995
15807SOL    HW247766   7.413   5.767   4.852
15808SOL     OW47767   6.014   6.010   4.244
15808SOL    HW147768   6.044   5.938   4.182
15808SOL    HW247769   5.975   5.970   4.327
15809SOL     OW47770   7.291   7.073   4.828
15809SOL    HW147771   7.198   7.048   4.801
15809SOL    HW247772   7.317   7.023   4.910
15810SOL     OW47773   5.903   6.133   5.004
15810SOL    HW147774   5.941   6.074   5.076
15810SOL    HW247775   5.943   6.107   4.916
15811SOL     OW47776   6.398   7.172   4.411
15811SOL    HW147777   6.430   7.182   4.317
15811SOL    HW247778   6.319   7.110   4.413
15812SOL     OW47779   7.010   5.800   4.836
15812SOL    HW147780   7.062   5.735   4.891
15812SOL    HW247781   6.961   5.863   4.897
15813SOL     OW47782   6.587   5.620   4.878
15813SOL    HW147783   6.524   5.548   4.847
15813SOL    HW247784   6.680   5.584   4.878
15814SOL     OW47785   6.356   6.916   4.025
15814SOL    HW147786   6.310   6.829   4.042
15814SOL    HW247787   6.447   6.913   4.066
15815SOL     OW47788   6.204   7.153   5.008
15815SOL    HW147789   6.199   7.235   5.065
15815SOL    HW247790   6.293   7.150   4.963
15816SOL     OW47791   6.938   5.638   3.892
15816SOL    HW147792   6.973   5.597   3.808
15816SOL    HW247793   6.848   5.600   3.912
15817SOL     OW47794   6.886   6.039   4.415
15817SOL    HW147795   6.827   6.119   4.419
15817SOL    HW247796   6.901   6.004   4.508
15818SOL     OW47797   7.179   5.807   4.606
15818SOL    HW147798   7.095   5.806   4.660
15818SOL    HW247799   7.181   5.890   4.550
15819SOL     OW47800   5.625   6.663   4.024
15819SOL    HW147801   5.724   6.652   4.015
15819SOL    HW247802   5.585   6.577   4.056
15820SOL     OW47803   6.461   7.232   4.061
15820SOL    HW147804   6.384   7.197   4.007
15820SOL    HW247805   6.429   7.303   4.123
15821SOL     OW47806   5.816   6.214   5.699
15821SOL    HW147807   5.723   6.212   5.736
15821SOL    HW247808   5.817   6.175   5.607
15822SOL     OW47809   5.811   5.861   6.582
15822SOL    HW147810   5.846   5.844   6.674
15822SOL    HW247811   5.723   5.816   6.570
15823SOL     OW47812   5.605   5.954   6.233
15823SOL    HW147813   5.523   5.997   6.272
15823SOL    HW247814   5.577   5.881   6.170
15824SOL     OW47815   6.155   6.861   6.751
15824SOL    HW147816   6.062   6.854   6.714
15824SOL    HW247817   6.166   6.950   6.795
15825SOL     OW47818   7.141   7.097   6.289
15825SOL    HW147819   7.084   7.081   6.370
15825SOL    HW247820   7.082   7.107   6.209
15826SOL     OW47821   6.721   6.289   6.303
15826SOL    HW147822   6.778   6.367   6.278
15826SOL    HW247823   6.661   6.315   6.379
15827SOL     OW47824   7.341   6.193   5.817
15827SOL    HW147825   7.329   6.180   5.718
15827SOL    HW247826   7.311   6.112   5.866
15828SOL     OW47827   6.354   6.730   6.609
15828SOL    HW147828   6.276   6.747   6.669
15828SOL    HW247829   6.388   6.817   6.573
15829SOL     OW47830   6.436   6.384   7.409
15829SOL    HW147831   6.432   6.460   7.474
15829SOL    HW247832   6.458   6.420   7.318
15830SOL     OW47833   6.271   6.598   6.251
15830SOL    HW147834   6.340   6.582   6.321
15830SOL    HW247835   6.198   6.655   6.289
15831SOL     OW47836   6.272   6.747   7.389
15831SOL    HW147837   6.332   6.826   7.403
15831SOL    HW247838   6.186   6.778   7.348
15832SOL     OW47839   5.921   7.021   6.647
15832SOL    HW147840   5.843   6.990   6.594
15832SOL    HW247841   5.979   7.079   6.590
15833SOL     OW47842   7.046   7.091   6.925
15833SOL    HW147843   7.070   7.185   6.951
15833SOL    HW247844   7.030   7.037   7.007
15834SOL     OW47845   6.024   5.978   7.085
15834SOL    HW147846   6.106   5.922   7.094
15834SOL    HW247847   5.943   5.920   7.089
15835SOL     OW47848   7.189   6.033   6.323
15835SOL    HW147849   7.115   6.079   6.273
15835SOL    HW247850   7.240   6.101   6.376
15836SOL     OW47851   5.817   7.299   6.069
15836SOL    HW147852   5.851   7.376   6.123
15836SOL    HW247853   5.861   7.299   5.979
15837SOL     OW47854   6.713   6.927   7.276
15837SOL    HW147855   6.760   6.927   7.364
15837SOL    HW247856   6.665   6.840   7.265
15838SOL     OW47857   5.816   7.020   6.124
15838SOL    HW147858   5.790   7.116   6.124
15838SOL    HW247859   5.745   6.966   6.169
15839SOL     OW47860   5.826   6.677   6.472
15839SOL    HW147861   5.840   6.593   6.524
15839SOL    HW247862   5.771   6.741   6.527
15840SOL     OW47863   6.206   7.372   7.025
15840SOL    HW147864   6.114   7.355   7.060
15840SOL    HW247865   6.234   7.464   7.051
15841SOL     OW47866   6.192   6.550   5.709
15841SOL    HW147867   6.199   6.634   5.655
15841SOL    HW247868   6.238   6.563   5.797
15842SOL     OW47869   7.180   5.700   7.066
15842SOL    HW147870   7.162   5.767   6.994
15842SOL    HW247871   7.177   5.746   7.155
15843SOL     OW47872   5.708   6.229   6.149
15843SOL    HW147873   5.663   6.141   6.166
15843SOL    HW247874   5.707   6.283   6.233
15844SOL     OW47875   7.428   7.353   5.945
15844SOL    HW147876   7.482   7.324   6.025
15844SOL    HW247877   7.458   7.443   5.916
15845SOL     OW47878   5.613   7.182   5.703
15845SOL    HW147879   5.594   7.086   5.724
15845SOL    HW247880   5.580   7.240   5.778
15846SOL     OW47881   7.275   6.508   6.198
15846SOL    HW147882   7.370   6.479   6.206
15846SOL    HW247883   7.267   6.573   6.123
15847SOL     OW47884   7.227   6.694   6.018
15847SOL    HW147885   7.313   6.696   5.966
15847SOL    HW247886   7.241   6.741   6.106
15848SOL     OW47887   5.699   6.323   7.183
15848SOL    HW147888   5.787   6.310   7.228
15848SOL    HW247889   5.686   6.420   7.161
15849SOL     OW47890   6.199   6.951   6.312
15849SOL    HW147891   6.150   6.864   6.321
15849SOL    HW247892   6.176   6.994   6.225
15850SOL     OW47893   6.879   6.814   7.009
15850SOL    HW147894   6.916   6.741   6.951
15850SOL    HW247895   6.931   6.819   7.094
15851SOL     OW47896   6.395   5.590   6.088
15851SOL    HW147897   6.435   5.681   6.079
15851SOL    HW247898   6.295   5.598   6.094
15852SOL     OW47899   5.783   6.562   6.850
15852SOL    HW147900   5.872   6.517   6.836
15852SOL    HW247901   5.710   6.497   6.831
15853SOL     OW47902   7.111   6.585   5.776
15853SOL    HW147903   7.048   6.509   5.789
15853SOL    HW247904   7.159   6.603   5.862
15854SOL     OW47905   6.773   7.378   7.202
15854SOL    HW147906   6.797   7.438   7.126
15854SOL    HW247907   6.780   7.283   7.172
15855SOL     OW47908   5.903   5.837   7.387
15855SOL    HW147909   5.974   5.908   7.393
15855SOL    HW247910   5.815   5.876   7.415
15856SOL     OW47911   7.052   7.003   6.539
15856SOL    HW147912   6.993   7.009   6.619
15856SOL    HW247913   7.037   6.915   6.493
15857SOL     OW47914   7.253   7.300   6.158
15857SOL    HW147915   7.212   7.277   6.070
15857SOL    HW247916   7.235   7.226   6.223
15858SOL     OW47917   6.184   6.315   5.856
15858SOL    HW147918   6.208   6.384   5.788
15858SOL    HW247919   6.106   6.348   5.910
15859SOL     OW47920   6.867   5.931   6.530
15859SOL    HW147921   6.781   5.881   6.517
15859SOL    HW247922   6.929   5.877   6.586
15860SOL     OW47923   7.162   7.248   5.893
15860SOL    HW147924   7.251   7.294   5.896
15860SOL    HW247925   7.141   7.224   5.798
15861SOL     OW47926   6.393   6.191   7.051
15861SOL    HW147927   6.346   6.188   7.140
15861SOL    HW247928   6.342   6.136   6.985
15862SOL     OW47929   6.980   6.055   7.260
15862SOL    HW147930   6.960   6.098   7.348
15862SOL    HW247931   7.058   5.993   7.269
15863SOL     OW47932   6.559   6.476   7.158
15863SOL    HW147933   6.605   6.392   7.129
15863SOL    HW247934   6.503   6.510   7.083
15864SOL     OW47935   6.577   5.996   6.828
15864SOL    HW147936   6.500   6.030   6.882
15864SOL    HW247937   6.543   5.945   6.749
15865SOL     OW47938   6.627   6.287   6.015
15865SOL    HW147939   6.653   6.283   6.111
15865SOL    HW247940   6.542   6.236   6.001
15866SOL     OW47941   5.662   6.397   6.375
15866SOL    HW147942   5.761   6.385   6.384
15866SOL    HW247943   5.638   6.492   6.396
15867SOL     OW47944   5.716   7.407   7.157
15867SOL    HW147945   5.706   7.392   7.256
15867SOL    HW247946   5.630   7.443   7.121
15868SOL     OW47947   6.451   5.934   5.781
15868SOL    HW147948   6.510   5.997   5.732
15868SOL    HW247949   6.470   5.840   5.752
15869SOL     OW47950   7.305   6.171   7.417
15869SOL    HW147951   7.279   6.260   7.381
15869SOL    HW247952   7.303   6.103   7.344
15870SOL     OW47953   6.948   6.730   6.131
15870SOL    HW147954   7.031   6.701   6.083
15870SOL    HW247955   6.899   6.797   6.075
15871SOL     OW47956   6.136   5.782   6.471
15871SOL    HW147957   6.131   5.777   6.571
15871SOL    HW247958   6.138   5.878   6.442
15872SOL     OW47959   6.594   7.042   6.063
15872SOL    HW147960   6.548   7.114   6.011
15872SOL    HW247961   6.590   7.062   6.161
15873SOL     OW47962   5.937   7.387   6.439
15873SOL    HW147963   5.987   7.301   6.445
15873SOL    HW247964   6.002   7.464   6.436
15874SOL     OW47965   7.381   6.652   6.459
15874SOL    HW147966   7.319   6.637   6.383
15874SOL    HW247967   7.329   6.663   6.544
15875SOL     OW47968   6.813   7.136   7.092
15875SOL    HW147969   6.819   7.059   7.156
15875SOL    HW247970   6.761   7.110   7.012
15876SOL     OW47971   5.907   6.529   5.828
15876SOL    HW147972   5.989   6.568   5.786
15876SOL    HW247973   5.880   6.447   5.779
15877SOL     OW47974   7.044   6.321   6.314
15877SOL    HW147975   7.039   6.256   6.389
15877SOL    HW247976   7.124   6.380   6.327
15878SOL     OW47977   6.047   6.852   7.313
15878SOL    HW147978   5.997   6.853   7.227
15878SOL    HW247979   5.984   6.834   7.389
15879SOL     OW47980   6.697   7.362   5.823
15879SOL    HW147981   6.637   7.300   5.873
15879SOL    HW247982   6.728   7.318   5.738
15880SOL     OW47983   5.788   5.871   7.084
15880SOL    HW147984   5.708   5.931   7.071
15880SOL    HW247985   5.778   5.822   7.170
15881SOL     OW47986   7.218   6.963   5.667
15881SOL    HW147987   7.186   7.057   5.657
15881SOL    HW247988   7.142   6.900   5.655
15882SOL     OW47989   6.050   7.329   5.909
15882SOL    HW147990   6.083   7.368   5.995
15882SOL    HW247991   6.126   7.322   5.844
15883SOL     OW47992   6.986   5.693   6.012
15883SOL    HW147993   6.962   5.656   5.922
15883SOL    HW247994   7.085   5.709   6.016
15884SOL     OW47995   5.835   7.371   6.827
15884SOL    HW147996   5.892   7.306   6.877
15884SOL    HW247997   5.819   7.338   6.734
15885SOL     OW47998   6.526   7.284   6.490
15885SOL    HW147999   6.606   7.227   6.511
15885SOL    HW248000   6.477   7.244   6.413
15886SOL     OW48001   5.968   6.286   6.066
15886SOL    HW148002   6.013   6.196   6.063
15886SOL    HW248003   5.874   6.275   6.099
15887SOL     OW48004   7.133   5.808   7.315
15887SOL    HW148005   7.128   5.845   7.407
15887SOL    HW248006   7.061   5.739   7.303
15888SOL     OW48007   6.200   5.708   5.703
15888SOL    HW148008   6.298   5.686   5.710
15888SOL    HW248009   6.169   5.691   5.610
15889SOL     OW48010   6.367   5.850   7.335
15889SOL    HW148011   6.434   5.789   7.378
15889SOL    HW248012   6.294   5.869   7.400
15890SOL     OW48013   6.474   7.100   6.781
15890SOL    HW148014   6.451   7.075   6.687
15890SOL    HW248015   6.535   7.031   6.820
15891SOL     OW48016   6.937   6.176   7.019
15891SOL    HW148017   6.965   6.133   7.104
15891SOL    HW248018   6.962   6.272   7.020
15892SOL     OW48019   6.389   6.988   6.510
15892SOL    HW148020   6.479   7.002   6.468
15892SOL    HW248021   6.318   6.990   6.439
15893SOL     OW48022   6.508   6.089   6.485
15893SOL    HW148023   6.483   6.080   6.389
15893SOL    HW248024   6.556   6.007   6.516
15894SOL     OW48025   6.125   5.650   6.098
15894SOL    HW148026   6.044   5.651   6.156
15894SOL    HW248027   6.128   5.733   6.043
15895SOL     OW48028   7.020   6.774   5.627
15895SOL    HW148029   7.052   6.698   5.684
15895SOL    HW248030   6.928   6.801   5.657
15896SOL     OW48031   5.883   5.621   5.757
15896SOL    HW148032   5.932   5.705   5.736
15896SOL    HW248033   5.945   5.556   5.802
15897SOL     OW48034   6.521   5.822   6.066
15897SOL    HW148035   6.473   5.863   5.988
15897SOL    HW248036   6.620   5.820   6.047
15898SOL     OW48037   6.662   6.269   7.050
15898SOL    HW148038   6.582   6.208   7.053
15898SOL    HW248039   6.743   6.216   7.026
15899SOL     OW48040   6.813   7.156   6.379
15899SOL    HW148041   6.834   7.230   6.314
15899SOL    HW248042   6.881   7.156   6.452
15900SOL     OW48043   6.045   6.738   6.327
15900SOL    HW148044   5.974   6.711   6.392
15900SOL    HW248045   6.019   6.710   6.234
15901SOL     OW48046   6.857   7.383   6.177
15901SOL    HW148047   6.901   7.447   6.113
15901SOL    HW248048   6.807   7.435   6.247
15902SOL     OW48049   6.618   6.135   5.602
15902SOL    HW148050   6.577   6.217   5.563
15902SOL    HW248051   6.682   6.161   5.675
15903SOL     OW48052   5.664   6.142   6.972
15903SOL    HW148053   5.756   6.141   6.931
15903SOL    HW248054   5.658   6.216   7.039
15904SOL     OW48055   6.147   5.808   6.733
15904SOL    HW148056   6.185   5.724   6.770
15904SOL    HW248057   6.059   5.827   6.777
15905SOL     OW48058   6.452   6.040   6.228
15905SOL    HW148059   6.420   6.112   6.166
15905SOL    HW248060   6.476   5.959   6.175
15906SOL     OW48061   6.603   5.625   6.339
15906SOL    HW148062   6.531   5.630   6.270
15906SOL    HW248063   6.579   5.556   6.408
15907SOL     OW48064   7.015   6.759   6.453
15907SOL    HW148065   6.960   6.675   6.446
15907SOL    HW248066   7.041   6.788   6.361
15908SOL     OW48067   7.052   6.176   6.578
15908SOL    HW148068   7.022   6.081   6.585
15908SOL    HW248069   7.125   6.192   6.644
15909SOL     OW48070   7.443   6.419   5.963
15909SOL    HW148071   7.485   6.355   6.027
15909SOL    HW248072   7.405   6.368   5.885
15910SOL     OW48073   6.074   6.971   5.760
15910SOL    HW148074   5.987   6.956   5.807
15910SOL    HW248075   6.057   6.997   5.665
15911SOL     OW48076   7.250   6.866   6.243
15911SOL    HW148077   7.349   6.874   6.257
15911SOL    HW248078   7.205   6.950   6.274
15912SOL     OW48079   6.976   6.161   5.664
15912SOL    HW148080   6.922   6.140   5.745
15912SOL    HW248081   7.067   6.120   5.673
15913SOL     OW48082   6.113   5.842   5.914
15913SOL    HW148083   6.140   5.783   5.839
15913SOL    HW248084   6.113   5.937   5.883
15914SOL     OW48085   7.340   6.809   7.174
15914SOL    HW148086   7.431   6.770   7.161
15914SOL    HW248087   7.348   6.905   7.198
15915SOL     OW48088   6.650   6.933   6.926
15915SOL    HW148089   6.570   6.910   6.981
15915SOL    HW248090   6.733   6.907   6.975
15916SOL     OW48091   7.178   7.215   7.211
15916SOL    HW148092   7.205   7.249   7.121
15916SOL    HW248093   7.257   7.177   7.257
15917SOL     OW48094   6.697   6.781   6.686
15917SOL    HW148095   6.657   6.825   6.767
15917SOL    HW248096   6.656   6.818   6.603
15918SOL     OW48097   7.224   6.685   6.665
15918SOL    HW148098   7.229   6.766   6.724
15918SOL    HW248099   7.138   6.687   6.614
15919SOL     OW48100   6.501   5.675   6.988
15919SOL    HW148101   6.526   5.655   6.893
15919SOL    HW248102   6.573   5.731   7.030
15920SOL     OW48103   6.566   6.702   7.305
15920SOL    HW148104   6.467   6.708   7.315
15920SOL    HW248105   6.589   6.622   7.249
15921SOL     OW48106   6.291   6.636   5.954
15921SOL    HW148107   6.277   6.643   6.053
15921SOL    HW248108   6.375   6.585   5.936
15922SOL     OW48109   6.860   5.972   6.848
15922SOL    HW148110   6.881   6.046   6.912
15922SOL    HW248111   6.771   5.989   6.805
15923SOL     OW48112   5.650   7.150   6.917
15923SOL    HW148113   5.604   7.232   6.883
15923SOL    HW248114   5.748   7.169   6.926
15924SOL     OW48115   5.953   6.686   6.087
15924SOL    HW148116   5.946   6.769   6.031
15924SOL    HW248117   5.957   6.606   6.027
15925SOL     OW48118   6.152   6.123   6.451
15925SOL    HW148119   6.164   6.189   6.377
15925SOL    HW248120   6.198   6.157   6.534
15926SOL     OW48121   6.838   6.934   5.974
15926SOL    HW148122   6.888   7.011   6.014
15926SOL    HW248123   6.743   6.936   6.006
15927SOL     OW48124   6.858   7.031   6.728
15927SOL    HW148125   6.905   7.044   6.815
15927SOL    HW248126   6.792   6.957   6.737
15928SOL     OW48127   7.168   6.225   6.058
15928SOL    HW148128   7.137   6.286   6.131
15928SOL    HW248129   7.218   6.277   5.989
15929SOL     OW48130   5.940   7.096   6.915
15929SOL    HW148131   5.919   7.052   6.828
15929SOL    HW248132   6.037   7.122   6.918
15930SOL     OW48133   5.988   6.337   7.184
15930SOL    HW148134   6.056   6.392   7.137
15930SOL    HW248135   6.028   6.249   7.211
15931SOL     OW48136   7.173   6.365   7.256
15931SOL    HW148137   7.081   6.403   7.251
15931SOL    HW248138   7.233   6.412   7.191
15932SOL     OW48139   6.599   5.691   7.356
15932SOL    HW148140   6.605   5.776   7.304
15932SOL    HW248141   6.631   5.615   7.299
15933SOL     OW48142   6.090   5.636   7.326
15933SOL    HW148143   6.048   5.579   7.256
15933SOL    HW248144   6.024   5.705   7.358
15934SOL     OW48145   6.159   6.456   6.615
15934SOL    HW148146   6.203   6.545   6.606
15934SOL    HW248147   6.096   6.456   6.692
15935SOL     OW48148   6.946   6.448   6.631
15935SOL    HW148149   6.871   6.448   6.565
15935SOL    HW248150   6.983   6.356   6.640
15936SOL     OW48151   6.795   6.111   5.861
15936SOL    HW148152   6.808   6.027   5.915
15936SOL    HW248153   6.766   6.185   5.921
15937SOL     OW48154   5.893   5.799   6.817
15937SOL    HW148155   5.870   5.836   6.907
15937SOL    HW248156   5.863   5.704   6.811
15938SOL     OW48157   5.623   6.896   6.868
15938SOL    HW148158   5.676   6.847   6.936
15938SOL    HW248159   5.645   6.994   6.873
15939SOL     OW48160   6.318   6.220   6.650
15939SOL    HW148161   6.377   6.194   6.574
15939SOL    HW248162   6.290   6.316   6.639
15940SOL     OW48163   7.314   6.521   7.440
15940SOL    HW148164   7.268   6.514   7.351
15940SOL    HW248165   7.252   6.565   7.506
15941SOL     OW48166   5.893   5.649   6.204
15941SOL    HW148167   5.882   5.743   6.237
15941SOL    HW248168   5.888   5.586   6.281
15942SOL     OW48169   7.208   5.953   5.960
15942SOL    HW148170   7.210   5.877   6.024
15942SOL    HW248171   7.160   6.030   6.000
15943SOL     OW48172   6.609   6.352   6.552
15943SOL    HW148173   6.624   6.373   6.648
15943SOL    HW248174   6.579   6.257   6.543
15944SOL     OW48175   6.566   7.159   7.286
15944SOL    HW148176   6.546   7.203   7.198
15944SOL    HW248177   6.605   7.068   7.270
15945SOL     OW48178   7.445   7.104   7.191
15945SOL    HW148179   7.459   7.131   7.096
15945SOL    HW248180   7.528   7.126   7.244
15946SOL     OW48181   5.936   6.484   7.390
15946SOL    HW148182   6.012   6.528   7.438
15946SOL    HW248183   5.971   6.437   7.308
15947SOL     OW48184   7.126   5.860   5.711
15947SOL    HW148185   7.065   5.785   5.734
15947SOL    HW248186   7.148   5.912   5.794
15948SOL     OW48187   6.889   6.424   5.628
15948SOL    HW148188   6.923   6.331   5.643
15948SOL    HW248189   6.907   6.451   5.533
15949SOL     OW48190   6.654   6.919   6.435
15949SOL    HW148191   6.661   6.835   6.380
15949SOL    HW248192   6.716   6.988   6.399
15950SOL     OW48193   5.905   6.396   6.535
15950SOL    HW148194   5.998   6.432   6.540
15950SOL    HW248195   5.899   6.311   6.587
15951SOL     OW48196   5.925   6.095   6.592
15951SOL    HW148197   5.873   6.012   6.575
15951SOL    HW248198   6.002   6.100   6.528
15952SOL     OW48199   6.724   5.966   7.264
15952SOL    HW148200   6.679   6.029   7.328
15952SOL    HW248201   6.817   5.997   7.247
15953SOL     OW48202   6.746   5.793   7.063
15953SOL    HW148203   6.746   5.857   7.140
15953SOL    HW248204   6.774   5.841   6.980
15954SOL     OW48205   5.594   6.912   5.786
15954SOL    HW148206   5.501   6.933   5.755
15954SOL    HW248207   5.604   6.813   5.799
15955SOL     OW48208   5.674   7.387   6.513
15955SOL    HW148209   5.632   7.301   6.486
15955SOL    HW248210   5.768   7.390   6.479
15956SOL     OW48211   6.090   7.154   6.496
15956SOL    HW148212   6.156   7.228   6.505
15956SOL    HW248213   6.134   7.075   6.454
15957SOL     OW48214   6.588   6.382   6.824
15957SOL    HW148215   6.629   6.350   6.910
15957SOL    HW248216   6.492   6.355   6.821
15958SOL     OW48217   5.626   6.130   6.700
15958SOL    HW148218   5.711   6.097   6.659
15958SOL    HW248219   5.639   6.145   6.798
15959SOL     OW48220   5.775   6.106   7.308
15959SOL    HW148221   5.834   6.066   7.238
15959SOL    HW248222   5.717   6.177   7.267
15960SOL     OW48223   6.955   6.536   7.246
15960SOL    HW148224   6.994   6.625   7.266
15960SOL    HW248225   6.965   6.516   7.149
15961SOL     OW48226   6.401   6.158   5.911
15961SOL    HW148227   6.408   6.069   5.865
15961SOL    HW248228   6.307   6.192   5.903
15962SOL     OW48229   7.243   6.190   6.792
15962SOL    HW148230   7.205   6.121   6.854
15962SOL    HW248231   7.325   6.154   6.748
15963SOL     OW48232   5.838   7.150   7.330
15963SOL    HW148233   5.808   7.207   7.406
15963SOL    HW248234   5.831   7.053   7.356
15964SOL     OW48235   6.257   6.050   6.855
15964SOL    HW148236   6.223   5.961   6.825
15964SOL    HW248237   6.283   6.104   6.775
15965SOL     OW48238   6.516   7.264   7.051
15965SOL    HW148239   6.492   7.246   6.956
15965SOL    HW248240   6.546   7.358   7.061
15966SOL     OW48241   6.059   6.086   5.777
15966SOL    HW148242   6.120   6.166   5.781
15966SOL    HW248243   5.964   6.117   5.784
15967SOL     OW48244   5.745   6.723   7.052
15967SOL    HW148245   5.767   6.662   7.128
15967SOL    HW248246   5.755   6.674   6.966
15968SOL     OW48247   6.933   6.645   6.820
15968SOL    HW148248   6.957   6.582   6.746
15968SOL    HW248249   6.843   6.685   6.802
15969SOL     OW48250   6.888   6.441   5.895
15969SOL    HW148251   6.802   6.410   5.937
15969SOL    HW248252   6.884   6.427   5.796
15970SOL     OW48253   7.345   7.333   6.740
15970SOL    HW148254   7.406   7.363   6.667
15970SOL    HW248255   7.307   7.244   6.718
15971SOL     OW48256   6.838   7.317   6.714
15971SOL    HW148257   6.922   7.322   6.660
15971SOL    HW248258   6.815   7.221   6.732
15972SOL     OW48259   5.669   6.844   6.608
15972SOL    HW148260   5.664   6.843   6.708
15972SOL    HW248261   5.586   6.803   6.570
15973SOL     OW48262   6.274   7.248   7.302
15973SOL    HW148263   6.218   7.329   7.311
15973SOL    HW248264   6.326   7.252   7.216
15974SOL     OW48265   7.312   5.721   6.109
15974SOL    HW148266   7.385   5.704   6.042
15974SOL    HW248267   7.281   5.634   6.147
15975SOL     OW48268   6.974   7.159   6.063
15975SOL    HW148269   7.041   7.171   5.989
15975SOL    HW248270   6.934   7.248   6.086
15976SOL     OW48271   5.716   7.380   7.437
15976SOL    HW148272   5.675   7.306   7.490
15976SOL    HW248273   5.780   7.431   7.495
15977SOL     OW48274   6.866   6.513   6.258
15977SOL    HW148275   6.926   6.432   6.260
15977SOL    HW248276   6.906   6.582   6.198
15978SOL     OW48277   6.416   6.859   7.008
15978SOL    HW148278   6.411   6.892   7.103
15978SOL    HW248279   6.330   6.878   6.962
15979SOL     OW48280   6.258   7.202   5.740
15979SOL    HW148281   6.267   7.212   5.641
15979SOL    HW248282   6.218   7.113   5.761
15980SOL     OW48283   7.236   7.306   6.980
15980SOL    HW148284   7.289   7.316   6.896
15980SOL    HW248285   7.209   7.396   7.014
15981SOL     OW48286   7.427   5.761   6.549
15981SOL    HW148287   7.466   5.676   6.513
15981SOL    HW248288   7.329   5.763   6.530
15982SOL     OW48289   5.849   5.912   6.306
15982SOL    HW148290   5.770   5.963   6.272
15982SOL    HW248291   5.840   5.897   6.404
15983SOL     OW48292   6.780   7.198   5.617
15983SOL    HW148293   6.786   7.105   5.654
15983SOL    HW248294   6.721   7.198   5.537
15984SOL     OW48295   6.408   6.588   6.958
15984SOL    HW148296   6.448   6.587   6.866
15984SOL    HW248297   6.418   6.680   6.998
15985SOL     OW48298   6.502   6.496   5.877
15985SOL    HW148299   6.565   6.534   5.809
15985SOL    HW248300   6.542   6.413   5.916
15986SOL     OW48301   7.090   7.193   5.630
15986SOL    HW148302   6.998   7.230   5.637
15986SOL    HW248303   7.128   7.213   5.540
15987SOL     OW48304   5.958   6.874   7.076
15987SOL    HW148305   5.945   6.967   7.042
15987SOL    HW248306   5.874   6.822   7.063
15988SOL     OW48307   7.200   6.878   6.875
15988SOL    HW148308   7.260   6.881   6.955
15988SOL    HW248309   7.125   6.942   6.888
15989SOL     OW48310   6.625   6.684   6.282
15989SOL    HW148311   6.555   6.637   6.336
15989SOL    HW248312   6.684   6.616   6.239
15990SOL     OW48313   6.600   5.822   6.557
15990SOL    HW148314   6.592   5.786   6.464
15990SOL    HW248315   6.598   5.746   6.622
15991SOL     OW48316   6.176   7.073   6.077
15991SOL    HW148317   6.218   7.015   6.007
15991SOL    HW248318   6.132   7.152   6.033
15992SOL     OW48319   7.295   5.971   6.967
15992SOL    HW148320   7.368   6.040   6.971
15992SOL    HW248321   7.323   5.896   6.908
15993SOL     OW48322   5.841   6.934   5.876
15993SOL    HW148323   5.745   6.935   5.849
15993SOL    HW248324   5.853   6.987   5.960
15994SOL     OW48325   5.691   6.599   7.312
15994SOL    HW148326   5.614   6.566   7.366
15994SOL    HW248327   5.776   6.569   7.354
15995SOL     OW48328   6.258   5.789   7.075
15995SOL    HW148329   6.348   5.773   7.035
15995SOL    HW248330   6.266   5.794   7.174
15996SOL     OW48331   5.661   5.931   5.619
15996SOL    HW148332   5.569   5.903   5.590
15996SOL    HW248333   5.692   6.008   5.563
15997SOL     OW48334   7.026   6.442   6.984
15997SOL    HW148335   6.969   6.494   6.921
15997SOL    HW248336   7.122   6.454   6.960
15998SOL     OW48337   5.658   5.752   5.904
15998SOL    HW148338   5.641   5.835   5.850
15998SOL    HW248339   5.748   5.715   5.882
15999SOL     OW48340   6.769   6.921   5.705
15999SOL    HW148341   6.670   6.910   5.707
15999SOL    HW248342   6.803   6.936   5.798
16000SOL     OW48343   6.199   6.428   7.017
16000SOL    HW148344   6.255   6.509   7.000
16000SOL    HW248345   6.258   6.348   7.020
16001SOL     OW48346   7.079   7.353   6.545
16001SOL    HW148347   7.112   7.417   6.476
16001SOL    HW248348   7.145   7.347   6.620
16002SOL     OW48349   6.302   6.151   7.294
16002SOL    HW148350   6.321   6.216   7.368
16002SOL    HW248351   6.362   6.071   7.303
16003SOL     OW48352   7.036   6.806   7.219
16003SOL    HW148353   7.027   6.796   7.318
16003SOL    HW248354   7.132   6.799   7.193
16004SOL     OW48355   5.976   7.327   7.146
16004SOL    HW148356   5.885   7.368   7.144
16004SOL    HW248357   5.969   7.233   7.178
16005SOL     OW48358   7.260   6.469   6.840
16005SOL    HW148359   7.233   6.380   6.803
16005SOL    HW248360   7.261   6.537   6.767
16006SOL     OW48361   6.811   5.911   6.035
16006SOL    HW148362   6.876   5.837   6.024
16006SOL    HW248363   6.831   5.961   6.119
16007SOL     OW48364   6.180   6.331   6.238
16007SOL    HW148365   6.230   6.416   6.219
16007SOL    HW248366   6.092   6.333   6.190
16008SOL     OW48367   7.363   5.928   7.228
16008SOL    HW148368   7.346   5.959   7.134
16008SOL    HW248369   7.279   5.891   7.266
16009SOL     OW48370   7.316   6.520   7.103
16009SOL    HW148371   7.354   6.611   7.118
16009SOL    HW248372   7.308   6.503   7.004
16010SOL     OW48373   6.445   6.960   5.602
16010SOL    HW148374   6.399   6.975   5.690
16010SOL    HW248375   6.489   7.045   5.572
16011SOL     OW48376   6.247   7.376   6.539
16011SOL    HW148377   6.201   7.464   6.526
16011SOL    HW248378   6.346   7.388   6.532
16012SOL     OW48379   6.445   6.542   6.447
16012SOL    HW148380   6.499   6.473   6.495
16012SOL    HW248381   6.413   6.611   6.513
16013SOL     OW48382   6.669   6.570   5.673
16013SOL    HW148383   6.646   6.623   5.591
16013SOL    HW248384   6.750   6.514   5.654
16014SOL     OW48385   7.447   7.155   6.437
16014SOL    HW148386   7.376   7.143   6.367
16014SOL    HW248387   7.448   7.076   6.497
16015SOL     OW48388   5.807   6.900   7.430
16015SOL    HW148389   5.742   6.827   7.409
16015SOL    HW248390   5.811   6.914   7.528
16016SOL     OW48391   5.665   6.826   6.239
16016SOL    HW148392   5.664   6.779   6.327
16016SOL    HW248393   5.747   6.798   6.188
16017SOL     OW48394   6.258   6.977   7.210
16017SOL    HW148395   6.180   6.927   7.248
16017SOL    HW248396   6.255   7.072   7.241
16018SOL     OW48397   7.410   5.778   6.813
16018SOL    HW148398   7.406   5.688   6.857
16018SOL    HW248399   7.413   5.767   6.714
16019SOL     OW48400   6.014   6.010   6.106
16019SOL    HW148401   6.044   5.938   6.044
16019SOL    HW248402   5.975   5.970   6.189
16020SOL     OW48403   7.291   7.073   6.690
16020SOL    HW148404   7.198   7.048   6.663
16020SOL    HW248405   7.317   7.023   6.772
16021SOL     OW48406   5.903   6.133   6.866
16021SOL    HW148407   5.941   6.074   6.938
16021SOL    HW248408   5.943   6.107   6.778
16022SOL     OW48409   6.398   7.172   6.273
16022SOL    HW148410   6.430   7.182   6.179
16022SOL    HW248411   6.319   7.110   6.275
16023SOL     OW48412   7.010   5.800   6.698
16023SOL    HW148413   7.062   5.735   6.753
16023SOL    HW248414   6.961   5.863   6.759
16024SOL     OW48415   6.587   5.620   6.740
16024SOL    HW148416   6.524   5.548   6.709
16024SOL    HW248417   6.680   5.584   6.740
16025SOL     OW48418   6.356   6.916   5.887
16025SOL    HW148419   6.310   6.829   5.904
16025SOL    HW248420   6.447   6.913   5.928
16026SOL     OW48421   6.204   7.153   6.870
16026SOL    HW148422   6.199   7.235   6.927
16026SOL    HW248423   6.293   7.150   6.825
16027SOL     OW48424   6.938   5.638   5.754
16027SOL    HW148425   6.973   5.597   5.670
16027SOL    HW248426   6.848   5.600   5.774
16028SOL     OW48427   6.886   6.039   6.277
16028SOL    HW148428   6.827   6.119   6.281
16028SOL    HW248429   6.901   6.004   6.370
16029SOL     OW48430   7.179   5.807   6.468
16029SOL    HW148431   7.095   5.806   6.522
16029SOL    HW248432   7.181   5.890   6.412
16030SOL     OW48433   5.625   6.663   5.886
16030SOL    HW148434   5.724   6.652   5.877
16030SOL    HW248435   5.585   6.577   5.918
16031SOL     OW48436   6.461   7.232   5.923
16031SOL    HW148437   6.384   7.197   5.869
16031SOL    HW248438   6.429   7.303   5.985
16032SOL     OW48439   5.816   6.214   7.561
16032SOL    HW148440   5.723   6.212   7.598
16032SOL    HW248441   5.817   6.175   7.469
16033SOL     OW48442   7.341   6.193   7.679
16033SOL    HW148443   7.329   6.180   7.580
16033SOL    HW248444   7.311   6.112   7.728
16034SOL     OW48445   5.817   7.299   7.931
16034SOL    HW148446   5.851   7.376   7.985
16034SOL    HW248447   5.861   7.299   7.841
16035SOL     OW48448   5.613   7.182   7.565
16035SOL    HW148449   5.594   7.086   7.586
16035SOL    HW248450   5.580   7.240   7.640
16036SOL     OW48451   7.111   6.585   7.638
16036SOL    HW148452   7.048   6.509   7.651
16036SOL    HW248453   7.159   6.603   7.724
16037SOL     OW48454   6.184   6.315   7.718
16037SOL    HW148455   6.208   6.384   7.650
16037SOL    HW248456   6.106   6.348   7.772
16038SOL     OW48457   6.451   5.934   7.643
16038SOL    HW148458   6.510   5.997   7.594
16038SOL    HW248459   6.470   5.840   7.614
16039SOL     OW48460   5.907   6.529   7.690
16039SOL    HW148461   5.989   6.568   7.648
16039SOL    HW248462   5.880   6.447   7.641
16040SOL     OW48463   6.697   7.362   7.685
16040SOL    HW148464   6.637   7.300   7.735
16040SOL    HW248465   6.728   7.318   7.600
16041SOL     OW48466   7.218   6.963   7.529
16041SOL    HW148467   7.186   7.057   7.519
16041SOL    HW248468   7.142   6.900   7.517
16042SOL     OW48469   6.050   7.329   7.771
16042SOL    HW148470   6.083   7.368   7.857
16042SOL    HW248471   6.126   7.322   7.706
16043SOL     OW48472   5.968   6.286   7.928
16043SOL    HW148473   6.013   6.196   7.925
16043SOL    HW248474   5.874   6.275   7.961
16044SOL     OW48475   6.200   5.708   7.565
16044SOL    HW148476   6.298   5.686   7.572
16044SOL    HW248477   6.169   5.691   7.472
16045SOL     OW48478   7.020   6.774   7.489
16045SOL    HW148479   7.052   6.698   7.546
16045SOL    HW248480   6.928   6.801   7.519
16046SOL     OW48481   5.883   5.621   7.619
16046SOL    HW148482   5.932   5.705   7.598
16046SOL    HW248483   5.945   5.556   7.664
16047SOL     OW48484   6.618   6.135   7.464
16047SOL    HW148485   6.577   6.217   7.425
16047SOL    HW248486   6.682   6.161   7.537
16048SOL     OW48487   6.074   6.971   7.622
16048SOL    HW148488   5.987   6.956   7.669
16048SOL    HW248489   6.057   6.997   7.527
16049SOL     OW48490   6.976   6.161   7.526
16049SOL    HW148491   6.922   6.140   7.607
16049SOL    HW248492   7.067   6.120   7.535
16050SOL     OW48493   5.953   6.686   7.949
16050SOL    HW148494   5.946   6.769   7.893
16050SOL    HW248495   5.957   6.606   7.889
16051SOL     OW48496   6.795   6.111   7.723
16051SOL    HW148497   6.808   6.027   7.777
16051SOL    HW248498   6.766   6.185   7.783
16052SOL     OW48499   6.889   6.424   7.490
16052SOL    HW148500   6.923   6.331   7.505
16052SOL    HW248501   6.907   6.451   7.395
16053SOL     OW48502   5.594   6.912   7.648
16053SOL    HW148503   5.501   6.933   7.617
16053SOL    HW248504   5.604   6.813   7.661
16054SOL     OW48505   6.059   6.086   7.639
16054SOL    HW148506   6.120   6.166   7.643
16054SOL    HW248507   5.964   6.117   7.646
16055SOL     OW48508   6.258   7.202   7.602
16055SOL    HW148509   6.267   7.212   7.503
16055SOL    HW248510   6.218   7.113   7.623
16056SOL     OW48511   6.780   7.198   7.479
16056SOL    HW148512   6.786   7.105   7.516
16056SOL    HW248513   6.721   7.198   7.399
16057SOL     OW48514   7.090   7.193   7.492
16057SOL    HW148515   6.998   7.230   7.499
16057SOL    HW248516   7.128   7.213   7.402
16058SOL     OW48517   6.176   7.073   7.939
16058SOL    HW148518   6.218   7.015   7.869
16058SOL    HW248519   6.132   7.152   7.895
16059SOL     OW48520   5.841   6.934   7.738
16059SOL    HW148521   5.745   6.935   7.711
16059SOL    HW248522   5.853   6.987   7.822
16060SOL     OW48523   5.661   5.931   7.481
16060SOL    HW148524   5.569   5.903   7.452
16060SOL    HW248525   5.692   6.008   7.425
16061SOL     OW48526   5.658   5.752   7.766
16061SOL    HW148527   5.641   5.835   7.712
16061SOL    HW248528   5.748   5.715   7.744
16062SOL     OW48529   6.769   6.921   7.567
16062SOL    HW148530   6.670   6.910   7.569
16062SOL    HW248531   6.803   6.936   7.660
16063SOL     OW48532   6.445   6.960   7.464
16063SOL    HW148533   6.399   6.975   7.552
16063SOL    HW248534   6.489   7.045   7.434
16064SOL     OW48535   6.669   6.570   7.535
16064SOL    HW148536   6.646   6.623   7.453
16064SOL    HW248537   6.750   6.514   7.516
16065SOL     OW48538   6.014   6.010   7.968
16065SOL    HW148539   6.044   5.938   7.906
16065SOL    HW248540   5.975   5.970   8.051
16066SOL     OW48541   6.938   5.638   7.616
16066SOL    HW148542   6.973   5.597   7.532
16066SOL    HW248543   6.848   5.600   7.636
16067SOL     OW48544   5.625   6.663   7.748
16067SOL    HW148545   5.724   6.652   7.739
16067SOL    HW248546   5.585   6.577   7.780
16068SOL     OW48547   6.461   7.232   7.785
16068SOL    HW148548   6.384   7.197   7.731
16068SOL    HW248549   6.429   7.303   7.847
16069SOL     OW48550   5.816   8.076   0.113
16069SOL    HW148551   5.723   8.074   0.150
16069SOL    HW248552   5.817   8.037   0.021
16070SOL     OW48553   5.811   7.723   0.996
16070SOL    HW148554   5.846   7.706   1.088
16070SOL    HW248555   5.723   7.678   0.984
16071SOL     OW48556   5.605   7.816   0.647
16071SOL    HW148557   5.523   7.859   0.686
16071SOL    HW248558   5.577   7.743   0.584
16072SOL     OW48559   6.354   8.592   1.023
16072SOL    HW148560   6.276   8.609   1.083
16072SOL    HW248561   6.388   8.679   0.987
16073SOL     OW48562   6.436   8.246   1.823
16073SOL    HW148563   6.432   8.322   1.888
16073SOL    HW248564   6.458   8.282   1.732
16074SOL     OW48565   6.271   8.460   0.665
16074SOL    HW148566   6.340   8.444   0.735
16074SOL    HW248567   6.198   8.517   0.703
16075SOL     OW48568   6.272   8.609   1.803
16075SOL    HW148569   6.332   8.688   1.817
16075SOL    HW248570   6.186   8.640   1.762
16076SOL     OW48571   6.024   7.840   1.499
16076SOL    HW148572   6.106   7.784   1.508
16076SOL    HW248573   5.943   7.782   1.503
16077SOL     OW48574   7.189   7.895   0.737
16077SOL    HW148575   7.115   7.941   0.687
16077SOL    HW248576   7.240   7.963   0.790
16078SOL     OW48577   6.713   8.789   1.690
16078SOL    HW148578   6.760   8.789   1.778
16078SOL    HW248579   6.665   8.702   1.679
16079SOL     OW48580   5.826   8.539   0.886
16079SOL    HW148581   5.840   8.455   0.938
16079SOL    HW248582   5.771   8.603   0.941
16080SOL     OW48583   6.192   8.412   0.123
16080SOL    HW148584   6.199   8.496   0.069
16080SOL    HW248585   6.238   8.425   0.211
16081SOL     OW48586   7.180   7.562   1.480
16081SOL    HW148587   7.162   7.629   1.408
16081SOL    HW248588   7.177   7.608   1.569
16082SOL     OW48589   5.708   8.091   0.563
16082SOL    HW148590   5.663   8.003   0.580
16082SOL    HW248591   5.707   8.145   0.647
16083SOL     OW48592   7.275   8.370   0.612
16083SOL    HW148593   7.370   8.341   0.620
16083SOL    HW248594   7.267   8.435   0.537
16084SOL     OW48595   7.227   8.556   0.432
16084SOL    HW148596   7.313   8.558   0.380
16084SOL    HW248597   7.241   8.603   0.520
16085SOL     OW48598   5.699   8.185   1.597
16085SOL    HW148599   5.787   8.172   1.642
16085SOL    HW248600   5.686   8.282   1.575
16086SOL     OW48601   6.199   8.813   0.726
16086SOL    HW148602   6.150   8.726   0.735
16086SOL    HW248603   6.176   8.856   0.639
16087SOL     OW48604   6.879   8.676   1.423
16087SOL    HW148605   6.916   8.603   1.365
16087SOL    HW248606   6.931   8.681   1.508
16088SOL     OW48607   6.395   7.452   0.502
16088SOL    HW148608   6.435   7.543   0.493
16088SOL    HW248609   6.295   7.460   0.508
16089SOL     OW48610   5.783   8.424   1.264
16089SOL    HW148611   5.872   8.379   1.250
16089SOL    HW248612   5.710   8.359   1.245
16090SOL     OW48613   5.903   7.699   1.801
16090SOL    HW148614   5.974   7.770   1.807
16090SOL    HW248615   5.815   7.738   1.829
16091SOL     OW48616   7.052   8.865   0.953
16091SOL    HW148617   6.993   8.871   1.033
16091SOL    HW248618   7.037   8.777   0.907
16092SOL     OW48619   6.184   8.177   0.270
16092SOL    HW148620   6.208   8.246   0.202
16092SOL    HW248621   6.106   8.210   0.324
16093SOL     OW48622   6.867   7.793   0.944
16093SOL    HW148623   6.781   7.743   0.931
16093SOL    HW248624   6.929   7.739   1.000
16094SOL     OW48625   6.393   8.053   1.465
16094SOL    HW148626   6.346   8.050   1.554
16094SOL    HW248627   6.342   7.998   1.399
16095SOL     OW48628   6.980   7.917   1.674
16095SOL    HW148629   6.960   7.960   1.762
16095SOL    HW248630   7.058   7.855   1.683
16096SOL     OW48631   6.559   8.338   1.572
16096SOL    HW148632   6.605   8.254   1.543
16096SOL    HW248633   6.503   8.372   1.497
16097SOL     OW48634   6.577   7.858   1.242
16097SOL    HW148635   6.500   7.892   1.296
16097SOL    HW248636   6.543   7.807   1.163
16098SOL     OW48637   5.662   8.259   0.789
16098SOL    HW148638   5.761   8.247   0.798
16098SOL    HW248639   5.638   8.354   0.810
16099SOL     OW48640   7.305   8.033   1.831
16099SOL    HW148641   7.279   8.122   1.795
16099SOL    HW248642   7.303   7.965   1.758
16100SOL     OW48643   6.948   8.592   0.545
16100SOL    HW148644   7.031   8.563   0.497
16100SOL    HW248645   6.899   8.659   0.489
16101SOL     OW48646   6.136   7.644   0.885
16101SOL    HW148647   6.131   7.639   0.985
16101SOL    HW248648   6.138   7.740   0.856
16102SOL     OW48649   7.381   8.514   0.873
16102SOL    HW148650   7.319   8.499   0.797
16102SOL    HW248651   7.329   8.525   0.958
16103SOL     OW48652   6.813   8.998   1.506
16103SOL    HW148653   6.819   8.921   1.570
16103SOL    HW248654   6.761   8.972   1.426
16104SOL     OW48655   5.907   8.391   0.242
16104SOL    HW148656   5.989   8.430   0.200
16104SOL    HW248657   5.880   8.309   0.193
16105SOL     OW48658   7.044   8.183   0.728
16105SOL    HW148659   7.039   8.118   0.803
16105SOL    HW248660   7.124   8.242   0.741
16106SOL     OW48661   6.047   8.714   1.727
16106SOL    HW148662   5.997   8.715   1.641
16106SOL    HW248663   5.984   8.696   1.803
16107SOL     OW48664   5.788   7.733   1.498
16107SOL    HW148665   5.708   7.793   1.485
16107SOL    HW248666   5.778   7.684   1.584
16108SOL     OW48667   6.986   7.555   0.426
16108SOL    HW148668   6.962   7.518   0.336
16108SOL    HW248669   7.085   7.571   0.430
16109SOL     OW48670   5.968   8.148   0.480
16109SOL    HW148671   6.013   8.058   0.477
16109SOL    HW248672   5.874   8.137   0.513
16110SOL     OW48673   7.133   7.670   1.729
16110SOL    HW148674   7.128   7.707   1.821
16110SOL    HW248675   7.061   7.601   1.717
16111SOL     OW48676   6.200   7.570   0.117
16111SOL    HW148677   6.298   7.548   0.124
16111SOL    HW248678   6.169   7.553   0.024
16112SOL     OW48679   6.367   7.712   1.749
16112SOL    HW148680   6.434   7.651   1.792
16112SOL    HW248681   6.294   7.731   1.814
16113SOL     OW48682   6.937   8.038   1.433
16113SOL    HW148683   6.965   7.995   1.518
16113SOL    HW248684   6.962   8.134   1.434
16114SOL     OW48685   6.389   8.850   0.924
16114SOL    HW148686   6.479   8.864   0.882
16114SOL    HW248687   6.318   8.852   0.853
16115SOL     OW48688   6.508   7.951   0.899
16115SOL    HW148689   6.483   7.942   0.803
16115SOL    HW248690   6.556   7.869   0.930
16116SOL     OW48691   6.125   7.512   0.512
16116SOL    HW148692   6.044   7.513   0.570
16116SOL    HW248693   6.128   7.595   0.457
16117SOL     OW48694   5.883   7.483   0.171
16117SOL    HW148695   5.932   7.567   0.150
16117SOL    HW248696   5.945   7.418   0.216
16118SOL     OW48697   6.521   7.684   0.480
16118SOL    HW148698   6.473   7.725   0.402
16118SOL    HW248699   6.620   7.682   0.461
16119SOL     OW48700   6.662   8.131   1.464
16119SOL    HW148701   6.582   8.070   1.467
16119SOL    HW248702   6.743   8.078   1.440
16120SOL     OW48703   6.045   8.600   0.741
16120SOL    HW148704   5.974   8.573   0.806
16120SOL    HW248705   6.019   8.572   0.648
16121SOL     OW48706   5.664   8.004   1.386
16121SOL    HW148707   5.756   8.003   1.345
16121SOL    HW248708   5.658   8.078   1.453
16122SOL     OW48709   6.147   7.670   1.147
16122SOL    HW148710   6.185   7.586   1.184
16122SOL    HW248711   6.059   7.689   1.191
16123SOL     OW48712   6.452   7.902   0.642
16123SOL    HW148713   6.420   7.974   0.580
16123SOL    HW248714   6.476   7.821   0.589
16124SOL     OW48715   6.603   7.487   0.753
16124SOL    HW148716   6.531   7.492   0.684
16124SOL    HW248717   6.579   7.418   0.822
16125SOL     OW48718   7.015   8.621   0.867
16125SOL    HW148719   6.960   8.537   0.860
16125SOL    HW248720   7.041   8.650   0.775
16126SOL     OW48721   7.052   8.038   0.992
16126SOL    HW148722   7.022   7.943   0.999
16126SOL    HW248723   7.125   8.054   1.058
16127SOL     OW48724   7.443   8.281   0.377
16127SOL    HW148725   7.485   8.217   0.441
16127SOL    HW248726   7.405   8.230   0.299
16128SOL     OW48727   6.113   7.704   0.328
16128SOL    HW148728   6.140   7.645   0.253
16128SOL    HW248729   6.113   7.799   0.297
16129SOL     OW48730   6.650   8.795   1.340
16129SOL    HW148731   6.570   8.772   1.395
16129SOL    HW248732   6.733   8.769   1.389
16130SOL     OW48733   6.697   8.643   1.100
16130SOL    HW148734   6.657   8.687   1.181
16130SOL    HW248735   6.656   8.680   1.017
16131SOL     OW48736   7.224   8.547   1.079
16131SOL    HW148737   7.229   8.628   1.138
16131SOL    HW248738   7.138   8.549   1.028
16132SOL     OW48739   6.501   7.537   1.402
16132SOL    HW148740   6.526   7.517   1.307
16132SOL    HW248741   6.573   7.593   1.444
16133SOL     OW48742   6.566   8.564   1.719
16133SOL    HW148743   6.467   8.570   1.729
16133SOL    HW248744   6.589   8.484   1.663
16134SOL     OW48745   6.291   8.498   0.368
16134SOL    HW148746   6.277   8.505   0.467
16134SOL    HW248747   6.375   8.447   0.350
16135SOL     OW48748   5.996   8.261   1.251
16135SOL    HW148749   6.082   8.273   1.301
16135SOL    HW248750   5.954   8.174   1.278
16136SOL     OW48751   6.860   7.834   1.262
16136SOL    HW148752   6.881   7.908   1.326
16136SOL    HW248753   6.771   7.851   1.219
16137SOL     OW48754   5.953   8.548   0.501
16137SOL    HW148755   5.946   8.631   0.445
16137SOL    HW248756   5.957   8.468   0.441
16138SOL     OW48757   6.152   7.985   0.865
16138SOL    HW148758   6.164   8.051   0.791
16138SOL    HW248759   6.198   8.019   0.948
16139SOL     OW48760   6.838   8.796   0.388
16139SOL    HW148761   6.888   8.873   0.428
16139SOL    HW248762   6.743   8.798   0.420
16140SOL     OW48763   7.168   8.087   0.472
16140SOL    HW148764   7.137   8.148   0.545
16140SOL    HW248765   7.218   8.139   0.403
16141SOL     OW48766   5.988   8.199   1.598
16141SOL    HW148767   6.056   8.254   1.551
16141SOL    HW248768   6.028   8.111   1.625
16142SOL     OW48769   7.173   8.227   1.670
16142SOL    HW148770   7.081   8.265   1.665
16142SOL    HW248771   7.233   8.274   1.605
16143SOL     OW48772   6.599   7.553   1.770
16143SOL    HW148773   6.605   7.638   1.718
16143SOL    HW248774   6.631   7.477   1.713
16144SOL     OW48775   6.090   7.498   1.740
16144SOL    HW148776   6.048   7.441   1.670
16144SOL    HW248777   6.024   7.567   1.772
16145SOL     OW48778   6.159   8.318   1.029
16145SOL    HW148779   6.203   8.407   1.020
16145SOL    HW248780   6.096   8.318   1.106
16146SOL     OW48781   6.946   8.310   1.045
16146SOL    HW148782   6.871   8.310   0.979
16146SOL    HW248783   6.983   8.218   1.054
16147SOL     OW48784   5.893   7.661   1.231
16147SOL    HW148785   5.870   7.698   1.321
16147SOL    HW248786   5.863   7.566   1.225
16148SOL     OW48787   5.623   8.758   1.282
16148SOL    HW148788   5.676   8.709   1.350
16148SOL    HW248789   5.645   8.856   1.287
16149SOL     OW48790   6.318   8.082   1.064
16149SOL    HW148791   6.377   8.056   0.988
16149SOL    HW248792   6.290   8.178   1.053
16150SOL     OW48793   7.314   8.383   1.854
16150SOL    HW148794   7.268   8.376   1.765
16150SOL    HW248795   7.252   8.427   1.920
16151SOL     OW48796   5.893   7.511   0.618
16151SOL    HW148797   5.882   7.605   0.651
16151SOL    HW248798   5.888   7.448   0.695
16152SOL     OW48799   6.609   8.214   0.966
16152SOL    HW148800   6.624   8.235   1.062
16152SOL    HW248801   6.579   8.119   0.957
16153SOL     OW48802   5.936   8.346   1.804
16153SOL    HW148803   6.012   8.390   1.852
16153SOL    HW248804   5.971   8.299   1.722
16154SOL     OW48805   6.654   8.781   0.849
16154SOL    HW148806   6.661   8.697   0.794
16154SOL    HW248807   6.716   8.850   0.813
16155SOL     OW48808   5.905   8.258   0.949
16155SOL    HW148809   5.998   8.294   0.954
16155SOL    HW248810   5.899   8.173   1.001
16156SOL     OW48811   5.925   7.957   1.006
16156SOL    HW148812   5.873   7.874   0.989
16156SOL    HW248813   6.002   7.962   0.942
16157SOL     OW48814   6.724   7.828   1.678
16157SOL    HW148815   6.679   7.891   1.742
16157SOL    HW248816   6.817   7.859   1.661
16158SOL     OW48817   6.746   7.655   1.477
16158SOL    HW148818   6.746   7.719   1.554
16158SOL    HW248819   6.774   7.703   1.394
16159SOL     OW48820   5.594   8.774   0.200
16159SOL    HW148821   5.501   8.795   0.169
16159SOL    HW248822   5.604   8.675   0.213
16160SOL     OW48823   6.588   8.244   1.238
16160SOL    HW148824   6.629   8.212   1.324
16160SOL    HW248825   6.492   8.217   1.235
16161SOL     OW48826   5.626   7.992   1.114
16161SOL    HW148827   5.711   7.959   1.073
16161SOL    HW248828   5.639   8.007   1.212
16162SOL     OW48829   5.775   7.968   1.722
16162SOL    HW148830   5.834   7.928   1.652
16162SOL    HW248831   5.717   8.039   1.681
16163SOL     OW48832   6.955   8.398   1.660
16163SOL    HW148833   6.994   8.487   1.680
16163SOL    HW248834   6.965   8.378   1.563
16164SOL     OW48835   7.243   8.052   1.206
16164SOL    HW148836   7.205   7.983   1.268
16164SOL    HW248837   7.325   8.016   1.162
16165SOL     OW48838   6.257   7.912   1.269
16165SOL    HW148839   6.223   7.823   1.239
16165SOL    HW248840   6.283   7.966   1.189
16166SOL     OW48841   6.059   7.948   0.191
16166SOL    HW148842   6.120   8.028   0.195
16166SOL    HW248843   5.964   7.979   0.198
16167SOL     OW48844   5.745   8.585   1.466
16167SOL    HW148845   5.767   8.524   1.542
16167SOL    HW248846   5.755   8.536   1.380
16168SOL     OW48847   6.933   8.507   1.234
16168SOL    HW148848   6.957   8.444   1.160
16168SOL    HW248849   6.843   8.547   1.216
16169SOL     OW48850   5.669   8.706   1.022
16169SOL    HW148851   5.664   8.705   1.122
16169SOL    HW248852   5.586   8.665   0.984
16170SOL     OW48853   7.312   7.583   0.523
16170SOL    HW148854   7.385   7.566   0.456
16170SOL    HW248855   7.281   7.496   0.561
16171SOL     OW48856   6.974   9.021   0.477
16171SOL    HW148857   7.041   9.033   0.403
16171SOL    HW248858   6.934   9.110   0.500
16172SOL     OW48859   6.866   8.375   0.672
16172SOL    HW148860   6.926   8.294   0.674
16172SOL    HW248861   6.906   8.444   0.612
16173SOL     OW48862   6.416   8.721   1.422
16173SOL    HW148863   6.411   8.754   1.517
16173SOL    HW248864   6.330   8.740   1.376
16174SOL     OW48865   7.427   7.623   0.963
16174SOL    HW148866   7.466   7.538   0.927
16174SOL    HW248867   7.329   7.625   0.944
16175SOL     OW48868   5.849   7.774   0.720
16175SOL    HW148869   5.770   7.825   0.686
16175SOL    HW248870   5.840   7.759   0.818
16176SOL     OW48871   6.408   8.450   1.372
16176SOL    HW148872   6.448   8.449   1.280
16176SOL    HW248873   6.418   8.542   1.412
16177SOL     OW48874   6.502   8.358   0.291
16177SOL    HW148875   6.565   8.396   0.223
16177SOL    HW248876   6.542   8.275   0.330
16178SOL     OW48877   5.958   8.736   1.490
16178SOL    HW148878   5.945   8.829   1.456
16178SOL    HW248879   5.874   8.684   1.477
16179SOL     OW48880   7.200   8.740   1.289
16179SOL    HW148881   7.260   8.743   1.369
16179SOL    HW248882   7.125   8.804   1.302
16180SOL     OW48883   6.625   8.546   0.696
16180SOL    HW148884   6.555   8.499   0.750
16180SOL    HW248885   6.684   8.478   0.653
16181SOL     OW48886   6.600   7.684   0.971
16181SOL    HW148887   6.592   7.648   0.878
16181SOL    HW248888   6.598   7.608   1.036
16182SOL     OW48889   6.176   8.935   0.491
16182SOL    HW148890   6.218   8.877   0.421
16182SOL    HW248891   6.132   9.014   0.447
16183SOL     OW48892   7.295   7.833   1.381
16183SOL    HW148893   7.368   7.902   1.385
16183SOL    HW248894   7.323   7.758   1.322
16184SOL     OW48895   5.691   8.461   1.726
16184SOL    HW148896   5.614   8.428   1.780
16184SOL    HW248897   5.776   8.431   1.768
16185SOL     OW48898   6.258   7.651   1.489
16185SOL    HW148899   6.348   7.635   1.449
16185SOL    HW248900   6.266   7.656   1.588
16186SOL     OW48901   5.661   7.793   0.033
16186SOL    HW148902   5.569   7.765   0.004
16186SOL    HW248903   5.692   7.870  -0.023
16187SOL     OW48904   7.026   8.304   1.398
16187SOL    HW148905   6.969   8.356   1.335
16187SOL    HW248906   7.122   8.316   1.374
16188SOL     OW48907   5.658   7.614   0.318
16188SOL    HW148908   5.641   7.697   0.264
16188SOL    HW248909   5.748   7.577   0.296
16189SOL     OW48910   6.199   8.290   1.431
16189SOL    HW148911   6.255   8.371   1.414
16189SOL    HW248912   6.258   8.210   1.434
16190SOL     OW48913   6.302   8.013   1.708
16190SOL    HW148914   6.321   8.078   1.782
16190SOL    HW248915   6.362   7.933   1.717
16191SOL     OW48916   7.036   8.668   1.633
16191SOL    HW148917   7.027   8.658   1.732
16191SOL    HW248918   7.132   8.661   1.607
16192SOL     OW48919   5.976   9.189   1.560
16192SOL    HW148920   5.885   9.230   1.558
16192SOL    HW248921   5.969   9.095   1.592
16193SOL     OW48922   7.260   8.331   1.254
16193SOL    HW148923   7.233   8.242   1.217
16193SOL    HW248924   7.261   8.399   1.181
16194SOL     OW48925   6.811   7.773   0.449
16194SOL    HW148926   6.876   7.699   0.438
16194SOL    HW248927   6.831   7.823   0.533
16195SOL     OW48928   6.180   8.193   0.652
16195SOL    HW148929   6.230   8.278   0.633
16195SOL    HW248930   6.092   8.195   0.604
16196SOL     OW48931   7.363   7.790   1.642
16196SOL    HW148932   7.346   7.821   1.548
16196SOL    HW248933   7.279   7.753   1.680
16197SOL     OW48934   7.316   8.382   1.517
16197SOL    HW148935   7.354   8.473   1.532
16197SOL    HW248936   7.308   8.365   1.418
16198SOL     OW48937   6.445   8.404   0.861
16198SOL    HW148938   6.499   8.335   0.909
16198SOL    HW248939   6.413   8.473   0.927
16199SOL     OW48940   5.807   8.762   1.844
16199SOL    HW148941   5.742   8.689   1.823
16199SOL    HW248942   5.811   8.776   1.942
16200SOL     OW48943   5.665   8.688   0.653
16200SOL    HW148944   5.664   8.641   0.741
16200SOL    HW248945   5.747   8.660   0.602
16201SOL     OW48946   6.258   8.839   1.624
16201SOL    HW148947   6.180   8.789   1.662
16201SOL    HW248948   6.255   8.934   1.655
16202SOL     OW48949   7.410   7.640   1.227
16202SOL    HW148950   7.406   7.550   1.271
16202SOL    HW248951   7.413   7.629   1.128
16203SOL     OW48952   6.014   7.872   0.520
16203SOL    HW148953   6.044   7.800   0.458
16203SOL    HW248954   5.975   7.832   0.603
16204SOL     OW48955   7.291   8.935   1.104
16204SOL    HW148956   7.198   8.910   1.077
16204SOL    HW248957   7.317   8.885   1.186
16205SOL     OW48958   5.903   7.995   1.280
16205SOL    HW148959   5.941   7.936   1.352
16205SOL    HW248960   5.943   7.969   1.192
16206SOL     OW48961   6.398   9.034   0.687
16206SOL    HW148962   6.430   9.044   0.593
16206SOL    HW248963   6.319   8.972   0.689
16207SOL     OW48964   7.010   7.662   1.112
16207SOL    HW148965   7.062   7.597   1.167
16207SOL    HW248966   6.961   7.725   1.173
16208SOL     OW48967   6.587   7.482   1.154
16208SOL    HW148968   6.524   7.410   1.123
16208SOL    HW248969   6.680   7.446   1.154
16209SOL     OW48970   6.356   8.778   0.301
16209SOL    HW148971   6.310   8.691   0.318
16209SOL    HW248972   6.447   8.775   0.342
16210SOL     OW48973   6.886   7.901   0.691
16210SOL    HW148974   6.827   7.981   0.695
16210SOL    HW248975   6.901   7.866   0.784
16211SOL     OW48976   7.179   7.669   0.882
16211SOL    HW148977   7.095   7.668   0.936
16211SOL    HW248978   7.181   7.752   0.826
16212SOL     OW48979   5.625   8.525   0.300
16212SOL    HW148980   5.724   8.514   0.291
16212SOL    HW248981   5.585   8.439   0.332
16213SOL     OW48982   5.816   8.076   1.975
16213SOL    HW148983   5.723   8.074   2.012
16213SOL    HW248984   5.817   8.037   1.883
16214SOL     OW48985   5.811   7.723   2.858
16214SOL    HW148986   5.846   7.706   2.950
16214SOL    HW248987   5.723   7.678   2.846
16215SOL     OW48988   5.605   7.816   2.509
16215SOL    HW148989   5.523   7.859   2.548
16215SOL    HW248990   5.577   7.743   2.446
16216SOL     OW48991   6.721   8.151   2.579
16216SOL    HW148992   6.778   8.229   2.554
16216SOL    HW248993   6.661   8.177   2.655
16217SOL     OW48994   7.341   8.055   2.093
16217SOL    HW148995   7.329   8.042   1.994
16217SOL    HW248996   7.311   7.974   2.142
16218SOL     OW48997   6.354   8.592   2.885
16218SOL    HW148998   6.276   8.609   2.945
16218SOL    HW248999   6.388   8.679   2.849
16219SOL     OW49000   6.436   8.246   3.685
16219SOL    HW149001   6.432   8.322   3.750
16219SOL    HW249002   6.458   8.282   3.594
16220SOL     OW49003   6.271   8.460   2.527
16220SOL    HW149004   6.340   8.444   2.597
16220SOL    HW249005   6.198   8.517   2.565
16221SOL     OW49006   6.272   8.609   3.665
16221SOL    HW149007   6.332   8.688   3.679
16221SOL    HW249008   6.186   8.640   3.624
16222SOL     OW49009   6.024   7.840   3.361
16222SOL    HW149010   6.106   7.784   3.370
16222SOL    HW249011   5.943   7.782   3.365
16223SOL     OW49012   7.189   7.895   2.599
16223SOL    HW149013   7.115   7.941   2.549
16223SOL    HW249014   7.240   7.963   2.652
16224SOL     OW49015   6.713   8.789   3.552
16224SOL    HW149016   6.760   8.789   3.640
16224SOL    HW249017   6.665   8.702   3.541
16225SOL     OW49018   5.826   8.539   2.748
16225SOL    HW149019   5.840   8.455   2.800
16225SOL    HW249020   5.771   8.603   2.803
16226SOL     OW49021   6.192   8.412   1.985
16226SOL    HW149022   6.199   8.496   1.931
16226SOL    HW249023   6.238   8.425   2.073
16227SOL     OW49024   7.180   7.562   3.342
16227SOL    HW149025   7.162   7.629   3.270
16227SOL    HW249026   7.177   7.608   3.431
16228SOL     OW49027   7.275   8.370   2.474
16228SOL    HW149028   7.370   8.341   2.482
16228SOL    HW249029   7.267   8.435   2.399
16229SOL     OW49030   7.227   8.556   2.294
16229SOL    HW149031   7.313   8.558   2.242
16229SOL    HW249032   7.241   8.603   2.382
16230SOL     OW49033   5.699   8.185   3.459
16230SOL    HW149034   5.787   8.172   3.504
16230SOL    HW249035   5.686   8.282   3.437
16231SOL     OW49036   6.199   8.813   2.588
16231SOL    HW149037   6.150   8.726   2.597
16231SOL    HW249038   6.176   8.856   2.501
16232SOL     OW49039   6.879   8.676   3.285
16232SOL    HW149040   6.916   8.603   3.227
16232SOL    HW249041   6.931   8.681   3.370
16233SOL     OW49042   5.783   8.424   3.126
16233SOL    HW149043   5.872   8.379   3.112
16233SOL    HW249044   5.710   8.359   3.107
16234SOL     OW49045   7.111   8.447   2.052
16234SOL    HW149046   7.048   8.371   2.065
16234SOL    HW249047   7.159   8.465   2.138
16235SOL     OW49048   5.903   7.699   3.663
16235SOL    HW149049   5.974   7.770   3.669
16235SOL    HW249050   5.815   7.738   3.691
16236SOL     OW49051   7.052   8.865   2.815
16236SOL    HW149052   6.993   8.871   2.895
16236SOL    HW249053   7.037   8.777   2.769
16237SOL     OW49054   6.184   8.177   2.132
16237SOL    HW149055   6.208   8.246   2.064
16237SOL    HW249056   6.106   8.210   2.186
16238SOL     OW49057   6.867   7.793   2.806
16238SOL    HW149058   6.781   7.743   2.793
16238SOL    HW249059   6.929   7.739   2.862
16239SOL     OW49060   6.393   8.053   3.327
16239SOL    HW149061   6.346   8.050   3.416
16239SOL    HW249062   6.342   7.998   3.261
16240SOL     OW49063   6.980   7.917   3.536
16240SOL    HW149064   6.960   7.960   3.624
16240SOL    HW249065   7.058   7.855   3.545
16241SOL     OW49066   6.559   8.338   3.434
16241SOL    HW149067   6.605   8.254   3.405
16241SOL    HW249068   6.503   8.372   3.359
16242SOL     OW49069   6.577   7.858   3.104
16242SOL    HW149070   6.500   7.892   3.158
16242SOL    HW249071   6.543   7.807   3.025
16243SOL     OW49072   6.627   8.149   2.291
16243SOL    HW149073   6.653   8.145   2.387
16243SOL    HW249074   6.542   8.098   2.277
16244SOL     OW49075   5.662   8.259   2.651
16244SOL    HW149076   5.761   8.247   2.660
16244SOL    HW249077   5.638   8.354   2.672
16245SOL     OW49078   6.451   7.796   2.057
16245SOL    HW149079   6.510   7.859   2.008
16245SOL    HW249080   6.470   7.702   2.028
16246SOL     OW49081   7.305   8.033   3.693
16246SOL    HW149082   7.279   8.122   3.657
16246SOL    HW249083   7.303   7.965   3.620
16247SOL     OW49084   6.948   8.592   2.407
16247SOL    HW149085   7.031   8.563   2.359
16247SOL    HW249086   6.899   8.659   2.351
16248SOL     OW49087   6.136   7.644   2.747
16248SOL    HW149088   6.131   7.639   2.847
16248SOL    HW249089   6.138   7.740   2.718
16249SOL     OW49090   7.381   8.514   2.735
16249SOL    HW149091   7.319   8.499   2.659
16249SOL    HW249092   7.329   8.525   2.820
16250SOL     OW49093   6.813   8.998   3.368
16250SOL    HW149094   6.819   8.921   3.432
16250SOL    HW249095   6.761   8.972   3.288
16251SOL     OW49096   5.907   8.391   2.104
16251SOL    HW149097   5.989   8.430   2.062
16251SOL    HW249098   5.880   8.309   2.055
16252SOL     OW49099   7.044   8.183   2.590
16252SOL    HW149100   7.039   8.118   2.665
16252SOL    HW249101   7.124   8.242   2.603
16253SOL     OW49102   6.047   8.714   3.589
16253SOL    HW149103   5.997   8.715   3.503
16253SOL    HW249104   5.984   8.696   3.665
16254SOL     OW49105   5.788   7.733   3.360
16254SOL    HW149106   5.708   7.793   3.347
16254SOL    HW249107   5.778   7.684   3.446
16255SOL     OW49108   6.986   7.555   2.288
16255SOL    HW149109   6.962   7.518   2.198
16255SOL    HW249110   7.085   7.571   2.292
16256SOL     OW49111   5.968   8.148   2.342
16256SOL    HW149112   6.013   8.058   2.339
16256SOL    HW249113   5.874   8.137   2.375
16257SOL     OW49114   7.133   7.670   3.591
16257SOL    HW149115   7.128   7.707   3.683
16257SOL    HW249116   7.061   7.601   3.579
16258SOL     OW49117   6.367   7.712   3.611
16258SOL    HW149118   6.434   7.651   3.654
16258SOL    HW249119   6.294   7.731   3.676
16259SOL     OW49120   6.937   8.038   3.295
16259SOL    HW149121   6.965   7.995   3.380
16259SOL    HW249122   6.962   8.134   3.296
16260SOL     OW49123   6.389   8.850   2.786
16260SOL    HW149124   6.479   8.864   2.744
16260SOL    HW249125   6.318   8.852   2.715
16261SOL     OW49126   6.508   7.951   2.761
16261SOL    HW149127   6.483   7.942   2.665
16261SOL    HW249128   6.556   7.869   2.792
16262SOL     OW49129   6.125   7.512   2.374
16262SOL    HW149130   6.044   7.513   2.432
16262SOL    HW249131   6.128   7.595   2.319
16263SOL     OW49132   7.020   8.636   1.903
16263SOL    HW149133   7.052   8.560   1.960
16263SOL    HW249134   6.928   8.663   1.933
16264SOL     OW49135   5.883   7.483   2.033
16264SOL    HW149136   5.932   7.567   2.012
16264SOL    HW249137   5.945   7.418   2.078
16265SOL     OW49138   6.521   7.684   2.342
16265SOL    HW149139   6.473   7.725   2.264
16265SOL    HW249140   6.620   7.682   2.323
16266SOL     OW49141   6.662   8.131   3.326
16266SOL    HW149142   6.582   8.070   3.329
16266SOL    HW249143   6.743   8.078   3.302
16267SOL     OW49144   6.045   8.600   2.603
16267SOL    HW149145   5.974   8.573   2.668
16267SOL    HW249146   6.019   8.572   2.510
16268SOL     OW49147   6.618   7.997   1.878
16268SOL    HW149148   6.577   8.079   1.839
16268SOL    HW249149   6.682   8.023   1.951
16269SOL     OW49150   5.664   8.004   3.248
16269SOL    HW149151   5.756   8.003   3.207
16269SOL    HW249152   5.658   8.078   3.315
16270SOL     OW49153   6.147   7.670   3.009
16270SOL    HW149154   6.185   7.586   3.046
16270SOL    HW249155   6.059   7.689   3.053
16271SOL     OW49156   6.452   7.902   2.504
16271SOL    HW149157   6.420   7.974   2.442
16271SOL    HW249158   6.476   7.821   2.451
16272SOL     OW49159   6.603   7.487   2.615
16272SOL    HW149160   6.531   7.492   2.546
16272SOL    HW249161   6.579   7.418   2.684
16273SOL     OW49162   7.015   8.621   2.729
16273SOL    HW149163   6.960   8.537   2.722
16273SOL    HW249164   7.041   8.650   2.637
16274SOL     OW49165   7.052   8.038   2.854
16274SOL    HW149166   7.022   7.943   2.861
16274SOL    HW249167   7.125   8.054   2.920
16275SOL     OW49168   7.443   8.281   2.239
16275SOL    HW149169   7.485   8.217   2.303
16275SOL    HW249170   7.405   8.230   2.161
16276SOL     OW49171   6.074   8.833   2.036
16276SOL    HW149172   5.987   8.818   2.083
16276SOL    HW249173   6.057   8.859   1.941
16277SOL     OW49174   6.976   8.023   1.940
16277SOL    HW149175   6.922   8.002   2.021
16277SOL    HW249176   7.067   7.982   1.949
16278SOL     OW49177   6.113   7.704   2.190
16278SOL    HW149178   6.140   7.645   2.115
16278SOL    HW249179   6.113   7.799   2.159
16279SOL     OW49180   6.650   8.795   3.202
16279SOL    HW149181   6.570   8.772   3.257
16279SOL    HW249182   6.733   8.769   3.251
16280SOL     OW49183   6.697   8.643   2.962
16280SOL    HW149184   6.657   8.687   3.043
16280SOL    HW249185   6.656   8.680   2.879
16281SOL     OW49186   7.224   8.547   2.941
16281SOL    HW149187   7.229   8.628   3.000
16281SOL    HW249188   7.138   8.549   2.890
16282SOL     OW49189   6.501   7.537   3.264
16282SOL    HW149190   6.526   7.517   3.169
16282SOL    HW249191   6.573   7.593   3.306
16283SOL     OW49192   6.566   8.564   3.581
16283SOL    HW149193   6.467   8.570   3.591
16283SOL    HW249194   6.589   8.484   3.525
16284SOL     OW49195   6.291   8.498   2.230
16284SOL    HW149196   6.277   8.505   2.329
16284SOL    HW249197   6.375   8.447   2.212
16285SOL     OW49198   5.996   8.261   3.113
16285SOL    HW149199   6.082   8.273   3.163
16285SOL    HW249200   5.954   8.174   3.140
16286SOL     OW49201   6.860   7.834   3.124
16286SOL    HW149202   6.881   7.908   3.188
16286SOL    HW249203   6.771   7.851   3.081
16287SOL     OW49204   5.953   8.548   2.363
16287SOL    HW149205   5.946   8.631   2.307
16287SOL    HW249206   5.957   8.468   2.303
16288SOL     OW49207   6.152   7.985   2.727
16288SOL    HW149208   6.164   8.051   2.653
16288SOL    HW249209   6.198   8.019   2.810
16289SOL     OW49210   6.838   8.796   2.250
16289SOL    HW149211   6.888   8.873   2.290
16289SOL    HW249212   6.743   8.798   2.282
16290SOL     OW49213   7.168   8.087   2.334
16290SOL    HW149214   7.137   8.148   2.407
16290SOL    HW249215   7.218   8.139   2.265
16291SOL     OW49216   5.988   8.199   3.460
16291SOL    HW149217   6.056   8.254   3.413
16291SOL    HW249218   6.028   8.111   3.487
16292SOL     OW49219   7.173   8.227   3.532
16292SOL    HW149220   7.081   8.265   3.527
16292SOL    HW249221   7.233   8.274   3.467
16293SOL     OW49222   6.599   7.553   3.632
16293SOL    HW149223   6.605   7.638   3.580
16293SOL    HW249224   6.631   7.477   3.575
16294SOL     OW49225   6.090   7.498   3.602
16294SOL    HW149226   6.048   7.441   3.532
16294SOL    HW249227   6.024   7.567   3.634
16295SOL     OW49228   6.159   8.318   2.891
16295SOL    HW149229   6.203   8.407   2.882
16295SOL    HW249230   6.096   8.318   2.968
16296SOL     OW49231   6.795   7.973   2.137
16296SOL    HW149232   6.808   7.889   2.191
16296SOL    HW249233   6.766   8.047   2.197
16297SOL     OW49234   5.893   7.661   3.093
16297SOL    HW149235   5.870   7.698   3.183
16297SOL    HW249236   5.863   7.566   3.087
16298SOL     OW49237   5.623   8.758   3.144
16298SOL    HW149238   5.676   8.709   3.212
16298SOL    HW249239   5.645   8.856   3.149
16299SOL     OW49240   6.318   8.082   2.926
16299SOL    HW149241   6.377   8.056   2.850
16299SOL    HW249242   6.290   8.178   2.915
16300SOL     OW49243   7.314   8.383   3.716
16300SOL    HW149244   7.268   8.376   3.627
16300SOL    HW249245   7.252   8.427   3.782
16301SOL     OW49246   5.893   7.511   2.480
16301SOL    HW149247   5.882   7.605   2.513
16301SOL    HW249248   5.888   7.448   2.557
16302SOL     OW49249   7.208   7.815   2.236
16302SOL    HW149250   7.210   7.739   2.300
16302SOL    HW249251   7.160   7.892   2.276
16303SOL     OW49252   6.609   8.214   2.828
16303SOL    HW149253   6.624   8.235   2.924
16303SOL    HW249254   6.579   8.119   2.819
16304SOL     OW49255   5.936   8.346   3.666
16304SOL    HW149256   6.012   8.390   3.714
16304SOL    HW249257   5.971   8.299   3.584
16305SOL     OW49258   7.126   7.722   1.987
16305SOL    HW149259   7.065   7.647   2.010
16305SOL    HW249260   7.148   7.774   2.070
16306SOL     OW49261   6.889   8.286   1.904
16306SOL    HW149262   6.923   8.193   1.919
16306SOL    HW249263   6.907   8.313   1.809
16307SOL     OW49264   6.654   8.781   2.711
16307SOL    HW149265   6.661   8.697   2.656
16307SOL    HW249266   6.716   8.850   2.675
16308SOL     OW49267   5.905   8.258   2.811
16308SOL    HW149268   5.998   8.294   2.816
16308SOL    HW249269   5.899   8.173   2.863
16309SOL     OW49270   5.925   7.957   2.868
16309SOL    HW149271   5.873   7.874   2.851
16309SOL    HW249272   6.002   7.962   2.804
16310SOL     OW49273   6.724   7.828   3.540
16310SOL    HW149274   6.679   7.891   3.604
16310SOL    HW249275   6.817   7.859   3.523
16311SOL     OW49276   6.746   7.655   3.339
16311SOL    HW149277   6.746   7.719   3.416
16311SOL    HW249278   6.774   7.703   3.256
16312SOL     OW49279   5.594   8.774   2.062
16312SOL    HW149280   5.501   8.795   2.031
16312SOL    HW249281   5.604   8.675   2.075
16313SOL     OW49282   6.588   8.244   3.100
16313SOL    HW149283   6.629   8.212   3.186
16313SOL    HW249284   6.492   8.217   3.097
16314SOL     OW49285   5.626   7.992   2.976
16314SOL    HW149286   5.711   7.959   2.935
16314SOL    HW249287   5.639   8.007   3.074
16315SOL     OW49288   5.775   7.968   3.584
16315SOL    HW149289   5.834   7.928   3.514
16315SOL    HW249290   5.717   8.039   3.543
16316SOL     OW49291   6.955   8.398   3.522
16316SOL    HW149292   6.994   8.487   3.542
16316SOL    HW249293   6.965   8.378   3.425
16317SOL     OW49294   6.401   8.020   2.187
16317SOL    HW149295   6.408   7.931   2.141
16317SOL    HW249296   6.307   8.054   2.179
16318SOL     OW49297   7.243   8.052   3.068
16318SOL    HW149298   7.205   7.983   3.130
16318SOL    HW249299   7.325   8.016   3.024
16319SOL     OW49300   6.257   7.912   3.131
16319SOL    HW149301   6.223   7.823   3.101
16319SOL    HW249302   6.283   7.966   3.051
16320SOL     OW49303   6.059   7.948   2.053
16320SOL    HW149304   6.120   8.028   2.057
16320SOL    HW249305   5.964   7.979   2.060
16321SOL     OW49306   5.745   8.585   3.328
16321SOL    HW149307   5.767   8.524   3.404
16321SOL    HW249308   5.755   8.536   3.242
16322SOL     OW49309   6.933   8.507   3.096
16322SOL    HW149310   6.957   8.444   3.022
16322SOL    HW249311   6.843   8.547   3.078
16323SOL     OW49312   6.888   8.303   2.171
16323SOL    HW149313   6.802   8.272   2.213
16323SOL    HW249314   6.884   8.289   2.072
16324SOL     OW49315   5.669   8.706   2.884
16324SOL    HW149316   5.664   8.705   2.984
16324SOL    HW249317   5.586   8.665   2.846
16325SOL     OW49318   7.312   7.583   2.385
16325SOL    HW149319   7.385   7.566   2.318
16325SOL    HW249320   7.281   7.496   2.423
16326SOL     OW49321   6.866   8.375   2.534
16326SOL    HW149322   6.926   8.294   2.536
16326SOL    HW249323   6.906   8.444   2.474
16327SOL     OW49324   6.416   8.721   3.284
16327SOL    HW149325   6.411   8.754   3.379
16327SOL    HW249326   6.330   8.740   3.238
16328SOL     OW49327   7.427   7.623   2.825
16328SOL    HW149328   7.466   7.538   2.789
16328SOL    HW249329   7.329   7.625   2.806
16329SOL     OW49330   5.849   7.774   2.582
16329SOL    HW149331   5.770   7.825   2.548
16329SOL    HW249332   5.840   7.759   2.680
16330SOL     OW49333   6.780   9.060   1.893
16330SOL    HW149334   6.786   8.967   1.930
16330SOL    HW249335   6.721   9.060   1.813
16331SOL     OW49336   6.408   8.450   3.234
16331SOL    HW149337   6.448   8.449   3.142
16331SOL    HW249338   6.418   8.542   3.274
16332SOL     OW49339   6.502   8.358   2.153
16332SOL    HW149340   6.565   8.396   2.085
16332SOL    HW249341   6.542   8.275   2.192
16333SOL     OW49342   5.958   8.736   3.352
16333SOL    HW149343   5.945   8.829   3.318
16333SOL    HW249344   5.874   8.684   3.339
16334SOL     OW49345   7.200   8.740   3.151
16334SOL    HW149346   7.260   8.743   3.231
16334SOL    HW249347   7.125   8.804   3.164
16335SOL     OW49348   6.625   8.546   2.558
16335SOL    HW149349   6.555   8.499   2.612
16335SOL    HW249350   6.684   8.478   2.515
16336SOL     OW49351   6.600   7.684   2.833
16336SOL    HW149352   6.592   7.648   2.740
16336SOL    HW249353   6.598   7.608   2.898
16337SOL     OW49354   6.176   8.935   2.353
16337SOL    HW149355   6.218   8.877   2.283
16337SOL    HW249356   6.132   9.014   2.309
16338SOL     OW49357   7.295   7.833   3.243
16338SOL    HW149358   7.368   7.902   3.247
16338SOL    HW249359   7.323   7.758   3.184
16339SOL     OW49360   5.691   8.461   3.588
16339SOL    HW149361   5.614   8.428   3.642
16339SOL    HW249362   5.776   8.431   3.630
16340SOL     OW49363   6.258   7.651   3.351
16340SOL    HW149364   6.348   7.635   3.311
16340SOL    HW249365   6.266   7.656   3.450
16341SOL     OW49366   5.661   7.793   1.895
16341SOL    HW149367   5.569   7.765   1.866
16341SOL    HW249368   5.692   7.870   1.839
16342SOL     OW49369   7.026   8.304   3.260
16342SOL    HW149370   6.969   8.356   3.197
16342SOL    HW249371   7.122   8.316   3.236
16343SOL     OW49372   5.658   7.614   2.180
16343SOL    HW149373   5.641   7.697   2.126
16343SOL    HW249374   5.748   7.577   2.158
16344SOL     OW49375   6.769   8.783   1.981
16344SOL    HW149376   6.670   8.772   1.983
16344SOL    HW249377   6.803   8.798   2.074
16345SOL     OW49378   6.199   8.290   3.293
16345SOL    HW149379   6.255   8.371   3.276
16345SOL    HW249380   6.258   8.210   3.296
16346SOL     OW49381   6.302   8.013   3.570
16346SOL    HW149382   6.321   8.078   3.644
16346SOL    HW249383   6.362   7.933   3.579
16347SOL     OW49384   7.036   8.668   3.495
16347SOL    HW149385   7.027   8.658   3.594
16347SOL    HW249386   7.132   8.661   3.469
16348SOL     OW49387   5.976   9.189   3.422
16348SOL    HW149388   5.885   9.230   3.420
16348SOL    HW249389   5.969   9.095   3.454
16349SOL     OW49390   7.260   8.331   3.116
16349SOL    HW149391   7.233   8.242   3.079
16349SOL    HW249392   7.261   8.399   3.043
16350SOL     OW49393   6.811   7.773   2.311
16350SOL    HW149394   6.876   7.699   2.300
16350SOL    HW249395   6.831   7.823   2.395
16351SOL     OW49396   6.180   8.193   2.514
16351SOL    HW149397   6.230   8.278   2.495
16351SOL    HW249398   6.092   8.195   2.466
16352SOL     OW49399   7.363   7.790   3.504
16352SOL    HW149400   7.346   7.821   3.410
16352SOL    HW249401   7.279   7.753   3.542
16353SOL     OW49402   7.316   8.382   3.379
16353SOL    HW149403   7.354   8.473   3.394
16353SOL    HW249404   7.308   8.365   3.280
16354SOL     OW49405   6.445   8.404   2.723
16354SOL    HW149406   6.499   8.335   2.771
16354SOL    HW249407   6.413   8.473   2.789
16355SOL     OW49408   6.669   8.432   1.949
16355SOL    HW149409   6.646   8.485   1.867
16355SOL    HW249410   6.750   8.376   1.930
16356SOL     OW49411   5.807   8.762   3.706
16356SOL    HW149412   5.742   8.689   3.685
16356SOL    HW249413   5.811   8.776   3.804
16357SOL     OW49414   5.665   8.688   2.515
16357SOL    HW149415   5.664   8.641   2.603
16357SOL    HW249416   5.747   8.660   2.464
16358SOL     OW49417   6.258   8.839   3.486
16358SOL    HW149418   6.180   8.789   3.524
16358SOL    HW249419   6.255   8.934   3.517
16359SOL     OW49420   7.410   7.640   3.089
16359SOL    HW149421   7.406   7.550   3.133
16359SOL    HW249422   7.413   7.629   2.990
16360SOL     OW49423   6.014   7.872   2.382
16360SOL    HW149424   6.044   7.800   2.320
16360SOL    HW249425   5.975   7.832   2.465
16361SOL     OW49426   7.291   8.935   2.966
16361SOL    HW149427   7.198   8.910   2.939
16361SOL    HW249428   7.317   8.885   3.048
16362SOL     OW49429   5.903   7.995   3.142
16362SOL    HW149430   5.941   7.936   3.214
16362SOL    HW249431   5.943   7.969   3.054
16363SOL     OW49432   6.398   9.034   2.549
16363SOL    HW149433   6.430   9.044   2.455
16363SOL    HW249434   6.319   8.972   2.551
16364SOL     OW49435   7.010   7.662   2.974
16364SOL    HW149436   7.062   7.597   3.029
16364SOL    HW249437   6.961   7.725   3.035
16365SOL     OW49438   6.587   7.482   3.016
16365SOL    HW149439   6.524   7.410   2.985
16365SOL    HW249440   6.680   7.446   3.016
16366SOL     OW49441   6.356   8.778   2.163
16366SOL    HW149442   6.310   8.691   2.180
16366SOL    HW249443   6.447   8.775   2.204
16367SOL     OW49444   6.938   7.500   2.030
16367SOL    HW149445   6.973   7.459   1.946
16367SOL    HW249446   6.848   7.462   2.050
16368SOL     OW49447   6.886   7.901   2.553
16368SOL    HW149448   6.827   7.981   2.557
16368SOL    HW249449   6.901   7.866   2.646
16369SOL     OW49450   7.179   7.669   2.744
16369SOL    HW149451   7.095   7.668   2.798
16369SOL    HW249452   7.181   7.752   2.688
16370SOL     OW49453   5.625   8.525   2.162
16370SOL    HW149454   5.724   8.514   2.153
16370SOL    HW249455   5.585   8.439   2.194
16371SOL     OW49456   5.816   8.076   3.837
16371SOL    HW149457   5.723   8.074   3.874
16371SOL    HW249458   5.817   8.037   3.745
16372SOL     OW49459   5.811   7.723   4.720
16372SOL    HW149460   5.846   7.706   4.812
16372SOL    HW249461   5.723   7.678   4.708
16373SOL     OW49462   5.605   7.816   4.371
16373SOL    HW149463   5.523   7.859   4.410
16373SOL    HW249464   5.577   7.743   4.308
16374SOL     OW49465   6.721   8.151   4.441
16374SOL    HW149466   6.778   8.229   4.416
16374SOL    HW249467   6.661   8.177   4.517
16375SOL     OW49468   7.341   8.055   3.955
16375SOL    HW149469   7.329   8.042   3.856
16375SOL    HW249470   7.311   7.974   4.004
16376SOL     OW49471   6.354   8.592   4.747
16376SOL    HW149472   6.276   8.609   4.807
16376SOL    HW249473   6.388   8.679   4.711
16377SOL     OW49474   6.436   8.246   5.547
16377SOL    HW149475   6.432   8.322   5.612
16377SOL    HW249476   6.458   8.282   5.456
16378SOL     OW49477   6.271   8.460   4.389
16378SOL    HW149478   6.340   8.444   4.459
16378SOL    HW249479   6.198   8.517   4.427
16379SOL     OW49480   6.272   8.609   5.527
16379SOL    HW149481   6.332   8.688   5.541
16379SOL    HW249482   6.186   8.640   5.486
16380SOL     OW49483   6.024   7.840   5.223
16380SOL    HW149484   6.106   7.784   5.232
16380SOL    HW249485   5.943   7.782   5.227
16381SOL     OW49486   7.189   7.895   4.461
16381SOL    HW149487   7.115   7.941   4.411
16381SOL    HW249488   7.240   7.963   4.514
16382SOL     OW49489   6.713   8.789   5.414
16382SOL    HW149490   6.760   8.789   5.502
16382SOL    HW249491   6.665   8.702   5.403
16383SOL     OW49492   5.826   8.539   4.610
16383SOL    HW149493   5.840   8.455   4.662
16383SOL    HW249494   5.771   8.603   4.665
16384SOL     OW49495   6.192   8.412   3.847
16384SOL    HW149496   6.199   8.496   3.793
16384SOL    HW249497   6.238   8.425   3.935
16385SOL     OW49498   7.180   7.562   5.204
16385SOL    HW149499   7.162   7.629   5.132
16385SOL    HW249500   7.177   7.608   5.293
16386SOL     OW49501   5.708   8.091   4.287
16386SOL    HW149502   5.663   8.003   4.304
16386SOL    HW249503   5.707   8.145   4.371
16387SOL     OW49504   7.275   8.370   4.336
16387SOL    HW149505   7.370   8.341   4.344
16387SOL    HW249506   7.267   8.435   4.261
16388SOL     OW49507   7.227   8.556   4.156
16388SOL    HW149508   7.313   8.558   4.104
16388SOL    HW249509   7.241   8.603   4.244
16389SOL     OW49510   5.699   8.185   5.321
16389SOL    HW149511   5.787   8.172   5.366
16389SOL    HW249512   5.686   8.282   5.299
16390SOL     OW49513   6.199   8.813   4.450
16390SOL    HW149514   6.150   8.726   4.459
16390SOL    HW249515   6.176   8.856   4.363
16391SOL     OW49516   6.879   8.676   5.147
16391SOL    HW149517   6.916   8.603   5.089
16391SOL    HW249518   6.931   8.681   5.232
16392SOL     OW49519   6.395   7.452   4.226
16392SOL    HW149520   6.435   7.543   4.217
16392SOL    HW249521   6.295   7.460   4.232
16393SOL     OW49522   5.783   8.424   4.988
16393SOL    HW149523   5.872   8.379   4.974
16393SOL    HW249524   5.710   8.359   4.969
16394SOL     OW49525   7.111   8.447   3.914
16394SOL    HW149526   7.048   8.371   3.927
16394SOL    HW249527   7.159   8.465   4.000
16395SOL     OW49528   5.903   7.699   5.525
16395SOL    HW149529   5.974   7.770   5.531
16395SOL    HW249530   5.815   7.738   5.553
16396SOL     OW49531   7.052   8.865   4.677
16396SOL    HW149532   6.993   8.871   4.757
16396SOL    HW249533   7.037   8.777   4.631
16397SOL     OW49534   6.184   8.177   3.994
16397SOL    HW149535   6.208   8.246   3.926
16397SOL    HW249536   6.106   8.210   4.048
16398SOL     OW49537   6.867   7.793   4.668
16398SOL    HW149538   6.781   7.743   4.655
16398SOL    HW249539   6.929   7.739   4.724
16399SOL     OW49540   6.393   8.053   5.189
16399SOL    HW149541   6.346   8.050   5.278
16399SOL    HW249542   6.342   7.998   5.123
16400SOL     OW49543   6.980   7.917   5.398
16400SOL    HW149544   6.960   7.960   5.486
16400SOL    HW249545   7.058   7.855   5.407
16401SOL     OW49546   6.559   8.338   5.296
16401SOL    HW149547   6.605   8.254   5.267
16401SOL    HW249548   6.503   8.372   5.221
16402SOL     OW49549   6.577   7.858   4.966
16402SOL    HW149550   6.500   7.892   5.020
16402SOL    HW249551   6.543   7.807   4.887
16403SOL     OW49552   6.627   8.149   4.153
16403SOL    HW149553   6.653   8.145   4.249
16403SOL    HW249554   6.542   8.098   4.139
16404SOL     OW49555   5.662   8.259   4.513
16404SOL    HW149556   5.761   8.247   4.522
16404SOL    HW249557   5.638   8.354   4.534
16405SOL     OW49558   6.451   7.796   3.919
16405SOL    HW149559   6.510   7.859   3.870
16405SOL    HW249560   6.470   7.702   3.890
16406SOL     OW49561   7.305   8.033   5.555
16406SOL    HW149562   7.279   8.122   5.519
16406SOL    HW249563   7.303   7.965   5.482
16407SOL     OW49564   6.948   8.592   4.269
16407SOL    HW149565   7.031   8.563   4.221
16407SOL    HW249566   6.899   8.659   4.213
16408SOL     OW49567   6.136   7.644   4.609
16408SOL    HW149568   6.131   7.639   4.709
16408SOL    HW249569   6.138   7.740   4.580
16409SOL     OW49570   7.381   8.514   4.597
16409SOL    HW149571   7.319   8.499   4.521
16409SOL    HW249572   7.329   8.525   4.682
16410SOL     OW49573   6.813   8.998   5.230
16410SOL    HW149574   6.819   8.921   5.294
16410SOL    HW249575   6.761   8.972   5.150
16411SOL     OW49576   5.907   8.391   3.966
16411SOL    HW149577   5.989   8.430   3.924
16411SOL    HW249578   5.880   8.309   3.917
16412SOL     OW49579   7.044   8.183   4.452
16412SOL    HW149580   7.039   8.118   4.527
16412SOL    HW249581   7.124   8.242   4.465
16413SOL     OW49582   6.047   8.714   5.451
16413SOL    HW149583   5.997   8.715   5.365
16413SOL    HW249584   5.984   8.696   5.527
16414SOL     OW49585   5.788   7.733   5.222
16414SOL    HW149586   5.708   7.793   5.209
16414SOL    HW249587   5.778   7.684   5.308
16415SOL     OW49588   6.986   7.555   4.150
16415SOL    HW149589   6.962   7.518   4.060
16415SOL    HW249590   7.085   7.571   4.154
16416SOL     OW49591   5.968   8.148   4.204
16416SOL    HW149592   6.013   8.058   4.201
16416SOL    HW249593   5.874   8.137   4.237
16417SOL     OW49594   7.133   7.670   5.453
16417SOL    HW149595   7.128   7.707   5.545
16417SOL    HW249596   7.061   7.601   5.441
16418SOL     OW49597   6.200   7.570   3.841
16418SOL    HW149598   6.298   7.548   3.848
16418SOL    HW249599   6.169   7.553   3.748
16419SOL     OW49600   6.367   7.712   5.473
16419SOL    HW149601   6.434   7.651   5.516
16419SOL    HW249602   6.294   7.731   5.538
16420SOL     OW49603   6.937   8.038   5.157
16420SOL    HW149604   6.965   7.995   5.242
16420SOL    HW249605   6.962   8.134   5.158
16421SOL     OW49606   6.389   8.850   4.648
16421SOL    HW149607   6.479   8.864   4.606
16421SOL    HW249608   6.318   8.852   4.577
16422SOL     OW49609   6.508   7.951   4.623
16422SOL    HW149610   6.483   7.942   4.527
16422SOL    HW249611   6.556   7.869   4.654
16423SOL     OW49612   6.125   7.512   4.236
16423SOL    HW149613   6.044   7.513   4.294
16423SOL    HW249614   6.128   7.595   4.181
16424SOL     OW49615   7.020   8.636   3.765
16424SOL    HW149616   7.052   8.560   3.822
16424SOL    HW249617   6.928   8.663   3.795
16425SOL     OW49618   5.883   7.483   3.895
16425SOL    HW149619   5.932   7.567   3.874
16425SOL    HW249620   5.945   7.418   3.940
16426SOL     OW49621   6.521   7.684   4.204
16426SOL    HW149622   6.473   7.725   4.126
16426SOL    HW249623   6.620   7.682   4.185
16427SOL     OW49624   6.662   8.131   5.188
16427SOL    HW149625   6.582   8.070   5.191
16427SOL    HW249626   6.743   8.078   5.164
16428SOL     OW49627   6.045   8.600   4.465
16428SOL    HW149628   5.974   8.573   4.530
16428SOL    HW249629   6.019   8.572   4.372
16429SOL     OW49630   6.618   7.997   3.740
16429SOL    HW149631   6.577   8.079   3.701
16429SOL    HW249632   6.682   8.023   3.813
16430SOL     OW49633   5.664   8.004   5.110
16430SOL    HW149634   5.756   8.003   5.069
16430SOL    HW249635   5.658   8.078   5.177
16431SOL     OW49636   6.147   7.670   4.871
16431SOL    HW149637   6.185   7.586   4.908
16431SOL    HW249638   6.059   7.689   4.915
16432SOL     OW49639   6.452   7.902   4.366
16432SOL    HW149640   6.420   7.974   4.304
16432SOL    HW249641   6.476   7.821   4.313
16433SOL     OW49642   6.603   7.487   4.477
16433SOL    HW149643   6.531   7.492   4.408
16433SOL    HW249644   6.579   7.418   4.546
16434SOL     OW49645   7.015   8.621   4.591
16434SOL    HW149646   6.960   8.537   4.584
16434SOL    HW249647   7.041   8.650   4.499
16435SOL     OW49648   7.052   8.038   4.716
16435SOL    HW149649   7.022   7.943   4.723
16435SOL    HW249650   7.125   8.054   4.782
16436SOL     OW49651   7.443   8.281   4.101
16436SOL    HW149652   7.485   8.217   4.165
16436SOL    HW249653   7.405   8.230   4.023
16437SOL     OW49654   6.074   8.833   3.898
16437SOL    HW149655   5.987   8.818   3.945
16437SOL    HW249656   6.057   8.859   3.803
16438SOL     OW49657   6.976   8.023   3.802
16438SOL    HW149658   6.922   8.002   3.883
16438SOL    HW249659   7.067   7.982   3.811
16439SOL     OW49660   6.113   7.704   4.052
16439SOL    HW149661   6.140   7.645   3.977
16439SOL    HW249662   6.113   7.799   4.021
16440SOL     OW49663   6.650   8.795   5.064
16440SOL    HW149664   6.570   8.772   5.119
16440SOL    HW249665   6.733   8.769   5.113
16441SOL     OW49666   6.697   8.643   4.824
16441SOL    HW149667   6.657   8.687   4.905
16441SOL    HW249668   6.656   8.680   4.741
16442SOL     OW49669   6.501   7.537   5.126
16442SOL    HW149670   6.526   7.517   5.031
16442SOL    HW249671   6.573   7.593   5.168
16443SOL     OW49672   6.566   8.564   5.443
16443SOL    HW149673   6.467   8.570   5.453
16443SOL    HW249674   6.589   8.484   5.387
16444SOL     OW49675   6.291   8.498   4.092
16444SOL    HW149676   6.277   8.505   4.191
16444SOL    HW249677   6.375   8.447   4.074
16445SOL     OW49678   5.996   8.261   4.975
16445SOL    HW149679   6.082   8.273   5.025
16445SOL    HW249680   5.954   8.174   5.002
16446SOL     OW49681   6.860   7.834   4.986
16446SOL    HW149682   6.881   7.908   5.050
16446SOL    HW249683   6.771   7.851   4.943
16447SOL     OW49684   5.953   8.548   4.225
16447SOL    HW149685   5.946   8.631   4.169
16447SOL    HW249686   5.957   8.468   4.165
16448SOL     OW49687   6.152   7.985   4.589
16448SOL    HW149688   6.164   8.051   4.515
16448SOL    HW249689   6.198   8.019   4.672
16449SOL     OW49690   6.838   8.796   4.112
16449SOL    HW149691   6.888   8.873   4.152
16449SOL    HW249692   6.743   8.798   4.144
16450SOL     OW49693   7.168   8.087   4.196
16450SOL    HW149694   7.137   8.148   4.269
16450SOL    HW249695   7.218   8.139   4.127
16451SOL     OW49696   5.988   8.199   5.322
16451SOL    HW149697   6.056   8.254   5.275
16451SOL    HW249698   6.028   8.111   5.349
16452SOL     OW49699   7.173   8.227   5.394
16452SOL    HW149700   7.081   8.265   5.389
16452SOL    HW249701   7.233   8.274   5.329
16453SOL     OW49702   6.599   7.553   5.494
16453SOL    HW149703   6.605   7.638   5.442
16453SOL    HW249704   6.631   7.477   5.437
16454SOL     OW49705   6.090   7.498   5.464
16454SOL    HW149706   6.048   7.441   5.394
16454SOL    HW249707   6.024   7.567   5.496
16455SOL     OW49708   6.159   8.318   4.753
16455SOL    HW149709   6.203   8.407   4.744
16455SOL    HW249710   6.096   8.318   4.830
16456SOL     OW49711   6.946   8.310   4.769
16456SOL    HW149712   6.871   8.310   4.703
16456SOL    HW249713   6.983   8.218   4.778
16457SOL     OW49714   6.795   7.973   3.999
16457SOL    HW149715   6.808   7.889   4.053
16457SOL    HW249716   6.766   8.047   4.059
16458SOL     OW49717   5.893   7.661   4.955
16458SOL    HW149718   5.870   7.698   5.045
16458SOL    HW249719   5.863   7.566   4.949
16459SOL     OW49720   5.623   8.758   5.006
16459SOL    HW149721   5.676   8.709   5.074
16459SOL    HW249722   5.645   8.856   5.011
16460SOL     OW49723   6.318   8.082   4.788
16460SOL    HW149724   6.377   8.056   4.712
16460SOL    HW249725   6.290   8.178   4.777
16461SOL     OW49726   7.314   8.383   5.578
16461SOL    HW149727   7.268   8.376   5.489
16461SOL    HW249728   7.252   8.427   5.644
16462SOL     OW49729   5.893   7.511   4.342
16462SOL    HW149730   5.882   7.605   4.375
16462SOL    HW249731   5.888   7.448   4.419
16463SOL     OW49732   7.208   7.815   4.098
16463SOL    HW149733   7.210   7.739   4.162
16463SOL    HW249734   7.160   7.892   4.138
16464SOL     OW49735   6.609   8.214   4.690
16464SOL    HW149736   6.624   8.235   4.786
16464SOL    HW249737   6.579   8.119   4.681
16465SOL     OW49738   5.936   8.346   5.528
16465SOL    HW149739   6.012   8.390   5.576
16465SOL    HW249740   5.971   8.299   5.446
16466SOL     OW49741   7.126   7.722   3.849
16466SOL    HW149742   7.065   7.647   3.872
16466SOL    HW249743   7.148   7.774   3.932
16467SOL     OW49744   6.889   8.286   3.766
16467SOL    HW149745   6.923   8.193   3.781
16467SOL    HW249746   6.907   8.313   3.671
16468SOL     OW49747   6.654   8.781   4.573
16468SOL    HW149748   6.661   8.697   4.518
16468SOL    HW249749   6.716   8.850   4.537
16469SOL     OW49750   5.905   8.258   4.673
16469SOL    HW149751   5.998   8.294   4.678
16469SOL    HW249752   5.899   8.173   4.725
16470SOL     OW49753   5.925   7.957   4.730
16470SOL    HW149754   5.873   7.874   4.713
16470SOL    HW249755   6.002   7.962   4.666
16471SOL     OW49756   6.724   7.828   5.402
16471SOL    HW149757   6.679   7.891   5.466
16471SOL    HW249758   6.817   7.859   5.385
16472SOL     OW49759   6.746   7.655   5.201
16472SOL    HW149760   6.746   7.719   5.278
16472SOL    HW249761   6.774   7.703   5.118
16473SOL     OW49762   5.594   8.774   3.924
16473SOL    HW149763   5.501   8.795   3.893
16473SOL    HW249764   5.604   8.675   3.937
16474SOL     OW49765   6.588   8.244   4.962
16474SOL    HW149766   6.629   8.212   5.048
16474SOL    HW249767   6.492   8.217   4.959
16475SOL     OW49768   5.626   7.992   4.838
16475SOL    HW149769   5.711   7.959   4.797
16475SOL    HW249770   5.639   8.007   4.936
16476SOL     OW49771   5.775   7.968   5.446
16476SOL    HW149772   5.834   7.928   5.376
16476SOL    HW249773   5.717   8.039   5.405
16477SOL     OW49774   6.955   8.398   5.384
16477SOL    HW149775   6.994   8.487   5.404
16477SOL    HW249776   6.965   8.378   5.287
16478SOL     OW49777   6.401   8.020   4.049
16478SOL    HW149778   6.408   7.931   4.003
16478SOL    HW249779   6.307   8.054   4.041
16479SOL     OW49780   7.243   8.052   4.930
16479SOL    HW149781   7.205   7.983   4.992
16479SOL    HW249782   7.325   8.016   4.886
16480SOL     OW49783   6.257   7.912   4.993
16480SOL    HW149784   6.223   7.823   4.963
16480SOL    HW249785   6.283   7.966   4.913
16481SOL     OW49786   6.059   7.948   3.915
16481SOL    HW149787   6.120   8.028   3.919
16481SOL    HW249788   5.964   7.979   3.922
16482SOL     OW49789   5.745   8.585   5.190
16482SOL    HW149790   5.767   8.524   5.266
16482SOL    HW249791   5.755   8.536   5.104
16483SOL     OW49792   6.933   8.507   4.958
16483SOL    HW149793   6.957   8.444   4.884
16483SOL    HW249794   6.843   8.547   4.940
16484SOL     OW49795   6.888   8.303   4.033
16484SOL    HW149796   6.802   8.272   4.075
16484SOL    HW249797   6.884   8.289   3.934
16485SOL     OW49798   5.669   8.706   4.746
16485SOL    HW149799   5.664   8.705   4.846
16485SOL    HW249800   5.586   8.665   4.708
16486SOL     OW49801   7.312   7.583   4.247
16486SOL    HW149802   7.385   7.566   4.180
16486SOL    HW249803   7.281   7.496   4.285
16487SOL     OW49804   6.866   8.375   4.396
16487SOL    HW149805   6.926   8.294   4.398
16487SOL    HW249806   6.906   8.444   4.336
16488SOL     OW49807   6.416   8.721   5.146
16488SOL    HW149808   6.411   8.754   5.241
16488SOL    HW249809   6.330   8.740   5.100
16489SOL     OW49810   7.427   7.623   4.687
16489SOL    HW149811   7.466   7.538   4.651
16489SOL    HW249812   7.329   7.625   4.668
16490SOL     OW49813   5.849   7.774   4.444
16490SOL    HW149814   5.770   7.825   4.410
16490SOL    HW249815   5.840   7.759   4.542
16491SOL     OW49816   6.780   9.060   3.755
16491SOL    HW149817   6.786   8.967   3.792
16491SOL    HW249818   6.721   9.060   3.675
16492SOL     OW49819   6.408   8.450   5.096
16492SOL    HW149820   6.448   8.449   5.004
16492SOL    HW249821   6.418   8.542   5.136
16493SOL     OW49822   6.502   8.358   4.015
16493SOL    HW149823   6.565   8.396   3.947
16493SOL    HW249824   6.542   8.275   4.054
16494SOL     OW49825   5.958   8.736   5.214
16494SOL    HW149826   5.945   8.829   5.180
16494SOL    HW249827   5.874   8.684   5.201
16495SOL     OW49828   7.200   8.740   5.013
16495SOL    HW149829   7.260   8.743   5.093
16495SOL    HW249830   7.125   8.804   5.026
16496SOL     OW49831   6.625   8.546   4.420
16496SOL    HW149832   6.555   8.499   4.474
16496SOL    HW249833   6.684   8.478   4.377
16497SOL     OW49834   6.600   7.684   4.695
16497SOL    HW149835   6.592   7.648   4.602
16497SOL    HW249836   6.598   7.608   4.760
16498SOL     OW49837   6.176   8.935   4.215
16498SOL    HW149838   6.218   8.877   4.145
16498SOL    HW249839   6.132   9.014   4.171
16499SOL     OW49840   7.295   7.833   5.105
16499SOL    HW149841   7.368   7.902   5.109
16499SOL    HW249842   7.323   7.758   5.046
16500SOL     OW49843   5.691   8.461   5.450
16500SOL    HW149844   5.614   8.428   5.504
16500SOL    HW249845   5.776   8.431   5.492
16501SOL     OW49846   6.258   7.651   5.213
16501SOL    HW149847   6.348   7.635   5.173
16501SOL    HW249848   6.266   7.656   5.312
16502SOL     OW49849   5.661   7.793   3.757
16502SOL    HW149850   5.569   7.765   3.728
16502SOL    HW249851   5.692   7.870   3.701
16503SOL     OW49852   7.026   8.304   5.122
16503SOL    HW149853   6.969   8.356   5.059
16503SOL    HW249854   7.122   8.316   5.098
16504SOL     OW49855   5.658   7.614   4.042
16504SOL    HW149856   5.641   7.697   3.988
16504SOL    HW249857   5.748   7.577   4.020
16505SOL     OW49858   6.769   8.783   3.843
16505SOL    HW149859   6.670   8.772   3.845
16505SOL    HW249860   6.803   8.798   3.936
16506SOL     OW49861   6.199   8.290   5.155
16506SOL    HW149862   6.255   8.371   5.138
16506SOL    HW249863   6.258   8.210   5.158
16507SOL     OW49864   6.302   8.013   5.432
16507SOL    HW149865   6.321   8.078   5.506
16507SOL    HW249866   6.362   7.933   5.441
16508SOL     OW49867   7.036   8.668   5.357
16508SOL    HW149868   7.027   8.658   5.456
16508SOL    HW249869   7.132   8.661   5.331
16509SOL     OW49870   5.976   9.189   5.284
16509SOL    HW149871   5.885   9.230   5.282
16509SOL    HW249872   5.969   9.095   5.316
16510SOL     OW49873   7.260   8.331   4.978
16510SOL    HW149874   7.233   8.242   4.941
16510SOL    HW249875   7.261   8.399   4.905
16511SOL     OW49876   6.811   7.773   4.173
16511SOL    HW149877   6.876   7.699   4.162
16511SOL    HW249878   6.831   7.823   4.257
16512SOL     OW49879   6.180   8.193   4.376
16512SOL    HW149880   6.230   8.278   4.357
16512SOL    HW249881   6.092   8.195   4.328
16513SOL     OW49882   7.363   7.790   5.366
16513SOL    HW149883   7.346   7.821   5.272
16513SOL    HW249884   7.279   7.753   5.404
16514SOL     OW49885   7.316   8.382   5.241
16514SOL    HW149886   7.354   8.473   5.256
16514SOL    HW249887   7.308   8.365   5.142
16515SOL     OW49888   6.445   8.404   4.585
16515SOL    HW149889   6.499   8.335   4.633
16515SOL    HW249890   6.413   8.473   4.651
16516SOL     OW49891   6.669   8.432   3.811
16516SOL    HW149892   6.646   8.485   3.729
16516SOL    HW249893   6.750   8.376   3.792
16517SOL     OW49894   5.807   8.762   5.568
16517SOL    HW149895   5.742   8.689   5.547
16517SOL    HW249896   5.811   8.776   5.666
16518SOL     OW49897   5.665   8.688   4.377
16518SOL    HW149898   5.664   8.641   4.465
16518SOL    HW249899   5.747   8.660   4.326
16519SOL     OW49900   6.258   8.839   5.348
16519SOL    HW149901   6.180   8.789   5.386
16519SOL    HW249902   6.255   8.934   5.379
16520SOL     OW49903   7.410   7.640   4.951
16520SOL    HW149904   7.406   7.550   4.995
16520SOL    HW249905   7.413   7.629   4.852
16521SOL     OW49906   6.014   7.872   4.244
16521SOL    HW149907   6.044   7.800   4.182
16521SOL    HW249908   5.975   7.832   4.327
16522SOL     OW49909   7.291   8.935   4.828
16522SOL    HW149910   7.198   8.910   4.801
16522SOL    HW249911   7.317   8.885   4.910
16523SOL     OW49912   5.903   7.995   5.004
16523SOL    HW149913   5.941   7.936   5.076
16523SOL    HW249914   5.943   7.969   4.916
16524SOL     OW49915   6.398   9.034   4.411
16524SOL    HW149916   6.430   9.044   4.317
16524SOL    HW249917   6.319   8.972   4.413
16525SOL     OW49918   7.010   7.662   4.836
16525SOL    HW149919   7.062   7.597   4.891
16525SOL    HW249920   6.961   7.725   4.897
16526SOL     OW49921   6.587   7.482   4.878
16526SOL    HW149922   6.524   7.410   4.847
16526SOL    HW249923   6.680   7.446   4.878
16527SOL     OW49924   6.356   8.778   4.025
16527SOL    HW149925   6.310   8.691   4.042
16527SOL    HW249926   6.447   8.775   4.066
16528SOL     OW49927   6.938   7.500   3.892
16528SOL    HW149928   6.973   7.459   3.808
16528SOL    HW249929   6.848   7.462   3.912
16529SOL     OW49930   6.886   7.901   4.415
16529SOL    HW149931   6.827   7.981   4.419
16529SOL    HW249932   6.901   7.866   4.508
16530SOL     OW49933   7.179   7.669   4.606
16530SOL    HW149934   7.095   7.668   4.660
16530SOL    HW249935   7.181   7.752   4.550
16531SOL     OW49936   5.625   8.525   4.024
16531SOL    HW149937   5.724   8.514   4.015
16531SOL    HW249938   5.585   8.439   4.056
16532SOL     OW49939   5.816   8.076   5.699
16532SOL    HW149940   5.723   8.074   5.736
16532SOL    HW249941   5.817   8.037   5.607
16533SOL     OW49942   5.811   7.723   6.582
16533SOL    HW149943   5.846   7.706   6.674
16533SOL    HW249944   5.723   7.678   6.570
16534SOL     OW49945   5.605   7.816   6.233
16534SOL    HW149946   5.523   7.859   6.272
16534SOL    HW249947   5.577   7.743   6.170
16535SOL     OW49948   6.721   8.151   6.303
16535SOL    HW149949   6.778   8.229   6.278
16535SOL    HW249950   6.661   8.177   6.379
16536SOL     OW49951   7.341   8.055   5.817
16536SOL    HW149952   7.329   8.042   5.718
16536SOL    HW249953   7.311   7.974   5.866
16537SOL     OW49954   6.354   8.592   6.609
16537SOL    HW149955   6.276   8.609   6.669
16537SOL    HW249956   6.388   8.679   6.573
16538SOL     OW49957   6.436   8.246   7.409
16538SOL    HW149958   6.432   8.322   7.474
16538SOL    HW249959   6.458   8.282   7.318
16539SOL     OW49960   6.271   8.460   6.251
16539SOL    HW149961   6.340   8.444   6.321
16539SOL    HW249962   6.198   8.517   6.289
16540SOL     OW49963   6.272   8.609   7.389
16540SOL    HW149964   6.332   8.688   7.403
16540SOL    HW249965   6.186   8.640   7.348
16541SOL     OW49966   6.024   7.840   7.085
16541SOL    HW149967   6.106   7.784   7.094
16541SOL    HW249968   5.943   7.782   7.089
16542SOL     OW49969   7.189   7.895   6.323
16542SOL    HW149970   7.115   7.941   6.273
16542SOL    HW249971   7.240   7.963   6.376
16543SOL     OW49972   6.713   8.789   7.276
16543SOL    HW149973   6.760   8.789   7.364
16543SOL    HW249974   6.665   8.702   7.265
16544SOL     OW49975   5.826   8.539   6.472
16544SOL    HW149976   5.840   8.455   6.524
16544SOL    HW249977   5.771   8.603   6.527
16545SOL     OW49978   6.192   8.412   5.709
16545SOL    HW149979   6.199   8.496   5.655
16545SOL    HW249980   6.238   8.425   5.797
16546SOL     OW49981   7.180   7.562   7.066
16546SOL    HW149982   7.162   7.629   6.994
16546SOL    HW249983   7.177   7.608   7.155
16547SOL     OW49984   5.708   8.091   6.149
16547SOL    HW149985   5.663   8.003   6.166
16547SOL    HW249986   5.707   8.145   6.233
16548SOL     OW49987   7.275   8.370   6.198
16548SOL    HW149988   7.370   8.341   6.206
16548SOL    HW249989   7.267   8.435   6.123
16549SOL     OW49990   7.227   8.556   6.018
16549SOL    HW149991   7.313   8.558   5.966
16549SOL    HW249992   7.241   8.603   6.106
16550SOL     OW49993   5.699   8.185   7.183
16550SOL    HW149994   5.787   8.172   7.228
16550SOL    HW249995   5.686   8.282   7.161
16551SOL     OW49996   6.199   8.813   6.312
16551SOL    HW149997   6.150   8.726   6.321
16551SOL    HW249998   6.176   8.856   6.225
16552SOL     OW49999   6.879   8.676   7.009
16552SOL    HW150000   6.916   8.603   6.951
16552SOL    HW250001   6.931   8.681   7.094
16553SOL     OW50002   6.395   7.452   6.088
16553SOL    HW150003   6.435   7.543   6.079
16553SOL    HW250004   6.295   7.460   6.094
16554SOL     OW50005   5.783   8.424   6.850
16554SOL    HW150006   5.872   8.379   6.836
16554SOL    HW250007   5.710   8.359   6.831
16555SOL     OW50008   7.111   8.447   5.776
16555SOL    HW150009   7.048   8.371   5.789
16555SOL    HW250010   7.159   8.465   5.862
16556SOL     OW50011   5.903   7.699   7.387
16556SOL    HW150012   5.974   7.770   7.393
16556SOL    HW250013   5.815   7.738   7.415
16557SOL     OW50014   7.052   8.865   6.539
16557SOL    HW150015   6.993   8.871   6.619
16557SOL    HW250016   7.037   8.777   6.493
16558SOL     OW50017   6.184   8.177   5.856
16558SOL    HW150018   6.208   8.246   5.788
16558SOL    HW250019   6.106   8.210   5.910
16559SOL     OW50020   6.867   7.793   6.530
16559SOL    HW150021   6.781   7.743   6.517
16559SOL    HW250022   6.929   7.739   6.586
16560SOL     OW50023   6.393   8.053   7.051
16560SOL    HW150024   6.346   8.050   7.140
16560SOL    HW250025   6.342   7.998   6.985
16561SOL     OW50026   6.980   7.917   7.260
16561SOL    HW150027   6.960   7.960   7.348
16561SOL    HW250028   7.058   7.855   7.269
16562SOL     OW50029   6.559   8.338   7.158
16562SOL    HW150030   6.605   8.254   7.129
16562SOL    HW250031   6.503   8.372   7.083
16563SOL     OW50032   6.577   7.858   6.828
16563SOL    HW150033   6.500   7.892   6.882
16563SOL    HW250034   6.543   7.807   6.749
16564SOL     OW50035   6.627   8.149   6.015
16564SOL    HW150036   6.653   8.145   6.111
16564SOL    HW250037   6.542   8.098   6.001
16565SOL     OW50038   5.662   8.259   6.375
16565SOL    HW150039   5.761   8.247   6.384
16565SOL    HW250040   5.638   8.354   6.396
16566SOL     OW50041   6.451   7.796   5.781
16566SOL    HW150042   6.510   7.859   5.732
16566SOL    HW250043   6.470   7.702   5.752
16567SOL     OW50044   7.305   8.033   7.417
16567SOL    HW150045   7.279   8.122   7.381
16567SOL    HW250046   7.303   7.965   7.344
16568SOL     OW50047   6.948   8.592   6.131
16568SOL    HW150048   7.031   8.563   6.083
16568SOL    HW250049   6.899   8.659   6.075
16569SOL     OW50050   6.136   7.644   6.471
16569SOL    HW150051   6.131   7.639   6.571
16569SOL    HW250052   6.138   7.740   6.442
16570SOL     OW50053   7.381   8.514   6.459
16570SOL    HW150054   7.319   8.499   6.383
16570SOL    HW250055   7.329   8.525   6.544
16571SOL     OW50056   6.813   8.998   7.092
16571SOL    HW150057   6.819   8.921   7.156
16571SOL    HW250058   6.761   8.972   7.012
16572SOL     OW50059   5.907   8.391   5.828
16572SOL    HW150060   5.989   8.430   5.786
16572SOL    HW250061   5.880   8.309   5.779
16573SOL     OW50062   7.044   8.183   6.314
16573SOL    HW150063   7.039   8.118   6.389
16573SOL    HW250064   7.124   8.242   6.327
16574SOL     OW50065   6.047   8.714   7.313
16574SOL    HW150066   5.997   8.715   7.227
16574SOL    HW250067   5.984   8.696   7.389
16575SOL     OW50068   5.788   7.733   7.084
16575SOL    HW150069   5.708   7.793   7.071
16575SOL    HW250070   5.778   7.684   7.170
16576SOL     OW50071   6.986   7.555   6.012
16576SOL    HW150072   6.962   7.518   5.922
16576SOL    HW250073   7.085   7.571   6.016
16577SOL     OW50074   5.968   8.148   6.066
16577SOL    HW150075   6.013   8.058   6.063
16577SOL    HW250076   5.874   8.137   6.099
16578SOL     OW50077   7.133   7.670   7.315
16578SOL    HW150078   7.128   7.707   7.407
16578SOL    HW250079   7.061   7.601   7.303
16579SOL     OW50080   6.200   7.570   5.703
16579SOL    HW150081   6.298   7.548   5.710
16579SOL    HW250082   6.169   7.553   5.610
16580SOL     OW50083   6.367   7.712   7.335
16580SOL    HW150084   6.434   7.651   7.378
16580SOL    HW250085   6.294   7.731   7.400
16581SOL     OW50086   6.937   8.038   7.019
16581SOL    HW150087   6.965   7.995   7.104
16581SOL    HW250088   6.962   8.134   7.020
16582SOL     OW50089   6.389   8.850   6.510
16582SOL    HW150090   6.479   8.864   6.468
16582SOL    HW250091   6.318   8.852   6.439
16583SOL     OW50092   6.508   7.951   6.485
16583SOL    HW150093   6.483   7.942   6.389
16583SOL    HW250094   6.556   7.869   6.516
16584SOL     OW50095   6.125   7.512   6.098
16584SOL    HW150096   6.044   7.513   6.156
16584SOL    HW250097   6.128   7.595   6.043
16585SOL     OW50098   7.020   8.636   5.627
16585SOL    HW150099   7.052   8.560   5.684
16585SOL    HW250100   6.928   8.663   5.657
16586SOL     OW50101   5.883   7.483   5.757
16586SOL    HW150102   5.932   7.567   5.736
16586SOL    HW250103   5.945   7.418   5.802
16587SOL     OW50104   6.521   7.684   6.066
16587SOL    HW150105   6.473   7.725   5.988
16587SOL    HW250106   6.620   7.682   6.047
16588SOL     OW50107   6.662   8.131   7.050
16588SOL    HW150108   6.582   8.070   7.053
16588SOL    HW250109   6.743   8.078   7.026
16589SOL     OW50110   6.045   8.600   6.327
16589SOL    HW150111   5.974   8.573   6.392
16589SOL    HW250112   6.019   8.572   6.234
16590SOL     OW50113   6.618   7.997   5.602
16590SOL    HW150114   6.577   8.079   5.563
16590SOL    HW250115   6.682   8.023   5.675
16591SOL     OW50116   5.664   8.004   6.972
16591SOL    HW150117   5.756   8.003   6.931
16591SOL    HW250118   5.658   8.078   7.039
16592SOL     OW50119   6.147   7.670   6.733
16592SOL    HW150120   6.185   7.586   6.770
16592SOL    HW250121   6.059   7.689   6.777
16593SOL     OW50122   6.452   7.902   6.228
16593SOL    HW150123   6.420   7.974   6.166
16593SOL    HW250124   6.476   7.821   6.175
16594SOL     OW50125   6.603   7.487   6.339
16594SOL    HW150126   6.531   7.492   6.270
16594SOL    HW250127   6.579   7.418   6.408
16595SOL     OW50128   7.015   8.621   6.453
16595SOL    HW150129   6.960   8.537   6.446
16595SOL    HW250130   7.041   8.650   6.361
16596SOL     OW50131   7.052   8.038   6.578
16596SOL    HW150132   7.022   7.943   6.585
16596SOL    HW250133   7.125   8.054   6.644
16597SOL     OW50134   7.443   8.281   5.963
16597SOL    HW150135   7.485   8.217   6.027
16597SOL    HW250136   7.405   8.230   5.885
16598SOL     OW50137   6.074   8.833   5.760
16598SOL    HW150138   5.987   8.818   5.807
16598SOL    HW250139   6.057   8.859   5.665
16599SOL     OW50140   6.976   8.023   5.664
16599SOL    HW150141   6.922   8.002   5.745
16599SOL    HW250142   7.067   7.982   5.673
16600SOL     OW50143   6.113   7.704   5.914
16600SOL    HW150144   6.140   7.645   5.839
16600SOL    HW250145   6.113   7.799   5.883
16601SOL     OW50146   6.650   8.795   6.926
16601SOL    HW150147   6.570   8.772   6.981
16601SOL    HW250148   6.733   8.769   6.975
16602SOL     OW50149   6.697   8.643   6.686
16602SOL    HW150150   6.657   8.687   6.767
16602SOL    HW250151   6.656   8.680   6.603
16603SOL     OW50152   7.224   8.547   6.665
16603SOL    HW150153   7.229   8.628   6.724
16603SOL    HW250154   7.138   8.549   6.614
16604SOL     OW50155   6.501   7.537   6.988
16604SOL    HW150156   6.526   7.517   6.893
16604SOL    HW250157   6.573   7.593   7.030
16605SOL     OW50158   6.566   8.564   7.305
16605SOL    HW150159   6.467   8.570   7.315
16605SOL    HW250160   6.589   8.484   7.249
16606SOL     OW50161   6.291   8.498   5.954
16606SOL    HW150162   6.277   8.505   6.053
16606SOL    HW250163   6.375   8.447   5.936
16607SOL     OW50164   5.996   8.261   6.837
16607SOL    HW150165   6.082   8.273   6.887
16607SOL    HW250166   5.954   8.174   6.864
16608SOL     OW50167   6.860   7.834   6.848
16608SOL    HW150168   6.881   7.908   6.912
16608SOL    HW250169   6.771   7.851   6.805
16609SOL     OW50170   5.953   8.548   6.087
16609SOL    HW150171   5.946   8.631   6.031
16609SOL    HW250172   5.957   8.468   6.027
16610SOL     OW50173   6.152   7.985   6.451
16610SOL    HW150174   6.164   8.051   6.377
16610SOL    HW250175   6.198   8.019   6.534
16611SOL     OW50176   6.838   8.796   5.974
16611SOL    HW150177   6.888   8.873   6.014
16611SOL    HW250178   6.743   8.798   6.006
16612SOL     OW50179   7.168   8.087   6.058
16612SOL    HW150180   7.137   8.148   6.131
16612SOL    HW250181   7.218   8.139   5.989
16613SOL     OW50182   5.988   8.199   7.184
16613SOL    HW150183   6.056   8.254   7.137
16613SOL    HW250184   6.028   8.111   7.211
16614SOL     OW50185   7.173   8.227   7.256
16614SOL    HW150186   7.081   8.265   7.251
16614SOL    HW250187   7.233   8.274   7.191
16615SOL     OW50188   6.090   7.498   7.326
16615SOL    HW150189   6.048   7.441   7.256
16615SOL    HW250190   6.024   7.567   7.358
16616SOL     OW50191   6.159   8.318   6.615
16616SOL    HW150192   6.203   8.407   6.606
16616SOL    HW250193   6.096   8.318   6.692
16617SOL     OW50194   6.946   8.310   6.631
16617SOL    HW150195   6.871   8.310   6.565
16617SOL    HW250196   6.983   8.218   6.640
16618SOL     OW50197   6.795   7.973   5.861
16618SOL    HW150198   6.808   7.889   5.915
16618SOL    HW250199   6.766   8.047   5.921
16619SOL     OW50200   5.893   7.661   6.817
16619SOL    HW150201   5.870   7.698   6.907
16619SOL    HW250202   5.863   7.566   6.811
16620SOL     OW50203   5.623   8.758   6.868
16620SOL    HW150204   5.676   8.709   6.936
16620SOL    HW250205   5.645   8.856   6.873
16621SOL     OW50206   6.318   8.082   6.650
16621SOL    HW150207   6.377   8.056   6.574
16621SOL    HW250208   6.290   8.178   6.639
16622SOL     OW50209   7.314   8.383   7.440
16622SOL    HW150210   7.268   8.376   7.351
16622SOL    HW250211   7.252   8.427   7.506
16623SOL     OW50212   5.893   7.511   6.204
16623SOL    HW150213   5.882   7.605   6.237
16623SOL    HW250214   5.888   7.448   6.281
16624SOL     OW50215   7.208   7.815   5.960
16624SOL    HW150216   7.210   7.739   6.024
16624SOL    HW250217   7.160   7.892   6.000
16625SOL     OW50218   6.609   8.214   6.552
16625SOL    HW150219   6.624   8.235   6.648
16625SOL    HW250220   6.579   8.119   6.543
16626SOL     OW50221   5.936   8.346   7.390
16626SOL    HW150222   6.012   8.390   7.438
16626SOL    HW250223   5.971   8.299   7.308
16627SOL     OW50224   7.126   7.722   5.711
16627SOL    HW150225   7.065   7.647   5.734
16627SOL    HW250226   7.148   7.774   5.794
16628SOL     OW50227   6.889   8.286   5.628
16628SOL    HW150228   6.923   8.193   5.643
16628SOL    HW250229   6.907   8.313   5.533
16629SOL     OW50230   6.654   8.781   6.435
16629SOL    HW150231   6.661   8.697   6.380
16629SOL    HW250232   6.716   8.850   6.399
16630SOL     OW50233   5.905   8.258   6.535
16630SOL    HW150234   5.998   8.294   6.540
16630SOL    HW250235   5.899   8.173   6.587
16631SOL     OW50236   5.925   7.957   6.592
16631SOL    HW150237   5.873   7.874   6.575
16631SOL    HW250238   6.002   7.962   6.528
16632SOL     OW50239   6.724   7.828   7.264
16632SOL    HW150240   6.679   7.891   7.328
16632SOL    HW250241   6.817   7.859   7.247
16633SOL     OW50242   6.746   7.655   7.063
16633SOL    HW150243   6.746   7.719   7.140
16633SOL    HW250244   6.774   7.703   6.980
16634SOL     OW50245   5.594   8.774   5.786
16634SOL    HW150246   5.501   8.795   5.755
16634SOL    HW250247   5.604   8.675   5.799
16635SOL     OW50248   6.588   8.244   6.824
16635SOL    HW150249   6.629   8.212   6.910
16635SOL    HW250250   6.492   8.217   6.821
16636SOL     OW50251   5.626   7.992   6.700
16636SOL    HW150252   5.711   7.959   6.659
16636SOL    HW250253   5.639   8.007   6.798
16637SOL     OW50254   5.775   7.968   7.308
16637SOL    HW150255   5.834   7.928   7.238
16637SOL    HW250256   5.717   8.039   7.267
16638SOL     OW50257   6.955   8.398   7.246
16638SOL    HW150258   6.994   8.487   7.266
16638SOL    HW250259   6.965   8.378   7.149
16639SOL     OW50260   6.401   8.020   5.911
16639SOL    HW150261   6.408   7.931   5.865
16639SOL    HW250262   6.307   8.054   5.903
16640SOL     OW50263   7.243   8.052   6.792
16640SOL    HW150264   7.205   7.983   6.854
16640SOL    HW250265   7.325   8.016   6.748
16641SOL     OW50266   6.257   7.912   6.855
16641SOL    HW150267   6.223   7.823   6.825
16641SOL    HW250268   6.283   7.966   6.775
16642SOL     OW50269   6.059   7.948   5.777
16642SOL    HW150270   6.120   8.028   5.781
16642SOL    HW250271   5.964   7.979   5.784
16643SOL     OW50272   5.745   8.585   7.052
16643SOL    HW150273   5.767   8.524   7.128
16643SOL    HW250274   5.755   8.536   6.966
16644SOL     OW50275   6.933   8.507   6.820
16644SOL    HW150276   6.957   8.444   6.746
16644SOL    HW250277   6.843   8.547   6.802
16645SOL     OW50278   6.888   8.303   5.895
16645SOL    HW150279   6.802   8.272   5.937
16645SOL    HW250280   6.884   8.289   5.796
16646SOL     OW50281   5.669   8.706   6.608
16646SOL    HW150282   5.664   8.705   6.708
16646SOL    HW250283   5.586   8.665   6.570
16647SOL     OW50284   7.312   7.583   6.109
16647SOL    HW150285   7.385   7.566   6.042
16647SOL    HW250286   7.281   7.496   6.147
16648SOL     OW50287   6.866   8.375   6.258
16648SOL    HW150288   6.926   8.294   6.260
16648SOL    HW250289   6.906   8.444   6.198
16649SOL     OW50290   6.416   8.721   7.008
16649SOL    HW150291   6.411   8.754   7.103
16649SOL    HW250292   6.330   8.740   6.962
16650SOL     OW50293   7.427   7.623   6.549
16650SOL    HW150294   7.466   7.538   6.513
16650SOL    HW250295   7.329   7.625   6.530
16651SOL     OW50296   5.849   7.774   6.306
16651SOL    HW150297   5.770   7.825   6.272
16651SOL    HW250298   5.840   7.759   6.404
16652SOL     OW50299   6.780   9.060   5.617
16652SOL    HW150300   6.786   8.967   5.654
16652SOL    HW250301   6.721   9.060   5.537
16653SOL     OW50302   6.408   8.450   6.958
16653SOL    HW150303   6.448   8.449   6.866
16653SOL    HW250304   6.418   8.542   6.998
16654SOL     OW50305   6.502   8.358   5.877
16654SOL    HW150306   6.565   8.396   5.809
16654SOL    HW250307   6.542   8.275   5.916
16655SOL     OW50308   5.958   8.736   7.076
16655SOL    HW150309   5.945   8.829   7.042
16655SOL    HW250310   5.874   8.684   7.063
16656SOL     OW50311   7.200   8.740   6.875
16656SOL    HW150312   7.260   8.743   6.955
16656SOL    HW250313   7.125   8.804   6.888
16657SOL     OW50314   6.625   8.546   6.282
16657SOL    HW150315   6.555   8.499   6.336
16657SOL    HW250316   6.684   8.478   6.239
16658SOL     OW50317   6.600   7.684   6.557
16658SOL    HW150318   6.592   7.648   6.464
16658SOL    HW250319   6.598   7.608   6.622
16659SOL     OW50320   6.176   8.935   6.077
16659SOL    HW150321   6.218   8.877   6.007
16659SOL    HW250322   6.132   9.014   6.033
16660SOL     OW50323   7.295   7.833   6.967
16660SOL    HW150324   7.368   7.902   6.971
16660SOL    HW250325   7.323   7.758   6.908
16661SOL     OW50326   5.691   8.461   7.312
16661SOL    HW150327   5.614   8.428   7.366
16661SOL    HW250328   5.776   8.431   7.354
16662SOL     OW50329   6.258   7.651   7.075
16662SOL    HW150330   6.348   7.635   7.035
16662SOL    HW250331   6.266   7.656   7.174
16663SOL     OW50332   5.661   7.793   5.619
16663SOL    HW150333   5.569   7.765   5.590
16663SOL    HW250334   5.692   7.870   5.563
16664SOL     OW50335   7.026   8.304   6.984
16664SOL    HW150336   6.969   8.356   6.921
16664SOL    HW250337   7.122   8.316   6.960
16665SOL     OW50338   5.658   7.614   5.904
16665SOL    HW150339   5.641   7.697   5.850
16665SOL    HW250340   5.748   7.577   5.882
16666SOL     OW50341   6.769   8.783   5.705
16666SOL    HW150342   6.670   8.772   5.707
16666SOL    HW250343   6.803   8.798   5.798
16667SOL     OW50344   6.199   8.290   7.017
16667SOL    HW150345   6.255   8.371   7.000
16667SOL    HW250346   6.258   8.210   7.020
16668SOL     OW50347   6.302   8.013   7.294
16668SOL    HW150348   6.321   8.078   7.368
16668SOL    HW250349   6.362   7.933   7.303
16669SOL     OW50350   7.036   8.668   7.219
16669SOL    HW150351   7.027   8.658   7.318
16669SOL    HW250352   7.132   8.661   7.193
16670SOL     OW50353   5.976   9.189   7.146
16670SOL    HW150354   5.885   9.230   7.144
16670SOL    HW250355   5.969   9.095   7.178
16671SOL     OW50356   7.260   8.331   6.840
16671SOL    HW150357   7.233   8.242   6.803
16671SOL    HW250358   7.261   8.399   6.767
16672SOL     OW50359   6.811   7.773   6.035
16672SOL    HW150360   6.876   7.699   6.024
16672SOL    HW250361   6.831   7.823   6.119
16673SOL     OW50362   6.180   8.193   6.238
16673SOL    HW150363   6.230   8.278   6.219
16673SOL    HW250364   6.092   8.195   6.190
16674SOL     OW50365   7.363   7.790   7.228
16674SOL    HW150366   7.346   7.821   7.134
16674SOL    HW250367   7.279   7.753   7.266
16675SOL     OW50368   7.316   8.382   7.103
16675SOL    HW150369   7.354   8.473   7.118
16675SOL    HW250370   7.308   8.365   7.004
16676SOL     OW50371   6.445   8.404   6.447
16676SOL    HW150372   6.499   8.335   6.495
16676SOL    HW250373   6.413   8.473   6.513
16677SOL     OW50374   6.669   8.432   5.673
16677SOL    HW150375   6.646   8.485   5.591
16677SOL    HW250376   6.750   8.376   5.654
16678SOL     OW50377   5.807   8.762   7.430
16678SOL    HW150378   5.742   8.689   7.409
16678SOL    HW250379   5.811   8.776   7.528
16679SOL     OW50380   5.665   8.688   6.239
16679SOL    HW150381   5.664   8.641   6.327
16679SOL    HW250382   5.747   8.660   6.188
16680SOL     OW50383   6.258   8.839   7.210
16680SOL    HW150384   6.180   8.789   7.248
16680SOL    HW250385   6.255   8.934   7.241
16681SOL     OW50386   7.410   7.640   6.813
16681SOL    HW150387   7.406   7.550   6.857
16681SOL    HW250388   7.413   7.629   6.714
16682SOL     OW50389   6.014   7.872   6.106
16682SOL    HW150390   6.044   7.800   6.044
16682SOL    HW250391   5.975   7.832   6.189
16683SOL     OW50392   7.291   8.935   6.690
16683SOL    HW150393   7.198   8.910   6.663
16683SOL    HW250394   7.317   8.885   6.772
16684SOL     OW50395   5.903   7.995   6.866
16684SOL    HW150396   5.941   7.936   6.938
16684SOL    HW250397   5.943   7.969   6.778
16685SOL     OW50398   6.398   9.034   6.273
16685SOL    HW150399   6.430   9.044   6.179
16685SOL    HW250400   6.319   8.972   6.275
16686SOL     OW50401   7.010   7.662   6.698
16686SOL    HW150402   7.062   7.597   6.753
16686SOL    HW250403   6.961   7.725   6.759
16687SOL     OW50404   6.587   7.482   6.740
16687SOL    HW150405   6.524   7.410   6.709
16687SOL    HW250406   6.680   7.446   6.740
16688SOL     OW50407   6.356   8.778   5.887
16688SOL    HW150408   6.310   8.691   5.904
16688SOL    HW250409   6.447   8.775   5.928
16689SOL     OW50410   6.938   7.500   5.754
16689SOL    HW150411   6.973   7.459   5.670
16689SOL    HW250412   6.848   7.462   5.774
16690SOL     OW50413   6.886   7.901   6.277
16690SOL    HW150414   6.827   7.981   6.281
16690SOL    HW250415   6.901   7.866   6.370
16691SOL     OW50416   7.179   7.669   6.468
16691SOL    HW150417   7.095   7.668   6.522
16691SOL    HW250418   7.181   7.752   6.412
16692SOL     OW50419   5.625   8.525   5.886
16692SOL    HW150420   5.724   8.514   5.877
16692SOL    HW250421   5.585   8.439   5.918
16693SOL     OW50422   5.816   8.076   7.561
16693SOL    HW150423   5.723   8.074   7.598
16693SOL    HW250424   5.817   8.037   7.469
16694SOL     OW50425   7.341   8.055   7.679
16694SOL    HW150426   7.329   8.042   7.580
16694SOL    HW250427   7.311   7.974   7.728
16695SOL     OW50428   7.111   8.447   7.638
16695SOL    HW150429   7.048   8.371   7.651
16695SOL    HW250430   7.159   8.465   7.724
16696SOL     OW50431   6.184   8.177   7.718
16696SOL    HW150432   6.208   8.246   7.650
16696SOL    HW250433   6.106   8.210   7.772
16697SOL     OW50434   6.451   7.796   7.643
16697SOL    HW150435   6.510   7.859   7.594
16697SOL    HW250436   6.470   7.702   7.614
16698SOL     OW50437   5.907   8.391   7.690
16698SOL    HW150438   5.989   8.430   7.648
16698SOL    HW250439   5.880   8.309   7.641
16699SOL     OW50440   7.218   8.825   7.529
16699SOL    HW150441   7.186   8.919   7.519
16699SOL    HW250442   7.142   8.762   7.517
16700SOL     OW50443   5.968   8.148   7.928
16700SOL    HW150444   6.013   8.058   7.925
16700SOL    HW250445   5.874   8.137   7.961
16701SOL     OW50446   6.200   7.570   7.565
16701SOL    HW150447   6.298   7.548   7.572
16701SOL    HW250448   6.169   7.553   7.472
16702SOL     OW50449   7.020   8.636   7.489
16702SOL    HW150450   7.052   8.560   7.546
16702SOL    HW250451   6.928   8.663   7.519
16703SOL     OW50452   5.883   7.483   7.619
16703SOL    HW150453   5.932   7.567   7.598
16703SOL    HW250454   5.945   7.418   7.664
16704SOL     OW50455   6.618   7.997   7.464
16704SOL    HW150456   6.577   8.079   7.425
16704SOL    HW250457   6.682   8.023   7.537
16705SOL     OW50458   6.074   8.833   7.622
16705SOL    HW150459   5.987   8.818   7.669
16705SOL    HW250460   6.057   8.859   7.527
16706SOL     OW50461   6.976   8.023   7.526
16706SOL    HW150462   6.922   8.002   7.607
16706SOL    HW250463   7.067   7.982   7.535
16707SOL     OW50464   5.953   8.548   7.949
16707SOL    HW150465   5.946   8.631   7.893
16707SOL    HW250466   5.957   8.468   7.889
16708SOL     OW50467   6.795   7.973   7.723
16708SOL    HW150468   6.808   7.889   7.777
16708SOL    HW250469   6.766   8.047   7.783
16709SOL     OW50470   6.889   8.286   7.490
16709SOL    HW150471   6.923   8.193   7.505
16709SOL    HW250472   6.907   8.313   7.395
16710SOL     OW50473   5.594   8.774   7.648
16710SOL    HW150474   5.501   8.795   7.617
16710SOL    HW250475   5.604   8.675   7.661
16711SOL     OW50476   6.059   7.948   7.639
16711SOL    HW150477   6.120   8.028   7.643
16711SOL    HW250478   5.964   7.979   7.646
16712SOL     OW50479   6.780   9.060   7.479
16712SOL    HW150480   6.786   8.967   7.516
16712SOL    HW250481   6.721   9.060   7.399
16713SOL     OW50482   6.176   8.935   7.939
16713SOL    HW150483   6.218   8.877   7.869
16713SOL    HW250484   6.132   9.014   7.895
16714SOL     OW50485   5.661   7.793   7.481
16714SOL    HW150486   5.569   7.765   7.452
16714SOL    HW250487   5.692   7.870   7.425
16715SOL     OW50488   5.658   7.614   7.766
16715SOL    HW150489   5.641   7.697   7.712
16715SOL    HW250490   5.748   7.577   7.744
16716SOL     OW50491   6.769   8.783   7.567
16716SOL    HW150492   6.670   8.772   7.569
16716SOL    HW250493   6.803   8.798   7.660
16717SOL     OW50494   6.669   8.432   7.535
16717SOL    HW150495   6.646   8.485   7.453
16717SOL    HW250496   6.750   8.376   7.516
16718SOL     OW50497   6.014   7.872   7.968
16718SOL    HW150498   6.044   7.800   7.906
16718SOL    HW250499   5.975   7.832   8.051
16719SOL     OW50500   6.938   7.500   7.616
16719SOL    HW150501   6.973   7.459   7.532
16719SOL    HW250502   6.848   7.462   7.636
16720SOL     OW50503   5.625   8.525   7.748
16720SOL    HW150504   5.724   8.514   7.739
16720SOL    HW250505   5.585   8.439   7.780
16721SOL     OW50506   6.461   9.094   7.785
16721SOL    HW150507   6.384   9.059   7.731
16721SOL    HW250508   6.429   9.165   7.847
16722SOL     OW50509   7.467   0.368   0.647
16722SOL    HW150510   7.385   0.411   0.686
16722SOL    HW250511   7.439   0.295   0.584
16723SOL     OW50512   8.017   1.275   1.165
16723SOL    HW150513   7.924   1.268   1.128
16723SOL    HW250514   8.028   1.364   1.209
16724SOL     OW50515   9.003   1.511   0.703
16724SOL    HW150516   8.946   1.495   0.784
16724SOL    HW250517   8.944   1.521   0.623
16725SOL     OW50518   8.583   0.703   0.717
16725SOL    HW150519   8.640   0.781   0.692
16725SOL    HW250520   8.523   0.729   0.793
16726SOL     OW50521   9.203   0.607   0.231
16726SOL    HW150522   9.191   0.594   0.132
16726SOL    HW250523   9.173   0.526   0.280
16727SOL     OW50524   8.216   1.144   1.023
16727SOL    HW150525   8.138   1.161   1.083
16727SOL    HW250526   8.250   1.231   0.987
16728SOL     OW50527   8.298   0.798   1.823
16728SOL    HW150528   8.294   0.874   1.888
16728SOL    HW250529   8.320   0.834   1.732
16729SOL     OW50530   8.133   1.012   0.665
16729SOL    HW150531   8.202   0.996   0.735
16729SOL    HW250532   8.060   1.069   0.703
16730SOL     OW50533   8.134   1.161   1.803
16730SOL    HW150534   8.194   1.240   1.817
16730SOL    HW250535   8.048   1.192   1.762
16731SOL     OW50536   7.783   1.435   1.061
16731SOL    HW150537   7.705   1.404   1.008
16731SOL    HW250538   7.841   1.493   1.004
16732SOL     OW50539   8.908   1.505   1.339
16732SOL    HW150540   8.932   1.599   1.365
16732SOL    HW250541   8.892   1.451   1.421
16733SOL     OW50542   9.051   0.447   0.737
16733SOL    HW150543   8.977   0.493   0.687
16733SOL    HW250544   9.102   0.515   0.790
16734SOL     OW50545   7.679   1.713   0.483
16734SOL    HW150546   7.713   1.790   0.537
16734SOL    HW250547   7.723   1.713   0.393
16735SOL     OW50548   8.575   1.341   1.690
16735SOL    HW150549   8.622   1.341   1.778
16735SOL    HW250550   8.527   1.254   1.679
16736SOL     OW50551   7.678   1.434   0.538
16736SOL    HW150552   7.652   1.530   0.538
16736SOL    HW250553   7.607   1.380   0.583
16737SOL     OW50554   7.688   1.091   0.886
16737SOL    HW150555   7.702   1.007   0.938
16737SOL    HW250556   7.633   1.155   0.941
16738SOL     OW50557   8.068   1.786   1.439
16738SOL    HW150558   7.976   1.769   1.474
16738SOL    HW250559   8.096   1.878   1.465
16739SOL     OW50560   7.570   0.643   0.563
16739SOL    HW150561   7.525   0.555   0.580
16739SOL    HW250562   7.569   0.697   0.647
16740SOL     OW50563   9.290   1.767   0.359
16740SOL    HW150564   9.344   1.738   0.439
16740SOL    HW250565   9.320   1.857   0.330
16741SOL     OW50566   9.137   0.922   0.612
16741SOL    HW150567   9.232   0.893   0.620
16741SOL    HW250568   9.129   0.987   0.537
16742SOL     OW50569   9.089   1.108   0.432
16742SOL    HW150570   9.175   1.110   0.380
16742SOL    HW250571   9.103   1.155   0.520
16743SOL     OW50572   7.561   0.737   1.597
16743SOL    HW150573   7.649   0.724   1.642
16743SOL    HW250574   7.548   0.834   1.575
16744SOL     OW50575   8.061   1.365   0.726
16744SOL    HW150576   8.012   1.278   0.735
16744SOL    HW250577   8.038   1.408   0.639
16745SOL     OW50578   8.741   1.228   1.423
16745SOL    HW150579   8.778   1.155   1.365
16745SOL    HW250580   8.793   1.233   1.508
16746SOL     OW50581   7.645   0.976   1.264
16746SOL    HW150582   7.734   0.931   1.250
16746SOL    HW250583   7.572   0.911   1.245
16747SOL     OW50584   8.635   1.792   1.616
16747SOL    HW150585   8.659   1.852   1.540
16747SOL    HW250586   8.642   1.697   1.586
16748SOL     OW50587   8.914   1.417   0.953
16748SOL    HW150588   8.855   1.423   1.033
16748SOL    HW250589   8.899   1.329   0.907
16749SOL     OW50590   9.115   1.714   0.572
16749SOL    HW150591   9.074   1.691   0.484
16749SOL    HW250592   9.097   1.640   0.637
16750SOL     OW50593   8.255   0.605   1.465
16750SOL    HW150594   8.208   0.602   1.554
16750SOL    HW250595   8.204   0.550   1.399
16751SOL     OW50596   8.842   0.469   1.674
16751SOL    HW150597   8.822   0.512   1.762
16751SOL    HW250598   8.920   0.407   1.683
16752SOL     OW50599   8.421   0.890   1.572
16752SOL    HW150600   8.467   0.806   1.543
16752SOL    HW250601   8.365   0.924   1.497
16753SOL     OW50602   8.439   0.410   1.242
16753SOL    HW150603   8.362   0.444   1.296
16753SOL    HW250604   8.405   0.359   1.163
16754SOL     OW50605   8.489   0.701   0.429
16754SOL    HW150606   8.515   0.697   0.525
16754SOL    HW250607   8.404   0.650   0.415
16755SOL     OW50608   7.524   0.811   0.789
16755SOL    HW150609   7.623   0.799   0.798
16755SOL    HW250610   7.500   0.906   0.810
16756SOL     OW50611   7.578   1.821   1.571
16756SOL    HW150612   7.568   1.806   1.670
16756SOL    HW250613   7.492   1.857   1.535
16757SOL     OW50614   9.167   0.585   1.831
16757SOL    HW150615   9.141   0.674   1.795
16757SOL    HW250616   9.165   0.517   1.758
16758SOL     OW50617   8.810   1.144   0.545
16758SOL    HW150618   8.893   1.115   0.497
16758SOL    HW250619   8.761   1.211   0.489
16759SOL     OW50620   7.998   0.196   0.885
16759SOL    HW150621   7.993   0.191   0.985
16759SOL    HW250622   8.000   0.292   0.856
16760SOL     OW50623   8.456   1.456   0.477
16760SOL    HW150624   8.410   1.528   0.425
16760SOL    HW250625   8.452   1.476   0.575
16761SOL     OW50626   7.799   1.801   0.853
16761SOL    HW150627   7.849   1.715   0.859
16761SOL    HW250628   7.864   1.878   0.850
16762SOL     OW50629   9.243   1.066   0.873
16762SOL    HW150630   9.181   1.051   0.797
16762SOL    HW250631   9.191   1.077   0.958
16763SOL     OW50632   8.675   1.550   1.506
16763SOL    HW150633   8.681   1.473   1.570
16763SOL    HW250634   8.623   1.524   1.426
16764SOL     OW50635   8.906   0.735   0.728
16764SOL    HW150636   8.901   0.670   0.803
16764SOL    HW250637   8.986   0.794   0.741
16765SOL     OW50638   7.909   1.266   1.727
16765SOL    HW150639   7.859   1.267   1.641
16765SOL    HW250640   7.846   1.248   1.803
16766SOL     OW50641   7.697   1.785   1.241
16766SOL    HW150642   7.754   1.720   1.291
16766SOL    HW250643   7.681   1.752   1.148
16767SOL     OW50644   8.388   1.698   0.904
16767SOL    HW150645   8.468   1.641   0.925
16767SOL    HW250646   8.339   1.658   0.827
16768SOL     OW50647   7.830   0.700   0.480
16768SOL    HW150648   7.875   0.610   0.477
16768SOL    HW250649   7.736   0.689   0.513
16769SOL     OW50650   8.336   1.514   1.195
16769SOL    HW150651   8.313   1.489   1.101
16769SOL    HW250652   8.397   1.445   1.234
16770SOL     OW50653   8.799   0.590   1.433
16770SOL    HW150654   8.827   0.547   1.518
16770SOL    HW250655   8.824   0.686   1.434
16771SOL     OW50656   8.251   1.402   0.924
16771SOL    HW150657   8.341   1.416   0.882
16771SOL    HW250658   8.180   1.404   0.853
16772SOL     OW50659   8.370   0.503   0.899
16772SOL    HW150660   8.345   0.494   0.803
16772SOL    HW250661   8.418   0.421   0.930
16773SOL     OW50662   8.383   0.236   0.480
16773SOL    HW150663   8.335   0.277   0.402
16773SOL    HW250664   8.482   0.234   0.461
16774SOL     OW50665   8.524   0.683   1.464
16774SOL    HW150666   8.444   0.622   1.467
16774SOL    HW250667   8.605   0.630   1.440
16775SOL     OW50668   8.675   1.570   0.793
16775SOL    HW150669   8.696   1.644   0.728
16775SOL    HW250670   8.743   1.570   0.866
16776SOL     OW50671   7.907   1.152   0.741
16776SOL    HW150672   7.836   1.125   0.806
16776SOL    HW250673   7.881   1.124   0.648
16777SOL     OW50674   8.719   1.797   0.591
16777SOL    HW150675   8.763   1.861   0.527
16777SOL    HW250676   8.669   1.849   0.661
16778SOL     OW50677   8.480   0.549   0.016
16778SOL    HW150678   8.439   0.631  -0.023
16778SOL    HW250679   8.544   0.575   0.089
16779SOL     OW50680   7.526   0.556   1.386
16779SOL    HW150681   7.618   0.555   1.345
16779SOL    HW250682   7.520   0.630   1.453
16780SOL     OW50683   8.314   0.454   0.642
16780SOL    HW150684   8.282   0.526   0.580
16780SOL    HW250685   8.338   0.373   0.589
16781SOL     OW50686   8.465   0.039   0.753
16781SOL    HW150687   8.393   0.044   0.684
16781SOL    HW250688   8.441  -0.030   0.822
16782SOL     OW50689   8.877   1.173   0.867
16782SOL    HW150690   8.822   1.089   0.860
16782SOL    HW250691   8.903   1.202   0.775
16783SOL     OW50692   8.914   0.590   0.992
16783SOL    HW150693   8.884   0.495   0.999
16783SOL    HW250694   8.987   0.606   1.058
16784SOL     OW50695   9.112   1.280   0.657
16784SOL    HW150696   9.211   1.288   0.671
16784SOL    HW250697   9.067   1.364   0.688
16785SOL     OW50698   9.202   1.223   1.588
16785SOL    HW150699   9.293   1.184   1.575
16785SOL    HW250700   9.210   1.319   1.612
16786SOL     OW50701   8.512   1.347   1.340
16786SOL    HW150702   8.432   1.324   1.395
16786SOL    HW250703   8.595   1.321   1.389
16787SOL     OW50704   9.040   1.629   1.625
16787SOL    HW150705   9.067   1.663   1.535
16787SOL    HW250706   9.119   1.591   1.671
16788SOL     OW50707   8.559   1.195   1.100
16788SOL    HW150708   8.519   1.239   1.181
16788SOL    HW250709   8.518   1.232   1.017
16789SOL     OW50710   9.086   1.099   1.079
16789SOL    HW150711   9.091   1.180   1.138
16789SOL    HW250712   9.000   1.101   1.028
16790SOL     OW50713   8.428   1.116   1.719
16790SOL    HW150714   8.329   1.122   1.729
16790SOL    HW250715   8.451   1.036   1.663
16791SOL     OW50716   7.858   0.813   1.251
16791SOL    HW150717   7.944   0.825   1.301
16791SOL    HW250718   7.816   0.726   1.278
16792SOL     OW50719   8.722   0.386   1.262
16792SOL    HW150720   8.743   0.460   1.326
16792SOL    HW250721   8.633   0.403   1.219
16793SOL     OW50722   7.512   1.564   1.331
16793SOL    HW150723   7.466   1.646   1.297
16793SOL    HW250724   7.610   1.583   1.340
16794SOL     OW50725   7.815   1.100   0.501
16794SOL    HW150726   7.808   1.183   0.445
16794SOL    HW250727   7.819   1.020   0.441
16795SOL     OW50728   8.014   0.537   0.865
16795SOL    HW150729   8.026   0.603   0.791
16795SOL    HW250730   8.060   0.571   0.948
16796SOL     OW50731   8.700   1.348   0.388
16796SOL    HW150732   8.750   1.425   0.428
16796SOL    HW250733   8.605   1.350   0.420
16797SOL     OW50734   8.720   1.445   1.142
16797SOL    HW150735   8.767   1.458   1.229
16797SOL    HW250736   8.654   1.371   1.151
16798SOL     OW50737   9.030   0.639   0.472
16798SOL    HW150738   8.999   0.700   0.545
16798SOL    HW250739   9.080   0.691   0.403
16799SOL     OW50740   7.802   1.510   1.329
16799SOL    HW150741   7.781   1.466   1.242
16799SOL    HW250742   7.899   1.536   1.332
16800SOL     OW50743   7.850   0.751   1.598
16800SOL    HW150744   7.918   0.806   1.551
16800SOL    HW250745   7.890   0.663   1.625
16801SOL     OW50746   9.035   0.779   1.670
16801SOL    HW150747   8.943   0.817   1.665
16801SOL    HW250748   9.095   0.826   1.605
16802SOL     OW50749   8.021   0.870   1.029
16802SOL    HW150750   8.065   0.959   1.020
16802SOL    HW250751   7.958   0.870   1.106
16803SOL     OW50752   8.808   0.862   1.045
16803SOL    HW150753   8.733   0.862   0.979
16803SOL    HW250754   8.845   0.770   1.054
16804SOL     OW50755   8.657   0.525   0.275
16804SOL    HW150756   8.670   0.441   0.329
16804SOL    HW250757   8.628   0.599   0.335
16805SOL     OW50758   7.485   1.310   1.282
16805SOL    HW150759   7.538   1.261   1.350
16805SOL    HW250760   7.507   1.408   1.287
16806SOL     OW50761   8.180   0.634   1.064
16806SOL    HW150762   8.239   0.608   0.988
16806SOL    HW250763   8.152   0.730   1.053
16807SOL     OW50764   9.176   0.935   1.854
16807SOL    HW150765   9.130   0.928   1.765
16807SOL    HW250766   9.114   0.979   1.920
16808SOL     OW50767   8.471   0.766   0.966
16808SOL    HW150768   8.486   0.787   1.062
16808SOL    HW250769   8.441   0.671   0.957
16809SOL     OW50770   8.428   1.573   1.700
16809SOL    HW150771   8.408   1.617   1.612
16809SOL    HW250772   8.467   1.482   1.684
16810SOL     OW50773   9.307   1.518   1.605
16810SOL    HW150774   9.321   1.545   1.510
16810SOL    HW250775   9.390   1.540   1.658
16811SOL     OW50776   7.798   0.898   1.804
16811SOL    HW150777   7.874   0.942   1.852
16811SOL    HW250778   7.833   0.851   1.722
16812SOL     OW50779   8.516   1.333   0.849
16812SOL    HW150780   8.523   1.249   0.794
16812SOL    HW250781   8.578   1.402   0.813
16813SOL     OW50782   7.767   0.810   0.949
16813SOL    HW150783   7.860   0.846   0.954
16813SOL    HW250784   7.761   0.725   1.001
16814SOL     OW50785   7.787   0.509   1.006
16814SOL    HW150786   7.735   0.426   0.989
16814SOL    HW250787   7.864   0.514   0.942
16815SOL     OW50788   7.959   0.415   1.808
16815SOL    HW150789   7.941   0.460   1.896
16815SOL    HW250790   8.001   0.480   1.745
16816SOL     OW50791   7.536   1.801   0.927
16816SOL    HW150792   7.494   1.715   0.900
16816SOL    HW250793   7.630   1.804   0.893
16817SOL     OW50794   7.952   1.568   0.910
16817SOL    HW150795   8.018   1.642   0.919
16817SOL    HW250796   7.996   1.489   0.868
16818SOL     OW50797   8.450   0.796   1.238
16818SOL    HW150798   8.491   0.764   1.324
16818SOL    HW250799   8.354   0.769   1.235
16819SOL     OW50800   7.488   0.544   1.114
16819SOL    HW150801   7.573   0.511   1.073
16819SOL    HW250802   7.501   0.559   1.212
16820SOL     OW50803   7.637   0.520   1.722
16820SOL    HW150804   7.696   0.480   1.652
16820SOL    HW250805   7.579   0.591   1.681
16821SOL     OW50806   8.817   0.950   1.660
16821SOL    HW150807   8.856   1.039   1.680
16821SOL    HW250808   8.827   0.930   1.563
16822SOL     OW50809   9.105   0.604   1.206
16822SOL    HW150810   9.067   0.535   1.268
16822SOL    HW250811   9.187   0.568   1.162
16823SOL     OW50812   7.700   1.564   1.744
16823SOL    HW150813   7.670   1.621   1.820
16823SOL    HW250814   7.693   1.467   1.770
16824SOL     OW50815   8.378   1.678   1.465
16824SOL    HW150816   8.354   1.660   1.370
16824SOL    HW250817   8.408   1.772   1.475
16825SOL     OW50818   7.607   1.137   1.466
16825SOL    HW150819   7.629   1.076   1.542
16825SOL    HW250820   7.617   1.088   1.380
16826SOL     OW50821   8.795   1.059   1.234
16826SOL    HW150822   8.819   0.996   1.160
16826SOL    HW250823   8.705   1.099   1.216
16827SOL     OW50824   8.750   0.855   0.309
16827SOL    HW150825   8.664   0.824   0.351
16827SOL    HW250826   8.746   0.841   0.210
16828SOL     OW50827   9.207   1.747   1.154
16828SOL    HW150828   9.268   1.777   1.081
16828SOL    HW250829   9.169   1.658   1.132
16829SOL     OW50830   8.700   1.731   1.128
16829SOL    HW150831   8.784   1.736   1.074
16829SOL    HW250832   8.677   1.635   1.146
16830SOL     OW50833   7.531   1.258   1.022
16830SOL    HW150834   7.526   1.257   1.122
16830SOL    HW250835   7.448   1.217   0.984
16831SOL     OW50836   8.136   1.662   1.716
16831SOL    HW150837   8.080   1.743   1.725
16831SOL    HW250838   8.188   1.666   1.630
16832SOL     OW50839   8.351   0.086   0.133
16832SOL    HW150840   8.402   0.087   0.047
16832SOL    HW250841   8.407   0.044   0.204
16833SOL     OW50842   8.836   1.573   0.477
16833SOL    HW150843   8.903   1.585   0.403
16833SOL    HW250844   8.796   1.662   0.500
16834SOL     OW50845   7.578   1.794   1.851
16834SOL    HW150846   7.537   1.720   1.904
16834SOL    HW250847   7.642   1.845   1.909
16835SOL     OW50848   8.728   0.927   0.672
16835SOL    HW150849   8.788   0.846   0.674
16835SOL    HW250850   8.768   0.996   0.612
16836SOL     OW50851   8.278   1.273   1.422
16836SOL    HW150852   8.273   1.306   1.517
16836SOL    HW250853   8.192   1.292   1.376
16837SOL     OW50854   9.098   1.720   1.394
16837SOL    HW150855   9.151   1.730   1.310
16837SOL    HW250856   9.071   1.810   1.428
16838SOL     OW50857   7.711   0.326   0.720
16838SOL    HW150858   7.632   0.377   0.686
16838SOL    HW250859   7.702   0.311   0.818
16839SOL     OW50860   8.270   1.002   1.372
16839SOL    HW150861   8.310   1.001   1.280
16839SOL    HW250862   8.280   1.094   1.412
16840SOL     OW50863   7.820   1.288   1.490
16840SOL    HW150864   7.807   1.381   1.456
16840SOL    HW250865   7.736   1.236   1.477
16841SOL     OW50866   9.062   1.292   1.289
16841SOL    HW150867   9.122   1.295   1.369
16841SOL    HW250868   8.987   1.356   1.302
16842SOL     OW50869   8.487   1.098   0.696
16842SOL    HW150870   8.417   1.051   0.750
16842SOL    HW250871   8.546   1.030   0.653
16843SOL     OW50872   8.462   0.236   0.971
16843SOL    HW150873   8.454   0.200   0.878
16843SOL    HW250874   8.460   0.160   1.036
16844SOL     OW50875   8.038   1.487   0.491
16844SOL    HW150876   8.080   1.429   0.421
16844SOL    HW250877   7.994   1.566   0.447
16845SOL     OW50878   7.553   1.013   1.726
16845SOL    HW150879   7.476   0.980   1.780
16845SOL    HW250880   7.638   0.983   1.768
16846SOL     OW50881   8.888   0.856   1.398
16846SOL    HW150882   8.831   0.908   1.335
16846SOL    HW250883   8.984   0.868   1.374
16847SOL     OW50884   7.520   0.166   0.318
16847SOL    HW150885   7.503   0.249   0.264
16847SOL    HW250886   7.610   0.129   0.296
16848SOL     OW50887   8.061   0.842   1.431
16848SOL    HW150888   8.117   0.923   1.414
16848SOL    HW250889   8.120   0.762   1.434
16849SOL     OW50890   8.941   1.767   0.959
16849SOL    HW150891   8.974   1.831   0.890
16849SOL    HW250892   9.007   1.761   1.034
16850SOL     OW50893   8.164   0.565   1.708
16850SOL    HW150894   8.183   0.630   1.782
16850SOL    HW250895   8.224   0.485   1.717
16851SOL     OW50896   8.898   1.220   1.633
16851SOL    HW150897   8.889   1.210   1.732
16851SOL    HW250898   8.994   1.213   1.607
16852SOL     OW50899   7.838   1.741   1.560
16852SOL    HW150900   7.747   1.782   1.558
16852SOL    HW250901   7.831   1.647   1.592
16853SOL     OW50902   9.122   0.883   1.254
16853SOL    HW150903   9.095   0.794   1.217
16853SOL    HW250904   9.123   0.951   1.181
16854SOL     OW50905   8.673   0.325   0.449
16854SOL    HW150906   8.738   0.251   0.438
16854SOL    HW250907   8.693   0.375   0.533
16855SOL     OW50908   8.042   0.745   0.652
16855SOL    HW150909   8.092   0.830   0.633
16855SOL    HW250910   7.954   0.747   0.604
16856SOL     OW50911   9.178   0.934   1.517
16856SOL    HW150912   9.216   1.025   1.532
16856SOL    HW250913   9.170   0.917   1.418
16857SOL     OW50914   8.109   1.790   0.953
16857SOL    HW150915   8.063   1.878   0.940
16857SOL    HW250916   8.208   1.802   0.946
16858SOL     OW50917   8.307   0.956   0.861
16858SOL    HW150918   8.361   0.887   0.909
16858SOL    HW250919   8.275   1.025   0.927
16859SOL     OW50920   9.309   1.569   0.851
16859SOL    HW150921   9.238   1.557   0.781
16859SOL    HW250922   9.310   1.490   0.911
16860SOL     OW50923   7.669   1.314   1.844
16860SOL    HW150924   7.604   1.241   1.823
16860SOL    HW250925   7.673   1.328   1.942
16861SOL     OW50926   7.527   1.240   0.653
16861SOL    HW150927   7.526   1.193   0.741
16861SOL    HW250928   7.609   1.212   0.602
16862SOL     OW50929   8.120   1.391   1.624
16862SOL    HW150930   8.042   1.341   1.662
16862SOL    HW250931   8.117   1.486   1.655
16863SOL     OW50932   9.272   0.192   1.227
16863SOL    HW150933   9.268   0.102   1.271
16863SOL    HW250934   9.275   0.181   1.128
16864SOL     OW50935   9.153   1.487   1.104
16864SOL    HW150936   9.060   1.462   1.077
16864SOL    HW250937   9.179   1.437   1.186
16865SOL     OW50938   7.765   0.547   1.280
16865SOL    HW150939   7.803   0.488   1.352
16865SOL    HW250940   7.805   0.521   1.192
16866SOL     OW50941   8.260   1.586   0.687
16866SOL    HW150942   8.292   1.596   0.593
16866SOL    HW250943   8.181   1.524   0.689
16867SOL     OW50944   8.066   1.567   1.284
16867SOL    HW150945   8.061   1.649   1.341
16867SOL    HW250946   8.155   1.564   1.239
16868SOL     OW50947   8.748   0.453   0.691
16868SOL    HW150948   8.689   0.533   0.695
16868SOL    HW250949   8.763   0.418   0.784
16869SOL     OW50950   8.323   1.646   0.337
16869SOL    HW150951   8.246   1.611   0.283
16869SOL    HW250952   8.291   1.717   0.399
16870SOL     OW50953   7.678   0.628   1.975
16870SOL    HW150954   7.585   0.626   2.012
16870SOL    HW250955   7.679   0.589   1.883
16871SOL     OW50956   7.467   0.368   2.509
16871SOL    HW150957   7.385   0.411   2.548
16871SOL    HW250958   7.439   0.295   2.446
16872SOL     OW50959   8.017   1.275   3.027
16872SOL    HW150960   7.924   1.268   2.990
16872SOL    HW250961   8.028   1.364   3.071
16873SOL     OW50962   9.003   1.511   2.565
16873SOL    HW150963   8.946   1.495   2.646
16873SOL    HW250964   8.944   1.521   2.485
16874SOL     OW50965   8.583   0.703   2.579
16874SOL    HW150966   8.640   0.781   2.554
16874SOL    HW250967   8.523   0.729   2.655
16875SOL     OW50968   9.203   0.607   2.093
16875SOL    HW150969   9.191   0.594   1.994
16875SOL    HW250970   9.173   0.526   2.142
16876SOL     OW50971   8.216   1.144   2.885
16876SOL    HW150972   8.138   1.161   2.945
16876SOL    HW250973   8.250   1.231   2.849
16877SOL     OW50974   8.298   0.798   3.685
16877SOL    HW150975   8.294   0.874   3.750
16877SOL    HW250976   8.320   0.834   3.594
16878SOL     OW50977   8.133   1.012   2.527
16878SOL    HW150978   8.202   0.996   2.597
16878SOL    HW250979   8.060   1.069   2.565
16879SOL     OW50980   8.134   1.161   3.665
16879SOL    HW150981   8.194   1.240   3.679
16879SOL    HW250982   8.048   1.192   3.624
16880SOL     OW50983   7.783   1.435   2.923
16880SOL    HW150984   7.705   1.404   2.870
16880SOL    HW250985   7.841   1.493   2.866
16881SOL     OW50986   8.908   1.505   3.201
16881SOL    HW150987   8.932   1.599   3.227
16881SOL    HW250988   8.892   1.451   3.283
16882SOL     OW50989   9.051   0.447   2.599
16882SOL    HW150990   8.977   0.493   2.549
16882SOL    HW250991   9.102   0.515   2.652
16883SOL     OW50992   7.679   1.713   2.345
16883SOL    HW150993   7.713   1.790   2.399
16883SOL    HW250994   7.723   1.713   2.255
16884SOL     OW50995   8.575   1.341   3.552
16884SOL    HW150996   8.622   1.341   3.640
16884SOL    HW250997   8.527   1.254   3.541
16885SOL     OW50998   7.678   1.434   2.400
16885SOL    HW150999   7.652   1.530   2.400
16885SOL    HW251000   7.607   1.380   2.445
16886SOL     OW51001   7.688   1.091   2.748
16886SOL    HW151002   7.702   1.007   2.800
16886SOL    HW251003   7.633   1.155   2.803
16887SOL     OW51004   8.068   1.786   3.301
16887SOL    HW151005   7.976   1.769   3.336
16887SOL    HW251006   8.096   1.878   3.327
16888SOL     OW51007   8.054   0.964   1.985
16888SOL    HW151008   8.061   1.048   1.931
16888SOL    HW251009   8.100   0.977   2.073
16889SOL     OW51010   7.570   0.643   2.425
16889SOL    HW151011   7.525   0.555   2.442
16889SOL    HW251012   7.569   0.697   2.509
16890SOL     OW51013   9.290   1.767   2.221
16890SOL    HW151014   9.344   1.738   2.301
16890SOL    HW251015   9.320   1.857   2.192
16891SOL     OW51016   7.475   1.596   1.979
16891SOL    HW151017   7.456   1.500   2.000
16891SOL    HW251018   7.442   1.654   2.054
16892SOL     OW51019   9.137   0.922   2.474
16892SOL    HW151020   9.232   0.893   2.482
16892SOL    HW251021   9.129   0.987   2.399
16893SOL     OW51022   9.089   1.108   2.294
16893SOL    HW151023   9.175   1.110   2.242
16893SOL    HW251024   9.103   1.155   2.382
16894SOL     OW51025   7.561   0.737   3.459
16894SOL    HW151026   7.649   0.724   3.504
16894SOL    HW251027   7.548   0.834   3.437
16895SOL     OW51028   8.061   1.365   2.588
16895SOL    HW151029   8.012   1.278   2.597
16895SOL    HW251030   8.038   1.408   2.501
16896SOL     OW51031   8.741   1.228   3.285
16896SOL    HW151032   8.778   1.155   3.227
16896SOL    HW251033   8.793   1.233   3.370
16897SOL     OW51034   7.645   0.976   3.126
16897SOL    HW151035   7.734   0.931   3.112
16897SOL    HW251036   7.572   0.911   3.107
16898SOL     OW51037   8.973   0.999   2.052
16898SOL    HW151038   8.910   0.923   2.065
16898SOL    HW251039   9.021   1.017   2.138
16899SOL     OW51040   8.635   1.792   3.478
16899SOL    HW151041   8.659   1.852   3.402
16899SOL    HW251042   8.642   1.697   3.448
16900SOL     OW51043   8.914   1.417   2.815
16900SOL    HW151044   8.855   1.423   2.895
16900SOL    HW251045   8.899   1.329   2.769
16901SOL     OW51046   9.115   1.714   2.434
16901SOL    HW151047   9.074   1.691   2.346
16901SOL    HW251048   9.097   1.640   2.499
16902SOL     OW51049   8.046   0.729   2.132
16902SOL    HW151050   8.070   0.798   2.064
16902SOL    HW251051   7.968   0.762   2.186
16903SOL     OW51052   9.024   1.662   2.169
16903SOL    HW151053   9.113   1.708   2.172
16903SOL    HW251054   9.003   1.638   2.074
16904SOL     OW51055   8.255   0.605   3.327
16904SOL    HW151056   8.208   0.602   3.416
16904SOL    HW251057   8.204   0.550   3.261
16905SOL     OW51058   8.842   0.469   3.536
16905SOL    HW151059   8.822   0.512   3.624
16905SOL    HW251060   8.920   0.407   3.545
16906SOL     OW51061   8.421   0.890   3.434
16906SOL    HW151062   8.467   0.806   3.405
16906SOL    HW251063   8.365   0.924   3.359
16907SOL     OW51064   8.439   0.410   3.104
16907SOL    HW151065   8.362   0.444   3.158
16907SOL    HW251066   8.405   0.359   3.025
16908SOL     OW51067   8.489   0.701   2.291
16908SOL    HW151068   8.515   0.697   2.387
16908SOL    HW251069   8.404   0.650   2.277
16909SOL     OW51070   7.524   0.811   2.651
16909SOL    HW151071   7.623   0.799   2.660
16909SOL    HW251072   7.500   0.906   2.672
16910SOL     OW51073   7.578   1.821   3.433
16910SOL    HW151074   7.568   1.806   3.532
16910SOL    HW251075   7.492   1.857   3.397
16911SOL     OW51076   8.313   0.348   2.057
16911SOL    HW151077   8.372   0.411   2.008
16911SOL    HW251078   8.332   0.254   2.028
16912SOL     OW51079   9.167   0.585   3.693
16912SOL    HW151080   9.141   0.674   3.657
16912SOL    HW251081   9.165   0.517   3.620
16913SOL     OW51082   8.810   1.144   2.407
16913SOL    HW151083   8.893   1.115   2.359
16913SOL    HW251084   8.761   1.211   2.351
16914SOL     OW51085   7.998   0.196   2.747
16914SOL    HW151086   7.993   0.191   2.847
16914SOL    HW251087   8.000   0.292   2.718
16915SOL     OW51088   8.456   1.456   2.339
16915SOL    HW151089   8.410   1.528   2.287
16915SOL    HW251090   8.452   1.476   2.437
16916SOL     OW51091   7.799   1.801   2.715
16916SOL    HW151092   7.849   1.715   2.721
16916SOL    HW251093   7.864   1.878   2.712
16917SOL     OW51094   9.243   1.066   2.735
16917SOL    HW151095   9.181   1.051   2.659
16917SOL    HW251096   9.191   1.077   2.820
16918SOL     OW51097   8.675   1.550   3.368
16918SOL    HW151098   8.681   1.473   3.432
16918SOL    HW251099   8.623   1.524   3.288
16919SOL     OW51100   7.769   0.943   2.104
16919SOL    HW151101   7.851   0.982   2.062
16919SOL    HW251102   7.742   0.861   2.055
16920SOL     OW51103   8.906   0.735   2.590
16920SOL    HW151104   8.901   0.670   2.665
16920SOL    HW251105   8.986   0.794   2.603
16921SOL     OW51106   7.909   1.266   3.589
16921SOL    HW151107   7.859   1.267   3.503
16921SOL    HW251108   7.846   1.248   3.665
16922SOL     OW51109   8.559   1.776   2.099
16922SOL    HW151110   8.499   1.714   2.149
16922SOL    HW251111   8.590   1.732   2.014
16923SOL     OW51112   9.080   1.377   1.943
16923SOL    HW151113   9.048   1.471   1.933
16923SOL    HW251114   9.004   1.314   1.931
16924SOL     OW51115   7.912   1.743   2.185
16924SOL    HW151116   7.945   1.782   2.271
16924SOL    HW251117   7.988   1.736   2.120
16925SOL     OW51118   7.697   1.785   3.103
16925SOL    HW151119   7.754   1.720   3.153
16925SOL    HW251120   7.681   1.752   3.010
16926SOL     OW51121   8.388   1.698   2.766
16926SOL    HW151122   8.468   1.641   2.787
16926SOL    HW251123   8.339   1.658   2.689
16927SOL     OW51124   7.830   0.700   2.342
16927SOL    HW151125   7.875   0.610   2.339
16927SOL    HW251126   7.736   0.689   2.375
16928SOL     OW51127   8.336   1.514   3.057
16928SOL    HW151128   8.313   1.489   2.963
16928SOL    HW251129   8.397   1.445   3.096
16929SOL     OW51130   8.799   0.590   3.295
16929SOL    HW151131   8.827   0.547   3.380
16929SOL    HW251132   8.824   0.686   3.296
16930SOL     OW51133   8.251   1.402   2.786
16930SOL    HW151134   8.341   1.416   2.744
16930SOL    HW251135   8.180   1.404   2.715
16931SOL     OW51136   8.370   0.503   2.761
16931SOL    HW151137   8.345   0.494   2.665
16931SOL    HW251138   8.418   0.421   2.792
16932SOL     OW51139   8.882   1.188   1.903
16932SOL    HW151140   8.914   1.112   1.960
16932SOL    HW251141   8.790   1.215   1.933
16933SOL     OW51142   8.383   0.236   2.342
16933SOL    HW151143   8.335   0.277   2.264
16933SOL    HW251144   8.482   0.234   2.323
16934SOL     OW51145   8.524   0.683   3.326
16934SOL    HW151146   8.444   0.622   3.329
16934SOL    HW251147   8.605   0.630   3.302
16935SOL     OW51148   8.675   1.570   2.655
16935SOL    HW151149   8.696   1.644   2.590
16935SOL    HW251150   8.743   1.570   2.728
16936SOL     OW51151   7.907   1.152   2.603
16936SOL    HW151152   7.836   1.125   2.668
16936SOL    HW251153   7.881   1.124   2.510
16937SOL     OW51154   8.719   1.797   2.453
16937SOL    HW151155   8.763   1.861   2.389
16937SOL    HW251156   8.669   1.849   2.523
16938SOL     OW51157   8.480   0.549   1.878
16938SOL    HW151158   8.439   0.631   1.839
16938SOL    HW251159   8.544   0.575   1.951
16939SOL     OW51160   7.526   0.556   3.248
16939SOL    HW151161   7.618   0.555   3.207
16939SOL    HW251162   7.520   0.630   3.315
16940SOL     OW51163   8.314   0.454   2.504
16940SOL    HW151164   8.282   0.526   2.442
16940SOL    HW251165   8.338   0.373   2.451
16941SOL     OW51166   8.465   0.039   2.615
16941SOL    HW151167   8.393   0.044   2.546
16941SOL    HW251168   8.441  -0.030   2.684
16942SOL     OW51169   8.877   1.173   2.729
16942SOL    HW151170   8.822   1.089   2.722
16942SOL    HW251171   8.903   1.202   2.637
16943SOL     OW51172   8.914   0.590   2.854
16943SOL    HW151173   8.884   0.495   2.861
16943SOL    HW251174   8.987   0.606   2.920
16944SOL     OW51175   9.305   0.833   2.239
16944SOL    HW151176   9.347   0.769   2.303
16944SOL    HW251177   9.267   0.782   2.161
16945SOL     OW51178   7.936   1.385   2.036
16945SOL    HW151179   7.849   1.370   2.083
16945SOL    HW251180   7.919   1.411   1.941
16946SOL     OW51181   9.112   1.280   2.519
16946SOL    HW151182   9.211   1.288   2.533
16946SOL    HW251183   9.067   1.364   2.550
16947SOL     OW51184   8.838   0.575   1.940
16947SOL    HW151185   8.784   0.554   2.021
16947SOL    HW251186   8.929   0.534   1.949
16948SOL     OW51187   9.202   1.223   3.450
16948SOL    HW151188   9.293   1.184   3.437
16948SOL    HW251189   9.210   1.319   3.474
16949SOL     OW51190   8.512   1.347   3.202
16949SOL    HW151191   8.432   1.324   3.257
16949SOL    HW251192   8.595   1.321   3.251
16950SOL     OW51193   9.040   1.629   3.487
16950SOL    HW151194   9.067   1.663   3.397
16950SOL    HW251195   9.119   1.591   3.533
16951SOL     OW51196   8.559   1.195   2.962
16951SOL    HW151197   8.519   1.239   3.043
16951SOL    HW251198   8.518   1.232   2.879
16952SOL     OW51199   9.086   1.099   2.941
16952SOL    HW151200   9.091   1.180   3.000
16952SOL    HW251201   9.000   1.101   2.890
16953SOL     OW51202   8.428   1.116   3.581
16953SOL    HW151203   8.329   1.122   3.591
16953SOL    HW251204   8.451   1.036   3.525
16954SOL     OW51205   8.153   1.050   2.230
16954SOL    HW151206   8.139   1.057   2.329
16954SOL    HW251207   8.237   0.999   2.212
16955SOL     OW51208   7.858   0.813   3.113
16955SOL    HW151209   7.944   0.825   3.163
16955SOL    HW251210   7.816   0.726   3.140
16956SOL     OW51211   8.722   0.386   3.124
16956SOL    HW151212   8.743   0.460   3.188
16956SOL    HW251213   8.633   0.403   3.081
16957SOL     OW51214   7.512   1.564   3.193
16957SOL    HW151215   7.466   1.646   3.159
16957SOL    HW251216   7.610   1.583   3.202
16958SOL     OW51217   7.815   1.100   2.363
16958SOL    HW151218   7.808   1.183   2.307
16958SOL    HW251219   7.819   1.020   2.303
16959SOL     OW51220   8.014   0.537   2.727
16959SOL    HW151221   8.026   0.603   2.653
16959SOL    HW251222   8.060   0.571   2.810
16960SOL     OW51223   8.700   1.348   2.250
16960SOL    HW151224   8.750   1.425   2.290
16960SOL    HW251225   8.605   1.350   2.282
16961SOL     OW51226   8.720   1.445   3.004
16961SOL    HW151227   8.767   1.458   3.091
16961SOL    HW251228   8.654   1.371   3.013
16962SOL     OW51229   9.030   0.639   2.334
16962SOL    HW151230   8.999   0.700   2.407
16962SOL    HW251231   9.080   0.691   2.265
16963SOL     OW51232   7.802   1.510   3.191
16963SOL    HW151233   7.781   1.466   3.104
16963SOL    HW251234   7.899   1.536   3.194
16964SOL     OW51235   7.850   0.751   3.460
16964SOL    HW151236   7.918   0.806   3.413
16964SOL    HW251237   7.890   0.663   3.487
16965SOL     OW51238   9.035   0.779   3.532
16965SOL    HW151239   8.943   0.817   3.527
16965SOL    HW251240   9.095   0.826   3.467
16966SOL     OW51241   8.021   0.870   2.891
16966SOL    HW151242   8.065   0.959   2.882
16966SOL    HW251243   7.958   0.870   2.968
16967SOL     OW51244   8.808   0.862   2.907
16967SOL    HW151245   8.733   0.862   2.841
16967SOL    HW251246   8.845   0.770   2.916
16968SOL     OW51247   8.657   0.525   2.137
16968SOL    HW151248   8.670   0.441   2.191
16968SOL    HW251249   8.628   0.599   2.197
16969SOL     OW51250   7.485   1.310   3.144
16969SOL    HW151251   7.538   1.261   3.212
16969SOL    HW251252   7.507   1.408   3.149
16970SOL     OW51253   8.180   0.634   2.926
16970SOL    HW151254   8.239   0.608   2.850
16970SOL    HW251255   8.152   0.730   2.915
16971SOL     OW51256   9.176   0.935   3.716
16971SOL    HW151257   9.130   0.928   3.627
16971SOL    HW251258   9.114   0.979   3.782
16972SOL     OW51259   8.471   0.766   2.828
16972SOL    HW151260   8.486   0.787   2.924
16972SOL    HW251261   8.441   0.671   2.819
16973SOL     OW51262   8.428   1.573   3.562
16973SOL    HW151263   8.408   1.617   3.474
16973SOL    HW251264   8.467   1.482   3.546
16974SOL     OW51265   9.307   1.518   3.467
16974SOL    HW151266   9.321   1.545   3.372
16974SOL    HW251267   9.390   1.540   3.520
16975SOL     OW51268   7.798   0.898   3.666
16975SOL    HW151269   7.874   0.942   3.714
16975SOL    HW251270   7.833   0.851   3.584
16976SOL     OW51271   8.751   0.838   1.904
16976SOL    HW151272   8.785   0.745   1.919
16976SOL    HW251273   8.769   0.865   1.809
16977SOL     OW51274   8.516   1.333   2.711
16977SOL    HW151275   8.523   1.249   2.656
16977SOL    HW251276   8.578   1.402   2.675
16978SOL     OW51277   7.767   0.810   2.811
16978SOL    HW151278   7.860   0.846   2.816
16978SOL    HW251279   7.761   0.725   2.863
16979SOL     OW51280   7.787   0.509   2.868
16979SOL    HW151281   7.735   0.426   2.851
16979SOL    HW251282   7.864   0.514   2.804
16980SOL     OW51283   7.959   0.415   3.670
16980SOL    HW151284   7.941   0.460   3.758
16980SOL    HW251285   8.001   0.480   3.607
16981SOL     OW51286   7.456   1.326   2.062
16981SOL    HW151287   7.363   1.347   2.031
16981SOL    HW251288   7.466   1.227   2.075
16982SOL     OW51289   7.536   1.801   2.789
16982SOL    HW151290   7.494   1.715   2.762
16982SOL    HW251291   7.630   1.804   2.755
16983SOL     OW51292   7.952   1.568   2.772
16983SOL    HW151293   8.018   1.642   2.781
16983SOL    HW251294   7.996   1.489   2.730
16984SOL     OW51295   8.450   0.796   3.100
16984SOL    HW151296   8.491   0.764   3.186
16984SOL    HW251297   8.354   0.769   3.097
16985SOL     OW51298   7.488   0.544   2.976
16985SOL    HW151299   7.573   0.511   2.935
16985SOL    HW251300   7.501   0.559   3.074
16986SOL     OW51301   7.637   0.520   3.584
16986SOL    HW151302   7.696   0.480   3.514
16986SOL    HW251303   7.579   0.591   3.543
16987SOL     OW51304   8.817   0.950   3.522
16987SOL    HW151305   8.856   1.039   3.542
16987SOL    HW251306   8.827   0.930   3.425
16988SOL     OW51307   8.263   0.572   2.187
16988SOL    HW151308   8.270   0.483   2.141
16988SOL    HW251309   8.169   0.606   2.179
16989SOL     OW51310   9.105   0.604   3.068
16989SOL    HW151311   9.067   0.535   3.130
16989SOL    HW251312   9.187   0.568   3.024
16990SOL     OW51313   7.700   1.564   3.606
16990SOL    HW151314   7.670   1.621   3.682
16990SOL    HW251315   7.693   1.467   3.632
16991SOL     OW51316   8.378   1.678   3.327
16991SOL    HW151317   8.354   1.660   3.232
16991SOL    HW251318   8.408   1.772   3.337
16992SOL     OW51319   7.921   0.500   2.053
16992SOL    HW151320   7.982   0.580   2.057
16992SOL    HW251321   7.826   0.531   2.060
16993SOL     OW51322   7.607   1.137   3.328
16993SOL    HW151323   7.629   1.076   3.404
16993SOL    HW251324   7.617   1.088   3.242
16994SOL     OW51325   8.795   1.059   3.096
16994SOL    HW151326   8.819   0.996   3.022
16994SOL    HW251327   8.705   1.099   3.078
16995SOL     OW51328   8.750   0.855   2.171
16995SOL    HW151329   8.664   0.824   2.213
16995SOL    HW251330   8.746   0.841   2.072
16996SOL     OW51331   9.207   1.747   3.016
16996SOL    HW151332   9.268   1.777   2.943
16996SOL    HW251333   9.169   1.658   2.994
16997SOL     OW51334   8.700   1.731   2.990
16997SOL    HW151335   8.784   1.736   2.936
16997SOL    HW251336   8.677   1.635   3.008
16998SOL     OW51337   7.531   1.258   2.884
16998SOL    HW151338   7.526   1.257   2.984
16998SOL    HW251339   7.448   1.217   2.846
16999SOL     OW51340   8.136   1.662   3.578
16999SOL    HW151341   8.080   1.743   3.587
16999SOL    HW251342   8.188   1.666   3.492
17000SOL     OW51343   8.836   1.573   2.339
17000SOL    HW151344   8.903   1.585   2.265
17000SOL    HW251345   8.796   1.662   2.362
17001SOL     OW51346   7.578   1.794   3.713
17001SOL    HW151347   7.537   1.720   3.766
17001SOL    HW251348   7.642   1.845   3.771
17002SOL     OW51349   8.728   0.927   2.534
17002SOL    HW151350   8.788   0.846   2.536
17002SOL    HW251351   8.768   0.996   2.474
17003SOL     OW51352   8.278   1.273   3.284
17003SOL    HW151353   8.273   1.306   3.379
17003SOL    HW251354   8.192   1.292   3.238
17004SOL     OW51355   8.120   1.616   2.016
17004SOL    HW151356   8.129   1.626   1.917
17004SOL    HW251357   8.080   1.527   2.037
17005SOL     OW51358   9.098   1.720   3.256
17005SOL    HW151359   9.151   1.730   3.172
17005SOL    HW251360   9.071   1.810   3.290
17006SOL     OW51361   7.711   0.326   2.582
17006SOL    HW151362   7.632   0.377   2.548
17006SOL    HW251363   7.702   0.311   2.680
17007SOL     OW51364   8.642   1.612   1.893
17007SOL    HW151365   8.648   1.519   1.930
17007SOL    HW251366   8.583   1.612   1.813
17008SOL     OW51367   8.270   1.002   3.234
17008SOL    HW151368   8.310   1.001   3.142
17008SOL    HW251369   8.280   1.094   3.274
17009SOL     OW51370   8.364   0.910   2.153
17009SOL    HW151371   8.427   0.948   2.085
17009SOL    HW251372   8.404   0.827   2.192
17010SOL     OW51373   8.952   1.607   1.906
17010SOL    HW151374   8.860   1.644   1.913
17010SOL    HW251375   8.990   1.627   1.816
17011SOL     OW51376   7.820   1.288   3.352
17011SOL    HW151377   7.807   1.381   3.318
17011SOL    HW251378   7.736   1.236   3.339
17012SOL     OW51379   9.062   1.292   3.151
17012SOL    HW151380   9.122   1.295   3.231
17012SOL    HW251381   8.987   1.356   3.164
17013SOL     OW51382   8.487   1.098   2.558
17013SOL    HW151383   8.417   1.051   2.612
17013SOL    HW251384   8.546   1.030   2.515
17014SOL     OW51385   8.462   0.236   2.833
17014SOL    HW151386   8.454   0.200   2.740
17014SOL    HW251387   8.460   0.160   2.898
17015SOL     OW51388   8.038   1.487   2.353
17015SOL    HW151389   8.080   1.429   2.283
17015SOL    HW251390   7.994   1.566   2.309
17016SOL     OW51391   7.703   1.348   2.152
17016SOL    HW151392   7.607   1.349   2.125
17016SOL    HW251393   7.715   1.401   2.236
17017SOL     OW51394   7.553   1.013   3.588
17017SOL    HW151395   7.476   0.980   3.642
17017SOL    HW251396   7.638   0.983   3.630
17018SOL     OW51397   7.523   0.345   1.895
17018SOL    HW151398   7.431   0.317   1.866
17018SOL    HW251399   7.554   0.422   1.839
17019SOL     OW51400   8.888   0.856   3.260
17019SOL    HW151401   8.831   0.908   3.197
17019SOL    HW251402   8.984   0.868   3.236
17020SOL     OW51403   7.520   0.166   2.180
17020SOL    HW151404   7.503   0.249   2.126
17020SOL    HW251405   7.610   0.129   2.158
17021SOL     OW51406   8.631   1.335   1.981
17021SOL    HW151407   8.532   1.324   1.983
17021SOL    HW251408   8.665   1.350   2.074
17022SOL     OW51409   8.061   0.842   3.293
17022SOL    HW151410   8.117   0.923   3.276
17022SOL    HW251411   8.120   0.762   3.296
17023SOL     OW51412   8.941   1.767   2.821
17023SOL    HW151413   8.974   1.831   2.752
17023SOL    HW251414   9.007   1.761   2.896
17024SOL     OW51415   8.164   0.565   3.570
17024SOL    HW151416   8.183   0.630   3.644
17024SOL    HW251417   8.224   0.485   3.579
17025SOL     OW51418   8.898   1.220   3.495
17025SOL    HW151419   8.889   1.210   3.594
17025SOL    HW251420   8.994   1.213   3.469
17026SOL     OW51421   7.838   1.741   3.422
17026SOL    HW151422   7.747   1.782   3.420
17026SOL    HW251423   7.831   1.647   3.454
17027SOL     OW51424   9.122   0.883   3.116
17027SOL    HW151425   9.095   0.794   3.079
17027SOL    HW251426   9.123   0.951   3.043
17028SOL     OW51427   8.042   0.745   2.514
17028SOL    HW151428   8.092   0.830   2.495
17028SOL    HW251429   7.954   0.747   2.466
17029SOL     OW51430   9.178   0.934   3.379
17029SOL    HW151431   9.216   1.025   3.394
17029SOL    HW251432   9.170   0.917   3.280
17030SOL     OW51433   8.307   1.374   1.878
17030SOL    HW151434   8.261   1.389   1.966
17030SOL    HW251435   8.351   1.459   1.848
17031SOL     OW51436   8.109   1.790   2.815
17031SOL    HW151437   8.063   1.878   2.802
17031SOL    HW251438   8.208   1.802   2.808
17032SOL     OW51439   8.307   0.956   2.723
17032SOL    HW151440   8.361   0.887   2.771
17032SOL    HW251441   8.275   1.025   2.789
17033SOL     OW51442   8.531   0.984   1.949
17033SOL    HW151443   8.508   1.037   1.867
17033SOL    HW251444   8.612   0.928   1.930
17034SOL     OW51445   9.309   1.569   2.713
17034SOL    HW151446   9.238   1.557   2.643
17034SOL    HW251447   9.310   1.490   2.773
17035SOL     OW51448   7.669   1.314   3.706
17035SOL    HW151449   7.604   1.241   3.685
17035SOL    HW251450   7.673   1.328   3.804
17036SOL     OW51451   7.527   1.240   2.515
17036SOL    HW151452   7.526   1.193   2.603
17036SOL    HW251453   7.609   1.212   2.464
17037SOL     OW51454   8.120   1.391   3.486
17037SOL    HW151455   8.042   1.341   3.524
17037SOL    HW251456   8.117   1.486   3.517
17038SOL     OW51457   9.272   0.192   3.089
17038SOL    HW151458   9.268   0.102   3.133
17038SOL    HW251459   9.275   0.181   2.990
17039SOL     OW51460   9.153   1.487   2.966
17039SOL    HW151461   9.060   1.462   2.939
17039SOL    HW251462   9.179   1.437   3.048
17040SOL     OW51463   7.765   0.547   3.142
17040SOL    HW151464   7.803   0.488   3.214
17040SOL    HW251465   7.805   0.521   3.054
17041SOL     OW51466   8.260   1.586   2.549
17041SOL    HW151467   8.292   1.596   2.455
17041SOL    HW251468   8.181   1.524   2.551
17042SOL     OW51469   8.218   1.330   2.163
17042SOL    HW151470   8.172   1.243   2.180
17042SOL    HW251471   8.309   1.327   2.204
17043SOL     OW51472   8.066   1.567   3.146
17043SOL    HW151473   8.061   1.649   3.203
17043SOL    HW251474   8.155   1.564   3.101
17044SOL     OW51475   8.748   0.453   2.553
17044SOL    HW151476   8.689   0.533   2.557
17044SOL    HW251477   8.763   0.418   2.646
17045SOL     OW51478   7.487   1.077   2.162
17045SOL    HW151479   7.586   1.066   2.153
17045SOL    HW251480   7.447   0.991   2.194
17046SOL     OW51481   8.323   1.646   2.199
17046SOL    HW151482   8.246   1.611   2.145
17046SOL    HW251483   8.291   1.717   2.261
17047SOL     OW51484   7.678   0.628   3.837
17047SOL    HW151485   7.585   0.626   3.874
17047SOL    HW251486   7.679   0.589   3.745
17048SOL     OW51487   7.467   0.368   4.371
17048SOL    HW151488   7.385   0.411   4.410
17048SOL    HW251489   7.439   0.295   4.308
17049SOL     OW51490   8.017   1.275   4.889
17049SOL    HW151491   7.924   1.268   4.852
17049SOL    HW251492   8.028   1.364   4.933
17050SOL     OW51493   9.003   1.511   4.427
17050SOL    HW151494   8.946   1.495   4.508
17050SOL    HW251495   8.944   1.521   4.347
17051SOL     OW51496   8.583   0.703   4.441
17051SOL    HW151497   8.640   0.781   4.416
17051SOL    HW251498   8.523   0.729   4.517
17052SOL     OW51499   9.203   0.607   3.955
17052SOL    HW151500   9.191   0.594   3.856
17052SOL    HW251501   9.173   0.526   4.004
17053SOL     OW51502   8.216   1.144   4.747
17053SOL    HW151503   8.138   1.161   4.807
17053SOL    HW251504   8.250   1.231   4.711
17054SOL     OW51505   8.298   0.798   5.547
17054SOL    HW151506   8.294   0.874   5.612
17054SOL    HW251507   8.320   0.834   5.456
17055SOL     OW51508   8.133   1.012   4.389
17055SOL    HW151509   8.202   0.996   4.459
17055SOL    HW251510   8.060   1.069   4.427
17056SOL     OW51511   8.134   1.161   5.527
17056SOL    HW151512   8.194   1.240   5.541
17056SOL    HW251513   8.048   1.192   5.486
17057SOL     OW51514   7.783   1.435   4.785
17057SOL    HW151515   7.705   1.404   4.732
17057SOL    HW251516   7.841   1.493   4.728
17058SOL     OW51517   8.908   1.505   5.063
17058SOL    HW151518   8.932   1.599   5.089
17058SOL    HW251519   8.892   1.451   5.145
17059SOL     OW51520   9.051   0.447   4.461
17059SOL    HW151521   8.977   0.493   4.411
17059SOL    HW251522   9.102   0.515   4.514
17060SOL     OW51523   7.679   1.713   4.207
17060SOL    HW151524   7.713   1.790   4.261
17060SOL    HW251525   7.723   1.713   4.117
17061SOL     OW51526   8.575   1.341   5.414
17061SOL    HW151527   8.622   1.341   5.502
17061SOL    HW251528   8.527   1.254   5.403
17062SOL     OW51529   7.678   1.434   4.262
17062SOL    HW151530   7.652   1.530   4.262
17062SOL    HW251531   7.607   1.380   4.307
17063SOL     OW51532   7.688   1.091   4.610
17063SOL    HW151533   7.702   1.007   4.662
17063SOL    HW251534   7.633   1.155   4.665
17064SOL     OW51535   8.068   1.786   5.163
17064SOL    HW151536   7.976   1.769   5.198
17064SOL    HW251537   8.096   1.878   5.189
17065SOL     OW51538   8.054   0.964   3.847
17065SOL    HW151539   8.061   1.048   3.793
17065SOL    HW251540   8.100   0.977   3.935
17066SOL     OW51541   7.570   0.643   4.287
17066SOL    HW151542   7.525   0.555   4.304
17066SOL    HW251543   7.569   0.697   4.371
17067SOL     OW51544   9.290   1.767   4.083
17067SOL    HW151545   9.344   1.738   4.163
17067SOL    HW251546   9.320   1.857   4.054
17068SOL     OW51547   7.475   1.596   3.841
17068SOL    HW151548   7.456   1.500   3.862
17068SOL    HW251549   7.442   1.654   3.916
17069SOL     OW51550   9.137   0.922   4.336
17069SOL    HW151551   9.232   0.893   4.344
17069SOL    HW251552   9.129   0.987   4.261
17070SOL     OW51553   9.089   1.108   4.156
17070SOL    HW151554   9.175   1.110   4.104
17070SOL    HW251555   9.103   1.155   4.244
17071SOL     OW51556   7.561   0.737   5.321
17071SOL    HW151557   7.649   0.724   5.366
17071SOL    HW251558   7.548   0.834   5.299
17072SOL     OW51559   8.061   1.365   4.450
17072SOL    HW151560   8.012   1.278   4.459
17072SOL    HW251561   8.038   1.408   4.363
17073SOL     OW51562   8.741   1.228   5.147
17073SOL    HW151563   8.778   1.155   5.089
17073SOL    HW251564   8.793   1.233   5.232
17074SOL     OW51565   7.645   0.976   4.988
17074SOL    HW151566   7.734   0.931   4.974
17074SOL    HW251567   7.572   0.911   4.969
17075SOL     OW51568   8.973   0.999   3.914
17075SOL    HW151569   8.910   0.923   3.927
17075SOL    HW251570   9.021   1.017   4.000
17076SOL     OW51571   8.635   1.792   5.340
17076SOL    HW151572   8.659   1.852   5.264
17076SOL    HW251573   8.642   1.697   5.310
17077SOL     OW51574   8.914   1.417   4.677
17077SOL    HW151575   8.855   1.423   4.757
17077SOL    HW251576   8.899   1.329   4.631
17078SOL     OW51577   9.115   1.714   4.296
17078SOL    HW151578   9.074   1.691   4.208
17078SOL    HW251579   9.097   1.640   4.361
17079SOL     OW51580   8.046   0.729   3.994
17079SOL    HW151581   8.070   0.798   3.926
17079SOL    HW251582   7.968   0.762   4.048
17080SOL     OW51583   9.024   1.662   4.031
17080SOL    HW151584   9.113   1.708   4.034
17080SOL    HW251585   9.003   1.638   3.936
17081SOL     OW51586   8.255   0.605   5.189
17081SOL    HW151587   8.208   0.602   5.278
17081SOL    HW251588   8.204   0.550   5.123
17082SOL     OW51589   8.842   0.469   5.398
17082SOL    HW151590   8.822   0.512   5.486
17082SOL    HW251591   8.920   0.407   5.407
17083SOL     OW51592   8.421   0.890   5.296
17083SOL    HW151593   8.467   0.806   5.267
17083SOL    HW251594   8.365   0.924   5.221
17084SOL     OW51595   8.439   0.410   4.966
17084SOL    HW151596   8.362   0.444   5.020
17084SOL    HW251597   8.405   0.359   4.887
17085SOL     OW51598   8.489   0.701   4.153
17085SOL    HW151599   8.515   0.697   4.249
17085SOL    HW251600   8.404   0.650   4.139
17086SOL     OW51601   7.524   0.811   4.513
17086SOL    HW151602   7.623   0.799   4.522
17086SOL    HW251603   7.500   0.906   4.534
17087SOL     OW51604   7.578   1.821   5.295
17087SOL    HW151605   7.568   1.806   5.394
17087SOL    HW251606   7.492   1.857   5.259
17088SOL     OW51607   8.313   0.348   3.919
17088SOL    HW151608   8.372   0.411   3.870
17088SOL    HW251609   8.332   0.254   3.890
17089SOL     OW51610   9.167   0.585   5.555
17089SOL    HW151611   9.141   0.674   5.519
17089SOL    HW251612   9.165   0.517   5.482
17090SOL     OW51613   8.810   1.144   4.269
17090SOL    HW151614   8.893   1.115   4.221
17090SOL    HW251615   8.761   1.211   4.213
17091SOL     OW51616   7.998   0.196   4.609
17091SOL    HW151617   7.993   0.191   4.709
17091SOL    HW251618   8.000   0.292   4.580
17092SOL     OW51619   8.456   1.456   4.201
17092SOL    HW151620   8.410   1.528   4.149
17092SOL    HW251621   8.452   1.476   4.299
17093SOL     OW51622   7.799   1.801   4.577
17093SOL    HW151623   7.849   1.715   4.583
17093SOL    HW251624   7.864   1.878   4.574
17094SOL     OW51625   9.243   1.066   4.597
17094SOL    HW151626   9.181   1.051   4.521
17094SOL    HW251627   9.191   1.077   4.682
17095SOL     OW51628   8.675   1.550   5.230
17095SOL    HW151629   8.681   1.473   5.294
17095SOL    HW251630   8.623   1.524   5.150
17096SOL     OW51631   7.769   0.943   3.966
17096SOL    HW151632   7.851   0.982   3.924
17096SOL    HW251633   7.742   0.861   3.917
17097SOL     OW51634   8.906   0.735   4.452
17097SOL    HW151635   8.901   0.670   4.527
17097SOL    HW251636   8.986   0.794   4.465
17098SOL     OW51637   7.909   1.266   5.451
17098SOL    HW151638   7.859   1.267   5.365
17098SOL    HW251639   7.846   1.248   5.527
17099SOL     OW51640   8.559   1.776   3.961
17099SOL    HW151641   8.499   1.714   4.011
17099SOL    HW251642   8.590   1.732   3.876
17100SOL     OW51643   9.080   1.377   3.805
17100SOL    HW151644   9.048   1.471   3.795
17100SOL    HW251645   9.004   1.314   3.793
17101SOL     OW51646   7.912   1.743   4.047
17101SOL    HW151647   7.945   1.782   4.133
17101SOL    HW251648   7.988   1.736   3.982
17102SOL     OW51649   7.697   1.785   4.965
17102SOL    HW151650   7.754   1.720   5.015
17102SOL    HW251651   7.681   1.752   4.872
17103SOL     OW51652   8.388   1.698   4.628
17103SOL    HW151653   8.468   1.641   4.649
17103SOL    HW251654   8.339   1.658   4.551
17104SOL     OW51655   7.830   0.700   4.204
17104SOL    HW151656   7.875   0.610   4.201
17104SOL    HW251657   7.736   0.689   4.237
17105SOL     OW51658   8.336   1.514   4.919
17105SOL    HW151659   8.313   1.489   4.825
17105SOL    HW251660   8.397   1.445   4.958
17106SOL     OW51661   8.799   0.590   5.157
17106SOL    HW151662   8.827   0.547   5.242
17106SOL    HW251663   8.824   0.686   5.158
17107SOL     OW51664   8.251   1.402   4.648
17107SOL    HW151665   8.341   1.416   4.606
17107SOL    HW251666   8.180   1.404   4.577
17108SOL     OW51667   8.370   0.503   4.623
17108SOL    HW151668   8.345   0.494   4.527
17108SOL    HW251669   8.418   0.421   4.654
17109SOL     OW51670   8.882   1.188   3.765
17109SOL    HW151671   8.914   1.112   3.822
17109SOL    HW251672   8.790   1.215   3.795
17110SOL     OW51673   8.383   0.236   4.204
17110SOL    HW151674   8.335   0.277   4.126
17110SOL    HW251675   8.482   0.234   4.185
17111SOL     OW51676   8.524   0.683   5.188
17111SOL    HW151677   8.444   0.622   5.191
17111SOL    HW251678   8.605   0.630   5.164
17112SOL     OW51679   8.675   1.570   4.517
17112SOL    HW151680   8.696   1.644   4.452
17112SOL    HW251681   8.743   1.570   4.590
17113SOL     OW51682   7.907   1.152   4.465
17113SOL    HW151683   7.836   1.125   4.530
17113SOL    HW251684   7.881   1.124   4.372
17114SOL     OW51685   8.719   1.797   4.315
17114SOL    HW151686   8.763   1.861   4.251
17114SOL    HW251687   8.669   1.849   4.385
17115SOL     OW51688   8.480   0.549   3.740
17115SOL    HW151689   8.439   0.631   3.701
17115SOL    HW251690   8.544   0.575   3.813
17116SOL     OW51691   7.526   0.556   5.110
17116SOL    HW151692   7.618   0.555   5.069
17116SOL    HW251693   7.520   0.630   5.177
17117SOL     OW51694   8.314   0.454   4.366
17117SOL    HW151695   8.282   0.526   4.304
17117SOL    HW251696   8.338   0.373   4.313
17118SOL     OW51697   8.465   0.039   4.477
17118SOL    HW151698   8.393   0.044   4.408
17118SOL    HW251699   8.441  -0.030   4.546
17119SOL     OW51700   8.877   1.173   4.591
17119SOL    HW151701   8.822   1.089   4.584
17119SOL    HW251702   8.903   1.202   4.499
17120SOL     OW51703   8.914   0.590   4.716
17120SOL    HW151704   8.884   0.495   4.723
17120SOL    HW251705   8.987   0.606   4.782
17121SOL     OW51706   9.305   0.833   4.101
17121SOL    HW151707   9.347   0.769   4.165
17121SOL    HW251708   9.267   0.782   4.023
17122SOL     OW51709   7.936   1.385   3.898
17122SOL    HW151710   7.849   1.370   3.945
17122SOL    HW251711   7.919   1.411   3.803
17123SOL     OW51712   9.112   1.280   4.381
17123SOL    HW151713   9.211   1.288   4.395
17123SOL    HW251714   9.067   1.364   4.412
17124SOL     OW51715   8.838   0.575   3.802
17124SOL    HW151716   8.784   0.554   3.883
17124SOL    HW251717   8.929   0.534   3.811
17125SOL     OW51718   9.202   1.223   5.312
17125SOL    HW151719   9.293   1.184   5.299
17125SOL    HW251720   9.210   1.319   5.336
17126SOL     OW51721   8.512   1.347   5.064
17126SOL    HW151722   8.432   1.324   5.119
17126SOL    HW251723   8.595   1.321   5.113
17127SOL     OW51724   9.040   1.629   5.349
17127SOL    HW151725   9.067   1.663   5.259
17127SOL    HW251726   9.119   1.591   5.395
17128SOL     OW51727   8.559   1.195   4.824
17128SOL    HW151728   8.519   1.239   4.905
17128SOL    HW251729   8.518   1.232   4.741
17129SOL     OW51730   9.086   1.099   4.803
17129SOL    HW151731   9.091   1.180   4.862
17129SOL    HW251732   9.000   1.101   4.752
17130SOL     OW51733   8.428   1.116   5.443
17130SOL    HW151734   8.329   1.122   5.453
17130SOL    HW251735   8.451   1.036   5.387
17131SOL     OW51736   8.153   1.050   4.092
17131SOL    HW151737   8.139   1.057   4.191
17131SOL    HW251738   8.237   0.999   4.074
17132SOL     OW51739   7.858   0.813   4.975
17132SOL    HW151740   7.944   0.825   5.025
17132SOL    HW251741   7.816   0.726   5.002
17133SOL     OW51742   8.722   0.386   4.986
17133SOL    HW151743   8.743   0.460   5.050
17133SOL    HW251744   8.633   0.403   4.943
17134SOL     OW51745   7.512   1.564   5.055
17134SOL    HW151746   7.466   1.646   5.021
17134SOL    HW251747   7.610   1.583   5.064
17135SOL     OW51748   7.815   1.100   4.225
17135SOL    HW151749   7.808   1.183   4.169
17135SOL    HW251750   7.819   1.020   4.165
17136SOL     OW51751   8.014   0.537   4.589
17136SOL    HW151752   8.026   0.603   4.515
17136SOL    HW251753   8.060   0.571   4.672
17137SOL     OW51754   8.700   1.348   4.112
17137SOL    HW151755   8.750   1.425   4.152
17137SOL    HW251756   8.605   1.350   4.144
17138SOL     OW51757   8.720   1.445   4.866
17138SOL    HW151758   8.767   1.458   4.953
17138SOL    HW251759   8.654   1.371   4.875
17139SOL     OW51760   9.030   0.639   4.196
17139SOL    HW151761   8.999   0.700   4.269
17139SOL    HW251762   9.080   0.691   4.127
17140SOL     OW51763   7.802   1.510   5.053
17140SOL    HW151764   7.781   1.466   4.966
17140SOL    HW251765   7.899   1.536   5.056
17141SOL     OW51766   7.850   0.751   5.322
17141SOL    HW151767   7.918   0.806   5.275
17141SOL    HW251768   7.890   0.663   5.349
17142SOL     OW51769   9.035   0.779   5.394
17142SOL    HW151770   8.943   0.817   5.389
17142SOL    HW251771   9.095   0.826   5.329
17143SOL     OW51772   8.021   0.870   4.753
17143SOL    HW151773   8.065   0.959   4.744
17143SOL    HW251774   7.958   0.870   4.830
17144SOL     OW51775   8.808   0.862   4.769
17144SOL    HW151776   8.733   0.862   4.703
17144SOL    HW251777   8.845   0.770   4.778
17145SOL     OW51778   8.657   0.525   3.999
17145SOL    HW151779   8.670   0.441   4.053
17145SOL    HW251780   8.628   0.599   4.059
17146SOL     OW51781   7.485   1.310   5.006
17146SOL    HW151782   7.538   1.261   5.074
17146SOL    HW251783   7.507   1.408   5.011
17147SOL     OW51784   8.180   0.634   4.788
17147SOL    HW151785   8.239   0.608   4.712
17147SOL    HW251786   8.152   0.730   4.777
17148SOL     OW51787   9.176   0.935   5.578
17148SOL    HW151788   9.130   0.928   5.489
17148SOL    HW251789   9.114   0.979   5.644
17149SOL     OW51790   8.471   0.766   4.690
17149SOL    HW151791   8.486   0.787   4.786
17149SOL    HW251792   8.441   0.671   4.681
17150SOL     OW51793   8.428   1.573   5.424
17150SOL    HW151794   8.408   1.617   5.336
17150SOL    HW251795   8.467   1.482   5.408
17151SOL     OW51796   9.307   1.518   5.329
17151SOL    HW151797   9.321   1.545   5.234
17151SOL    HW251798   9.390   1.540   5.382
17152SOL     OW51799   7.798   0.898   5.528
17152SOL    HW151800   7.874   0.942   5.576
17152SOL    HW251801   7.833   0.851   5.446
17153SOL     OW51802   8.516   1.333   4.573
17153SOL    HW151803   8.523   1.249   4.518
17153SOL    HW251804   8.578   1.402   4.537
17154SOL     OW51805   7.767   0.810   4.673
17154SOL    HW151806   7.860   0.846   4.678
17154SOL    HW251807   7.761   0.725   4.725
17155SOL     OW51808   7.787   0.509   4.730
17155SOL    HW151809   7.735   0.426   4.713
17155SOL    HW251810   7.864   0.514   4.666
17156SOL     OW51811   7.959   0.415   5.532
17156SOL    HW151812   7.941   0.460   5.620
17156SOL    HW251813   8.001   0.480   5.469
17157SOL     OW51814   7.456   1.326   3.924
17157SOL    HW151815   7.363   1.347   3.893
17157SOL    HW251816   7.466   1.227   3.937
17158SOL     OW51817   7.536   1.801   4.651
17158SOL    HW151818   7.494   1.715   4.624
17158SOL    HW251819   7.630   1.804   4.617
17159SOL     OW51820   7.952   1.568   4.634
17159SOL    HW151821   8.018   1.642   4.643
17159SOL    HW251822   7.996   1.489   4.592
17160SOL     OW51823   8.450   0.796   4.962
17160SOL    HW151824   8.491   0.764   5.048
17160SOL    HW251825   8.354   0.769   4.959
17161SOL     OW51826   7.488   0.544   4.838
17161SOL    HW151827   7.573   0.511   4.797
17161SOL    HW251828   7.501   0.559   4.936
17162SOL     OW51829   7.637   0.520   5.446
17162SOL    HW151830   7.696   0.480   5.376
17162SOL    HW251831   7.579   0.591   5.405
17163SOL     OW51832   8.817   0.950   5.384
17163SOL    HW151833   8.856   1.039   5.404
17163SOL    HW251834   8.827   0.930   5.287
17164SOL     OW51835   8.263   0.572   4.049
17164SOL    HW151836   8.270   0.483   4.003
17164SOL    HW251837   8.169   0.606   4.041
17165SOL     OW51838   9.105   0.604   4.930
17165SOL    HW151839   9.067   0.535   4.992
17165SOL    HW251840   9.187   0.568   4.886
17166SOL     OW51841   7.700   1.564   5.468
17166SOL    HW151842   7.670   1.621   5.544
17166SOL    HW251843   7.693   1.467   5.494
17167SOL     OW51844   8.378   1.678   5.189
17167SOL    HW151845   8.354   1.660   5.094
17167SOL    HW251846   8.408   1.772   5.199
17168SOL     OW51847   7.921   0.500   3.915
17168SOL    HW151848   7.982   0.580   3.919
17168SOL    HW251849   7.826   0.531   3.922
17169SOL     OW51850   7.607   1.137   5.190
17169SOL    HW151851   7.629   1.076   5.266
17169SOL    HW251852   7.617   1.088   5.104
17170SOL     OW51853   8.795   1.059   4.958
17170SOL    HW151854   8.819   0.996   4.884
17170SOL    HW251855   8.705   1.099   4.940
17171SOL     OW51856   8.750   0.855   4.033
17171SOL    HW151857   8.664   0.824   4.075
17171SOL    HW251858   8.746   0.841   3.934
17172SOL     OW51859   9.207   1.747   4.878
17172SOL    HW151860   9.268   1.777   4.805
17172SOL    HW251861   9.169   1.658   4.856
17173SOL     OW51862   8.700   1.731   4.852
17173SOL    HW151863   8.784   1.736   4.798
17173SOL    HW251864   8.677   1.635   4.870
17174SOL     OW51865   7.531   1.258   4.746
17174SOL    HW151866   7.526   1.257   4.846
17174SOL    HW251867   7.448   1.217   4.708
17175SOL     OW51868   8.136   1.662   5.440
17175SOL    HW151869   8.080   1.743   5.449
17175SOL    HW251870   8.188   1.666   5.354
17176SOL     OW51871   8.836   1.573   4.201
17176SOL    HW151872   8.903   1.585   4.127
17176SOL    HW251873   8.796   1.662   4.224
17177SOL     OW51874   7.578   1.794   5.575
17177SOL    HW151875   7.537   1.720   5.628
17177SOL    HW251876   7.642   1.845   5.633
17178SOL     OW51877   8.728   0.927   4.396
17178SOL    HW151878   8.788   0.846   4.398
17178SOL    HW251879   8.768   0.996   4.336
17179SOL     OW51880   8.278   1.273   5.146
17179SOL    HW151881   8.273   1.306   5.241
17179SOL    HW251882   8.192   1.292   5.100
17180SOL     OW51883   8.120   1.616   3.878
17180SOL    HW151884   8.129   1.626   3.779
17180SOL    HW251885   8.080   1.527   3.899
17181SOL     OW51886   9.098   1.720   5.118
17181SOL    HW151887   9.151   1.730   5.034
17181SOL    HW251888   9.071   1.810   5.152
17182SOL     OW51889   7.711   0.326   4.444
17182SOL    HW151890   7.632   0.377   4.410
17182SOL    HW251891   7.702   0.311   4.542
17183SOL     OW51892   8.642   1.612   3.755
17183SOL    HW151893   8.648   1.519   3.792
17183SOL    HW251894   8.583   1.612   3.675
17184SOL     OW51895   8.270   1.002   5.096
17184SOL    HW151896   8.310   1.001   5.004
17184SOL    HW251897   8.280   1.094   5.136
17185SOL     OW51898   8.364   0.910   4.015
17185SOL    HW151899   8.427   0.948   3.947
17185SOL    HW251900   8.404   0.827   4.054
17186SOL     OW51901   8.952   1.607   3.768
17186SOL    HW151902   8.860   1.644   3.775
17186SOL    HW251903   8.990   1.627   3.678
17187SOL     OW51904   7.820   1.288   5.214
17187SOL    HW151905   7.807   1.381   5.180
17187SOL    HW251906   7.736   1.236   5.201
17188SOL     OW51907   9.062   1.292   5.013
17188SOL    HW151908   9.122   1.295   5.093
17188SOL    HW251909   8.987   1.356   5.026
17189SOL     OW51910   8.487   1.098   4.420
17189SOL    HW151911   8.417   1.051   4.474
17189SOL    HW251912   8.546   1.030   4.377
17190SOL     OW51913   8.462   0.236   4.695
17190SOL    HW151914   8.454   0.200   4.602
17190SOL    HW251915   8.460   0.160   4.760
17191SOL     OW51916   8.038   1.487   4.215
17191SOL    HW151917   8.080   1.429   4.145
17191SOL    HW251918   7.994   1.566   4.171
17192SOL     OW51919   7.703   1.348   4.014
17192SOL    HW151920   7.607   1.349   3.987
17192SOL    HW251921   7.715   1.401   4.098
17193SOL     OW51922   7.553   1.013   5.450
17193SOL    HW151923   7.476   0.980   5.504
17193SOL    HW251924   7.638   0.983   5.492
17194SOL     OW51925   7.523   0.345   3.757
17194SOL    HW151926   7.431   0.317   3.728
17194SOL    HW251927   7.554   0.422   3.701
17195SOL     OW51928   8.888   0.856   5.122
17195SOL    HW151929   8.831   0.908   5.059
17195SOL    HW251930   8.984   0.868   5.098
17196SOL     OW51931   7.520   0.166   4.042
17196SOL    HW151932   7.503   0.249   3.988
17196SOL    HW251933   7.610   0.129   4.020
17197SOL     OW51934   8.631   1.335   3.843
17197SOL    HW151935   8.532   1.324   3.845
17197SOL    HW251936   8.665   1.350   3.936
17198SOL     OW51937   8.061   0.842   5.155
17198SOL    HW151938   8.117   0.923   5.138
17198SOL    HW251939   8.120   0.762   5.158
17199SOL     OW51940   8.941   1.767   4.683
17199SOL    HW151941   8.974   1.831   4.614
17199SOL    HW251942   9.007   1.761   4.758
17200SOL     OW51943   8.164   0.565   5.432
17200SOL    HW151944   8.183   0.630   5.506
17200SOL    HW251945   8.224   0.485   5.441
17201SOL     OW51946   8.898   1.220   5.357
17201SOL    HW151947   8.889   1.210   5.456
17201SOL    HW251948   8.994   1.213   5.331
17202SOL     OW51949   7.838   1.741   5.284
17202SOL    HW151950   7.747   1.782   5.282
17202SOL    HW251951   7.831   1.647   5.316
17203SOL     OW51952   9.122   0.883   4.978
17203SOL    HW151953   9.095   0.794   4.941
17203SOL    HW251954   9.123   0.951   4.905
17204SOL     OW51955   8.673   0.325   4.173
17204SOL    HW151956   8.738   0.251   4.162
17204SOL    HW251957   8.693   0.375   4.257
17205SOL     OW51958   8.042   0.745   4.376
17205SOL    HW151959   8.092   0.830   4.357
17205SOL    HW251960   7.954   0.747   4.328
17206SOL     OW51961   9.178   0.934   5.241
17206SOL    HW151962   9.216   1.025   5.256
17206SOL    HW251963   9.170   0.917   5.142
17207SOL     OW51964   8.307   1.374   3.740
17207SOL    HW151965   8.261   1.389   3.828
17207SOL    HW251966   8.351   1.459   3.710
17208SOL     OW51967   8.109   1.790   4.677
17208SOL    HW151968   8.063   1.878   4.664
17208SOL    HW251969   8.208   1.802   4.670
17209SOL     OW51970   8.307   0.956   4.585
17209SOL    HW151971   8.361   0.887   4.633
17209SOL    HW251972   8.275   1.025   4.651
17210SOL     OW51973   8.531   0.984   3.811
17210SOL    HW151974   8.508   1.037   3.729
17210SOL    HW251975   8.612   0.928   3.792
17211SOL     OW51976   9.309   1.569   4.575
17211SOL    HW151977   9.238   1.557   4.505
17211SOL    HW251978   9.310   1.490   4.635
17212SOL     OW51979   7.669   1.314   5.568
17212SOL    HW151980   7.604   1.241   5.547
17212SOL    HW251981   7.673   1.328   5.666
17213SOL     OW51982   7.527   1.240   4.377
17213SOL    HW151983   7.526   1.193   4.465
17213SOL    HW251984   7.609   1.212   4.326
17214SOL     OW51985   8.120   1.391   5.348
17214SOL    HW151986   8.042   1.341   5.386
17214SOL    HW251987   8.117   1.486   5.379
17215SOL     OW51988   9.272   0.192   4.951
17215SOL    HW151989   9.268   0.102   4.995
17215SOL    HW251990   9.275   0.181   4.852
17216SOL     OW51991   9.153   1.487   4.828
17216SOL    HW151992   9.060   1.462   4.801
17216SOL    HW251993   9.179   1.437   4.910
17217SOL     OW51994   7.765   0.547   5.004
17217SOL    HW151995   7.803   0.488   5.076
17217SOL    HW251996   7.805   0.521   4.916
17218SOL     OW51997   8.260   1.586   4.411
17218SOL    HW151998   8.292   1.596   4.317
17218SOL    HW251999   8.181   1.524   4.413
17219SOL     OW52000   8.218   1.330   4.025
17219SOL    HW152001   8.172   1.243   4.042
17219SOL    HW252002   8.309   1.327   4.066
17220SOL     OW52003   8.066   1.567   5.008
17220SOL    HW152004   8.061   1.649   5.065
17220SOL    HW252005   8.155   1.564   4.963
17221SOL     OW52006   8.748   0.453   4.415
17221SOL    HW152007   8.689   0.533   4.419
17221SOL    HW252008   8.763   0.418   4.508
17222SOL     OW52009   7.487   1.077   4.024
17222SOL    HW152010   7.586   1.066   4.015
17222SOL    HW252011   7.447   0.991   4.056
17223SOL     OW52012   8.323   1.646   4.061
17223SOL    HW152013   8.246   1.611   4.007
17223SOL    HW252014   8.291   1.717   4.123
17224SOL     OW52015   7.678   0.628   5.699
17224SOL    HW152016   7.585   0.626   5.736
17224SOL    HW252017   7.679   0.589   5.607
17225SOL     OW52018   7.467   0.368   6.233
17225SOL    HW152019   7.385   0.411   6.272
17225SOL    HW252020   7.439   0.295   6.170
17226SOL     OW52021   8.017   1.275   6.751
17226SOL    HW152022   7.924   1.268   6.714
17226SOL    HW252023   8.028   1.364   6.795
17227SOL     OW52024   9.003   1.511   6.289
17227SOL    HW152025   8.946   1.495   6.370
17227SOL    HW252026   8.944   1.521   6.209
17228SOL     OW52027   8.583   0.703   6.303
17228SOL    HW152028   8.640   0.781   6.278
17228SOL    HW252029   8.523   0.729   6.379
17229SOL     OW52030   9.203   0.607   5.817
17229SOL    HW152031   9.191   0.594   5.718
17229SOL    HW252032   9.173   0.526   5.866
17230SOL     OW52033   8.216   1.144   6.609
17230SOL    HW152034   8.138   1.161   6.669
17230SOL    HW252035   8.250   1.231   6.573
17231SOL     OW52036   8.298   0.798   7.409
17231SOL    HW152037   8.294   0.874   7.474
17231SOL    HW252038   8.320   0.834   7.318
17232SOL     OW52039   8.133   1.012   6.251
17232SOL    HW152040   8.202   0.996   6.321
17232SOL    HW252041   8.060   1.069   6.289
17233SOL     OW52042   8.134   1.161   7.389
17233SOL    HW152043   8.194   1.240   7.403
17233SOL    HW252044   8.048   1.192   7.348
17234SOL     OW52045   7.783   1.435   6.647
17234SOL    HW152046   7.705   1.404   6.594
17234SOL    HW252047   7.841   1.493   6.590
17235SOL     OW52048   8.908   1.505   6.925
17235SOL    HW152049   8.932   1.599   6.951
17235SOL    HW252050   8.892   1.451   7.007
17236SOL     OW52051   9.051   0.447   6.323
17236SOL    HW152052   8.977   0.493   6.273
17236SOL    HW252053   9.102   0.515   6.376
17237SOL     OW52054   7.679   1.713   6.069
17237SOL    HW152055   7.713   1.790   6.123
17237SOL    HW252056   7.723   1.713   5.979
17238SOL     OW52057   8.575   1.341   7.276
17238SOL    HW152058   8.622   1.341   7.364
17238SOL    HW252059   8.527   1.254   7.265
17239SOL     OW52060   7.678   1.434   6.124
17239SOL    HW152061   7.652   1.530   6.124
17239SOL    HW252062   7.607   1.380   6.169
17240SOL     OW52063   7.688   1.091   6.472
17240SOL    HW152064   7.702   1.007   6.524
17240SOL    HW252065   7.633   1.155   6.527
17241SOL     OW52066   8.068   1.786   7.025
17241SOL    HW152067   7.976   1.769   7.060
17241SOL    HW252068   8.096   1.878   7.051
17242SOL     OW52069   8.054   0.964   5.709
17242SOL    HW152070   8.061   1.048   5.655
17242SOL    HW252071   8.100   0.977   5.797
17243SOL     OW52072   7.570   0.643   6.149
17243SOL    HW152073   7.525   0.555   6.166
17243SOL    HW252074   7.569   0.697   6.233
17244SOL     OW52075   9.290   1.767   5.945
17244SOL    HW152076   9.344   1.738   6.025
17244SOL    HW252077   9.320   1.857   5.916
17245SOL     OW52078   7.475   1.596   5.703
17245SOL    HW152079   7.456   1.500   5.724
17245SOL    HW252080   7.442   1.654   5.778
17246SOL     OW52081   9.137   0.922   6.198
17246SOL    HW152082   9.232   0.893   6.206
17246SOL    HW252083   9.129   0.987   6.123
17247SOL     OW52084   9.089   1.108   6.018
17247SOL    HW152085   9.175   1.110   5.966
17247SOL    HW252086   9.103   1.155   6.106
17248SOL     OW52087   7.561   0.737   7.183
17248SOL    HW152088   7.649   0.724   7.228
17248SOL    HW252089   7.548   0.834   7.161
17249SOL     OW52090   8.061   1.365   6.312
17249SOL    HW152091   8.012   1.278   6.321
17249SOL    HW252092   8.038   1.408   6.225
17250SOL     OW52093   8.741   1.228   7.009
17250SOL    HW152094   8.778   1.155   6.951
17250SOL    HW252095   8.793   1.233   7.094
17251SOL     OW52096   7.645   0.976   6.850
17251SOL    HW152097   7.734   0.931   6.836
17251SOL    HW252098   7.572   0.911   6.831
17252SOL     OW52099   8.973   0.999   5.776
17252SOL    HW152100   8.910   0.923   5.789
17252SOL    HW252101   9.021   1.017   5.862
17253SOL     OW52102   8.635   1.792   7.202
17253SOL    HW152103   8.659   1.852   7.126
17253SOL    HW252104   8.642   1.697   7.172
17254SOL     OW52105   8.914   1.417   6.539
17254SOL    HW152106   8.855   1.423   6.619
17254SOL    HW252107   8.899   1.329   6.493
17255SOL     OW52108   8.046   0.729   5.856
17255SOL    HW152109   8.070   0.798   5.788
17255SOL    HW252110   7.968   0.762   5.910
17256SOL     OW52111   9.024   1.662   5.893
17256SOL    HW152112   9.113   1.708   5.896
17256SOL    HW252113   9.003   1.638   5.798
17257SOL     OW52114   8.255   0.605   7.051
17257SOL    HW152115   8.208   0.602   7.140
17257SOL    HW252116   8.204   0.550   6.985
17258SOL     OW52117   8.842   0.469   7.260
17258SOL    HW152118   8.822   0.512   7.348
17258SOL    HW252119   8.920   0.407   7.269
17259SOL     OW52120   8.421   0.890   7.158
17259SOL    HW152121   8.467   0.806   7.129
17259SOL    HW252122   8.365   0.924   7.083
17260SOL     OW52123   8.439   0.410   6.828
17260SOL    HW152124   8.362   0.444   6.882
17260SOL    HW252125   8.405   0.359   6.749
17261SOL     OW52126   8.489   0.701   6.015
17261SOL    HW152127   8.515   0.697   6.111
17261SOL    HW252128   8.404   0.650   6.001
17262SOL     OW52129   7.524   0.811   6.375
17262SOL    HW152130   7.623   0.799   6.384
17262SOL    HW252131   7.500   0.906   6.396
17263SOL     OW52132   7.578   1.821   7.157
17263SOL    HW152133   7.568   1.806   7.256
17263SOL    HW252134   7.492   1.857   7.121
17264SOL     OW52135   8.313   0.348   5.781
17264SOL    HW152136   8.372   0.411   5.732
17264SOL    HW252137   8.332   0.254   5.752
17265SOL     OW52138   9.167   0.585   7.417
17265SOL    HW152139   9.141   0.674   7.381
17265SOL    HW252140   9.165   0.517   7.344
17266SOL     OW52141   8.810   1.144   6.131
17266SOL    HW152142   8.893   1.115   6.083
17266SOL    HW252143   8.761   1.211   6.075
17267SOL     OW52144   7.998   0.196   6.471
17267SOL    HW152145   7.993   0.191   6.571
17267SOL    HW252146   8.000   0.292   6.442
17268SOL     OW52147   8.456   1.456   6.063
17268SOL    HW152148   8.410   1.528   6.011
17268SOL    HW252149   8.452   1.476   6.161
17269SOL     OW52150   7.799   1.801   6.439
17269SOL    HW152151   7.849   1.715   6.445
17269SOL    HW252152   7.864   1.878   6.436
17270SOL     OW52153   9.243   1.066   6.459
17270SOL    HW152154   9.181   1.051   6.383
17270SOL    HW252155   9.191   1.077   6.544
17271SOL     OW52156   8.675   1.550   7.092
17271SOL    HW152157   8.681   1.473   7.156
17271SOL    HW252158   8.623   1.524   7.012
17272SOL     OW52159   7.769   0.943   5.828
17272SOL    HW152160   7.851   0.982   5.786
17272SOL    HW252161   7.742   0.861   5.779
17273SOL     OW52162   8.906   0.735   6.314
17273SOL    HW152163   8.901   0.670   6.389
17273SOL    HW252164   8.986   0.794   6.327
17274SOL     OW52165   7.909   1.266   7.313
17274SOL    HW152166   7.859   1.267   7.227
17274SOL    HW252167   7.846   1.248   7.389
17275SOL     OW52168   8.559   1.776   5.823
17275SOL    HW152169   8.499   1.714   5.873
17275SOL    HW252170   8.590   1.732   5.738
17276SOL     OW52171   9.080   1.377   5.667
17276SOL    HW152172   9.048   1.471   5.657
17276SOL    HW252173   9.004   1.314   5.655
17277SOL     OW52174   7.912   1.743   5.909
17277SOL    HW152175   7.945   1.782   5.995
17277SOL    HW252176   7.988   1.736   5.844
17278SOL     OW52177   7.697   1.785   6.827
17278SOL    HW152178   7.754   1.720   6.877
17278SOL    HW252179   7.681   1.752   6.734
17279SOL     OW52180   8.388   1.698   6.490
17279SOL    HW152181   8.468   1.641   6.511
17279SOL    HW252182   8.339   1.658   6.413
17280SOL     OW52183   7.830   0.700   6.066
17280SOL    HW152184   7.875   0.610   6.063
17280SOL    HW252185   7.736   0.689   6.099
17281SOL     OW52186   8.336   1.514   6.781
17281SOL    HW152187   8.313   1.489   6.687
17281SOL    HW252188   8.397   1.445   6.820
17282SOL     OW52189   8.799   0.590   7.019
17282SOL    HW152190   8.827   0.547   7.104
17282SOL    HW252191   8.824   0.686   7.020
17283SOL     OW52192   8.251   1.402   6.510
17283SOL    HW152193   8.341   1.416   6.468
17283SOL    HW252194   8.180   1.404   6.439
17284SOL     OW52195   8.370   0.503   6.485
17284SOL    HW152196   8.345   0.494   6.389
17284SOL    HW252197   8.418   0.421   6.516
17285SOL     OW52198   8.882   1.188   5.627
17285SOL    HW152199   8.914   1.112   5.684
17285SOL    HW252200   8.790   1.215   5.657
17286SOL     OW52201   8.383   0.236   6.066
17286SOL    HW152202   8.335   0.277   5.988
17286SOL    HW252203   8.482   0.234   6.047
17287SOL     OW52204   8.524   0.683   7.050
17287SOL    HW152205   8.444   0.622   7.053
17287SOL    HW252206   8.605   0.630   7.026
17288SOL     OW52207   8.675   1.570   6.379
17288SOL    HW152208   8.696   1.644   6.314
17288SOL    HW252209   8.743   1.570   6.452
17289SOL     OW52210   7.907   1.152   6.327
17289SOL    HW152211   7.836   1.125   6.392
17289SOL    HW252212   7.881   1.124   6.234
17290SOL     OW52213   8.719   1.797   6.177
17290SOL    HW152214   8.763   1.861   6.113
17290SOL    HW252215   8.669   1.849   6.247
17291SOL     OW52216   8.480   0.549   5.602
17291SOL    HW152217   8.439   0.631   5.563
17291SOL    HW252218   8.544   0.575   5.675
17292SOL     OW52219   7.526   0.556   6.972
17292SOL    HW152220   7.618   0.555   6.931
17292SOL    HW252221   7.520   0.630   7.039
17293SOL     OW52222   8.314   0.454   6.228
17293SOL    HW152223   8.282   0.526   6.166
17293SOL    HW252224   8.338   0.373   6.175
17294SOL     OW52225   8.465   0.039   6.339
17294SOL    HW152226   8.393   0.044   6.270
17294SOL    HW252227   8.441  -0.030   6.408
17295SOL     OW52228   8.877   1.173   6.453
17295SOL    HW152229   8.822   1.089   6.446
17295SOL    HW252230   8.903   1.202   6.361
17296SOL     OW52231   8.914   0.590   6.578
17296SOL    HW152232   8.884   0.495   6.585
17296SOL    HW252233   8.987   0.606   6.644
17297SOL     OW52234   9.305   0.833   5.963
17297SOL    HW152235   9.347   0.769   6.027
17297SOL    HW252236   9.267   0.782   5.885
17298SOL     OW52237   7.936   1.385   5.760
17298SOL    HW152238   7.849   1.370   5.807
17298SOL    HW252239   7.919   1.411   5.665
17299SOL     OW52240   9.112   1.280   6.243
17299SOL    HW152241   9.211   1.288   6.257
17299SOL    HW252242   9.067   1.364   6.274
17300SOL     OW52243   8.838   0.575   5.664
17300SOL    HW152244   8.784   0.554   5.745
17300SOL    HW252245   8.929   0.534   5.673
17301SOL     OW52246   9.202   1.223   7.174
17301SOL    HW152247   9.293   1.184   7.161
17301SOL    HW252248   9.210   1.319   7.198
17302SOL     OW52249   8.512   1.347   6.926
17302SOL    HW152250   8.432   1.324   6.981
17302SOL    HW252251   8.595   1.321   6.975
17303SOL     OW52252   9.040   1.629   7.211
17303SOL    HW152253   9.067   1.663   7.121
17303SOL    HW252254   9.119   1.591   7.257
17304SOL     OW52255   8.559   1.195   6.686
17304SOL    HW152256   8.519   1.239   6.767
17304SOL    HW252257   8.518   1.232   6.603
17305SOL     OW52258   9.086   1.099   6.665
17305SOL    HW152259   9.091   1.180   6.724
17305SOL    HW252260   9.000   1.101   6.614
17306SOL     OW52261   8.428   1.116   7.305
17306SOL    HW152262   8.329   1.122   7.315
17306SOL    HW252263   8.451   1.036   7.249
17307SOL     OW52264   8.153   1.050   5.954
17307SOL    HW152265   8.139   1.057   6.053
17307SOL    HW252266   8.237   0.999   5.936
17308SOL     OW52267   7.858   0.813   6.837
17308SOL    HW152268   7.944   0.825   6.887
17308SOL    HW252269   7.816   0.726   6.864
17309SOL     OW52270   8.722   0.386   6.848
17309SOL    HW152271   8.743   0.460   6.912
17309SOL    HW252272   8.633   0.403   6.805
17310SOL     OW52273   7.512   1.564   6.917
17310SOL    HW152274   7.466   1.646   6.883
17310SOL    HW252275   7.610   1.583   6.926
17311SOL     OW52276   7.815   1.100   6.087
17311SOL    HW152277   7.808   1.183   6.031
17311SOL    HW252278   7.819   1.020   6.027
17312SOL     OW52279   8.014   0.537   6.451
17312SOL    HW152280   8.026   0.603   6.377
17312SOL    HW252281   8.060   0.571   6.534
17313SOL     OW52282   8.700   1.348   5.974
17313SOL    HW152283   8.750   1.425   6.014
17313SOL    HW252284   8.605   1.350   6.006
17314SOL     OW52285   8.720   1.445   6.728
17314SOL    HW152286   8.767   1.458   6.815
17314SOL    HW252287   8.654   1.371   6.737
17315SOL     OW52288   9.030   0.639   6.058
17315SOL    HW152289   8.999   0.700   6.131
17315SOL    HW252290   9.080   0.691   5.989
17316SOL     OW52291   7.802   1.510   6.915
17316SOL    HW152292   7.781   1.466   6.828
17316SOL    HW252293   7.899   1.536   6.918
17317SOL     OW52294   7.850   0.751   7.184
17317SOL    HW152295   7.918   0.806   7.137
17317SOL    HW252296   7.890   0.663   7.211
17318SOL     OW52297   9.035   0.779   7.256
17318SOL    HW152298   8.943   0.817   7.251
17318SOL    HW252299   9.095   0.826   7.191
17319SOL     OW52300   8.021   0.870   6.615
17319SOL    HW152301   8.065   0.959   6.606
17319SOL    HW252302   7.958   0.870   6.692
17320SOL     OW52303   8.808   0.862   6.631
17320SOL    HW152304   8.733   0.862   6.565
17320SOL    HW252305   8.845   0.770   6.640
17321SOL     OW52306   8.657   0.525   5.861
17321SOL    HW152307   8.670   0.441   5.915
17321SOL    HW252308   8.628   0.599   5.921
17322SOL     OW52309   7.485   1.310   6.868
17322SOL    HW152310   7.538   1.261   6.936
17322SOL    HW252311   7.507   1.408   6.873
17323SOL     OW52312   8.180   0.634   6.650
17323SOL    HW152313   8.239   0.608   6.574
17323SOL    HW252314   8.152   0.730   6.639
17324SOL     OW52315   9.176   0.935   7.440
17324SOL    HW152316   9.130   0.928   7.351
17324SOL    HW252317   9.114   0.979   7.506
17325SOL     OW52318   8.471   0.766   6.552
17325SOL    HW152319   8.486   0.787   6.648
17325SOL    HW252320   8.441   0.671   6.543
17326SOL     OW52321   8.428   1.573   7.286
17326SOL    HW152322   8.408   1.617   7.198
17326SOL    HW252323   8.467   1.482   7.270
17327SOL     OW52324   9.307   1.518   7.191
17327SOL    HW152325   9.321   1.545   7.096
17327SOL    HW252326   9.390   1.540   7.244
17328SOL     OW52327   7.798   0.898   7.390
17328SOL    HW152328   7.874   0.942   7.438
17328SOL    HW252329   7.833   0.851   7.308
17329SOL     OW52330   8.751   0.838   5.628
17329SOL    HW152331   8.785   0.745   5.643
17329SOL    HW252332   8.769   0.865   5.533
17330SOL     OW52333   8.516   1.333   6.435
17330SOL    HW152334   8.523   1.249   6.380
17330SOL    HW252335   8.578   1.402   6.399
17331SOL     OW52336   7.767   0.810   6.535
17331SOL    HW152337   7.860   0.846   6.540
17331SOL    HW252338   7.761   0.725   6.587
17332SOL     OW52339   7.787   0.509   6.592
17332SOL    HW152340   7.735   0.426   6.575
17332SOL    HW252341   7.864   0.514   6.528
17333SOL     OW52342   7.959   0.415   7.394
17333SOL    HW152343   7.941   0.460   7.482
17333SOL    HW252344   8.001   0.480   7.331
17334SOL     OW52345   7.456   1.326   5.786
17334SOL    HW152346   7.363   1.347   5.755
17334SOL    HW252347   7.466   1.227   5.799
17335SOL     OW52348   7.536   1.801   6.513
17335SOL    HW152349   7.494   1.715   6.486
17335SOL    HW252350   7.630   1.804   6.479
17336SOL     OW52351   7.952   1.568   6.496
17336SOL    HW152352   8.018   1.642   6.505
17336SOL    HW252353   7.996   1.489   6.454
17337SOL     OW52354   8.450   0.796   6.824
17337SOL    HW152355   8.491   0.764   6.910
17337SOL    HW252356   8.354   0.769   6.821
17338SOL     OW52357   7.488   0.544   6.700
17338SOL    HW152358   7.573   0.511   6.659
17338SOL    HW252359   7.501   0.559   6.798
17339SOL     OW52360   7.637   0.520   7.308
17339SOL    HW152361   7.696   0.480   7.238
17339SOL    HW252362   7.579   0.591   7.267
17340SOL     OW52363   8.817   0.950   7.246
17340SOL    HW152364   8.856   1.039   7.266
17340SOL    HW252365   8.827   0.930   7.149
17341SOL     OW52366   8.263   0.572   5.911
17341SOL    HW152367   8.270   0.483   5.865
17341SOL    HW252368   8.169   0.606   5.903
17342SOL     OW52369   9.105   0.604   6.792
17342SOL    HW152370   9.067   0.535   6.854
17342SOL    HW252371   9.187   0.568   6.748
17343SOL     OW52372   7.700   1.564   7.330
17343SOL    HW152373   7.670   1.621   7.406
17343SOL    HW252374   7.693   1.467   7.356
17344SOL     OW52375   8.378   1.678   7.051
17344SOL    HW152376   8.354   1.660   6.956
17344SOL    HW252377   8.408   1.772   7.061
17345SOL     OW52378   7.921   0.500   5.777
17345SOL    HW152379   7.982   0.580   5.781
17345SOL    HW252380   7.826   0.531   5.784
17346SOL     OW52381   7.607   1.137   7.052
17346SOL    HW152382   7.629   1.076   7.128
17346SOL    HW252383   7.617   1.088   6.966
17347SOL     OW52384   8.795   1.059   6.820
17347SOL    HW152385   8.819   0.996   6.746
17347SOL    HW252386   8.705   1.099   6.802
17348SOL     OW52387   8.750   0.855   5.895
17348SOL    HW152388   8.664   0.824   5.937
17348SOL    HW252389   8.746   0.841   5.796
17349SOL     OW52390   9.207   1.747   6.740
17349SOL    HW152391   9.268   1.777   6.667
17349SOL    HW252392   9.169   1.658   6.718
17350SOL     OW52393   8.700   1.731   6.714
17350SOL    HW152394   8.784   1.736   6.660
17350SOL    HW252395   8.677   1.635   6.732
17351SOL     OW52396   7.531   1.258   6.608
17351SOL    HW152397   7.526   1.257   6.708
17351SOL    HW252398   7.448   1.217   6.570
17352SOL     OW52399   8.136   1.662   7.302
17352SOL    HW152400   8.080   1.743   7.311
17352SOL    HW252401   8.188   1.666   7.216
17353SOL     OW52402   8.836   1.573   6.063
17353SOL    HW152403   8.903   1.585   5.989
17353SOL    HW252404   8.796   1.662   6.086
17354SOL     OW52405   7.578   1.794   7.437
17354SOL    HW152406   7.537   1.720   7.490
17354SOL    HW252407   7.642   1.845   7.495
17355SOL     OW52408   8.728   0.927   6.258
17355SOL    HW152409   8.788   0.846   6.260
17355SOL    HW252410   8.768   0.996   6.198
17356SOL     OW52411   8.278   1.273   7.008
17356SOL    HW152412   8.273   1.306   7.103
17356SOL    HW252413   8.192   1.292   6.962
17357SOL     OW52414   8.120   1.616   5.740
17357SOL    HW152415   8.129   1.626   5.641
17357SOL    HW252416   8.080   1.527   5.761
17358SOL     OW52417   9.098   1.720   6.980
17358SOL    HW152418   9.151   1.730   6.896
17358SOL    HW252419   9.071   1.810   7.014
17359SOL     OW52420   7.711   0.326   6.306
17359SOL    HW152421   7.632   0.377   6.272
17359SOL    HW252422   7.702   0.311   6.404
17360SOL     OW52423   8.642   1.612   5.617
17360SOL    HW152424   8.648   1.519   5.654
17360SOL    HW252425   8.583   1.612   5.537
17361SOL     OW52426   8.270   1.002   6.958
17361SOL    HW152427   8.310   1.001   6.866
17361SOL    HW252428   8.280   1.094   6.998
17362SOL     OW52429   8.364   0.910   5.877
17362SOL    HW152430   8.427   0.948   5.809
17362SOL    HW252431   8.404   0.827   5.916
17363SOL     OW52432   8.952   1.607   5.630
17363SOL    HW152433   8.860   1.644   5.637
17363SOL    HW252434   8.990   1.627   5.540
17364SOL     OW52435   7.820   1.288   7.076
17364SOL    HW152436   7.807   1.381   7.042
17364SOL    HW252437   7.736   1.236   7.063
17365SOL     OW52438   9.062   1.292   6.875
17365SOL    HW152439   9.122   1.295   6.955
17365SOL    HW252440   8.987   1.356   6.888
17366SOL     OW52441   8.487   1.098   6.282
17366SOL    HW152442   8.417   1.051   6.336
17366SOL    HW252443   8.546   1.030   6.239
17367SOL     OW52444   8.462   0.236   6.557
17367SOL    HW152445   8.454   0.200   6.464
17367SOL    HW252446   8.460   0.160   6.622
17368SOL     OW52447   8.038   1.487   6.077
17368SOL    HW152448   8.080   1.429   6.007
17368SOL    HW252449   7.994   1.566   6.033
17369SOL     OW52450   7.703   1.348   5.876
17369SOL    HW152451   7.607   1.349   5.849
17369SOL    HW252452   7.715   1.401   5.960
17370SOL     OW52453   7.553   1.013   7.312
17370SOL    HW152454   7.476   0.980   7.366
17370SOL    HW252455   7.638   0.983   7.354
17371SOL     OW52456   7.523   0.345   5.619
17371SOL    HW152457   7.431   0.317   5.590
17371SOL    HW252458   7.554   0.422   5.563
17372SOL     OW52459   8.888   0.856   6.984
17372SOL    HW152460   8.831   0.908   6.921
17372SOL    HW252461   8.984   0.868   6.960
17373SOL     OW52462   7.520   0.166   5.904
17373SOL    HW152463   7.503   0.249   5.850
17373SOL    HW252464   7.610   0.129   5.882
17374SOL     OW52465   8.631   1.335   5.705
17374SOL    HW152466   8.532   1.324   5.707
17374SOL    HW252467   8.665   1.350   5.798
17375SOL     OW52468   8.061   0.842   7.017
17375SOL    HW152469   8.117   0.923   7.000
17375SOL    HW252470   8.120   0.762   7.020
17376SOL     OW52471   8.941   1.767   6.545
17376SOL    HW152472   8.974   1.831   6.476
17376SOL    HW252473   9.007   1.761   6.620
17377SOL     OW52474   8.164   0.565   7.294
17377SOL    HW152475   8.183   0.630   7.368
17377SOL    HW252476   8.224   0.485   7.303
17378SOL     OW52477   8.898   1.220   7.219
17378SOL    HW152478   8.889   1.210   7.318
17378SOL    HW252479   8.994   1.213   7.193
17379SOL     OW52480   7.838   1.741   7.146
17379SOL    HW152481   7.747   1.782   7.144
17379SOL    HW252482   7.831   1.647   7.178
17380SOL     OW52483   9.122   0.883   6.840
17380SOL    HW152484   9.095   0.794   6.803
17380SOL    HW252485   9.123   0.951   6.767
17381SOL     OW52486   8.673   0.325   6.035
17381SOL    HW152487   8.738   0.251   6.024
17381SOL    HW252488   8.693   0.375   6.119
17382SOL     OW52489   8.042   0.745   6.238
17382SOL    HW152490   8.092   0.830   6.219
17382SOL    HW252491   7.954   0.747   6.190
17383SOL     OW52492   9.178   0.934   7.103
17383SOL    HW152493   9.216   1.025   7.118
17383SOL    HW252494   9.170   0.917   7.004
17384SOL     OW52495   8.307   1.374   5.602
17384SOL    HW152496   8.261   1.389   5.690
17384SOL    HW252497   8.351   1.459   5.572
17385SOL     OW52498   8.109   1.790   6.539
17385SOL    HW152499   8.063   1.878   6.526
17385SOL    HW252500   8.208   1.802   6.532
17386SOL     OW52501   8.307   0.956   6.447
17386SOL    HW152502   8.361   0.887   6.495
17386SOL    HW252503   8.275   1.025   6.513
17387SOL     OW52504   8.531   0.984   5.673
17387SOL    HW152505   8.508   1.037   5.591
17387SOL    HW252506   8.612   0.928   5.654
17388SOL     OW52507   9.309   1.569   6.437
17388SOL    HW152508   9.238   1.557   6.367
17388SOL    HW252509   9.310   1.490   6.497
17389SOL     OW52510   7.669   1.314   7.430
17389SOL    HW152511   7.604   1.241   7.409
17389SOL    HW252512   7.673   1.328   7.528
17390SOL     OW52513   7.527   1.240   6.239
17390SOL    HW152514   7.526   1.193   6.327
17390SOL    HW252515   7.609   1.212   6.188
17391SOL     OW52516   8.120   1.391   7.210
17391SOL    HW152517   8.042   1.341   7.248
17391SOL    HW252518   8.117   1.486   7.241
17392SOL     OW52519   9.272   0.192   6.813
17392SOL    HW152520   9.268   0.102   6.857
17392SOL    HW252521   9.275   0.181   6.714
17393SOL     OW52522   9.153   1.487   6.690
17393SOL    HW152523   9.060   1.462   6.663
17393SOL    HW252524   9.179   1.437   6.772
17394SOL     OW52525   7.765   0.547   6.866
17394SOL    HW152526   7.803   0.488   6.938
17394SOL    HW252527   7.805   0.521   6.778
17395SOL     OW52528   8.260   1.586   6.273
17395SOL    HW152529   8.292   1.596   6.179
17395SOL    HW252530   8.181   1.524   6.275
17396SOL     OW52531   8.218   1.330   5.887
17396SOL    HW152532   8.172   1.243   5.904
17396SOL    HW252533   8.309   1.327   5.928
17397SOL     OW52534   8.066   1.567   6.870
17397SOL    HW152535   8.061   1.649   6.927
17397SOL    HW252536   8.155   1.564   6.825
17398SOL     OW52537   8.748   0.453   6.277
17398SOL    HW152538   8.689   0.533   6.281
17398SOL    HW252539   8.763   0.418   6.370
17399SOL     OW52540   7.487   1.077   5.886
17399SOL    HW152541   7.586   1.066   5.877
17399SOL    HW252542   7.447   0.991   5.918
17400SOL     OW52543   8.323   1.646   5.923
17400SOL    HW152544   8.246   1.611   5.869
17400SOL    HW252545   8.291   1.717   5.985
17401SOL     OW52546   7.475   1.596   7.565
17401SOL    HW152547   7.456   1.500   7.586
17401SOL    HW252548   7.442   1.654   7.640
17402SOL     OW52549   8.973   0.999   7.638
17402SOL    HW152550   8.910   0.923   7.651
17402SOL    HW252551   9.021   1.017   7.724
17403SOL     OW52552   7.769   0.943   7.690
17403SOL    HW152553   7.851   0.982   7.648
17403SOL    HW252554   7.742   0.861   7.641
17404SOL     OW52555   8.559   1.776   7.685
17404SOL    HW152556   8.499   1.714   7.735
17404SOL    HW252557   8.590   1.732   7.600
17405SOL     OW52558   9.080   1.377   7.529
17405SOL    HW152559   9.048   1.471   7.519
17405SOL    HW252560   9.004   1.314   7.517
17406SOL     OW52561   8.882   1.188   7.489
17406SOL    HW152562   8.914   1.112   7.546
17406SOL    HW252563   8.790   1.215   7.519
17407SOL     OW52564   8.480   0.549   7.464
17407SOL    HW152565   8.439   0.631   7.425
17407SOL    HW252566   8.544   0.575   7.537
17408SOL     OW52567   7.936   1.385   7.622
17408SOL    HW152568   7.849   1.370   7.669
17408SOL    HW252569   7.919   1.411   7.527
17409SOL     OW52570   8.838   0.575   7.526
17409SOL    HW152571   8.784   0.554   7.607
17409SOL    HW252572   8.929   0.534   7.535
17410SOL     OW52573   8.751   0.838   7.490
17410SOL    HW152574   8.785   0.745   7.505
17410SOL    HW252575   8.769   0.865   7.395
17411SOL     OW52576   7.921   0.500   7.639
17411SOL    HW152577   7.982   0.580   7.643
17411SOL    HW252578   7.826   0.531   7.646
17412SOL     OW52579   8.836   1.573   7.925
17412SOL    HW152580   8.903   1.585   7.851
17412SOL    HW252581   8.796   1.662   7.948
17413SOL     OW52582   8.120   1.616   7.602
17413SOL    HW152583   8.129   1.626   7.503
17413SOL    HW252584   8.080   1.527   7.623
17414SOL     OW52585   8.642   1.612   7.479
17414SOL    HW152586   8.648   1.519   7.516
17414SOL    HW252587   8.583   1.612   7.399
17415SOL     OW52588   8.952   1.607   7.492
17415SOL    HW152589   8.860   1.644   7.499
17415SOL    HW252590   8.990   1.627   7.402
17416SOL     OW52591   7.523   0.345   7.481
17416SOL    HW152592   7.431   0.317   7.452
17416SOL    HW252593   7.554   0.422   7.425
17417SOL     OW52594   7.520   0.166   7.766
17417SOL    HW152595   7.503   0.249   7.712
17417SOL    HW252596   7.610   0.129   7.744
17418SOL     OW52597   8.307   1.374   7.464
17418SOL    HW152598   8.261   1.389   7.552
17418SOL    HW252599   8.351   1.459   7.434
17419SOL     OW52600   8.531   0.984   7.535
17419SOL    HW152601   8.508   1.037   7.453
17419SOL    HW252602   8.612   0.928   7.516
17420SOL     OW52603   7.487   1.077   7.748
17420SOL    HW152604   7.586   1.066   7.739
17420SOL    HW252605   7.447   0.991   7.780
17421SOL     OW52606   7.673   2.137   0.996
17421SOL    HW152607   7.708   2.120   1.088
17421SOL    HW252608   7.585   2.092   0.984
17422SOL     OW52609   7.467   2.230   0.647
17422SOL    HW152610   7.385   2.273   0.686
17422SOL    HW252611   7.439   2.157   0.584
17423SOL     OW52612   8.017   3.137   1.165
17423SOL    HW152613   7.924   3.130   1.128
17423SOL    HW252614   8.028   3.226   1.209
17424SOL     OW52615   9.003   3.373   0.703
17424SOL    HW152616   8.946   3.357   0.784
17424SOL    HW252617   8.944   3.383   0.623
17425SOL     OW52618   8.583   2.565   0.717
17425SOL    HW152619   8.640   2.643   0.692
17425SOL    HW252620   8.523   2.591   0.793
17426SOL     OW52621   9.203   2.469   0.231
17426SOL    HW152622   9.191   2.456   0.132
17426SOL    HW252623   9.173   2.388   0.280
17427SOL     OW52624   8.216   3.006   1.023
17427SOL    HW152625   8.138   3.023   1.083
17427SOL    HW252626   8.250   3.093   0.987
17428SOL     OW52627   8.298   2.660   1.823
17428SOL    HW152628   8.294   2.736   1.888
17428SOL    HW252629   8.320   2.696   1.732
17429SOL     OW52630   8.133   2.874   0.665
17429SOL    HW152631   8.202   2.858   0.735
17429SOL    HW252632   8.060   2.931   0.703
17430SOL     OW52633   8.134   3.023   1.803
17430SOL    HW152634   8.194   3.102   1.817
17430SOL    HW252635   8.048   3.054   1.762
17431SOL     OW52636   7.783   3.297   1.061
17431SOL    HW152637   7.705   3.266   1.008
17431SOL    HW252638   7.841   3.355   1.004
17432SOL     OW52639   8.908   3.367   1.339
17432SOL    HW152640   8.932   3.461   1.365
17432SOL    HW252641   8.892   3.313   1.421
17433SOL     OW52642   7.886   2.254   1.499
17433SOL    HW152643   7.968   2.198   1.508
17433SOL    HW252644   7.805   2.196   1.503
17434SOL     OW52645   9.051   2.309   0.737
17434SOL    HW152646   8.977   2.355   0.687
17434SOL    HW252647   9.102   2.377   0.790
17435SOL     OW52648   7.679   3.575   0.483
17435SOL    HW152649   7.713   3.652   0.537
17435SOL    HW252650   7.723   3.575   0.393
17436SOL     OW52651   8.575   3.203   1.690
17436SOL    HW152652   8.622   3.203   1.778
17436SOL    HW252653   8.527   3.116   1.679
17437SOL     OW52654   7.678   3.296   0.538
17437SOL    HW152655   7.652   3.392   0.538
17437SOL    HW252656   7.607   3.242   0.583
17438SOL     OW52657   7.688   2.953   0.886
17438SOL    HW152658   7.702   2.869   0.938
17438SOL    HW252659   7.633   3.017   0.941
17439SOL     OW52660   8.068   3.648   1.439
17439SOL    HW152661   7.976   3.631   1.474
17439SOL    HW252662   8.096   3.740   1.465
17440SOL     OW52663   9.042   1.976   1.480
17440SOL    HW152664   9.024   2.043   1.408
17440SOL    HW252665   9.039   2.022   1.569
17441SOL     OW52666   7.570   2.505   0.563
17441SOL    HW152667   7.525   2.417   0.580
17441SOL    HW252668   7.569   2.559   0.647
17442SOL     OW52669   9.290   3.629   0.359
17442SOL    HW152670   9.344   3.600   0.439
17442SOL    HW252671   9.320   3.719   0.330
17443SOL     OW52672   9.137   2.784   0.612
17443SOL    HW152673   9.232   2.755   0.620
17443SOL    HW252674   9.129   2.849   0.537
17444SOL     OW52675   9.089   2.970   0.432
17444SOL    HW152676   9.175   2.972   0.380
17444SOL    HW252677   9.103   3.017   0.520
17445SOL     OW52678   7.561   2.599   1.597
17445SOL    HW152679   7.649   2.586   1.642
17445SOL    HW252680   7.548   2.696   1.575
17446SOL     OW52681   8.061   3.227   0.726
17446SOL    HW152682   8.012   3.140   0.735
17446SOL    HW252683   8.038   3.270   0.639
17447SOL     OW52684   8.741   3.090   1.423
17447SOL    HW152685   8.778   3.017   1.365
17447SOL    HW252686   8.793   3.095   1.508
17448SOL     OW52687   8.257   1.866   0.502
17448SOL    HW152688   8.297   1.957   0.493
17448SOL    HW252689   8.157   1.874   0.508
17449SOL     OW52690   7.645   2.838   1.264
17449SOL    HW152691   7.734   2.793   1.250
17449SOL    HW252692   7.572   2.773   1.245
17450SOL     OW52693   8.635   3.654   1.616
17450SOL    HW152694   8.659   3.714   1.540
17450SOL    HW252695   8.642   3.559   1.586
17451SOL     OW52696   7.765   2.113   1.801
17451SOL    HW152697   7.836   2.184   1.807
17451SOL    HW252698   7.677   2.152   1.829
17452SOL     OW52699   8.914   3.279   0.953
17452SOL    HW152700   8.855   3.285   1.033
17452SOL    HW252701   8.899   3.191   0.907
17453SOL     OW52702   9.115   3.576   0.572
17453SOL    HW152703   9.074   3.553   0.484
17453SOL    HW252704   9.097   3.502   0.637
17454SOL     OW52705   8.729   2.207   0.944
17454SOL    HW152706   8.643   2.157   0.931
17454SOL    HW252707   8.791   2.153   1.000
17455SOL     OW52708   8.255   2.467   1.465
17455SOL    HW152709   8.208   2.464   1.554
17455SOL    HW252710   8.204   2.412   1.399
17456SOL     OW52711   8.842   2.331   1.674
17456SOL    HW152712   8.822   2.374   1.762
17456SOL    HW252713   8.920   2.269   1.683
17457SOL     OW52714   8.421   2.752   1.572
17457SOL    HW152715   8.467   2.668   1.543
17457SOL    HW252716   8.365   2.786   1.497
17458SOL     OW52717   8.439   2.272   1.242
17458SOL    HW152718   8.362   2.306   1.296
17458SOL    HW252719   8.405   2.221   1.163
17459SOL     OW52720   8.489   2.563   0.429
17459SOL    HW152721   8.515   2.559   0.525
17459SOL    HW252722   8.404   2.512   0.415
17460SOL     OW52723   7.524   2.673   0.789
17460SOL    HW152724   7.623   2.661   0.798
17460SOL    HW252725   7.500   2.768   0.810
17461SOL     OW52726   7.578   3.683   1.571
17461SOL    HW152727   7.568   3.668   1.670
17461SOL    HW252728   7.492   3.719   1.535
17462SOL     OW52729   9.167   2.447   1.831
17462SOL    HW152730   9.141   2.536   1.795
17462SOL    HW252731   9.165   2.379   1.758
17463SOL     OW52732   8.810   3.006   0.545
17463SOL    HW152733   8.893   2.977   0.497
17463SOL    HW252734   8.761   3.073   0.489
17464SOL     OW52735   7.998   2.058   0.885
17464SOL    HW152736   7.993   2.053   0.985
17464SOL    HW252737   8.000   2.154   0.856
17465SOL     OW52738   8.456   3.318   0.477
17465SOL    HW152739   8.410   3.390   0.425
17465SOL    HW252740   8.452   3.338   0.575
17466SOL     OW52741   7.799   3.663   0.853
17466SOL    HW152742   7.849   3.577   0.859
17466SOL    HW252743   7.864   3.740   0.850
17467SOL     OW52744   9.243   2.928   0.873
17467SOL    HW152745   9.181   2.913   0.797
17467SOL    HW252746   9.191   2.939   0.958
17468SOL     OW52747   8.675   3.412   1.506
17468SOL    HW152748   8.681   3.335   1.570
17468SOL    HW252749   8.623   3.386   1.426
17469SOL     OW52750   8.906   2.597   0.728
17469SOL    HW152751   8.901   2.532   0.803
17469SOL    HW252752   8.986   2.656   0.741
17470SOL     OW52753   7.909   3.128   1.727
17470SOL    HW152754   7.859   3.129   1.641
17470SOL    HW252755   7.846   3.110   1.803
17471SOL     OW52756   7.650   2.147   1.498
17471SOL    HW152757   7.570   2.207   1.485
17471SOL    HW252758   7.640   2.098   1.584
17472SOL     OW52759   8.848   1.969   0.426
17472SOL    HW152760   8.824   1.932   0.336
17472SOL    HW252761   8.947   1.985   0.430
17473SOL     OW52762   7.697   3.647   1.241
17473SOL    HW152763   7.754   3.582   1.291
17473SOL    HW252764   7.681   3.614   1.148
17474SOL     OW52765   8.388   3.560   0.904
17474SOL    HW152766   8.468   3.503   0.925
17474SOL    HW252767   8.339   3.520   0.827
17475SOL     OW52768   7.830   2.562   0.480
17475SOL    HW152769   7.875   2.472   0.477
17475SOL    HW252770   7.736   2.551   0.513
17476SOL     OW52771   8.995   2.084   1.729
17476SOL    HW152772   8.990   2.121   1.821
17476SOL    HW252773   8.923   2.015   1.717
17477SOL     OW52774   8.229   2.126   1.749
17477SOL    HW152775   8.296   2.065   1.792
17477SOL    HW252776   8.156   2.145   1.814
17478SOL     OW52777   8.336   3.376   1.195
17478SOL    HW152778   8.313   3.351   1.101
17478SOL    HW252779   8.397   3.307   1.234
17479SOL     OW52780   8.799   2.452   1.433
17479SOL    HW152781   8.827   2.409   1.518
17479SOL    HW252782   8.824   2.548   1.434
17480SOL     OW52783   8.251   3.264   0.924
17480SOL    HW152784   8.341   3.278   0.882
17480SOL    HW252785   8.180   3.266   0.853
17481SOL     OW52786   8.370   2.365   0.899
17481SOL    HW152787   8.345   2.356   0.803
17481SOL    HW252788   8.418   2.283   0.930
17482SOL     OW52789   7.987   1.926   0.512
17482SOL    HW152790   7.906   1.927   0.570
17482SOL    HW252791   7.990   2.009   0.457
17483SOL     OW52792   8.383   2.098   0.480
17483SOL    HW152793   8.335   2.139   0.402
17483SOL    HW252794   8.482   2.096   0.461
17484SOL     OW52795   8.524   2.545   1.464
17484SOL    HW152796   8.444   2.484   1.467
17484SOL    HW252797   8.605   2.492   1.440
17485SOL     OW52798   8.675   3.432   0.793
17485SOL    HW152799   8.696   3.506   0.728
17485SOL    HW252800   8.743   3.432   0.866
17486SOL     OW52801   7.907   3.014   0.741
17486SOL    HW152802   7.836   2.987   0.806
17486SOL    HW252803   7.881   2.986   0.648
17487SOL     OW52804   8.719   3.659   0.591
17487SOL    HW152805   8.763   3.723   0.527
17487SOL    HW252806   8.669   3.711   0.661
17488SOL     OW52807   8.480   2.411   0.016
17488SOL    HW152808   8.439   2.493  -0.023
17488SOL    HW252809   8.544   2.437   0.089
17489SOL     OW52810   7.526   2.418   1.386
17489SOL    HW152811   7.618   2.417   1.345
17489SOL    HW252812   7.520   2.492   1.453
17490SOL     OW52813   8.009   2.084   1.147
17490SOL    HW152814   8.047   2.000   1.184
17490SOL    HW252815   7.921   2.103   1.191
17491SOL     OW52816   8.314   2.316   0.642
17491SOL    HW152817   8.282   2.388   0.580
17491SOL    HW252818   8.338   2.235   0.589
17492SOL     OW52819   8.465   1.901   0.753
17492SOL    HW152820   8.393   1.906   0.684
17492SOL    HW252821   8.441   1.832   0.822
17493SOL     OW52822   8.877   3.035   0.867
17493SOL    HW152823   8.822   2.951   0.860
17493SOL    HW252824   8.903   3.064   0.775
17494SOL     OW52825   8.914   2.452   0.992
17494SOL    HW152826   8.884   2.357   0.999
17494SOL    HW252827   8.987   2.468   1.058
17495SOL     OW52828   9.112   3.142   0.657
17495SOL    HW152829   9.211   3.150   0.671
17495SOL    HW252830   9.067   3.226   0.688
17496SOL     OW52831   7.975   2.118   0.328
17496SOL    HW152832   8.002   2.059   0.253
17496SOL    HW252833   7.975   2.213   0.297
17497SOL     OW52834   9.202   3.085   1.588
17497SOL    HW152835   9.293   3.046   1.575
17497SOL    HW252836   9.210   3.181   1.612
17498SOL     OW52837   8.512   3.209   1.340
17498SOL    HW152838   8.432   3.186   1.395
17498SOL    HW252839   8.595   3.183   1.389
17499SOL     OW52840   9.040   3.491   1.625
17499SOL    HW152841   9.067   3.525   1.535
17499SOL    HW252842   9.119   3.453   1.671
17500SOL     OW52843   8.559   3.057   1.100
17500SOL    HW152844   8.519   3.101   1.181
17500SOL    HW252845   8.518   3.094   1.017
17501SOL     OW52846   9.086   2.961   1.079
17501SOL    HW152847   9.091   3.042   1.138
17501SOL    HW252848   9.000   2.963   1.028
17502SOL     OW52849   8.363   1.951   1.402
17502SOL    HW152850   8.388   1.931   1.307
17502SOL    HW252851   8.435   2.007   1.444
17503SOL     OW52852   8.428   2.978   1.719
17503SOL    HW152853   8.329   2.984   1.729
17503SOL    HW252854   8.451   2.898   1.663
17504SOL     OW52855   7.858   2.675   1.251
17504SOL    HW152856   7.944   2.687   1.301
17504SOL    HW252857   7.816   2.588   1.278
17505SOL     OW52858   8.722   2.248   1.262
17505SOL    HW152859   8.743   2.322   1.326
17505SOL    HW252860   8.633   2.265   1.219
17506SOL     OW52861   7.512   3.426   1.331
17506SOL    HW152862   7.466   3.508   1.297
17506SOL    HW252863   7.610   3.445   1.340
17507SOL     OW52864   7.815   2.962   0.501
17507SOL    HW152865   7.808   3.045   0.445
17507SOL    HW252866   7.819   2.882   0.441
17508SOL     OW52867   8.014   2.399   0.865
17508SOL    HW152868   8.026   2.465   0.791
17508SOL    HW252869   8.060   2.433   0.948
17509SOL     OW52870   8.700   3.210   0.388
17509SOL    HW152871   8.750   3.287   0.428
17509SOL    HW252872   8.605   3.212   0.420
17510SOL     OW52873   8.720   3.307   1.142
17510SOL    HW152874   8.767   3.320   1.229
17510SOL    HW252875   8.654   3.233   1.151
17511SOL     OW52876   9.030   2.501   0.472
17511SOL    HW152877   8.999   2.562   0.545
17511SOL    HW252878   9.080   2.553   0.403
17512SOL     OW52879   7.802   3.372   1.329
17512SOL    HW152880   7.781   3.328   1.242
17512SOL    HW252881   7.899   3.398   1.332
17513SOL     OW52882   7.850   2.613   1.598
17513SOL    HW152883   7.918   2.668   1.551
17513SOL    HW252884   7.890   2.525   1.625
17514SOL     OW52885   9.035   2.641   1.670
17514SOL    HW152886   8.943   2.679   1.665
17514SOL    HW252887   9.095   2.688   1.605
17515SOL     OW52888   8.461   1.967   1.770
17515SOL    HW152889   8.467   2.052   1.718
17515SOL    HW252890   8.493   1.891   1.713
17516SOL     OW52891   7.952   1.912   1.740
17516SOL    HW152892   7.910   1.855   1.670
17516SOL    HW252893   7.886   1.981   1.772
17517SOL     OW52894   8.021   2.732   1.029
17517SOL    HW152895   8.065   2.821   1.020
17517SOL    HW252896   7.958   2.732   1.106
17518SOL     OW52897   8.808   2.724   1.045
17518SOL    HW152898   8.733   2.724   0.979
17518SOL    HW252899   8.845   2.632   1.054
17519SOL     OW52900   8.657   2.387   0.275
17519SOL    HW152901   8.670   2.303   0.329
17519SOL    HW252902   8.628   2.461   0.335
17520SOL     OW52903   7.755   2.075   1.231
17520SOL    HW152904   7.732   2.112   1.321
17520SOL    HW252905   7.725   1.980   1.225
17521SOL     OW52906   7.485   3.172   1.282
17521SOL    HW152907   7.538   3.123   1.350
17521SOL    HW252908   7.507   3.270   1.287
17522SOL     OW52909   8.180   2.496   1.064
17522SOL    HW152910   8.239   2.470   0.988
17522SOL    HW252911   8.152   2.592   1.053
17523SOL     OW52912   9.176   2.797   1.854
17523SOL    HW152913   9.130   2.790   1.765
17523SOL    HW252914   9.114   2.841   1.920
17524SOL     OW52915   7.755   1.925   0.618
17524SOL    HW152916   7.744   2.019   0.651
17524SOL    HW252917   7.750   1.862   0.695
17525SOL     OW52918   8.471   2.628   0.966
17525SOL    HW152919   8.486   2.649   1.062
17525SOL    HW252920   8.441   2.533   0.957
17526SOL     OW52921   8.428   3.435   1.700
17526SOL    HW152922   8.408   3.479   1.612
17526SOL    HW252923   8.467   3.344   1.684
17527SOL     OW52924   9.307   3.380   1.605
17527SOL    HW152925   9.321   3.407   1.510
17527SOL    HW252926   9.390   3.402   1.658
17528SOL     OW52927   7.798   2.760   1.804
17528SOL    HW152928   7.874   2.804   1.852
17528SOL    HW252929   7.833   2.713   1.722
17529SOL     OW52930   8.516   3.195   0.849
17529SOL    HW152931   8.523   3.111   0.794
17529SOL    HW252932   8.578   3.264   0.813
17530SOL     OW52933   7.767   2.672   0.949
17530SOL    HW152934   7.860   2.708   0.954
17530SOL    HW252935   7.761   2.587   1.001
17531SOL     OW52936   7.787   2.371   1.006
17531SOL    HW152937   7.735   2.288   0.989
17531SOL    HW252938   7.864   2.376   0.942
17532SOL     OW52939   8.586   2.242   1.678
17532SOL    HW152940   8.541   2.305   1.742
17532SOL    HW252941   8.679   2.273   1.661
17533SOL     OW52942   8.608   2.069   1.477
17533SOL    HW152943   8.608   2.133   1.554
17533SOL    HW252944   8.636   2.117   1.394
17534SOL     OW52945   7.536   3.663   0.927
17534SOL    HW152946   7.494   3.577   0.900
17534SOL    HW252947   7.630   3.666   0.893
17535SOL     OW52948   7.952   3.430   0.910
17535SOL    HW152949   8.018   3.504   0.919
17535SOL    HW252950   7.996   3.351   0.868
17536SOL     OW52951   8.450   2.658   1.238
17536SOL    HW152952   8.491   2.626   1.324
17536SOL    HW252953   8.354   2.631   1.235
17537SOL     OW52954   7.488   2.406   1.114
17537SOL    HW152955   7.573   2.373   1.073
17537SOL    HW252956   7.501   2.421   1.212
17538SOL     OW52957   7.637   2.382   1.722
17538SOL    HW152958   7.696   2.342   1.652
17538SOL    HW252959   7.579   2.453   1.681
17539SOL     OW52960   8.817   2.812   1.660
17539SOL    HW152961   8.856   2.901   1.680
17539SOL    HW252962   8.827   2.792   1.563
17540SOL     OW52963   9.105   2.466   1.206
17540SOL    HW152964   9.067   2.397   1.268
17540SOL    HW252965   9.187   2.430   1.162
17541SOL     OW52966   7.700   3.426   1.744
17541SOL    HW152967   7.670   3.483   1.820
17541SOL    HW252968   7.693   3.329   1.770
17542SOL     OW52969   8.119   2.326   1.269
17542SOL    HW152970   8.085   2.237   1.239
17542SOL    HW252971   8.145   2.380   1.189
17543SOL     OW52972   8.378   3.540   1.465
17543SOL    HW152973   8.354   3.522   1.370
17543SOL    HW252974   8.408   3.634   1.475
17544SOL     OW52975   7.607   2.999   1.466
17544SOL    HW152976   7.629   2.938   1.542
17544SOL    HW252977   7.617   2.950   1.380
17545SOL     OW52978   8.795   2.921   1.234
17545SOL    HW152979   8.819   2.858   1.160
17545SOL    HW252980   8.705   2.961   1.216
17546SOL     OW52981   8.750   2.717   0.309
17546SOL    HW152982   8.664   2.686   0.351
17546SOL    HW252983   8.746   2.703   0.210
17547SOL     OW52984   9.207   3.609   1.154
17547SOL    HW152985   9.268   3.639   1.081
17547SOL    HW252986   9.169   3.520   1.132
17548SOL     OW52987   8.700   3.593   1.128
17548SOL    HW152988   8.784   3.598   1.074
17548SOL    HW252989   8.677   3.497   1.146
17549SOL     OW52990   7.531   3.120   1.022
17549SOL    HW152991   7.526   3.119   1.122
17549SOL    HW252992   7.448   3.079   0.984
17550SOL     OW52993   8.136   3.524   1.716
17550SOL    HW152994   8.080   3.605   1.725
17550SOL    HW252995   8.188   3.528   1.630
17551SOL     OW52996   9.174   1.997   0.523
17551SOL    HW152997   9.247   1.980   0.456
17551SOL    HW252998   9.143   1.910   0.561
17552SOL     OW52999   8.836   3.435   0.477
17552SOL    HW153000   8.903   3.447   0.403
17552SOL    HW253001   8.796   3.524   0.500
17553SOL     OW53002   7.578   3.656   1.851
17553SOL    HW153003   7.537   3.582   1.904
17553SOL    HW253004   7.642   3.707   1.909
17554SOL     OW53005   8.728   2.789   0.672
17554SOL    HW153006   8.788   2.708   0.674
17554SOL    HW253007   8.768   2.858   0.612
17555SOL     OW53008   8.278   3.135   1.422
17555SOL    HW153009   8.273   3.168   1.517
17555SOL    HW253010   8.192   3.154   1.376
17556SOL     OW53011   9.098   3.582   1.394
17556SOL    HW153012   9.151   3.592   1.310
17556SOL    HW253013   9.071   3.672   1.428
17557SOL     OW53014   9.289   2.037   0.963
17557SOL    HW153015   9.328   1.952   0.927
17557SOL    HW253016   9.191   2.039   0.944
17558SOL     OW53017   7.711   2.188   0.720
17558SOL    HW153018   7.632   2.239   0.686
17558SOL    HW253019   7.702   2.173   0.818
17559SOL     OW53020   8.270   2.864   1.372
17559SOL    HW153021   8.310   2.863   1.280
17559SOL    HW253022   8.280   2.956   1.412
17560SOL     OW53023   7.820   3.150   1.490
17560SOL    HW153024   7.807   3.243   1.456
17560SOL    HW253025   7.736   3.098   1.477
17561SOL     OW53026   9.062   3.154   1.289
17561SOL    HW153027   9.122   3.157   1.369
17561SOL    HW253028   8.987   3.218   1.302
17562SOL     OW53029   8.487   2.960   0.696
17562SOL    HW153030   8.417   2.913   0.750
17562SOL    HW253031   8.546   2.892   0.653
17563SOL     OW53032   8.462   2.098   0.971
17563SOL    HW153033   8.454   2.062   0.878
17563SOL    HW253034   8.460   2.022   1.036
17564SOL     OW53035   8.038   3.349   0.491
17564SOL    HW153036   8.080   3.291   0.421
17564SOL    HW253037   7.994   3.428   0.447
17565SOL     OW53038   9.157   2.247   1.381
17565SOL    HW153039   9.230   2.316   1.385
17565SOL    HW253040   9.185   2.172   1.322
17566SOL     OW53041   7.553   2.875   1.726
17566SOL    HW153042   7.476   2.842   1.780
17566SOL    HW253043   7.638   2.845   1.768
17567SOL     OW53044   8.120   2.065   1.489
17567SOL    HW153045   8.210   2.049   1.449
17567SOL    HW253046   8.128   2.070   1.588
17568SOL     OW53047   8.888   2.718   1.398
17568SOL    HW153048   8.831   2.770   1.335
17568SOL    HW253049   8.984   2.730   1.374
17569SOL     OW53050   8.061   2.704   1.431
17569SOL    HW153051   8.117   2.785   1.414
17569SOL    HW253052   8.120   2.624   1.434
17570SOL     OW53053   8.941   3.629   0.959
17570SOL    HW153054   8.974   3.693   0.890
17570SOL    HW253055   9.007   3.623   1.034
17571SOL     OW53056   8.164   2.427   1.708
17571SOL    HW153057   8.183   2.492   1.782
17571SOL    HW253058   8.224   2.347   1.717
17572SOL     OW53059   8.898   3.082   1.633
17572SOL    HW153060   8.889   3.072   1.732
17572SOL    HW253061   8.994   3.075   1.607
17573SOL     OW53062   7.838   3.603   1.560
17573SOL    HW153063   7.747   3.644   1.558
17573SOL    HW253064   7.831   3.509   1.592
17574SOL     OW53065   9.122   2.745   1.254
17574SOL    HW153066   9.095   2.656   1.217
17574SOL    HW253067   9.123   2.813   1.181
17575SOL     OW53068   8.673   2.187   0.449
17575SOL    HW153069   8.738   2.113   0.438
17575SOL    HW253070   8.693   2.237   0.533
17576SOL     OW53071   8.042   2.607   0.652
17576SOL    HW153072   8.092   2.692   0.633
17576SOL    HW253073   7.954   2.609   0.604
17577SOL     OW53074   9.225   2.204   1.642
17577SOL    HW153075   9.208   2.235   1.548
17577SOL    HW253076   9.141   2.167   1.680
17578SOL     OW53077   9.178   2.796   1.517
17578SOL    HW153078   9.216   2.887   1.532
17578SOL    HW253079   9.170   2.779   1.418
17579SOL     OW53080   8.109   3.652   0.953
17579SOL    HW153081   8.063   3.740   0.940
17579SOL    HW253082   8.208   3.664   0.946
17580SOL     OW53083   8.307   2.818   0.861
17580SOL    HW153084   8.361   2.749   0.909
17580SOL    HW253085   8.275   2.887   0.927
17581SOL     OW53086   9.309   3.431   0.851
17581SOL    HW153087   9.238   3.419   0.781
17581SOL    HW253088   9.310   3.352   0.911
17582SOL     OW53089   7.669   3.176   1.844
17582SOL    HW153090   7.604   3.103   1.823
17582SOL    HW253091   7.673   3.190   1.942
17583SOL     OW53092   7.527   3.102   0.653
17583SOL    HW153093   7.526   3.055   0.741
17583SOL    HW253094   7.609   3.074   0.602
17584SOL     OW53095   8.120   3.253   1.624
17584SOL    HW153096   8.042   3.203   1.662
17584SOL    HW253097   8.117   3.348   1.655
17585SOL     OW53098   9.272   2.054   1.227
17585SOL    HW153099   9.268   1.964   1.271
17585SOL    HW253100   9.275   2.043   1.128
17586SOL     OW53101   7.876   2.286   0.520
17586SOL    HW153102   7.906   2.214   0.458
17586SOL    HW253103   7.837   2.246   0.603
17587SOL     OW53104   9.153   3.349   1.104
17587SOL    HW153105   9.060   3.324   1.077
17587SOL    HW253106   9.179   3.299   1.186
17588SOL     OW53107   7.765   2.409   1.280
17588SOL    HW153108   7.803   2.350   1.352
17588SOL    HW253109   7.805   2.383   1.192
17589SOL     OW53110   8.260   3.448   0.687
17589SOL    HW153111   8.292   3.458   0.593
17589SOL    HW253112   8.181   3.386   0.689
17590SOL     OW53113   8.872   2.076   1.112
17590SOL    HW153114   8.924   2.011   1.167
17590SOL    HW253115   8.823   2.139   1.173
17591SOL     OW53116   8.449   1.896   1.154
17591SOL    HW153117   8.386   1.824   1.123
17591SOL    HW253118   8.542   1.860   1.154
17592SOL     OW53119   8.066   3.429   1.284
17592SOL    HW153120   8.061   3.511   1.341
17592SOL    HW253121   8.155   3.426   1.239
17593SOL     OW53122   8.748   2.315   0.691
17593SOL    HW153123   8.689   2.395   0.695
17593SOL    HW253124   8.763   2.280   0.784
17594SOL     OW53125   9.041   2.083   0.882
17594SOL    HW153126   8.957   2.082   0.936
17594SOL    HW253127   9.043   2.166   0.826
17595SOL     OW53128   8.323   3.508   0.337
17595SOL    HW153129   8.246   3.473   0.283
17595SOL    HW253130   8.291   3.579   0.399
17596SOL     OW53131   7.678   2.490   1.975
17596SOL    HW153132   7.585   2.488   2.012
17596SOL    HW253133   7.679   2.451   1.883
17597SOL     OW53134   7.673   2.137   2.858
17597SOL    HW153135   7.708   2.120   2.950
17597SOL    HW253136   7.585   2.092   2.846
17598SOL     OW53137   7.467   2.230   2.509
17598SOL    HW153138   7.385   2.273   2.548
17598SOL    HW253139   7.439   2.157   2.446
17599SOL     OW53140   8.017   3.137   3.027
17599SOL    HW153141   7.924   3.130   2.990
17599SOL    HW253142   8.028   3.226   3.071
17600SOL     OW53143   9.003   3.373   2.565
17600SOL    HW153144   8.946   3.357   2.646
17600SOL    HW253145   8.944   3.383   2.485
17601SOL     OW53146   8.583   2.565   2.579
17601SOL    HW153147   8.640   2.643   2.554
17601SOL    HW253148   8.523   2.591   2.655
17602SOL     OW53149   9.203   2.469   2.093
17602SOL    HW153150   9.191   2.456   1.994
17602SOL    HW253151   9.173   2.388   2.142
17603SOL     OW53152   8.216   3.006   2.885
17603SOL    HW153153   8.138   3.023   2.945
17603SOL    HW253154   8.250   3.093   2.849
17604SOL     OW53155   8.298   2.660   3.685
17604SOL    HW153156   8.294   2.736   3.750
17604SOL    HW253157   8.320   2.696   3.594
17605SOL     OW53158   8.133   2.874   2.527
17605SOL    HW153159   8.202   2.858   2.597
17605SOL    HW253160   8.060   2.931   2.565
17606SOL     OW53161   8.134   3.023   3.665
17606SOL    HW153162   8.194   3.102   3.679
17606SOL    HW253163   8.048   3.054   3.624
17607SOL     OW53164   7.783   3.297   2.923
17607SOL    HW153165   7.705   3.266   2.870
17607SOL    HW253166   7.841   3.355   2.866
17608SOL     OW53167   8.908   3.367   3.201
17608SOL    HW153168   8.932   3.461   3.227
17608SOL    HW253169   8.892   3.313   3.283
17609SOL     OW53170   7.886   2.254   3.361
17609SOL    HW153171   7.968   2.198   3.370
17609SOL    HW253172   7.805   2.196   3.365
17610SOL     OW53173   9.051   2.309   2.599
17610SOL    HW153174   8.977   2.355   2.549
17610SOL    HW253175   9.102   2.377   2.652
17611SOL     OW53176   7.679   3.575   2.345
17611SOL    HW153177   7.713   3.652   2.399
17611SOL    HW253178   7.723   3.575   2.255
17612SOL     OW53179   8.575   3.203   3.552
17612SOL    HW153180   8.622   3.203   3.640
17612SOL    HW253181   8.527   3.116   3.541
17613SOL     OW53182   7.678   3.296   2.400
17613SOL    HW153183   7.652   3.392   2.400
17613SOL    HW253184   7.607   3.242   2.445
17614SOL     OW53185   7.688   2.953   2.748
17614SOL    HW153186   7.702   2.869   2.800
17614SOL    HW253187   7.633   3.017   2.803
17615SOL     OW53188   8.068   3.648   3.301
17615SOL    HW153189   7.976   3.631   3.336
17615SOL    HW253190   8.096   3.740   3.327
17616SOL     OW53191   8.054   2.826   1.985
17616SOL    HW153192   8.061   2.910   1.931
17616SOL    HW253193   8.100   2.839   2.073
17617SOL     OW53194   9.042   1.976   3.342
17617SOL    HW153195   9.024   2.043   3.270
17617SOL    HW253196   9.039   2.022   3.431
17618SOL     OW53197   7.570   2.505   2.425
17618SOL    HW153198   7.525   2.417   2.442
17618SOL    HW253199   7.569   2.559   2.509
17619SOL     OW53200   9.290   3.629   2.221
17619SOL    HW153201   9.344   3.600   2.301
17619SOL    HW253202   9.320   3.719   2.192
17620SOL     OW53203   7.475   3.458   1.979
17620SOL    HW153204   7.456   3.362   2.000
17620SOL    HW253205   7.442   3.516   2.054
17621SOL     OW53206   9.137   2.784   2.474
17621SOL    HW153207   9.232   2.755   2.482
17621SOL    HW253208   9.129   2.849   2.399
17622SOL     OW53209   9.089   2.970   2.294
17622SOL    HW153210   9.175   2.972   2.242
17622SOL    HW253211   9.103   3.017   2.382
17623SOL     OW53212   7.561   2.599   3.459
17623SOL    HW153213   7.649   2.586   3.504
17623SOL    HW253214   7.548   2.696   3.437
17624SOL     OW53215   8.061   3.227   2.588
17624SOL    HW153216   8.012   3.140   2.597
17624SOL    HW253217   8.038   3.270   2.501
17625SOL     OW53218   8.741   3.090   3.285
17625SOL    HW153219   8.778   3.017   3.227
17625SOL    HW253220   8.793   3.095   3.370
17626SOL     OW53221   8.257   1.866   2.364
17626SOL    HW153222   8.297   1.957   2.355
17626SOL    HW253223   8.157   1.874   2.370
17627SOL     OW53224   7.645   2.838   3.126
17627SOL    HW153225   7.734   2.793   3.112
17627SOL    HW253226   7.572   2.773   3.107
17628SOL     OW53227   8.973   2.861   2.052
17628SOL    HW153228   8.910   2.785   2.065
17628SOL    HW253229   9.021   2.879   2.138
17629SOL     OW53230   8.635   3.654   3.478
17629SOL    HW153231   8.659   3.714   3.402
17629SOL    HW253232   8.642   3.559   3.448
17630SOL     OW53233   7.765   2.113   3.663
17630SOL    HW153234   7.836   2.184   3.669
17630SOL    HW253235   7.677   2.152   3.691
17631SOL     OW53236   8.914   3.279   2.815
17631SOL    HW153237   8.855   3.285   2.895
17631SOL    HW253238   8.899   3.191   2.769
17632SOL     OW53239   9.115   3.576   2.434
17632SOL    HW153240   9.074   3.553   2.346
17632SOL    HW253241   9.097   3.502   2.499
17633SOL     OW53242   8.046   2.591   2.132
17633SOL    HW153243   8.070   2.660   2.064
17633SOL    HW253244   7.968   2.624   2.186
17634SOL     OW53245   8.729   2.207   2.806
17634SOL    HW153246   8.643   2.157   2.793
17634SOL    HW253247   8.791   2.153   2.862
17635SOL     OW53248   9.024   3.524   2.169
17635SOL    HW153249   9.113   3.570   2.172
17635SOL    HW253250   9.003   3.500   2.074
17636SOL     OW53251   8.255   2.467   3.327
17636SOL    HW153252   8.208   2.464   3.416
17636SOL    HW253253   8.204   2.412   3.261
17637SOL     OW53254   8.842   2.331   3.536
17637SOL    HW153255   8.822   2.374   3.624
17637SOL    HW253256   8.920   2.269   3.545
17638SOL     OW53257   8.421   2.752   3.434
17638SOL    HW153258   8.467   2.668   3.405
17638SOL    HW253259   8.365   2.786   3.359
17639SOL     OW53260   8.439   2.272   3.104
17639SOL    HW153261   8.362   2.306   3.158
17639SOL    HW253262   8.405   2.221   3.025
17640SOL     OW53263   8.489   2.563   2.291
17640SOL    HW153264   8.515   2.559   2.387
17640SOL    HW253265   8.404   2.512   2.277
17641SOL     OW53266   7.524   2.673   2.651
17641SOL    HW153267   7.623   2.661   2.660
17641SOL    HW253268   7.500   2.768   2.672
17642SOL     OW53269   7.578   3.683   3.433
17642SOL    HW153270   7.568   3.668   3.532
17642SOL    HW253271   7.492   3.719   3.397
17643SOL     OW53272   8.313   2.210   2.057
17643SOL    HW153273   8.372   2.273   2.008
17643SOL    HW253274   8.332   2.116   2.028
17644SOL     OW53275   9.167   2.447   3.693
17644SOL    HW153276   9.141   2.536   3.657
17644SOL    HW253277   9.165   2.379   3.620
17645SOL     OW53278   8.810   3.006   2.407
17645SOL    HW153279   8.893   2.977   2.359
17645SOL    HW253280   8.761   3.073   2.351
17646SOL     OW53281   7.998   2.058   2.747
17646SOL    HW153282   7.993   2.053   2.847
17646SOL    HW253283   8.000   2.154   2.718
17647SOL     OW53284   8.456   3.318   2.339
17647SOL    HW153285   8.410   3.390   2.287
17647SOL    HW253286   8.452   3.338   2.437
17648SOL     OW53287   7.799   3.663   2.715
17648SOL    HW153288   7.849   3.577   2.721
17648SOL    HW253289   7.864   3.740   2.712
17649SOL     OW53290   9.243   2.928   2.735
17649SOL    HW153291   9.181   2.913   2.659
17649SOL    HW253292   9.191   2.939   2.820
17650SOL     OW53293   8.675   3.412   3.368
17650SOL    HW153294   8.681   3.335   3.432
17650SOL    HW253295   8.623   3.386   3.288
17651SOL     OW53296   7.769   2.805   2.104
17651SOL    HW153297   7.851   2.844   2.062
17651SOL    HW253298   7.742   2.723   2.055
17652SOL     OW53299   8.906   2.597   2.590
17652SOL    HW153300   8.901   2.532   2.665
17652SOL    HW253301   8.986   2.656   2.603
17653SOL     OW53302   7.909   3.128   3.589
17653SOL    HW153303   7.859   3.129   3.503
17653SOL    HW253304   7.846   3.110   3.665
17654SOL     OW53305   8.559   3.638   2.099
17654SOL    HW153306   8.499   3.576   2.149
17654SOL    HW253307   8.590   3.594   2.014
17655SOL     OW53308   7.650   2.147   3.360
17655SOL    HW153309   7.570   2.207   3.347
17655SOL    HW253310   7.640   2.098   3.446
17656SOL     OW53311   9.080   3.239   1.943
17656SOL    HW153312   9.048   3.333   1.933
17656SOL    HW253313   9.004   3.176   1.931
17657SOL     OW53314   7.912   3.605   2.185
17657SOL    HW153315   7.945   3.644   2.271
17657SOL    HW253316   7.988   3.598   2.120
17658SOL     OW53317   8.848   1.969   2.288
17658SOL    HW153318   8.824   1.932   2.198
17658SOL    HW253319   8.947   1.985   2.292
17659SOL     OW53320   7.697   3.647   3.103
17659SOL    HW153321   7.754   3.582   3.153
17659SOL    HW253322   7.681   3.614   3.010
17660SOL     OW53323   8.388   3.560   2.766
17660SOL    HW153324   8.468   3.503   2.787
17660SOL    HW253325   8.339   3.520   2.689
17661SOL     OW53326   7.830   2.562   2.342
17661SOL    HW153327   7.875   2.472   2.339
17661SOL    HW253328   7.736   2.551   2.375
17662SOL     OW53329   8.995   2.084   3.591
17662SOL    HW153330   8.990   2.121   3.683
17662SOL    HW253331   8.923   2.015   3.579
17663SOL     OW53332   8.062   1.984   1.979
17663SOL    HW153333   8.160   1.962   1.986
17663SOL    HW253334   8.031   1.967   1.886
17664SOL     OW53335   8.229   2.126   3.611
17664SOL    HW153336   8.296   2.065   3.654
17664SOL    HW253337   8.156   2.145   3.676
17665SOL     OW53338   8.336   3.376   3.057
17665SOL    HW153339   8.313   3.351   2.963
17665SOL    HW253340   8.397   3.307   3.096
17666SOL     OW53341   8.799   2.452   3.295
17666SOL    HW153342   8.827   2.409   3.380
17666SOL    HW253343   8.824   2.548   3.296
17667SOL     OW53344   8.251   3.264   2.786
17667SOL    HW153345   8.341   3.278   2.744
17667SOL    HW253346   8.180   3.266   2.715
17668SOL     OW53347   8.370   2.365   2.761
17668SOL    HW153348   8.345   2.356   2.665
17668SOL    HW253349   8.418   2.283   2.792
17669SOL     OW53350   7.987   1.926   2.374
17669SOL    HW153351   7.906   1.927   2.432
17669SOL    HW253352   7.990   2.009   2.319
17670SOL     OW53353   8.882   3.050   1.903
17670SOL    HW153354   8.914   2.974   1.960
17670SOL    HW253355   8.790   3.077   1.933
17671SOL     OW53356   7.745   1.897   2.033
17671SOL    HW153357   7.794   1.981   2.012
17671SOL    HW253358   7.807   1.832   2.078
17672SOL     OW53359   8.383   2.098   2.342
17672SOL    HW153360   8.335   2.139   2.264
17672SOL    HW253361   8.482   2.096   2.323
17673SOL     OW53362   8.524   2.545   3.326
17673SOL    HW153363   8.444   2.484   3.329
17673SOL    HW253364   8.605   2.492   3.302
17674SOL     OW53365   8.675   3.432   2.655
17674SOL    HW153366   8.696   3.506   2.590
17674SOL    HW253367   8.743   3.432   2.728
17675SOL     OW53368   7.907   3.014   2.603
17675SOL    HW153369   7.836   2.987   2.668
17675SOL    HW253370   7.881   2.986   2.510
17676SOL     OW53371   8.719   3.659   2.453
17676SOL    HW153372   8.763   3.723   2.389
17676SOL    HW253373   8.669   3.711   2.523
17677SOL     OW53374   8.480   2.411   1.878
17677SOL    HW153375   8.439   2.493   1.839
17677SOL    HW253376   8.544   2.437   1.951
17678SOL     OW53377   7.526   2.418   3.248
17678SOL    HW153378   7.618   2.417   3.207
17678SOL    HW253379   7.520   2.492   3.315
17679SOL     OW53380   8.009   2.084   3.009
17679SOL    HW153381   8.047   2.000   3.046
17679SOL    HW253382   7.921   2.103   3.053
17680SOL     OW53383   8.314   2.316   2.504
17680SOL    HW153384   8.282   2.388   2.442
17680SOL    HW253385   8.338   2.235   2.451
17681SOL     OW53386   8.465   1.901   2.615
17681SOL    HW153387   8.393   1.906   2.546
17681SOL    HW253388   8.441   1.832   2.684
17682SOL     OW53389   8.877   3.035   2.729
17682SOL    HW153390   8.822   2.951   2.722
17682SOL    HW253391   8.903   3.064   2.637
17683SOL     OW53392   8.914   2.452   2.854
17683SOL    HW153393   8.884   2.357   2.861
17683SOL    HW253394   8.987   2.468   2.920
17684SOL     OW53395   9.305   2.695   2.239
17684SOL    HW153396   9.347   2.631   2.303
17684SOL    HW253397   9.267   2.644   2.161
17685SOL     OW53398   7.936   3.247   2.036
17685SOL    HW153399   7.849   3.232   2.083
17685SOL    HW253400   7.919   3.273   1.941
17686SOL     OW53401   9.112   3.142   2.519
17686SOL    HW153402   9.211   3.150   2.533
17686SOL    HW253403   9.067   3.226   2.550
17687SOL     OW53404   8.838   2.437   1.940
17687SOL    HW153405   8.784   2.416   2.021
17687SOL    HW253406   8.929   2.396   1.949
17688SOL     OW53407   7.975   2.118   2.190
17688SOL    HW153408   8.002   2.059   2.115
17688SOL    HW253409   7.975   2.213   2.159
17689SOL     OW53410   9.202   3.085   3.450
17689SOL    HW153411   9.293   3.046   3.437
17689SOL    HW253412   9.210   3.181   3.474
17690SOL     OW53413   8.512   3.209   3.202
17690SOL    HW153414   8.432   3.186   3.257
17690SOL    HW253415   8.595   3.183   3.251
17691SOL     OW53416   9.040   3.491   3.487
17691SOL    HW153417   9.067   3.525   3.397
17691SOL    HW253418   9.119   3.453   3.533
17692SOL     OW53419   8.559   3.057   2.962
17692SOL    HW153420   8.519   3.101   3.043
17692SOL    HW253421   8.518   3.094   2.879
17693SOL     OW53422   9.086   2.961   2.941
17693SOL    HW153423   9.091   3.042   3.000
17693SOL    HW253424   9.000   2.963   2.890
17694SOL     OW53425   8.363   1.951   3.264
17694SOL    HW153426   8.388   1.931   3.169
17694SOL    HW253427   8.435   2.007   3.306
17695SOL     OW53428   8.428   2.978   3.581
17695SOL    HW153429   8.329   2.984   3.591
17695SOL    HW253430   8.451   2.898   3.525
17696SOL     OW53431   8.153   2.912   2.230
17696SOL    HW153432   8.139   2.919   2.329
17696SOL    HW253433   8.237   2.861   2.212
17697SOL     OW53434   7.858   2.675   3.113
17697SOL    HW153435   7.944   2.687   3.163
17697SOL    HW253436   7.816   2.588   3.140
17698SOL     OW53437   8.722   2.248   3.124
17698SOL    HW153438   8.743   2.322   3.188
17698SOL    HW253439   8.633   2.265   3.081
17699SOL     OW53440   7.512   3.426   3.193
17699SOL    HW153441   7.466   3.508   3.159
17699SOL    HW253442   7.610   3.445   3.202
17700SOL     OW53443   7.815   2.962   2.363
17700SOL    HW153444   7.808   3.045   2.307
17700SOL    HW253445   7.819   2.882   2.303
17701SOL     OW53446   8.014   2.399   2.727
17701SOL    HW153447   8.026   2.465   2.653
17701SOL    HW253448   8.060   2.433   2.810
17702SOL     OW53449   8.700   3.210   2.250
17702SOL    HW153450   8.750   3.287   2.290
17702SOL    HW253451   8.605   3.212   2.282
17703SOL     OW53452   8.720   3.307   3.004
17703SOL    HW153453   8.767   3.320   3.091
17703SOL    HW253454   8.654   3.233   3.013
17704SOL     OW53455   9.030   2.501   2.334
17704SOL    HW153456   8.999   2.562   2.407
17704SOL    HW253457   9.080   2.553   2.265
17705SOL     OW53458   7.802   3.372   3.191
17705SOL    HW153459   7.781   3.328   3.104
17705SOL    HW253460   7.899   3.398   3.194
17706SOL     OW53461   7.850   2.613   3.460
17706SOL    HW153462   7.918   2.668   3.413
17706SOL    HW253463   7.890   2.525   3.487
17707SOL     OW53464   9.035   2.641   3.532
17707SOL    HW153465   8.943   2.679   3.527
17707SOL    HW253466   9.095   2.688   3.467
17708SOL     OW53467   8.461   1.967   3.632
17708SOL    HW153468   8.467   2.052   3.580
17708SOL    HW253469   8.493   1.891   3.575
17709SOL     OW53470   7.952   1.912   3.602
17709SOL    HW153471   7.910   1.855   3.532
17709SOL    HW253472   7.886   1.981   3.634
17710SOL     OW53473   8.808   2.724   2.907
17710SOL    HW153474   8.733   2.724   2.841
17710SOL    HW253475   8.845   2.632   2.916
17711SOL     OW53476   8.657   2.387   2.137
17711SOL    HW153477   8.670   2.303   2.191
17711SOL    HW253478   8.628   2.461   2.197
17712SOL     OW53479   7.755   2.075   3.093
17712SOL    HW153480   7.732   2.112   3.183
17712SOL    HW253481   7.725   1.980   3.087
17713SOL     OW53482   7.485   3.172   3.144
17713SOL    HW153483   7.538   3.123   3.212
17713SOL    HW253484   7.507   3.270   3.149
17714SOL     OW53485   8.180   2.496   2.926
17714SOL    HW153486   8.239   2.470   2.850
17714SOL    HW253487   8.152   2.592   2.915
17715SOL     OW53488   9.176   2.797   3.716
17715SOL    HW153489   9.130   2.790   3.627
17715SOL    HW253490   9.114   2.841   3.782
17716SOL     OW53491   7.755   1.925   2.480
17716SOL    HW153492   7.744   2.019   2.513
17716SOL    HW253493   7.750   1.862   2.557
17717SOL     OW53494   9.070   2.229   2.236
17717SOL    HW153495   9.072   2.153   2.300
17717SOL    HW253496   9.022   2.306   2.276
17718SOL     OW53497   8.471   2.628   2.828
17718SOL    HW153498   8.486   2.649   2.924
17718SOL    HW253499   8.441   2.533   2.819
17719SOL     OW53500   8.428   3.435   3.562
17719SOL    HW153501   8.408   3.479   3.474
17719SOL    HW253502   8.467   3.344   3.546
17720SOL     OW53503   9.307   3.380   3.467
17720SOL    HW153504   9.321   3.407   3.372
17720SOL    HW253505   9.390   3.402   3.520
17721SOL     OW53506   7.798   2.760   3.666
17721SOL    HW153507   7.874   2.804   3.714
17721SOL    HW253508   7.833   2.713   3.584
17722SOL     OW53509   8.988   2.136   1.987
17722SOL    HW153510   8.927   2.061   2.010
17722SOL    HW253511   9.010   2.188   2.070
17723SOL     OW53512   8.751   2.700   1.904
17723SOL    HW153513   8.785   2.607   1.919
17723SOL    HW253514   8.769   2.727   1.809
17724SOL     OW53515   8.516   3.195   2.711
17724SOL    HW153516   8.523   3.111   2.656
17724SOL    HW253517   8.578   3.264   2.675
17725SOL     OW53518   7.767   2.672   2.811
17725SOL    HW153519   7.860   2.708   2.816
17725SOL    HW253520   7.761   2.587   2.863
17726SOL     OW53521   7.787   2.371   2.868
17726SOL    HW153522   7.735   2.288   2.851
17726SOL    HW253523   7.864   2.376   2.804
17727SOL     OW53524   8.586   2.242   3.540
17727SOL    HW153525   8.541   2.305   3.604
17727SOL    HW253526   8.679   2.273   3.523
17728SOL     OW53527   8.608   2.069   3.339
17728SOL    HW153528   8.608   2.133   3.416
17728SOL    HW253529   8.636   2.117   3.256
17729SOL     OW53530   7.456   3.188   2.062
17729SOL    HW153531   7.363   3.209   2.031
17729SOL    HW253532   7.466   3.089   2.075
17730SOL     OW53533   7.536   3.663   2.789
17730SOL    HW153534   7.494   3.577   2.762
17730SOL    HW253535   7.630   3.666   2.755
17731SOL     OW53536   7.952   3.430   2.772
17731SOL    HW153537   8.018   3.504   2.781
17731SOL    HW253538   7.996   3.351   2.730
17732SOL     OW53539   8.450   2.658   3.100
17732SOL    HW153540   8.491   2.626   3.186
17732SOL    HW253541   8.354   2.631   3.097
17733SOL     OW53542   7.488   2.406   2.976
17733SOL    HW153543   7.573   2.373   2.935
17733SOL    HW253544   7.501   2.421   3.074
17734SOL     OW53545   7.637   2.382   3.584
17734SOL    HW153546   7.696   2.342   3.514
17734SOL    HW253547   7.579   2.453   3.543
17735SOL     OW53548   8.817   2.812   3.522
17735SOL    HW153549   8.856   2.901   3.542
17735SOL    HW253550   8.827   2.792   3.425
17736SOL     OW53551   8.263   2.434   2.187
17736SOL    HW153552   8.270   2.345   2.141
17736SOL    HW253553   8.169   2.468   2.179
17737SOL     OW53554   9.105   2.466   3.068
17737SOL    HW153555   9.067   2.397   3.130
17737SOL    HW253556   9.187   2.430   3.024
17738SOL     OW53557   7.700   3.426   3.606
17738SOL    HW153558   7.670   3.483   3.682
17738SOL    HW253559   7.693   3.329   3.632
17739SOL     OW53560   8.119   2.326   3.131
17739SOL    HW153561   8.085   2.237   3.101
17739SOL    HW253562   8.145   2.380   3.051
17740SOL     OW53563   8.378   3.540   3.327
17740SOL    HW153564   8.354   3.522   3.232
17740SOL    HW253565   8.408   3.634   3.337
17741SOL     OW53566   7.921   2.362   2.053
17741SOL    HW153567   7.982   2.442   2.057
17741SOL    HW253568   7.826   2.393   2.060
17742SOL     OW53569   7.607   2.999   3.328
17742SOL    HW153570   7.629   2.938   3.404
17742SOL    HW253571   7.617   2.950   3.242
17743SOL     OW53572   8.795   2.921   3.096
17743SOL    HW153573   8.819   2.858   3.022
17743SOL    HW253574   8.705   2.961   3.078
17744SOL     OW53575   8.750   2.717   2.171
17744SOL    HW153576   8.664   2.686   2.213
17744SOL    HW253577   8.746   2.703   2.072
17745SOL     OW53578   9.207   3.609   3.016
17745SOL    HW153579   9.268   3.639   2.943
17745SOL    HW253580   9.169   3.520   2.994
17746SOL     OW53581   8.700   3.593   2.990
17746SOL    HW153582   8.784   3.598   2.936
17746SOL    HW253583   8.677   3.497   3.008
17747SOL     OW53584   7.531   3.120   2.884
17747SOL    HW153585   7.526   3.119   2.984
17747SOL    HW253586   7.448   3.079   2.846
17748SOL     OW53587   8.136   3.524   3.578
17748SOL    HW153588   8.080   3.605   3.587
17748SOL    HW253589   8.188   3.528   3.492
17749SOL     OW53590   9.174   1.997   2.385
17749SOL    HW153591   9.247   1.980   2.318
17749SOL    HW253592   9.143   1.910   2.423
17750SOL     OW53593   8.836   3.435   2.339
17750SOL    HW153594   8.903   3.447   2.265
17750SOL    HW253595   8.796   3.524   2.362
17751SOL     OW53596   7.578   3.656   3.713
17751SOL    HW153597   7.537   3.582   3.766
17751SOL    HW253598   7.642   3.707   3.771
17752SOL     OW53599   8.728   2.789   2.534
17752SOL    HW153600   8.788   2.708   2.536
17752SOL    HW253601   8.768   2.858   2.474
17753SOL     OW53602   8.278   3.135   3.284
17753SOL    HW153603   8.273   3.168   3.379
17753SOL    HW253604   8.192   3.154   3.238
17754SOL     OW53605   8.120   3.478   2.016
17754SOL    HW153606   8.129   3.488   1.917
17754SOL    HW253607   8.080   3.389   2.037
17755SOL     OW53608   9.098   3.582   3.256
17755SOL    HW153609   9.151   3.592   3.172
17755SOL    HW253610   9.071   3.672   3.290
17756SOL     OW53611   9.289   2.037   2.825
17756SOL    HW153612   9.328   1.952   2.789
17756SOL    HW253613   9.191   2.039   2.806
17757SOL     OW53614   7.711   2.188   2.582
17757SOL    HW153615   7.632   2.239   2.548
17757SOL    HW253616   7.702   2.173   2.680
17758SOL     OW53617   8.642   3.474   1.893
17758SOL    HW153618   8.648   3.381   1.930
17758SOL    HW253619   8.583   3.474   1.813
17759SOL     OW53620   8.270   2.864   3.234
17759SOL    HW153621   8.310   2.863   3.142
17759SOL    HW253622   8.280   2.956   3.274
17760SOL     OW53623   8.364   2.772   2.153
17760SOL    HW153624   8.427   2.810   2.085
17760SOL    HW253625   8.404   2.689   2.192
17761SOL     OW53626   8.952   3.469   1.906
17761SOL    HW153627   8.860   3.506   1.913
17761SOL    HW253628   8.990   3.489   1.816
17762SOL     OW53629   7.820   3.150   3.352
17762SOL    HW153630   7.807   3.243   3.318
17762SOL    HW253631   7.736   3.098   3.339
17763SOL     OW53632   9.062   3.154   3.151
17763SOL    HW153633   9.122   3.157   3.231
17763SOL    HW253634   8.987   3.218   3.164
17764SOL     OW53635   8.487   2.960   2.558
17764SOL    HW153636   8.417   2.913   2.612
17764SOL    HW253637   8.546   2.892   2.515
17765SOL     OW53638   8.462   2.098   2.833
17765SOL    HW153639   8.454   2.062   2.740
17765SOL    HW253640   8.460   2.022   2.898
17766SOL     OW53641   8.038   3.349   2.353
17766SOL    HW153642   8.080   3.291   2.283
17766SOL    HW253643   7.994   3.428   2.309
17767SOL     OW53644   9.157   2.247   3.243
17767SOL    HW153645   9.230   2.316   3.247
17767SOL    HW253646   9.185   2.172   3.184
17768SOL     OW53647   7.703   3.210   2.152
17768SOL    HW153648   7.607   3.211   2.125
17768SOL    HW253649   7.715   3.263   2.236
17769SOL     OW53650   7.553   2.875   3.588
17769SOL    HW153651   7.476   2.842   3.642
17769SOL    HW253652   7.638   2.845   3.630
17770SOL     OW53653   8.120   2.065   3.351
17770SOL    HW153654   8.210   2.049   3.311
17770SOL    HW253655   8.128   2.070   3.450
17771SOL     OW53656   7.523   2.207   1.895
17771SOL    HW153657   7.431   2.179   1.866
17771SOL    HW253658   7.554   2.284   1.839
17772SOL     OW53659   8.888   2.718   3.260
17772SOL    HW153660   8.831   2.770   3.197
17772SOL    HW253661   8.984   2.730   3.236
17773SOL     OW53662   7.520   2.028   2.180
17773SOL    HW153663   7.503   2.111   2.126
17773SOL    HW253664   7.610   1.991   2.158
17774SOL     OW53665   8.631   3.197   1.981
17774SOL    HW153666   8.532   3.186   1.983
17774SOL    HW253667   8.665   3.212   2.074
17775SOL     OW53668   8.061   2.704   3.293
17775SOL    HW153669   8.117   2.785   3.276
17775SOL    HW253670   8.120   2.624   3.296
17776SOL     OW53671   8.941   3.629   2.821
17776SOL    HW153672   8.974   3.693   2.752
17776SOL    HW253673   9.007   3.623   2.896
17777SOL     OW53674   8.164   2.427   3.570
17777SOL    HW153675   8.183   2.492   3.644
17777SOL    HW253676   8.224   2.347   3.579
17778SOL     OW53677   8.898   3.082   3.495
17778SOL    HW153678   8.889   3.072   3.594
17778SOL    HW253679   8.994   3.075   3.469
17779SOL     OW53680   7.838   3.603   3.422
17779SOL    HW153681   7.747   3.644   3.420
17779SOL    HW253682   7.831   3.509   3.454
17780SOL     OW53683   9.122   2.745   3.116
17780SOL    HW153684   9.095   2.656   3.079
17780SOL    HW253685   9.123   2.813   3.043
17781SOL     OW53686   8.673   2.187   2.311
17781SOL    HW153687   8.738   2.113   2.300
17781SOL    HW253688   8.693   2.237   2.395
17782SOL     OW53689   8.042   2.607   2.514
17782SOL    HW153690   8.092   2.692   2.495
17782SOL    HW253691   7.954   2.609   2.466
17783SOL     OW53692   9.225   2.204   3.504
17783SOL    HW153693   9.208   2.235   3.410
17783SOL    HW253694   9.141   2.167   3.542
17784SOL     OW53695   9.178   2.796   3.379
17784SOL    HW153696   9.216   2.887   3.394
17784SOL    HW253697   9.170   2.779   3.280
17785SOL     OW53698   8.307   3.236   1.878
17785SOL    HW153699   8.261   3.251   1.966
17785SOL    HW253700   8.351   3.321   1.848
17786SOL     OW53701   8.109   3.652   2.815
17786SOL    HW153702   8.063   3.740   2.802
17786SOL    HW253703   8.208   3.664   2.808
17787SOL     OW53704   8.307   2.818   2.723
17787SOL    HW153705   8.361   2.749   2.771
17787SOL    HW253706   8.275   2.887   2.789
17788SOL     OW53707   8.531   2.846   1.949
17788SOL    HW153708   8.508   2.899   1.867
17788SOL    HW253709   8.612   2.790   1.930
17789SOL     OW53710   9.309   3.431   2.713
17789SOL    HW153711   9.238   3.419   2.643
17789SOL    HW253712   9.310   3.352   2.773
17790SOL     OW53713   7.669   3.176   3.706
17790SOL    HW153714   7.604   3.103   3.685
17790SOL    HW253715   7.673   3.190   3.804
17791SOL     OW53716   7.527   3.102   2.515
17791SOL    HW153717   7.526   3.055   2.603
17791SOL    HW253718   7.609   3.074   2.464
17792SOL     OW53719   8.120   3.253   3.486
17792SOL    HW153720   8.042   3.203   3.524
17792SOL    HW253721   8.117   3.348   3.517
17793SOL     OW53722   9.272   2.054   3.089
17793SOL    HW153723   9.268   1.964   3.133
17793SOL    HW253724   9.275   2.043   2.990
17794SOL     OW53725   7.876   2.286   2.382
17794SOL    HW153726   7.906   2.214   2.320
17794SOL    HW253727   7.837   2.246   2.465
17795SOL     OW53728   9.153   3.349   2.966
17795SOL    HW153729   9.060   3.324   2.939
17795SOL    HW253730   9.179   3.299   3.048
17796SOL     OW53731   7.765   2.409   3.142
17796SOL    HW153732   7.803   2.350   3.214
17796SOL    HW253733   7.805   2.383   3.054
17797SOL     OW53734   8.260   3.448   2.549
17797SOL    HW153735   8.292   3.458   2.455
17797SOL    HW253736   8.181   3.386   2.551
17798SOL     OW53737   8.872   2.076   2.974
17798SOL    HW153738   8.924   2.011   3.029
17798SOL    HW253739   8.823   2.139   3.035
17799SOL     OW53740   8.449   1.896   3.016
17799SOL    HW153741   8.386   1.824   2.985
17799SOL    HW253742   8.542   1.860   3.016
17800SOL     OW53743   8.218   3.192   2.163
17800SOL    HW153744   8.172   3.105   2.180
17800SOL    HW253745   8.309   3.189   2.204
17801SOL     OW53746   8.066   3.429   3.146
17801SOL    HW153747   8.061   3.511   3.203
17801SOL    HW253748   8.155   3.426   3.101
17802SOL     OW53749   8.800   1.914   2.030
17802SOL    HW153750   8.835   1.873   1.946
17802SOL    HW253751   8.710   1.876   2.050
17803SOL     OW53752   8.748   2.315   2.553
17803SOL    HW153753   8.689   2.395   2.557
17803SOL    HW253754   8.763   2.280   2.646
17804SOL     OW53755   9.041   2.083   2.744
17804SOL    HW153756   8.957   2.082   2.798
17804SOL    HW253757   9.043   2.166   2.688
17805SOL     OW53758   7.487   2.939   2.162
17805SOL    HW153759   7.586   2.928   2.153
17805SOL    HW253760   7.447   2.853   2.194
17806SOL     OW53761   8.323   3.508   2.199
17806SOL    HW153762   8.246   3.473   2.145
17806SOL    HW253763   8.291   3.579   2.261
17807SOL     OW53764   7.678   2.490   3.837
17807SOL    HW153765   7.585   2.488   3.874
17807SOL    HW253766   7.679   2.451   3.745
17808SOL     OW53767   7.673   2.137   4.720
17808SOL    HW153768   7.708   2.120   4.812
17808SOL    HW253769   7.585   2.092   4.708
17809SOL     OW53770   7.467   2.230   4.371
17809SOL    HW153771   7.385   2.273   4.410
17809SOL    HW253772   7.439   2.157   4.308
17810SOL     OW53773   8.017   3.137   4.889
17810SOL    HW153774   7.924   3.130   4.852
17810SOL    HW253775   8.028   3.226   4.933
17811SOL     OW53776   9.003   3.373   4.427
17811SOL    HW153777   8.946   3.357   4.508
17811SOL    HW253778   8.944   3.383   4.347
17812SOL     OW53779   8.583   2.565   4.441
17812SOL    HW153780   8.640   2.643   4.416
17812SOL    HW253781   8.523   2.591   4.517
17813SOL     OW53782   9.203   2.469   3.955
17813SOL    HW153783   9.191   2.456   3.856
17813SOL    HW253784   9.173   2.388   4.004
17814SOL     OW53785   8.216   3.006   4.747
17814SOL    HW153786   8.138   3.023   4.807
17814SOL    HW253787   8.250   3.093   4.711
17815SOL     OW53788   8.298   2.660   5.547
17815SOL    HW153789   8.294   2.736   5.612
17815SOL    HW253790   8.320   2.696   5.456
17816SOL     OW53791   8.133   2.874   4.389
17816SOL    HW153792   8.202   2.858   4.459
17816SOL    HW253793   8.060   2.931   4.427
17817SOL     OW53794   8.134   3.023   5.527
17817SOL    HW153795   8.194   3.102   5.541
17817SOL    HW253796   8.048   3.054   5.486
17818SOL     OW53797   7.783   3.297   4.785
17818SOL    HW153798   7.705   3.266   4.732
17818SOL    HW253799   7.841   3.355   4.728
17819SOL     OW53800   8.908   3.367   5.063
17819SOL    HW153801   8.932   3.461   5.089
17819SOL    HW253802   8.892   3.313   5.145
17820SOL     OW53803   7.886   2.254   5.223
17820SOL    HW153804   7.968   2.198   5.232
17820SOL    HW253805   7.805   2.196   5.227
17821SOL     OW53806   9.051   2.309   4.461
17821SOL    HW153807   8.977   2.355   4.411
17821SOL    HW253808   9.102   2.377   4.514
17822SOL     OW53809   7.679   3.575   4.207
17822SOL    HW153810   7.713   3.652   4.261
17822SOL    HW253811   7.723   3.575   4.117
17823SOL     OW53812   8.575   3.203   5.414
17823SOL    HW153813   8.622   3.203   5.502
17823SOL    HW253814   8.527   3.116   5.403
17824SOL     OW53815   7.678   3.296   4.262
17824SOL    HW153816   7.652   3.392   4.262
17824SOL    HW253817   7.607   3.242   4.307
17825SOL     OW53818   7.688   2.953   4.610
17825SOL    HW153819   7.702   2.869   4.662
17825SOL    HW253820   7.633   3.017   4.665
17826SOL     OW53821   8.068   3.648   5.163
17826SOL    HW153822   7.976   3.631   5.198
17826SOL    HW253823   8.096   3.740   5.189
17827SOL     OW53824   8.054   2.826   3.847
17827SOL    HW153825   8.061   2.910   3.793
17827SOL    HW253826   8.100   2.839   3.935
17828SOL     OW53827   9.042   1.976   5.204
17828SOL    HW153828   9.024   2.043   5.132
17828SOL    HW253829   9.039   2.022   5.293
17829SOL     OW53830   7.570   2.505   4.287
17829SOL    HW153831   7.525   2.417   4.304
17829SOL    HW253832   7.569   2.559   4.371
17830SOL     OW53833   9.290   3.629   4.083
17830SOL    HW153834   9.344   3.600   4.163
17830SOL    HW253835   9.320   3.719   4.054
17831SOL     OW53836   7.475   3.458   3.841
17831SOL    HW153837   7.456   3.362   3.862
17831SOL    HW253838   7.442   3.516   3.916
17832SOL     OW53839   9.137   2.784   4.336
17832SOL    HW153840   9.232   2.755   4.344
17832SOL    HW253841   9.129   2.849   4.261
17833SOL     OW53842   9.089   2.970   4.156
17833SOL    HW153843   9.175   2.972   4.104
17833SOL    HW253844   9.103   3.017   4.244
17834SOL     OW53845   7.561   2.599   5.321
17834SOL    HW153846   7.649   2.586   5.366
17834SOL    HW253847   7.548   2.696   5.299
17835SOL     OW53848   8.061   3.227   4.450
17835SOL    HW153849   8.012   3.140   4.459
17835SOL    HW253850   8.038   3.270   4.363
17836SOL     OW53851   8.741   3.090   5.147
17836SOL    HW153852   8.778   3.017   5.089
17836SOL    HW253853   8.793   3.095   5.232
17837SOL     OW53854   8.257   1.866   4.226
17837SOL    HW153855   8.297   1.957   4.217
17837SOL    HW253856   8.157   1.874   4.232
17838SOL     OW53857   7.645   2.838   4.988
17838SOL    HW153858   7.734   2.793   4.974
17838SOL    HW253859   7.572   2.773   4.969
17839SOL     OW53860   8.973   2.861   3.914
17839SOL    HW153861   8.910   2.785   3.927
17839SOL    HW253862   9.021   2.879   4.000
17840SOL     OW53863   8.635   3.654   5.340
17840SOL    HW153864   8.659   3.714   5.264
17840SOL    HW253865   8.642   3.559   5.310
17841SOL     OW53866   7.765   2.113   5.525
17841SOL    HW153867   7.836   2.184   5.531
17841SOL    HW253868   7.677   2.152   5.553
17842SOL     OW53869   8.914   3.279   4.677
17842SOL    HW153870   8.855   3.285   4.757
17842SOL    HW253871   8.899   3.191   4.631
17843SOL     OW53872   9.115   3.576   4.296
17843SOL    HW153873   9.074   3.553   4.208
17843SOL    HW253874   9.097   3.502   4.361
17844SOL     OW53875   8.046   2.591   3.994
17844SOL    HW153876   8.070   2.660   3.926
17844SOL    HW253877   7.968   2.624   4.048
17845SOL     OW53878   8.729   2.207   4.668
17845SOL    HW153879   8.643   2.157   4.655
17845SOL    HW253880   8.791   2.153   4.724
17846SOL     OW53881   9.024   3.524   4.031
17846SOL    HW153882   9.113   3.570   4.034
17846SOL    HW253883   9.003   3.500   3.936
17847SOL     OW53884   8.255   2.467   5.189
17847SOL    HW153885   8.208   2.464   5.278
17847SOL    HW253886   8.204   2.412   5.123
17848SOL     OW53887   8.842   2.331   5.398
17848SOL    HW153888   8.822   2.374   5.486
17848SOL    HW253889   8.920   2.269   5.407
17849SOL     OW53890   8.421   2.752   5.296
17849SOL    HW153891   8.467   2.668   5.267
17849SOL    HW253892   8.365   2.786   5.221
17850SOL     OW53893   8.439   2.272   4.966
17850SOL    HW153894   8.362   2.306   5.020
17850SOL    HW253895   8.405   2.221   4.887
17851SOL     OW53896   8.489   2.563   4.153
17851SOL    HW153897   8.515   2.559   4.249
17851SOL    HW253898   8.404   2.512   4.139
17852SOL     OW53899   7.524   2.673   4.513
17852SOL    HW153900   7.623   2.661   4.522
17852SOL    HW253901   7.500   2.768   4.534
17853SOL     OW53902   7.578   3.683   5.295
17853SOL    HW153903   7.568   3.668   5.394
17853SOL    HW253904   7.492   3.719   5.259
17854SOL     OW53905   8.313   2.210   3.919
17854SOL    HW153906   8.372   2.273   3.870
17854SOL    HW253907   8.332   2.116   3.890
17855SOL     OW53908   9.167   2.447   5.555
17855SOL    HW153909   9.141   2.536   5.519
17855SOL    HW253910   9.165   2.379   5.482
17856SOL     OW53911   8.810   3.006   4.269
17856SOL    HW153912   8.893   2.977   4.221
17856SOL    HW253913   8.761   3.073   4.213
17857SOL     OW53914   7.998   2.058   4.609
17857SOL    HW153915   7.993   2.053   4.709
17857SOL    HW253916   8.000   2.154   4.580
17858SOL     OW53917   8.456   3.318   4.201
17858SOL    HW153918   8.410   3.390   4.149
17858SOL    HW253919   8.452   3.338   4.299
17859SOL     OW53920   7.799   3.663   4.577
17859SOL    HW153921   7.849   3.577   4.583
17859SOL    HW253922   7.864   3.740   4.574
17860SOL     OW53923   9.243   2.928   4.597
17860SOL    HW153924   9.181   2.913   4.521
17860SOL    HW253925   9.191   2.939   4.682
17861SOL     OW53926   8.675   3.412   5.230
17861SOL    HW153927   8.681   3.335   5.294
17861SOL    HW253928   8.623   3.386   5.150
17862SOL     OW53929   7.769   2.805   3.966
17862SOL    HW153930   7.851   2.844   3.924
17862SOL    HW253931   7.742   2.723   3.917
17863SOL     OW53932   8.906   2.597   4.452
17863SOL    HW153933   8.901   2.532   4.527
17863SOL    HW253934   8.986   2.656   4.465
17864SOL     OW53935   7.909   3.128   5.451
17864SOL    HW153936   7.859   3.129   5.365
17864SOL    HW253937   7.846   3.110   5.527
17865SOL     OW53938   8.559   3.638   3.961
17865SOL    HW153939   8.499   3.576   4.011
17865SOL    HW253940   8.590   3.594   3.876
17866SOL     OW53941   7.650   2.147   5.222
17866SOL    HW153942   7.570   2.207   5.209
17866SOL    HW253943   7.640   2.098   5.308
17867SOL     OW53944   9.080   3.239   3.805
17867SOL    HW153945   9.048   3.333   3.795
17867SOL    HW253946   9.004   3.176   3.793
17868SOL     OW53947   7.912   3.605   4.047
17868SOL    HW153948   7.945   3.644   4.133
17868SOL    HW253949   7.988   3.598   3.982
17869SOL     OW53950   8.848   1.969   4.150
17869SOL    HW153951   8.824   1.932   4.060
17869SOL    HW253952   8.947   1.985   4.154
17870SOL     OW53953   7.697   3.647   4.965
17870SOL    HW153954   7.754   3.582   5.015
17870SOL    HW253955   7.681   3.614   4.872
17871SOL     OW53956   8.388   3.560   4.628
17871SOL    HW153957   8.468   3.503   4.649
17871SOL    HW253958   8.339   3.520   4.551
17872SOL     OW53959   7.830   2.562   4.204
17872SOL    HW153960   7.875   2.472   4.201
17872SOL    HW253961   7.736   2.551   4.237
17873SOL     OW53962   8.995   2.084   5.453
17873SOL    HW153963   8.990   2.121   5.545
17873SOL    HW253964   8.923   2.015   5.441
17874SOL     OW53965   8.062   1.984   3.841
17874SOL    HW153966   8.160   1.962   3.848
17874SOL    HW253967   8.031   1.967   3.748
17875SOL     OW53968   8.229   2.126   5.473
17875SOL    HW153969   8.296   2.065   5.516
17875SOL    HW253970   8.156   2.145   5.538
17876SOL     OW53971   8.336   3.376   4.919
17876SOL    HW153972   8.313   3.351   4.825
17876SOL    HW253973   8.397   3.307   4.958
17877SOL     OW53974   8.799   2.452   5.157
17877SOL    HW153975   8.827   2.409   5.242
17877SOL    HW253976   8.824   2.548   5.158
17878SOL     OW53977   8.251   3.264   4.648
17878SOL    HW153978   8.341   3.278   4.606
17878SOL    HW253979   8.180   3.266   4.577
17879SOL     OW53980   8.370   2.365   4.623
17879SOL    HW153981   8.345   2.356   4.527
17879SOL    HW253982   8.418   2.283   4.654
17880SOL     OW53983   7.987   1.926   4.236
17880SOL    HW153984   7.906   1.927   4.294
17880SOL    HW253985   7.990   2.009   4.181
17881SOL     OW53986   8.882   3.050   3.765
17881SOL    HW153987   8.914   2.974   3.822
17881SOL    HW253988   8.790   3.077   3.795
17882SOL     OW53989   7.745   1.897   3.895
17882SOL    HW153990   7.794   1.981   3.874
17882SOL    HW253991   7.807   1.832   3.940
17883SOL     OW53992   8.383   2.098   4.204
17883SOL    HW153993   8.335   2.139   4.126
17883SOL    HW253994   8.482   2.096   4.185
17884SOL     OW53995   8.524   2.545   5.188
17884SOL    HW153996   8.444   2.484   5.191
17884SOL    HW253997   8.605   2.492   5.164
17885SOL     OW53998   8.675   3.432   4.517
17885SOL    HW153999   8.696   3.506   4.452
17885SOL    HW254000   8.743   3.432   4.590
17886SOL     OW54001   7.907   3.014   4.465
17886SOL    HW154002   7.836   2.987   4.530
17886SOL    HW254003   7.881   2.986   4.372
17887SOL     OW54004   8.719   3.659   4.315
17887SOL    HW154005   8.763   3.723   4.251
17887SOL    HW254006   8.669   3.711   4.385
17888SOL     OW54007   8.480   2.411   3.740
17888SOL    HW154008   8.439   2.493   3.701
17888SOL    HW254009   8.544   2.437   3.813
17889SOL     OW54010   7.526   2.418   5.110
17889SOL    HW154011   7.618   2.417   5.069
17889SOL    HW254012   7.520   2.492   5.177
17890SOL     OW54013   8.009   2.084   4.871
17890SOL    HW154014   8.047   2.000   4.908
17890SOL    HW254015   7.921   2.103   4.915
17891SOL     OW54016   8.314   2.316   4.366
17891SOL    HW154017   8.282   2.388   4.304
17891SOL    HW254018   8.338   2.235   4.313
17892SOL     OW54019   8.465   1.901   4.477
17892SOL    HW154020   8.393   1.906   4.408
17892SOL    HW254021   8.441   1.832   4.546
17893SOL     OW54022   8.877   3.035   4.591
17893SOL    HW154023   8.822   2.951   4.584
17893SOL    HW254024   8.903   3.064   4.499
17894SOL     OW54025   8.914   2.452   4.716
17894SOL    HW154026   8.884   2.357   4.723
17894SOL    HW254027   8.987   2.468   4.782
17895SOL     OW54028   9.305   2.695   4.101
17895SOL    HW154029   9.347   2.631   4.165
17895SOL    HW254030   9.267   2.644   4.023
17896SOL     OW54031   7.936   3.247   3.898
17896SOL    HW154032   7.849   3.232   3.945
17896SOL    HW254033   7.919   3.273   3.803
17897SOL     OW54034   9.112   3.142   4.381
17897SOL    HW154035   9.211   3.150   4.395
17897SOL    HW254036   9.067   3.226   4.412
17898SOL     OW54037   8.838   2.437   3.802
17898SOL    HW154038   8.784   2.416   3.883
17898SOL    HW254039   8.929   2.396   3.811
17899SOL     OW54040   7.975   2.118   4.052
17899SOL    HW154041   8.002   2.059   3.977
17899SOL    HW254042   7.975   2.213   4.021
17900SOL     OW54043   9.202   3.085   5.312
17900SOL    HW154044   9.293   3.046   5.299
17900SOL    HW254045   9.210   3.181   5.336
17901SOL     OW54046   9.040   3.491   5.349
17901SOL    HW154047   9.067   3.525   5.259
17901SOL    HW254048   9.119   3.453   5.395
17902SOL     OW54049   8.559   3.057   4.824
17902SOL    HW154050   8.519   3.101   4.905
17902SOL    HW254051   8.518   3.094   4.741
17903SOL     OW54052   9.086   2.961   4.803
17903SOL    HW154053   9.091   3.042   4.862
17903SOL    HW254054   9.000   2.963   4.752
17904SOL     OW54055   8.363   1.951   5.126
17904SOL    HW154056   8.388   1.931   5.031
17904SOL    HW254057   8.435   2.007   5.168
17905SOL     OW54058   8.428   2.978   5.443
17905SOL    HW154059   8.329   2.984   5.453
17905SOL    HW254060   8.451   2.898   5.387
17906SOL     OW54061   8.153   2.912   4.092
17906SOL    HW154062   8.139   2.919   4.191
17906SOL    HW254063   8.237   2.861   4.074
17907SOL     OW54064   7.858   2.675   4.975
17907SOL    HW154065   7.944   2.687   5.025
17907SOL    HW254066   7.816   2.588   5.002
17908SOL     OW54067   8.722   2.248   4.986
17908SOL    HW154068   8.743   2.322   5.050
17908SOL    HW254069   8.633   2.265   4.943
17909SOL     OW54070   7.512   3.426   5.055
17909SOL    HW154071   7.466   3.508   5.021
17909SOL    HW254072   7.610   3.445   5.064
17910SOL     OW54073   7.815   2.962   4.225
17910SOL    HW154074   7.808   3.045   4.169
17910SOL    HW254075   7.819   2.882   4.165
17911SOL     OW54076   8.014   2.399   4.589
17911SOL    HW154077   8.026   2.465   4.515
17911SOL    HW254078   8.060   2.433   4.672
17912SOL     OW54079   8.720   3.307   4.866
17912SOL    HW154080   8.767   3.320   4.953
17912SOL    HW254081   8.654   3.233   4.875
17913SOL     OW54082   9.030   2.501   4.196
17913SOL    HW154083   8.999   2.562   4.269
17913SOL    HW254084   9.080   2.553   4.127
17914SOL     OW54085   7.802   3.372   5.053
17914SOL    HW154086   7.781   3.328   4.966
17914SOL    HW254087   7.899   3.398   5.056
17915SOL     OW54088   7.850   2.613   5.322
17915SOL    HW154089   7.918   2.668   5.275
17915SOL    HW254090   7.890   2.525   5.349
17916SOL     OW54091   9.035   2.641   5.394
17916SOL    HW154092   8.943   2.679   5.389
17916SOL    HW254093   9.095   2.688   5.329
17917SOL     OW54094   8.461   1.967   5.494
17917SOL    HW154095   8.467   2.052   5.442
17917SOL    HW254096   8.493   1.891   5.437
17918SOL     OW54097   7.952   1.912   5.464
17918SOL    HW154098   7.910   1.855   5.394
17918SOL    HW254099   7.886   1.981   5.496
17919SOL     OW54100   8.021   2.732   4.753
17919SOL    HW154101   8.065   2.821   4.744
17919SOL    HW254102   7.958   2.732   4.830
17920SOL     OW54103   8.808   2.724   4.769
17920SOL    HW154104   8.733   2.724   4.703
17920SOL    HW254105   8.845   2.632   4.778
17921SOL     OW54106   8.657   2.387   3.999
17921SOL    HW154107   8.670   2.303   4.053
17921SOL    HW254108   8.628   2.461   4.059
17922SOL     OW54109   7.755   2.075   4.955
17922SOL    HW154110   7.732   2.112   5.045
17922SOL    HW254111   7.725   1.980   4.949
17923SOL     OW54112   7.485   3.172   5.006
17923SOL    HW154113   7.538   3.123   5.074
17923SOL    HW254114   7.507   3.270   5.011
17924SOL     OW54115   8.180   2.496   4.788
17924SOL    HW154116   8.239   2.470   4.712
17924SOL    HW254117   8.152   2.592   4.777
17925SOL     OW54118   9.176   2.797   5.578
17925SOL    HW154119   9.130   2.790   5.489
17925SOL    HW254120   9.114   2.841   5.644
17926SOL     OW54121   7.755   1.925   4.342
17926SOL    HW154122   7.744   2.019   4.375
17926SOL    HW254123   7.750   1.862   4.419
17927SOL     OW54124   9.070   2.229   4.098
17927SOL    HW154125   9.072   2.153   4.162
17927SOL    HW254126   9.022   2.306   4.138
17928SOL     OW54127   8.471   2.628   4.690
17928SOL    HW154128   8.486   2.649   4.786
17928SOL    HW254129   8.441   2.533   4.681
17929SOL     OW54130   8.428   3.435   5.424
17929SOL    HW154131   8.408   3.479   5.336
17929SOL    HW254132   8.467   3.344   5.408
17930SOL     OW54133   9.307   3.380   5.329
17930SOL    HW154134   9.321   3.407   5.234
17930SOL    HW254135   9.390   3.402   5.382
17931SOL     OW54136   7.798   2.760   5.528
17931SOL    HW154137   7.874   2.804   5.576
17931SOL    HW254138   7.833   2.713   5.446
17932SOL     OW54139   8.988   2.136   3.849
17932SOL    HW154140   8.927   2.061   3.872
17932SOL    HW254141   9.010   2.188   3.932
17933SOL     OW54142   8.751   2.700   3.766
17933SOL    HW154143   8.785   2.607   3.781
17933SOL    HW254144   8.769   2.727   3.671
17934SOL     OW54145   8.516   3.195   4.573
17934SOL    HW154146   8.523   3.111   4.518
17934SOL    HW254147   8.578   3.264   4.537
17935SOL     OW54148   7.767   2.672   4.673
17935SOL    HW154149   7.860   2.708   4.678
17935SOL    HW254150   7.761   2.587   4.725
17936SOL     OW54151   7.787   2.371   4.730
17936SOL    HW154152   7.735   2.288   4.713
17936SOL    HW254153   7.864   2.376   4.666
17937SOL     OW54154   8.586   2.242   5.402
17937SOL    HW154155   8.541   2.305   5.466
17937SOL    HW254156   8.679   2.273   5.385
17938SOL     OW54157   8.608   2.069   5.201
17938SOL    HW154158   8.608   2.133   5.278
17938SOL    HW254159   8.636   2.117   5.118
17939SOL     OW54160   7.456   3.188   3.924
17939SOL    HW154161   7.363   3.209   3.893
17939SOL    HW254162   7.466   3.089   3.937
17940SOL     OW54163   7.536   3.663   4.651
17940SOL    HW154164   7.494   3.577   4.624
17940SOL    HW254165   7.630   3.666   4.617
17941SOL     OW54166   7.952   3.430   4.634
17941SOL    HW154167   8.018   3.504   4.643
17941SOL    HW254168   7.996   3.351   4.592
17942SOL     OW54169   8.450   2.658   4.962
17942SOL    HW154170   8.491   2.626   5.048
17942SOL    HW254171   8.354   2.631   4.959
17943SOL     OW54172   7.488   2.406   4.838
17943SOL    HW154173   7.573   2.373   4.797
17943SOL    HW254174   7.501   2.421   4.936
17944SOL     OW54175   7.637   2.382   5.446
17944SOL    HW154176   7.696   2.342   5.376
17944SOL    HW254177   7.579   2.453   5.405
17945SOL     OW54178   8.817   2.812   5.384
17945SOL    HW154179   8.856   2.901   5.404
17945SOL    HW254180   8.827   2.792   5.287
17946SOL     OW54181   8.263   2.434   4.049
17946SOL    HW154182   8.270   2.345   4.003
17946SOL    HW254183   8.169   2.468   4.041
17947SOL     OW54184   9.105   2.466   4.930
17947SOL    HW154185   9.067   2.397   4.992
17947SOL    HW254186   9.187   2.430   4.886
17948SOL     OW54187   7.700   3.426   5.468
17948SOL    HW154188   7.670   3.483   5.544
17948SOL    HW254189   7.693   3.329   5.494
17949SOL     OW54190   8.119   2.326   4.993
17949SOL    HW154191   8.085   2.237   4.963
17949SOL    HW254192   8.145   2.380   4.913
17950SOL     OW54193   8.378   3.540   5.189
17950SOL    HW154194   8.354   3.522   5.094
17950SOL    HW254195   8.408   3.634   5.199
17951SOL     OW54196   7.921   2.362   3.915
17951SOL    HW154197   7.982   2.442   3.919
17951SOL    HW254198   7.826   2.393   3.922
17952SOL     OW54199   7.607   2.999   5.190
17952SOL    HW154200   7.629   2.938   5.266
17952SOL    HW254201   7.617   2.950   5.104
17953SOL     OW54202   8.795   2.921   4.958
17953SOL    HW154203   8.819   2.858   4.884
17953SOL    HW254204   8.705   2.961   4.940
17954SOL     OW54205   8.750   2.717   4.033
17954SOL    HW154206   8.664   2.686   4.075
17954SOL    HW254207   8.746   2.703   3.934
17955SOL     OW54208   9.207   3.609   4.878
17955SOL    HW154209   9.268   3.639   4.805
17955SOL    HW254210   9.169   3.520   4.856
17956SOL     OW54211   8.700   3.593   4.852
17956SOL    HW154212   8.784   3.598   4.798
17956SOL    HW254213   8.677   3.497   4.870
17957SOL     OW54214   7.531   3.120   4.746
17957SOL    HW154215   7.526   3.119   4.846
17957SOL    HW254216   7.448   3.079   4.708
17958SOL     OW54217   8.136   3.524   5.440
17958SOL    HW154218   8.080   3.605   5.449
17958SOL    HW254219   8.188   3.528   5.354
17959SOL     OW54220   9.174   1.997   4.247
17959SOL    HW154221   9.247   1.980   4.180
17959SOL    HW254222   9.143   1.910   4.285
17960SOL     OW54223   8.836   3.435   4.201
17960SOL    HW154224   8.903   3.447   4.127
17960SOL    HW254225   8.796   3.524   4.224
17961SOL     OW54226   7.578   3.656   5.575
17961SOL    HW154227   7.537   3.582   5.628
17961SOL    HW254228   7.642   3.707   5.633
17962SOL     OW54229   8.728   2.789   4.396
17962SOL    HW154230   8.788   2.708   4.398
17962SOL    HW254231   8.768   2.858   4.336
17963SOL     OW54232   8.278   3.135   5.146
17963SOL    HW154233   8.273   3.168   5.241
17963SOL    HW254234   8.192   3.154   5.100
17964SOL     OW54235   8.120   3.478   3.878
17964SOL    HW154236   8.129   3.488   3.779
17964SOL    HW254237   8.080   3.389   3.899
17965SOL     OW54238   9.098   3.582   5.118
17965SOL    HW154239   9.151   3.592   5.034
17965SOL    HW254240   9.071   3.672   5.152
17966SOL     OW54241   9.289   2.037   4.687
17966SOL    HW154242   9.328   1.952   4.651
17966SOL    HW254243   9.191   2.039   4.668
17967SOL     OW54244   7.711   2.188   4.444
17967SOL    HW154245   7.632   2.239   4.410
17967SOL    HW254246   7.702   2.173   4.542
17968SOL     OW54247   8.642   3.474   3.755
17968SOL    HW154248   8.648   3.381   3.792
17968SOL    HW254249   8.583   3.474   3.675
17969SOL     OW54250   8.270   2.864   5.096
17969SOL    HW154251   8.310   2.863   5.004
17969SOL    HW254252   8.280   2.956   5.136
17970SOL     OW54253   8.364   2.772   4.015
17970SOL    HW154254   8.427   2.810   3.947
17970SOL    HW254255   8.404   2.689   4.054
17971SOL     OW54256   8.952   3.469   3.768
17971SOL    HW154257   8.860   3.506   3.775
17971SOL    HW254258   8.990   3.489   3.678
17972SOL     OW54259   7.820   3.150   5.214
17972SOL    HW154260   7.807   3.243   5.180
17972SOL    HW254261   7.736   3.098   5.201
17973SOL     OW54262   9.062   3.154   5.013
17973SOL    HW154263   9.122   3.157   5.093
17973SOL    HW254264   8.987   3.218   5.026
17974SOL     OW54265   8.487   2.960   4.420
17974SOL    HW154266   8.417   2.913   4.474
17974SOL    HW254267   8.546   2.892   4.377
17975SOL     OW54268   8.462   2.098   4.695
17975SOL    HW154269   8.454   2.062   4.602
17975SOL    HW254270   8.460   2.022   4.760
17976SOL     OW54271   8.038   3.349   4.215
17976SOL    HW154272   8.080   3.291   4.145
17976SOL    HW254273   7.994   3.428   4.171
17977SOL     OW54274   9.157   2.247   5.105
17977SOL    HW154275   9.230   2.316   5.109
17977SOL    HW254276   9.185   2.172   5.046
17978SOL     OW54277   7.703   3.210   4.014
17978SOL    HW154278   7.607   3.211   3.987
17978SOL    HW254279   7.715   3.263   4.098
17979SOL     OW54280   7.553   2.875   5.450
17979SOL    HW154281   7.476   2.842   5.504
17979SOL    HW254282   7.638   2.845   5.492
17980SOL     OW54283   8.120   2.065   5.213
17980SOL    HW154284   8.210   2.049   5.173
17980SOL    HW254285   8.128   2.070   5.312
17981SOL     OW54286   7.523   2.207   3.757
17981SOL    HW154287   7.431   2.179   3.728
17981SOL    HW254288   7.554   2.284   3.701
17982SOL     OW54289   8.888   2.718   5.122
17982SOL    HW154290   8.831   2.770   5.059
17982SOL    HW254291   8.984   2.730   5.098
17983SOL     OW54292   7.520   2.028   4.042
17983SOL    HW154293   7.503   2.111   3.988
17983SOL    HW254294   7.610   1.991   4.020
17984SOL     OW54295   8.631   3.197   3.843
17984SOL    HW154296   8.532   3.186   3.845
17984SOL    HW254297   8.665   3.212   3.936
17985SOL     OW54298   8.061   2.704   5.155
17985SOL    HW154299   8.117   2.785   5.138
17985SOL    HW254300   8.120   2.624   5.158
17986SOL     OW54301   8.941   3.629   4.683
17986SOL    HW154302   8.974   3.693   4.614
17986SOL    HW254303   9.007   3.623   4.758
17987SOL     OW54304   8.164   2.427   5.432
17987SOL    HW154305   8.183   2.492   5.506
17987SOL    HW254306   8.224   2.347   5.441
17988SOL     OW54307   8.898   3.082   5.357
17988SOL    HW154308   8.889   3.072   5.456
17988SOL    HW254309   8.994   3.075   5.331
17989SOL     OW54310   7.838   3.603   5.284
17989SOL    HW154311   7.747   3.644   5.282
17989SOL    HW254312   7.831   3.509   5.316
17990SOL     OW54313   9.122   2.745   4.978
17990SOL    HW154314   9.095   2.656   4.941
17990SOL    HW254315   9.123   2.813   4.905
17991SOL     OW54316   8.673   2.187   4.173
17991SOL    HW154317   8.738   2.113   4.162
17991SOL    HW254318   8.693   2.237   4.257
17992SOL     OW54319   8.042   2.607   4.376
17992SOL    HW154320   8.092   2.692   4.357
17992SOL    HW254321   7.954   2.609   4.328
17993SOL     OW54322   9.225   2.204   5.366
17993SOL    HW154323   9.208   2.235   5.272
17993SOL    HW254324   9.141   2.167   5.404
17994SOL     OW54325   9.178   2.796   5.241
17994SOL    HW154326   9.216   2.887   5.256
17994SOL    HW254327   9.170   2.779   5.142
17995SOL     OW54328   8.307   3.236   3.740
17995SOL    HW154329   8.261   3.251   3.828
17995SOL    HW254330   8.351   3.321   3.710
17996SOL     OW54331   8.109   3.652   4.677
17996SOL    HW154332   8.063   3.740   4.664
17996SOL    HW254333   8.208   3.664   4.670
17997SOL     OW54334   8.307   2.818   4.585
17997SOL    HW154335   8.361   2.749   4.633
17997SOL    HW254336   8.275   2.887   4.651
17998SOL     OW54337   8.531   2.846   3.811
17998SOL    HW154338   8.508   2.899   3.729
17998SOL    HW254339   8.612   2.790   3.792
17999SOL     OW54340   9.309   3.431   4.575
17999SOL    HW154341   9.238   3.419   4.505
17999SOL    HW254342   9.310   3.352   4.635
18000SOL     OW54343   7.669   3.176   5.568
18000SOL    HW154344   7.604   3.103   5.547
18000SOL    HW254345   7.673   3.190   5.666
18001SOL     OW54346   7.527   3.102   4.377
18001SOL    HW154347   7.526   3.055   4.465
18001SOL    HW254348   7.609   3.074   4.326
18002SOL     OW54349   8.120   3.253   5.348
18002SOL    HW154350   8.042   3.203   5.386
18002SOL    HW254351   8.117   3.348   5.379
18003SOL     OW54352   9.272   2.054   4.951
18003SOL    HW154353   9.268   1.964   4.995
18003SOL    HW254354   9.275   2.043   4.852
18004SOL     OW54355   7.876   2.286   4.244
18004SOL    HW154356   7.906   2.214   4.182
18004SOL    HW254357   7.837   2.246   4.327
18005SOL     OW54358   9.153   3.349   4.828
18005SOL    HW154359   9.060   3.324   4.801
18005SOL    HW254360   9.179   3.299   4.910
18006SOL     OW54361   7.765   2.409   5.004
18006SOL    HW154362   7.803   2.350   5.076
18006SOL    HW254363   7.805   2.383   4.916
18007SOL     OW54364   8.260   3.448   4.411
18007SOL    HW154365   8.292   3.458   4.317
18007SOL    HW254366   8.181   3.386   4.413
18008SOL     OW54367   8.872   2.076   4.836
18008SOL    HW154368   8.924   2.011   4.891
18008SOL    HW254369   8.823   2.139   4.897
18009SOL     OW54370   8.449   1.896   4.878
18009SOL    HW154371   8.386   1.824   4.847
18009SOL    HW254372   8.542   1.860   4.878
18010SOL     OW54373   8.218   3.192   4.025
18010SOL    HW154374   8.172   3.105   4.042
18010SOL    HW254375   8.309   3.189   4.066
18011SOL     OW54376   8.066   3.429   5.008
18011SOL    HW154377   8.061   3.511   5.065
18011SOL    HW254378   8.155   3.426   4.963
18012SOL     OW54379   8.800   1.914   3.892
18012SOL    HW154380   8.835   1.873   3.808
18012SOL    HW254381   8.710   1.876   3.912
18013SOL     OW54382   8.748   2.315   4.415
18013SOL    HW154383   8.689   2.395   4.419
18013SOL    HW254384   8.763   2.280   4.508
18014SOL     OW54385   9.041   2.083   4.606
18014SOL    HW154386   8.957   2.082   4.660
18014SOL    HW254387   9.043   2.166   4.550
18015SOL     OW54388   7.487   2.939   4.024
18015SOL    HW154389   7.586   2.928   4.015
18015SOL    HW254390   7.447   2.853   4.056
18016SOL     OW54391   8.323   3.508   4.061
18016SOL    HW154392   8.246   3.473   4.007
18016SOL    HW254393   8.291   3.579   4.123
18017SOL     OW54394   7.678   2.490   5.699
18017SOL    HW154395   7.585   2.488   5.736
18017SOL    HW254396   7.679   2.451   5.607
18018SOL     OW54397   7.673   2.137   6.582
18018SOL    HW154398   7.708   2.120   6.674
18018SOL    HW254399   7.585   2.092   6.570
18019SOL     OW54400   7.467   2.230   6.233
18019SOL    HW154401   7.385   2.273   6.272
18019SOL    HW254402   7.439   2.157   6.170
18020SOL     OW54403   8.017   3.137   6.751
18020SOL    HW154404   7.924   3.130   6.714
18020SOL    HW254405   8.028   3.226   6.795
18021SOL     OW54406   9.003   3.373   6.289
18021SOL    HW154407   8.946   3.357   6.370
18021SOL    HW254408   8.944   3.383   6.209
18022SOL     OW54409   8.583   2.565   6.303
18022SOL    HW154410   8.640   2.643   6.278
18022SOL    HW254411   8.523   2.591   6.379
18023SOL     OW54412   9.203   2.469   5.817
18023SOL    HW154413   9.191   2.456   5.718
18023SOL    HW254414   9.173   2.388   5.866
18024SOL     OW54415   8.216   3.006   6.609
18024SOL    HW154416   8.138   3.023   6.669
18024SOL    HW254417   8.250   3.093   6.573
18025SOL     OW54418   8.298   2.660   7.409
18025SOL    HW154419   8.294   2.736   7.474
18025SOL    HW254420   8.320   2.696   7.318
18026SOL     OW54421   8.133   2.874   6.251
18026SOL    HW154422   8.202   2.858   6.321
18026SOL    HW254423   8.060   2.931   6.289
18027SOL     OW54424   8.134   3.023   7.389
18027SOL    HW154425   8.194   3.102   7.403
18027SOL    HW254426   8.048   3.054   7.348
18028SOL     OW54427   7.783   3.297   6.647
18028SOL    HW154428   7.705   3.266   6.594
18028SOL    HW254429   7.841   3.355   6.590
18029SOL     OW54430   8.908   3.367   6.925
18029SOL    HW154431   8.932   3.461   6.951
18029SOL    HW254432   8.892   3.313   7.007
18030SOL     OW54433   7.886   2.254   7.085
18030SOL    HW154434   7.968   2.198   7.094
18030SOL    HW254435   7.805   2.196   7.089
18031SOL     OW54436   9.051   2.309   6.323
18031SOL    HW154437   8.977   2.355   6.273
18031SOL    HW254438   9.102   2.377   6.376
18032SOL     OW54439   7.679   3.575   6.069
18032SOL    HW154440   7.713   3.652   6.123
18032SOL    HW254441   7.723   3.575   5.979
18033SOL     OW54442   8.575   3.203   7.276
18033SOL    HW154443   8.622   3.203   7.364
18033SOL    HW254444   8.527   3.116   7.265
18034SOL     OW54445   7.678   3.296   6.124
18034SOL    HW154446   7.652   3.392   6.124
18034SOL    HW254447   7.607   3.242   6.169
18035SOL     OW54448   7.688   2.953   6.472
18035SOL    HW154449   7.702   2.869   6.524
18035SOL    HW254450   7.633   3.017   6.527
18036SOL     OW54451   8.068   3.648   7.025
18036SOL    HW154452   7.976   3.631   7.060
18036SOL    HW254453   8.096   3.740   7.051
18037SOL     OW54454   8.054   2.826   5.709
18037SOL    HW154455   8.061   2.910   5.655
18037SOL    HW254456   8.100   2.839   5.797
18038SOL     OW54457   9.042   1.976   7.066
18038SOL    HW154458   9.024   2.043   6.994
18038SOL    HW254459   9.039   2.022   7.155
18039SOL     OW54460   7.570   2.505   6.149
18039SOL    HW154461   7.525   2.417   6.166
18039SOL    HW254462   7.569   2.559   6.233
18040SOL     OW54463   9.290   3.629   5.945
18040SOL    HW154464   9.344   3.600   6.025
18040SOL    HW254465   9.320   3.719   5.916
18041SOL     OW54466   7.475   3.458   5.703
18041SOL    HW154467   7.456   3.362   5.724
18041SOL    HW254468   7.442   3.516   5.778
18042SOL     OW54469   9.137   2.784   6.198
18042SOL    HW154470   9.232   2.755   6.206
18042SOL    HW254471   9.129   2.849   6.123
18043SOL     OW54472   9.089   2.970   6.018
18043SOL    HW154473   9.175   2.972   5.966
18043SOL    HW254474   9.103   3.017   6.106
18044SOL     OW54475   7.561   2.599   7.183
18044SOL    HW154476   7.649   2.586   7.228
18044SOL    HW254477   7.548   2.696   7.161
18045SOL     OW54478   8.061   3.227   6.312
18045SOL    HW154479   8.012   3.140   6.321
18045SOL    HW254480   8.038   3.270   6.225
18046SOL     OW54481   8.741   3.090   7.009
18046SOL    HW154482   8.778   3.017   6.951
18046SOL    HW254483   8.793   3.095   7.094
18047SOL     OW54484   8.257   1.866   6.088
18047SOL    HW154485   8.297   1.957   6.079
18047SOL    HW254486   8.157   1.874   6.094
18048SOL     OW54487   7.645   2.838   6.850
18048SOL    HW154488   7.734   2.793   6.836
18048SOL    HW254489   7.572   2.773   6.831
18049SOL     OW54490   8.973   2.861   5.776
18049SOL    HW154491   8.910   2.785   5.789
18049SOL    HW254492   9.021   2.879   5.862
18050SOL     OW54493   8.635   3.654   7.202
18050SOL    HW154494   8.659   3.714   7.126
18050SOL    HW254495   8.642   3.559   7.172
18051SOL     OW54496   7.765   2.113   7.387
18051SOL    HW154497   7.836   2.184   7.393
18051SOL    HW254498   7.677   2.152   7.415
18052SOL     OW54499   8.914   3.279   6.539
18052SOL    HW154500   8.855   3.285   6.619
18052SOL    HW254501   8.899   3.191   6.493
18053SOL     OW54502   9.115   3.576   6.158
18053SOL    HW154503   9.074   3.553   6.070
18053SOL    HW254504   9.097   3.502   6.223
18054SOL     OW54505   8.046   2.591   5.856
18054SOL    HW154506   8.070   2.660   5.788
18054SOL    HW254507   7.968   2.624   5.910
18055SOL     OW54508   8.729   2.207   6.530
18055SOL    HW154509   8.643   2.157   6.517
18055SOL    HW254510   8.791   2.153   6.586
18056SOL     OW54511   9.024   3.524   5.893
18056SOL    HW154512   9.113   3.570   5.896
18056SOL    HW254513   9.003   3.500   5.798
18057SOL     OW54514   8.255   2.467   7.051
18057SOL    HW154515   8.208   2.464   7.140
18057SOL    HW254516   8.204   2.412   6.985
18058SOL     OW54517   8.842   2.331   7.260
18058SOL    HW154518   8.822   2.374   7.348
18058SOL    HW254519   8.920   2.269   7.269
18059SOL     OW54520   8.421   2.752   7.158
18059SOL    HW154521   8.467   2.668   7.129
18059SOL    HW254522   8.365   2.786   7.083
18060SOL     OW54523   8.439   2.272   6.828
18060SOL    HW154524   8.362   2.306   6.882
18060SOL    HW254525   8.405   2.221   6.749
18061SOL     OW54526   8.489   2.563   6.015
18061SOL    HW154527   8.515   2.559   6.111
18061SOL    HW254528   8.404   2.512   6.001
18062SOL     OW54529   7.524   2.673   6.375
18062SOL    HW154530   7.623   2.661   6.384
18062SOL    HW254531   7.500   2.768   6.396
18063SOL     OW54532   7.578   3.683   7.157
18063SOL    HW154533   7.568   3.668   7.256
18063SOL    HW254534   7.492   3.719   7.121
18064SOL     OW54535   8.313   2.210   5.781
18064SOL    HW154536   8.372   2.273   5.732
18064SOL    HW254537   8.332   2.116   5.752
18065SOL     OW54538   9.167   2.447   7.417
18065SOL    HW154539   9.141   2.536   7.381
18065SOL    HW254540   9.165   2.379   7.344
18066SOL     OW54541   8.810   3.006   6.131
18066SOL    HW154542   8.893   2.977   6.083
18066SOL    HW254543   8.761   3.073   6.075
18067SOL     OW54544   7.998   2.058   6.471
18067SOL    HW154545   7.993   2.053   6.571
18067SOL    HW254546   8.000   2.154   6.442
18068SOL     OW54547   8.456   3.318   6.063
18068SOL    HW154548   8.410   3.390   6.011
18068SOL    HW254549   8.452   3.338   6.161
18069SOL     OW54550   7.799   3.663   6.439
18069SOL    HW154551   7.849   3.577   6.445
18069SOL    HW254552   7.864   3.740   6.436
18070SOL     OW54553   9.243   2.928   6.459
18070SOL    HW154554   9.181   2.913   6.383
18070SOL    HW254555   9.191   2.939   6.544
18071SOL     OW54556   8.675   3.412   7.092
18071SOL    HW154557   8.681   3.335   7.156
18071SOL    HW254558   8.623   3.386   7.012
18072SOL     OW54559   7.769   2.805   5.828
18072SOL    HW154560   7.851   2.844   5.786
18072SOL    HW254561   7.742   2.723   5.779
18073SOL     OW54562   8.906   2.597   6.314
18073SOL    HW154563   8.901   2.532   6.389
18073SOL    HW254564   8.986   2.656   6.327
18074SOL     OW54565   7.909   3.128   7.313
18074SOL    HW154566   7.859   3.129   7.227
18074SOL    HW254567   7.846   3.110   7.389
18075SOL     OW54568   8.559   3.638   5.823
18075SOL    HW154569   8.499   3.576   5.873
18075SOL    HW254570   8.590   3.594   5.738
18076SOL     OW54571   7.650   2.147   7.084
18076SOL    HW154572   7.570   2.207   7.071
18076SOL    HW254573   7.640   2.098   7.170
18077SOL     OW54574   9.080   3.239   5.667
18077SOL    HW154575   9.048   3.333   5.657
18077SOL    HW254576   9.004   3.176   5.655
18078SOL     OW54577   7.912   3.605   5.909
18078SOL    HW154578   7.945   3.644   5.995
18078SOL    HW254579   7.988   3.598   5.844
18079SOL     OW54580   8.848   1.969   6.012
18079SOL    HW154581   8.824   1.932   5.922
18079SOL    HW254582   8.947   1.985   6.016
18080SOL     OW54583   7.697   3.647   6.827
18080SOL    HW154584   7.754   3.582   6.877
18080SOL    HW254585   7.681   3.614   6.734
18081SOL     OW54586   8.388   3.560   6.490
18081SOL    HW154587   8.468   3.503   6.511
18081SOL    HW254588   8.339   3.520   6.413
18082SOL     OW54589   7.830   2.562   6.066
18082SOL    HW154590   7.875   2.472   6.063
18082SOL    HW254591   7.736   2.551   6.099
18083SOL     OW54592   8.995   2.084   7.315
18083SOL    HW154593   8.990   2.121   7.407
18083SOL    HW254594   8.923   2.015   7.303
18084SOL     OW54595   8.062   1.984   5.703
18084SOL    HW154596   8.160   1.962   5.710
18084SOL    HW254597   8.031   1.967   5.610
18085SOL     OW54598   8.229   2.126   7.335
18085SOL    HW154599   8.296   2.065   7.378
18085SOL    HW254600   8.156   2.145   7.400
18086SOL     OW54601   8.336   3.376   6.781
18086SOL    HW154602   8.313   3.351   6.687
18086SOL    HW254603   8.397   3.307   6.820
18087SOL     OW54604   8.799   2.452   7.019
18087SOL    HW154605   8.827   2.409   7.104
18087SOL    HW254606   8.824   2.548   7.020
18088SOL     OW54607   8.251   3.264   6.510
18088SOL    HW154608   8.341   3.278   6.468
18088SOL    HW254609   8.180   3.266   6.439
18089SOL     OW54610   8.370   2.365   6.485
18089SOL    HW154611   8.345   2.356   6.389
18089SOL    HW254612   8.418   2.283   6.516
18090SOL     OW54613   7.987   1.926   6.098
18090SOL    HW154614   7.906   1.927   6.156
18090SOL    HW254615   7.990   2.009   6.043
18091SOL     OW54616   8.882   3.050   5.627
18091SOL    HW154617   8.914   2.974   5.684
18091SOL    HW254618   8.790   3.077   5.657
18092SOL     OW54619   7.745   1.897   5.757
18092SOL    HW154620   7.794   1.981   5.736
18092SOL    HW254621   7.807   1.832   5.802
18093SOL     OW54622   8.383   2.098   6.066
18093SOL    HW154623   8.335   2.139   5.988
18093SOL    HW254624   8.482   2.096   6.047
18094SOL     OW54625   8.524   2.545   7.050
18094SOL    HW154626   8.444   2.484   7.053
18094SOL    HW254627   8.605   2.492   7.026
18095SOL     OW54628   8.675   3.432   6.379
18095SOL    HW154629   8.696   3.506   6.314
18095SOL    HW254630   8.743   3.432   6.452
18096SOL     OW54631   7.907   3.014   6.327
18096SOL    HW154632   7.836   2.987   6.392
18096SOL    HW254633   7.881   2.986   6.234
18097SOL     OW54634   8.719   3.659   6.177
18097SOL    HW154635   8.763   3.723   6.113
18097SOL    HW254636   8.669   3.711   6.247
18098SOL     OW54637   8.480   2.411   5.602
18098SOL    HW154638   8.439   2.493   5.563
18098SOL    HW254639   8.544   2.437   5.675
18099SOL     OW54640   7.526   2.418   6.972
18099SOL    HW154641   7.618   2.417   6.931
18099SOL    HW254642   7.520   2.492   7.039
18100SOL     OW54643   8.009   2.084   6.733
18100SOL    HW154644   8.047   2.000   6.770
18100SOL    HW254645   7.921   2.103   6.777
18101SOL     OW54646   8.314   2.316   6.228
18101SOL    HW154647   8.282   2.388   6.166
18101SOL    HW254648   8.338   2.235   6.175
18102SOL     OW54649   8.465   1.901   6.339
18102SOL    HW154650   8.393   1.906   6.270
18102SOL    HW254651   8.441   1.832   6.408
18103SOL     OW54652   8.877   3.035   6.453
18103SOL    HW154653   8.822   2.951   6.446
18103SOL    HW254654   8.903   3.064   6.361
18104SOL     OW54655   8.914   2.452   6.578
18104SOL    HW154656   8.884   2.357   6.585
18104SOL    HW254657   8.987   2.468   6.644
18105SOL     OW54658   9.305   2.695   5.963
18105SOL    HW154659   9.347   2.631   6.027
18105SOL    HW254660   9.267   2.644   5.885
18106SOL     OW54661   7.936   3.247   5.760
18106SOL    HW154662   7.849   3.232   5.807
18106SOL    HW254663   7.919   3.273   5.665
18107SOL     OW54664   9.112   3.142   6.243
18107SOL    HW154665   9.211   3.150   6.257
18107SOL    HW254666   9.067   3.226   6.274
18108SOL     OW54667   7.975   2.118   5.914
18108SOL    HW154668   8.002   2.059   5.839
18108SOL    HW254669   7.975   2.213   5.883
18109SOL     OW54670   9.202   3.085   7.174
18109SOL    HW154671   9.293   3.046   7.161
18109SOL    HW254672   9.210   3.181   7.198
18110SOL     OW54673   8.512   3.209   6.926
18110SOL    HW154674   8.432   3.186   6.981
18110SOL    HW254675   8.595   3.183   6.975
18111SOL     OW54676   9.040   3.491   7.211
18111SOL    HW154677   9.067   3.525   7.121
18111SOL    HW254678   9.119   3.453   7.257
18112SOL     OW54679   8.559   3.057   6.686
18112SOL    HW154680   8.519   3.101   6.767
18112SOL    HW254681   8.518   3.094   6.603
18113SOL     OW54682   9.086   2.961   6.665
18113SOL    HW154683   9.091   3.042   6.724
18113SOL    HW254684   9.000   2.963   6.614
18114SOL     OW54685   8.363   1.951   6.988
18114SOL    HW154686   8.388   1.931   6.893
18114SOL    HW254687   8.435   2.007   7.030
18115SOL     OW54688   8.428   2.978   7.305
18115SOL    HW154689   8.329   2.984   7.315
18115SOL    HW254690   8.451   2.898   7.249
18116SOL     OW54691   8.153   2.912   5.954
18116SOL    HW154692   8.139   2.919   6.053
18116SOL    HW254693   8.237   2.861   5.936
18117SOL     OW54694   7.858   2.675   6.837
18117SOL    HW154695   7.944   2.687   6.887
18117SOL    HW254696   7.816   2.588   6.864
18118SOL     OW54697   8.722   2.248   6.848
18118SOL    HW154698   8.743   2.322   6.912
18118SOL    HW254699   8.633   2.265   6.805
18119SOL     OW54700   7.512   3.426   6.917
18119SOL    HW154701   7.466   3.508   6.883
18119SOL    HW254702   7.610   3.445   6.926
18120SOL     OW54703   7.815   2.962   6.087
18120SOL    HW154704   7.808   3.045   6.031
18120SOL    HW254705   7.819   2.882   6.027
18121SOL     OW54706   8.014   2.399   6.451
18121SOL    HW154707   8.026   2.465   6.377
18121SOL    HW254708   8.060   2.433   6.534
18122SOL     OW54709   8.700   3.210   5.974
18122SOL    HW154710   8.750   3.287   6.014
18122SOL    HW254711   8.605   3.212   6.006
18123SOL     OW54712   8.720   3.307   6.728
18123SOL    HW154713   8.767   3.320   6.815
18123SOL    HW254714   8.654   3.233   6.737
18124SOL     OW54715   9.030   2.501   6.058
18124SOL    HW154716   8.999   2.562   6.131
18124SOL    HW254717   9.080   2.553   5.989
18125SOL     OW54718   7.802   3.372   6.915
18125SOL    HW154719   7.781   3.328   6.828
18125SOL    HW254720   7.899   3.398   6.918
18126SOL     OW54721   7.850   2.613   7.184
18126SOL    HW154722   7.918   2.668   7.137
18126SOL    HW254723   7.890   2.525   7.211
18127SOL     OW54724   9.035   2.641   7.256
18127SOL    HW154725   8.943   2.679   7.251
18127SOL    HW254726   9.095   2.688   7.191
18128SOL     OW54727   8.461   1.967   7.356
18128SOL    HW154728   8.467   2.052   7.304
18128SOL    HW254729   8.493   1.891   7.299
18129SOL     OW54730   7.952   1.912   7.326
18129SOL    HW154731   7.910   1.855   7.256
18129SOL    HW254732   7.886   1.981   7.358
18130SOL     OW54733   8.021   2.732   6.615
18130SOL    HW154734   8.065   2.821   6.606
18130SOL    HW254735   7.958   2.732   6.692
18131SOL     OW54736   8.808   2.724   6.631
18131SOL    HW154737   8.733   2.724   6.565
18131SOL    HW254738   8.845   2.632   6.640
18132SOL     OW54739   8.657   2.387   5.861
18132SOL    HW154740   8.670   2.303   5.915
18132SOL    HW254741   8.628   2.461   5.921
18133SOL     OW54742   7.755   2.075   6.817
18133SOL    HW154743   7.732   2.112   6.907
18133SOL    HW254744   7.725   1.980   6.811
18134SOL     OW54745   7.485   3.172   6.868
18134SOL    HW154746   7.538   3.123   6.936
18134SOL    HW254747   7.507   3.270   6.873
18135SOL     OW54748   8.180   2.496   6.650
18135SOL    HW154749   8.239   2.470   6.574
18135SOL    HW254750   8.152   2.592   6.639
18136SOL     OW54751   9.176   2.797   7.440
18136SOL    HW154752   9.130   2.790   7.351
18136SOL    HW254753   9.114   2.841   7.506
18137SOL     OW54754   7.755   1.925   6.204
18137SOL    HW154755   7.744   2.019   6.237
18137SOL    HW254756   7.750   1.862   6.281
18138SOL     OW54757   9.070   2.229   5.960
18138SOL    HW154758   9.072   2.153   6.024
18138SOL    HW254759   9.022   2.306   6.000
18139SOL     OW54760   8.471   2.628   6.552
18139SOL    HW154761   8.486   2.649   6.648
18139SOL    HW254762   8.441   2.533   6.543
18140SOL     OW54763   8.428   3.435   7.286
18140SOL    HW154764   8.408   3.479   7.198
18140SOL    HW254765   8.467   3.344   7.270
18141SOL     OW54766   9.307   3.380   7.191
18141SOL    HW154767   9.321   3.407   7.096
18141SOL    HW254768   9.390   3.402   7.244
18142SOL     OW54769   7.798   2.760   7.390
18142SOL    HW154770   7.874   2.804   7.438
18142SOL    HW254771   7.833   2.713   7.308
18143SOL     OW54772   8.988   2.136   5.711
18143SOL    HW154773   8.927   2.061   5.734
18143SOL    HW254774   9.010   2.188   5.794
18144SOL     OW54775   8.751   2.700   5.628
18144SOL    HW154776   8.785   2.607   5.643
18144SOL    HW254777   8.769   2.727   5.533
18145SOL     OW54778   8.516   3.195   6.435
18145SOL    HW154779   8.523   3.111   6.380
18145SOL    HW254780   8.578   3.264   6.399
18146SOL     OW54781   7.767   2.672   6.535
18146SOL    HW154782   7.860   2.708   6.540
18146SOL    HW254783   7.761   2.587   6.587
18147SOL     OW54784   7.787   2.371   6.592
18147SOL    HW154785   7.735   2.288   6.575
18147SOL    HW254786   7.864   2.376   6.528
18148SOL     OW54787   8.586   2.242   7.264
18148SOL    HW154788   8.541   2.305   7.328
18148SOL    HW254789   8.679   2.273   7.247
18149SOL     OW54790   8.608   2.069   7.063
18149SOL    HW154791   8.608   2.133   7.140
18149SOL    HW254792   8.636   2.117   6.980
18150SOL     OW54793   7.456   3.188   5.786
18150SOL    HW154794   7.363   3.209   5.755
18150SOL    HW254795   7.466   3.089   5.799
18151SOL     OW54796   7.536   3.663   6.513
18151SOL    HW154797   7.494   3.577   6.486
18151SOL    HW254798   7.630   3.666   6.479
18152SOL     OW54799   7.952   3.430   6.496
18152SOL    HW154800   8.018   3.504   6.505
18152SOL    HW254801   7.996   3.351   6.454
18153SOL     OW54802   8.450   2.658   6.824
18153SOL    HW154803   8.491   2.626   6.910
18153SOL    HW254804   8.354   2.631   6.821
18154SOL     OW54805   7.488   2.406   6.700
18154SOL    HW154806   7.573   2.373   6.659
18154SOL    HW254807   7.501   2.421   6.798
18155SOL     OW54808   7.637   2.382   7.308
18155SOL    HW154809   7.696   2.342   7.238
18155SOL    HW254810   7.579   2.453   7.267
18156SOL     OW54811   8.817   2.812   7.246
18156SOL    HW154812   8.856   2.901   7.266
18156SOL    HW254813   8.827   2.792   7.149
18157SOL     OW54814   8.263   2.434   5.911
18157SOL    HW154815   8.270   2.345   5.865
18157SOL    HW254816   8.169   2.468   5.903
18158SOL     OW54817   9.105   2.466   6.792
18158SOL    HW154818   9.067   2.397   6.854
18158SOL    HW254819   9.187   2.430   6.748
18159SOL     OW54820   7.700   3.426   7.330
18159SOL    HW154821   7.670   3.483   7.406
18159SOL    HW254822   7.693   3.329   7.356
18160SOL     OW54823   8.119   2.326   6.855
18160SOL    HW154824   8.085   2.237   6.825
18160SOL    HW254825   8.145   2.380   6.775
18161SOL     OW54826   8.378   3.540   7.051
18161SOL    HW154827   8.354   3.522   6.956
18161SOL    HW254828   8.408   3.634   7.061
18162SOL     OW54829   7.921   2.362   5.777
18162SOL    HW154830   7.982   2.442   5.781
18162SOL    HW254831   7.826   2.393   5.784
18163SOL     OW54832   7.607   2.999   7.052
18163SOL    HW154833   7.629   2.938   7.128
18163SOL    HW254834   7.617   2.950   6.966
18164SOL     OW54835   8.795   2.921   6.820
18164SOL    HW154836   8.819   2.858   6.746
18164SOL    HW254837   8.705   2.961   6.802
18165SOL     OW54838   8.750   2.717   5.895
18165SOL    HW154839   8.664   2.686   5.937
18165SOL    HW254840   8.746   2.703   5.796
18166SOL     OW54841   9.207   3.609   6.740
18166SOL    HW154842   9.268   3.639   6.667
18166SOL    HW254843   9.169   3.520   6.718
18167SOL     OW54844   8.700   3.593   6.714
18167SOL    HW154845   8.784   3.598   6.660
18167SOL    HW254846   8.677   3.497   6.732
18168SOL     OW54847   7.531   3.120   6.608
18168SOL    HW154848   7.526   3.119   6.708
18168SOL    HW254849   7.448   3.079   6.570
18169SOL     OW54850   8.136   3.524   7.302
18169SOL    HW154851   8.080   3.605   7.311
18169SOL    HW254852   8.188   3.528   7.216
18170SOL     OW54853   9.174   1.997   6.109
18170SOL    HW154854   9.247   1.980   6.042
18170SOL    HW254855   9.143   1.910   6.147
18171SOL     OW54856   8.836   3.435   6.063
18171SOL    HW154857   8.903   3.447   5.989
18171SOL    HW254858   8.796   3.524   6.086
18172SOL     OW54859   7.578   3.656   7.437
18172SOL    HW154860   7.537   3.582   7.490
18172SOL    HW254861   7.642   3.707   7.495
18173SOL     OW54862   8.728   2.789   6.258
18173SOL    HW154863   8.788   2.708   6.260
18173SOL    HW254864   8.768   2.858   6.198
18174SOL     OW54865   8.278   3.135   7.008
18174SOL    HW154866   8.273   3.168   7.103
18174SOL    HW254867   8.192   3.154   6.962
18175SOL     OW54868   8.120   3.478   5.740
18175SOL    HW154869   8.129   3.488   5.641
18175SOL    HW254870   8.080   3.389   5.761
18176SOL     OW54871   9.098   3.582   6.980
18176SOL    HW154872   9.151   3.592   6.896
18176SOL    HW254873   9.071   3.672   7.014
18177SOL     OW54874   9.289   2.037   6.549
18177SOL    HW154875   9.328   1.952   6.513
18177SOL    HW254876   9.191   2.039   6.530
18178SOL     OW54877   7.711   2.188   6.306
18178SOL    HW154878   7.632   2.239   6.272
18178SOL    HW254879   7.702   2.173   6.404
18179SOL     OW54880   8.642   3.474   5.617
18179SOL    HW154881   8.648   3.381   5.654
18179SOL    HW254882   8.583   3.474   5.537
18180SOL     OW54883   8.270   2.864   6.958
18180SOL    HW154884   8.310   2.863   6.866
18180SOL    HW254885   8.280   2.956   6.998
18181SOL     OW54886   8.364   2.772   5.877
18181SOL    HW154887   8.427   2.810   5.809
18181SOL    HW254888   8.404   2.689   5.916
18182SOL     OW54889   8.952   3.469   5.630
18182SOL    HW154890   8.860   3.506   5.637
18182SOL    HW254891   8.990   3.489   5.540
18183SOL     OW54892   7.820   3.150   7.076
18183SOL    HW154893   7.807   3.243   7.042
18183SOL    HW254894   7.736   3.098   7.063
18184SOL     OW54895   9.062   3.154   6.875
18184SOL    HW154896   9.122   3.157   6.955
18184SOL    HW254897   8.987   3.218   6.888
18185SOL     OW54898   8.487   2.960   6.282
18185SOL    HW154899   8.417   2.913   6.336
18185SOL    HW254900   8.546   2.892   6.239
18186SOL     OW54901   8.462   2.098   6.557
18186SOL    HW154902   8.454   2.062   6.464
18186SOL    HW254903   8.460   2.022   6.622
18187SOL     OW54904   8.038   3.349   6.077
18187SOL    HW154905   8.080   3.291   6.007
18187SOL    HW254906   7.994   3.428   6.033
18188SOL     OW54907   9.157   2.247   6.967
18188SOL    HW154908   9.230   2.316   6.971
18188SOL    HW254909   9.185   2.172   6.908
18189SOL     OW54910   7.703   3.210   5.876
18189SOL    HW154911   7.607   3.211   5.849
18189SOL    HW254912   7.715   3.263   5.960
18190SOL     OW54913   7.553   2.875   7.312
18190SOL    HW154914   7.476   2.842   7.366
18190SOL    HW254915   7.638   2.845   7.354
18191SOL     OW54916   8.120   2.065   7.075
18191SOL    HW154917   8.210   2.049   7.035
18191SOL    HW254918   8.128   2.070   7.174
18192SOL     OW54919   7.523   2.207   5.619
18192SOL    HW154920   7.431   2.179   5.590
18192SOL    HW254921   7.554   2.284   5.563
18193SOL     OW54922   8.888   2.718   6.984
18193SOL    HW154923   8.831   2.770   6.921
18193SOL    HW254924   8.984   2.730   6.960
18194SOL     OW54925   7.520   2.028   5.904
18194SOL    HW154926   7.503   2.111   5.850
18194SOL    HW254927   7.610   1.991   5.882
18195SOL     OW54928   8.631   3.197   5.705
18195SOL    HW154929   8.532   3.186   5.707
18195SOL    HW254930   8.665   3.212   5.798
18196SOL     OW54931   8.061   2.704   7.017
18196SOL    HW154932   8.117   2.785   7.000
18196SOL    HW254933   8.120   2.624   7.020
18197SOL     OW54934   8.941   3.629   6.545
18197SOL    HW154935   8.974   3.693   6.476
18197SOL    HW254936   9.007   3.623   6.620
18198SOL     OW54937   8.898   3.082   7.219
18198SOL    HW154938   8.889   3.072   7.318
18198SOL    HW254939   8.994   3.075   7.193
18199SOL     OW54940   7.838   3.603   7.146
18199SOL    HW154941   7.747   3.644   7.144
18199SOL    HW254942   7.831   3.509   7.178
18200SOL     OW54943   9.122   2.745   6.840
18200SOL    HW154944   9.095   2.656   6.803
18200SOL    HW254945   9.123   2.813   6.767
18201SOL     OW54946   8.673   2.187   6.035
18201SOL    HW154947   8.738   2.113   6.024
18201SOL    HW254948   8.693   2.237   6.119
18202SOL     OW54949   8.042   2.607   6.238
18202SOL    HW154950   8.092   2.692   6.219
18202SOL    HW254951   7.954   2.609   6.190
18203SOL     OW54952   9.225   2.204   7.228
18203SOL    HW154953   9.208   2.235   7.134
18203SOL    HW254954   9.141   2.167   7.266
18204SOL     OW54955   9.178   2.796   7.103
18204SOL    HW154956   9.216   2.887   7.118
18204SOL    HW254957   9.170   2.779   7.004
18205SOL     OW54958   8.307   3.236   5.602
18205SOL    HW154959   8.261   3.251   5.690
18205SOL    HW254960   8.351   3.321   5.572
18206SOL     OW54961   8.109   3.652   6.539
18206SOL    HW154962   8.063   3.740   6.526
18206SOL    HW254963   8.208   3.664   6.532
18207SOL     OW54964   8.307   2.818   6.447
18207SOL    HW154965   8.361   2.749   6.495
18207SOL    HW254966   8.275   2.887   6.513
18208SOL     OW54967   8.531   2.846   5.673
18208SOL    HW154968   8.508   2.899   5.591
18208SOL    HW254969   8.612   2.790   5.654
18209SOL     OW54970   9.309   3.431   6.437
18209SOL    HW154971   9.238   3.419   6.367
18209SOL    HW254972   9.310   3.352   6.497
18210SOL     OW54973   7.669   3.176   7.430
18210SOL    HW154974   7.604   3.103   7.409
18210SOL    HW254975   7.673   3.190   7.528
18211SOL     OW54976   7.527   3.102   6.239
18211SOL    HW154977   7.526   3.055   6.327
18211SOL    HW254978   7.609   3.074   6.188
18212SOL     OW54979   8.120   3.253   7.210
18212SOL    HW154980   8.042   3.203   7.248
18212SOL    HW254981   8.117   3.348   7.241
18213SOL     OW54982   9.272   2.054   6.813
18213SOL    HW154983   9.268   1.964   6.857
18213SOL    HW254984   9.275   2.043   6.714
18214SOL     OW54985   7.876   2.286   6.106
18214SOL    HW154986   7.906   2.214   6.044
18214SOL    HW254987   7.837   2.246   6.189
18215SOL     OW54988   9.153   3.349   6.690
18215SOL    HW154989   9.060   3.324   6.663
18215SOL    HW254990   9.179   3.299   6.772
18216SOL     OW54991   7.765   2.409   6.866
18216SOL    HW154992   7.803   2.350   6.938
18216SOL    HW254993   7.805   2.383   6.778
18217SOL     OW54994   8.260   3.448   6.273
18217SOL    HW154995   8.292   3.458   6.179
18217SOL    HW254996   8.181   3.386   6.275
18218SOL     OW54997   8.872   2.076   6.698
18218SOL    HW154998   8.924   2.011   6.753
18218SOL    HW254999   8.823   2.139   6.759
18219SOL     OW55000   8.449   1.896   6.740
18219SOL    HW155001   8.386   1.824   6.709
18219SOL    HW255002   8.542   1.860   6.740
18220SOL     OW55003   8.218   3.192   5.887
18220SOL    HW155004   8.172   3.105   5.904
18220SOL    HW255005   8.309   3.189   5.928
18221SOL     OW55006   8.066   3.429   6.870
18221SOL    HW155007   8.061   3.511   6.927
18221SOL    HW255008   8.155   3.426   6.825
18222SOL     OW55009   8.800   1.914   5.754
18222SOL    HW155010   8.835   1.873   5.670
18222SOL    HW255011   8.710   1.876   5.774
18223SOL     OW55012   8.748   2.315   6.277
18223SOL    HW155013   8.689   2.395   6.281
18223SOL    HW255014   8.763   2.280   6.370
18224SOL     OW55015   9.041   2.083   6.468
18224SOL    HW155016   8.957   2.082   6.522
18224SOL    HW255017   9.043   2.166   6.412
18225SOL     OW55018   7.487   2.939   5.886
18225SOL    HW155019   7.586   2.928   5.877
18225SOL    HW255020   7.447   2.853   5.918
18226SOL     OW55021   8.323   3.508   5.923
18226SOL    HW155022   8.246   3.473   5.869
18226SOL    HW255023   8.291   3.579   5.985
18227SOL     OW55024   7.475   3.458   7.565
18227SOL    HW155025   7.456   3.362   7.586
18227SOL    HW255026   7.442   3.516   7.640
18228SOL     OW55027   8.973   2.861   7.638
18228SOL    HW155028   8.910   2.785   7.651
18228SOL    HW255029   9.021   2.879   7.724
18229SOL     OW55030   7.769   2.805   7.690
18229SOL    HW155031   7.851   2.844   7.648
18229SOL    HW255032   7.742   2.723   7.641
18230SOL     OW55033   8.559   3.638   7.685
18230SOL    HW155034   8.499   3.576   7.735
18230SOL    HW255035   8.590   3.594   7.600
18231SOL     OW55036   9.080   3.239   7.529
18231SOL    HW155037   9.048   3.333   7.519
18231SOL    HW255038   9.004   3.176   7.517
18232SOL     OW55039   8.882   3.050   7.489
18232SOL    HW155040   8.914   2.974   7.546
18232SOL    HW255041   8.790   3.077   7.519
18233SOL     OW55042   8.480   2.411   7.464
18233SOL    HW155043   8.439   2.493   7.425
18233SOL    HW255044   8.544   2.437   7.537
18234SOL     OW55045   7.936   3.247   7.622
18234SOL    HW155046   7.849   3.232   7.669
18234SOL    HW255047   7.919   3.273   7.527
18235SOL     OW55048   8.838   2.437   7.526
18235SOL    HW155049   8.784   2.416   7.607
18235SOL    HW255050   8.929   2.396   7.535
18236SOL     OW55051   8.988   2.136   7.573
18236SOL    HW155052   8.927   2.061   7.596
18236SOL    HW255053   9.010   2.188   7.656
18237SOL     OW55054   8.751   2.700   7.490
18237SOL    HW155055   8.785   2.607   7.505
18237SOL    HW255056   8.769   2.727   7.395
18238SOL     OW55057   7.921   2.362   7.639
18238SOL    HW155058   7.982   2.442   7.643
18238SOL    HW255059   7.826   2.393   7.646
18239SOL     OW55060   8.836   3.435   7.925
18239SOL    HW155061   8.903   3.447   7.851
18239SOL    HW255062   8.796   3.524   7.948
18240SOL     OW55063   8.120   3.478   7.602
18240SOL    HW155064   8.129   3.488   7.503
18240SOL    HW255065   8.080   3.389   7.623
18241SOL     OW55066   8.642   3.474   7.479
18241SOL    HW155067   8.648   3.381   7.516
18241SOL    HW255068   8.583   3.474   7.399
18242SOL     OW55069   8.952   3.469   7.492
18242SOL    HW155070   8.860   3.506   7.499
18242SOL    HW255071   8.990   3.489   7.402
18243SOL     OW55072   7.523   2.207   7.481
18243SOL    HW155073   7.431   2.179   7.452
18243SOL    HW255074   7.554   2.284   7.425
18244SOL     OW55075   8.307   3.236   7.464
18244SOL    HW155076   8.261   3.251   7.552
18244SOL    HW255077   8.351   3.321   7.434
18245SOL     OW55078   8.531   2.846   7.535
18245SOL    HW155079   8.508   2.899   7.453
18245SOL    HW255080   8.612   2.790   7.516
18246SOL     OW55081   8.800   1.914   7.616
18246SOL    HW155082   8.835   1.873   7.532
18246SOL    HW255083   8.710   1.876   7.636
18247SOL     OW55084   7.487   2.939   7.748
18247SOL    HW155085   7.586   2.928   7.739
18247SOL    HW255086   7.447   2.853   7.780
18248SOL     OW55087   7.673   3.999   0.996
18248SOL    HW155088   7.708   3.982   1.088
18248SOL    HW255089   7.585   3.954   0.984
18249SOL     OW55090   7.467   4.092   0.647
18249SOL    HW155091   7.385   4.135   0.686
18249SOL    HW255092   7.439   4.019   0.584
18250SOL     OW55093   8.017   4.999   1.165
18250SOL    HW155094   7.924   4.992   1.128
18250SOL    HW255095   8.028   5.088   1.209
18251SOL     OW55096   9.003   5.235   0.703
18251SOL    HW155097   8.946   5.219   0.784
18251SOL    HW255098   8.944   5.245   0.623
18252SOL     OW55099   8.583   4.427   0.717
18252SOL    HW155100   8.640   4.505   0.692
18252SOL    HW255101   8.523   4.453   0.793
18253SOL     OW55102   9.203   4.331   0.231
18253SOL    HW155103   9.191   4.318   0.132
18253SOL    HW255104   9.173   4.250   0.280
18254SOL     OW55105   8.216   4.868   1.023
18254SOL    HW155106   8.138   4.885   1.083
18254SOL    HW255107   8.250   4.955   0.987
18255SOL     OW55108   8.133   4.736   0.665
18255SOL    HW155109   8.202   4.720   0.735
18255SOL    HW255110   8.060   4.793   0.703
18256SOL     OW55111   8.134   4.885   1.803
18256SOL    HW155112   8.194   4.964   1.817
18256SOL    HW255113   8.048   4.916   1.762
18257SOL     OW55114   7.783   5.159   1.061
18257SOL    HW155115   7.705   5.128   1.008
18257SOL    HW255116   7.841   5.217   1.004
18258SOL     OW55117   8.908   5.229   1.339
18258SOL    HW155118   8.932   5.323   1.365
18258SOL    HW255119   8.892   5.175   1.421
18259SOL     OW55120   7.886   4.116   1.499
18259SOL    HW155121   7.968   4.060   1.508
18259SOL    HW255122   7.805   4.058   1.503
18260SOL     OW55123   9.051   4.171   0.737
18260SOL    HW155124   8.977   4.217   0.687
18260SOL    HW255125   9.102   4.239   0.790
18261SOL     OW55126   7.679   5.437   0.483
18261SOL    HW155127   7.713   5.514   0.537
18261SOL    HW255128   7.723   5.437   0.393
18262SOL     OW55129   8.575   5.065   1.690
18262SOL    HW155130   8.622   5.065   1.778
18262SOL    HW255131   8.527   4.978   1.679
18263SOL     OW55132   7.678   5.158   0.538
18263SOL    HW155133   7.652   5.254   0.538
18263SOL    HW255134   7.607   5.104   0.583
18264SOL     OW55135   7.688   4.815   0.886
18264SOL    HW155136   7.702   4.731   0.938
18264SOL    HW255137   7.633   4.879   0.941
18265SOL     OW55138   8.068   5.510   1.439
18265SOL    HW155139   7.976   5.493   1.474
18265SOL    HW255140   8.096   5.602   1.465
18266SOL     OW55141   9.042   3.838   1.480
18266SOL    HW155142   9.024   3.905   1.408
18266SOL    HW255143   9.039   3.884   1.569
18267SOL     OW55144   7.570   4.367   0.563
18267SOL    HW155145   7.525   4.279   0.580
18267SOL    HW255146   7.569   4.421   0.647
18268SOL     OW55147   9.290   5.491   0.359
18268SOL    HW155148   9.344   5.462   0.439
18268SOL    HW255149   9.320   5.581   0.330
18269SOL     OW55150   9.137   4.646   0.612
18269SOL    HW155151   9.232   4.617   0.620
18269SOL    HW255152   9.129   4.711   0.537
18270SOL     OW55153   9.089   4.832   0.432
18270SOL    HW155154   9.175   4.834   0.380
18270SOL    HW255155   9.103   4.879   0.520
18271SOL     OW55156   7.561   4.461   1.597
18271SOL    HW155157   7.649   4.448   1.642
18271SOL    HW255158   7.548   4.558   1.575
18272SOL     OW55159   8.741   4.952   1.423
18272SOL    HW155160   8.778   4.879   1.365
18272SOL    HW255161   8.793   4.957   1.508
18273SOL     OW55162   8.257   3.728   0.502
18273SOL    HW155163   8.297   3.819   0.493
18273SOL    HW255164   8.157   3.736   0.508
18274SOL     OW55165   7.645   4.700   1.264
18274SOL    HW155166   7.734   4.655   1.250
18274SOL    HW255167   7.572   4.635   1.245
18275SOL     OW55168   8.635   5.516   1.616
18275SOL    HW155169   8.659   5.576   1.540
18275SOL    HW255170   8.642   5.421   1.586
18276SOL     OW55171   7.765   3.975   1.801
18276SOL    HW155172   7.836   4.046   1.807
18276SOL    HW255173   7.677   4.014   1.829
18277SOL     OW55174   8.914   5.141   0.953
18277SOL    HW155175   8.855   5.147   1.033
18277SOL    HW255176   8.899   5.053   0.907
18278SOL     OW55177   9.115   5.438   0.572
18278SOL    HW155178   9.074   5.415   0.484
18278SOL    HW255179   9.097   5.364   0.637
18279SOL     OW55180   8.729   4.069   0.944
18279SOL    HW155181   8.643   4.019   0.931
18279SOL    HW255182   8.791   4.015   1.000
18280SOL     OW55183   9.024   5.386   0.307
18280SOL    HW155184   9.113   5.432   0.310
18280SOL    HW255185   9.003   5.362   0.212
18281SOL     OW55186   8.255   4.329   1.465
18281SOL    HW155187   8.208   4.326   1.554
18281SOL    HW255188   8.204   4.274   1.399
18282SOL     OW55189   8.842   4.193   1.674
18282SOL    HW155190   8.822   4.236   1.762
18282SOL    HW255191   8.920   4.131   1.683
18283SOL     OW55192   8.421   4.614   1.572
18283SOL    HW155193   8.467   4.530   1.543
18283SOL    HW255194   8.365   4.648   1.497
18284SOL     OW55195   8.439   4.134   1.242
18284SOL    HW155196   8.362   4.168   1.296
18284SOL    HW255197   8.405   4.083   1.163
18285SOL     OW55198   8.489   4.425   0.429
18285SOL    HW155199   8.515   4.421   0.525
18285SOL    HW255200   8.404   4.374   0.415
18286SOL     OW55201   7.524   4.535   0.789
18286SOL    HW155202   7.623   4.523   0.798
18286SOL    HW255203   7.500   4.630   0.810
18287SOL     OW55204   7.578   5.545   1.571
18287SOL    HW155205   7.568   5.530   1.670
18287SOL    HW255206   7.492   5.581   1.535
18288SOL     OW55207   9.167   4.309   1.831
18288SOL    HW155208   9.141   4.398   1.795
18288SOL    HW255209   9.165   4.241   1.758
18289SOL     OW55210   8.810   4.868   0.545
18289SOL    HW155211   8.893   4.839   0.497
18289SOL    HW255212   8.761   4.935   0.489
18290SOL     OW55213   7.998   3.920   0.885
18290SOL    HW155214   7.993   3.915   0.985
18290SOL    HW255215   8.000   4.016   0.856
18291SOL     OW55216   8.456   5.180   0.477
18291SOL    HW155217   8.410   5.252   0.425
18291SOL    HW255218   8.452   5.200   0.575
18292SOL     OW55219   7.799   5.525   0.853
18292SOL    HW155220   7.849   5.439   0.859
18292SOL    HW255221   7.864   5.602   0.850
18293SOL     OW55222   9.243   4.790   0.873
18293SOL    HW155223   9.181   4.775   0.797
18293SOL    HW255224   9.191   4.801   0.958
18294SOL     OW55225   8.675   5.274   1.506
18294SOL    HW155226   8.681   5.197   1.570
18294SOL    HW255227   8.623   5.248   1.426
18295SOL     OW55228   8.906   4.459   0.728
18295SOL    HW155229   8.901   4.394   0.803
18295SOL    HW255230   8.986   4.518   0.741
18296SOL     OW55231   7.909   4.990   1.727
18296SOL    HW155232   7.859   4.991   1.641
18296SOL    HW255233   7.846   4.972   1.803
18297SOL     OW55234   7.650   4.009   1.498
18297SOL    HW155235   7.570   4.069   1.485
18297SOL    HW255236   7.640   3.960   1.584
18298SOL     OW55237   8.848   3.831   0.426
18298SOL    HW155238   8.824   3.794   0.336
18298SOL    HW255239   8.947   3.847   0.430
18299SOL     OW55240   7.697   5.509   1.241
18299SOL    HW155241   7.754   5.444   1.291
18299SOL    HW255242   7.681   5.476   1.148
18300SOL     OW55243   8.388   5.422   0.904
18300SOL    HW155244   8.468   5.365   0.925
18300SOL    HW255245   8.339   5.382   0.827
18301SOL     OW55246   7.830   4.424   0.480
18301SOL    HW155247   7.875   4.334   0.477
18301SOL    HW255248   7.736   4.413   0.513
18302SOL     OW55249   8.995   3.946   1.729
18302SOL    HW155250   8.990   3.983   1.821
18302SOL    HW255251   8.923   3.877   1.717
18303SOL     OW55252   8.229   3.988   1.749
18303SOL    HW155253   8.296   3.927   1.792
18303SOL    HW255254   8.156   4.007   1.814
18304SOL     OW55255   8.336   5.238   1.195
18304SOL    HW155256   8.313   5.213   1.101
18304SOL    HW255257   8.397   5.169   1.234
18305SOL     OW55258   8.251   5.126   0.924
18305SOL    HW155259   8.341   5.140   0.882
18305SOL    HW255260   8.180   5.128   0.853
18306SOL     OW55261   8.370   4.227   0.899
18306SOL    HW155262   8.345   4.218   0.803
18306SOL    HW255263   8.418   4.145   0.930
18307SOL     OW55264   7.987   3.788   0.512
18307SOL    HW155265   7.906   3.789   0.570
18307SOL    HW255266   7.990   3.871   0.457
18308SOL     OW55267   8.383   3.960   0.480
18308SOL    HW155268   8.335   4.001   0.402
18308SOL    HW255269   8.482   3.958   0.461
18309SOL     OW55270   8.524   4.407   1.464
18309SOL    HW155271   8.444   4.346   1.467
18309SOL    HW255272   8.605   4.354   1.440
18310SOL     OW55273   8.675   5.294   0.793
18310SOL    HW155274   8.696   5.368   0.728
18310SOL    HW255275   8.743   5.294   0.866
18311SOL     OW55276   7.907   4.876   0.741
18311SOL    HW155277   7.836   4.849   0.806
18311SOL    HW255278   7.881   4.848   0.648
18312SOL     OW55279   8.719   5.521   0.591
18312SOL    HW155280   8.763   5.585   0.527
18312SOL    HW255281   8.669   5.573   0.661
18313SOL     OW55282   7.526   4.280   1.386
18313SOL    HW155283   7.618   4.279   1.345
18313SOL    HW255284   7.520   4.354   1.453
18314SOL     OW55285   8.009   3.946   1.147
18314SOL    HW155286   8.047   3.862   1.184
18314SOL    HW255287   7.921   3.965   1.191
18315SOL     OW55288   8.314   4.178   0.642
18315SOL    HW155289   8.282   4.250   0.580
18315SOL    HW255290   8.338   4.097   0.589
18316SOL     OW55291   8.465   3.763   0.753
18316SOL    HW155292   8.393   3.768   0.684
18316SOL    HW255293   8.441   3.694   0.822
18317SOL     OW55294   8.877   4.897   0.867
18317SOL    HW155295   8.822   4.813   0.860
18317SOL    HW255296   8.903   4.926   0.775
18318SOL     OW55297   8.914   4.314   0.992
18318SOL    HW155298   8.884   4.219   0.999
18318SOL    HW255299   8.987   4.330   1.058
18319SOL     OW55300   9.112   5.004   0.657
18319SOL    HW155301   9.211   5.012   0.671
18319SOL    HW255302   9.067   5.088   0.688
18320SOL     OW55303   7.975   3.980   0.328
18320SOL    HW155304   8.002   3.921   0.253
18320SOL    HW255305   7.975   4.075   0.297
18321SOL     OW55306   9.202   4.947   1.588
18321SOL    HW155307   9.293   4.908   1.575
18321SOL    HW255308   9.210   5.043   1.612
18322SOL     OW55309   8.512   5.071   1.340
18322SOL    HW155310   8.432   5.048   1.395
18322SOL    HW255311   8.595   5.045   1.389
18323SOL     OW55312   9.040   5.353   1.625
18323SOL    HW155313   9.067   5.387   1.535
18323SOL    HW255314   9.119   5.315   1.671
18324SOL     OW55315   8.559   4.919   1.100
18324SOL    HW155316   8.519   4.963   1.181
18324SOL    HW255317   8.518   4.956   1.017
18325SOL     OW55318   9.086   4.823   1.079
18325SOL    HW155319   9.091   4.904   1.138
18325SOL    HW255320   9.000   4.825   1.028
18326SOL     OW55321   8.363   3.813   1.402
18326SOL    HW155322   8.388   3.793   1.307
18326SOL    HW255323   8.435   3.869   1.444
18327SOL     OW55324   8.428   4.840   1.719
18327SOL    HW155325   8.329   4.846   1.729
18327SOL    HW255326   8.451   4.760   1.663
18328SOL     OW55327   8.153   4.774   0.368
18328SOL    HW155328   8.139   4.781   0.467
18328SOL    HW255329   8.237   4.723   0.350
18329SOL     OW55330   7.858   4.537   1.251
18329SOL    HW155331   7.944   4.549   1.301
18329SOL    HW255332   7.816   4.450   1.278
18330SOL     OW55333   8.722   4.110   1.262
18330SOL    HW155334   8.743   4.184   1.326
18330SOL    HW255335   8.633   4.127   1.219
18331SOL     OW55336   7.512   5.288   1.331
18331SOL    HW155337   7.466   5.370   1.297
18331SOL    HW255338   7.610   5.307   1.340
18332SOL     OW55339   7.815   4.824   0.501
18332SOL    HW155340   7.808   4.907   0.445
18332SOL    HW255341   7.819   4.744   0.441
18333SOL     OW55342   8.014   4.261   0.865
18333SOL    HW155343   8.026   4.327   0.791
18333SOL    HW255344   8.060   4.295   0.948
18334SOL     OW55345   8.700   5.072   0.388
18334SOL    HW155346   8.750   5.149   0.428
18334SOL    HW255347   8.605   5.074   0.420
18335SOL     OW55348   8.720   5.169   1.142
18335SOL    HW155349   8.767   5.182   1.229
18335SOL    HW255350   8.654   5.095   1.151
18336SOL     OW55351   9.030   4.363   0.472
18336SOL    HW155352   8.999   4.424   0.545
18336SOL    HW255353   9.080   4.415   0.403
18337SOL     OW55354   7.802   5.234   1.329
18337SOL    HW155355   7.781   5.190   1.242
18337SOL    HW255356   7.899   5.260   1.332
18338SOL     OW55357   7.850   4.475   1.598
18338SOL    HW155358   7.918   4.530   1.551
18338SOL    HW255359   7.890   4.387   1.625
18339SOL     OW55360   9.035   4.503   1.670
18339SOL    HW155361   8.943   4.541   1.665
18339SOL    HW255362   9.095   4.550   1.605
18340SOL     OW55363   8.461   3.829   1.770
18340SOL    HW155364   8.467   3.914   1.718
18340SOL    HW255365   8.493   3.753   1.713
18341SOL     OW55366   7.952   3.774   1.740
18341SOL    HW155367   7.910   3.717   1.670
18341SOL    HW255368   7.886   3.843   1.772
18342SOL     OW55369   8.021   4.594   1.029
18342SOL    HW155370   8.065   4.683   1.020
18342SOL    HW255371   7.958   4.594   1.106
18343SOL     OW55372   8.808   4.586   1.045
18343SOL    HW155373   8.733   4.586   0.979
18343SOL    HW255374   8.845   4.494   1.054
18344SOL     OW55375   8.657   4.249   0.275
18344SOL    HW155376   8.670   4.165   0.329
18344SOL    HW255377   8.628   4.323   0.335
18345SOL     OW55378   7.755   3.937   1.231
18345SOL    HW155379   7.732   3.974   1.321
18345SOL    HW255380   7.725   3.842   1.225
18346SOL     OW55381   7.485   5.034   1.282
18346SOL    HW155382   7.538   4.985   1.350
18346SOL    HW255383   7.507   5.132   1.287
18347SOL     OW55384   8.180   4.358   1.064
18347SOL    HW155385   8.239   4.332   0.988
18347SOL    HW255386   8.152   4.454   1.053
18348SOL     OW55387   9.176   4.659   1.854
18348SOL    HW155388   9.130   4.652   1.765
18348SOL    HW255389   9.114   4.703   1.920
18349SOL     OW55390   7.755   3.787   0.618
18349SOL    HW155391   7.744   3.881   0.651
18349SOL    HW255392   7.750   3.724   0.695
18350SOL     OW55393   8.471   4.490   0.966
18350SOL    HW155394   8.486   4.511   1.062
18350SOL    HW255395   8.441   4.395   0.957
18351SOL     OW55396   8.428   5.297   1.700
18351SOL    HW155397   8.408   5.341   1.612
18351SOL    HW255398   8.467   5.206   1.684
18352SOL     OW55399   9.307   5.242   1.605
18352SOL    HW155400   9.321   5.269   1.510
18352SOL    HW255401   9.390   5.264   1.658
18353SOL     OW55402   7.798   4.622   1.804
18353SOL    HW155403   7.874   4.666   1.852
18353SOL    HW255404   7.833   4.575   1.722
18354SOL     OW55405   8.516   5.057   0.849
18354SOL    HW155406   8.523   4.973   0.794
18354SOL    HW255407   8.578   5.126   0.813
18355SOL     OW55408   7.767   4.534   0.949
18355SOL    HW155409   7.860   4.570   0.954
18355SOL    HW255410   7.761   4.449   1.001
18356SOL     OW55411   7.787   4.233   1.006
18356SOL    HW155412   7.735   4.150   0.989
18356SOL    HW255413   7.864   4.238   0.942
18357SOL     OW55414   8.586   4.104   1.678
18357SOL    HW155415   8.541   4.167   1.742
18357SOL    HW255416   8.679   4.135   1.661
18358SOL     OW55417   8.608   3.931   1.477
18358SOL    HW155418   8.608   3.995   1.554
18358SOL    HW255419   8.636   3.979   1.394
18359SOL     OW55420   7.536   5.525   0.927
18359SOL    HW155421   7.494   5.439   0.900
18359SOL    HW255422   7.630   5.528   0.893
18360SOL     OW55423   7.952   5.292   0.910
18360SOL    HW155424   8.018   5.366   0.919
18360SOL    HW255425   7.996   5.213   0.868
18361SOL     OW55426   8.450   4.520   1.238
18361SOL    HW155427   8.491   4.488   1.324
18361SOL    HW255428   8.354   4.493   1.235
18362SOL     OW55429   7.488   4.268   1.114
18362SOL    HW155430   7.573   4.235   1.073
18362SOL    HW255431   7.501   4.283   1.212
18363SOL     OW55432   7.637   4.244   1.722
18363SOL    HW155433   7.696   4.204   1.652
18363SOL    HW255434   7.579   4.315   1.681
18364SOL     OW55435   8.817   4.674   1.660
18364SOL    HW155436   8.856   4.763   1.680
18364SOL    HW255437   8.827   4.654   1.563
18365SOL     OW55438   9.105   4.328   1.206
18365SOL    HW155439   9.067   4.259   1.268
18365SOL    HW255440   9.187   4.292   1.162
18366SOL     OW55441   7.700   5.288   1.744
18366SOL    HW155442   7.670   5.345   1.820
18366SOL    HW255443   7.693   5.191   1.770
18367SOL     OW55444   8.119   4.188   1.269
18367SOL    HW155445   8.085   4.099   1.239
18367SOL    HW255446   8.145   4.242   1.189
18368SOL     OW55447   8.378   5.402   1.465
18368SOL    HW155448   8.354   5.384   1.370
18368SOL    HW255449   8.408   5.496   1.475
18369SOL     OW55450   7.607   4.861   1.466
18369SOL    HW155451   7.629   4.800   1.542
18369SOL    HW255452   7.617   4.812   1.380
18370SOL     OW55453   8.795   4.783   1.234
18370SOL    HW155454   8.819   4.720   1.160
18370SOL    HW255455   8.705   4.823   1.216
18371SOL     OW55456   9.207   5.471   1.154
18371SOL    HW155457   9.268   5.501   1.081
18371SOL    HW255458   9.169   5.382   1.132
18372SOL     OW55459   8.700   5.455   1.128
18372SOL    HW155460   8.784   5.460   1.074
18372SOL    HW255461   8.677   5.359   1.146
18373SOL     OW55462   7.531   4.982   1.022
18373SOL    HW155463   7.526   4.981   1.122
18373SOL    HW255464   7.448   4.941   0.984
18374SOL     OW55465   8.136   5.386   1.716
18374SOL    HW155466   8.080   5.467   1.725
18374SOL    HW255467   8.188   5.390   1.630
18375SOL     OW55468   9.174   3.859   0.523
18375SOL    HW155469   9.247   3.842   0.456
18375SOL    HW255470   9.143   3.772   0.561
18376SOL     OW55471   8.836   5.297   0.477
18376SOL    HW155472   8.903   5.309   0.403
18376SOL    HW255473   8.796   5.386   0.500
18377SOL     OW55474   7.578   5.518   1.851
18377SOL    HW155475   7.537   5.444   1.904
18377SOL    HW255476   7.642   5.569   1.909
18378SOL     OW55477   8.728   4.651   0.672
18378SOL    HW155478   8.788   4.570   0.674
18378SOL    HW255479   8.768   4.720   0.612
18379SOL     OW55480   8.278   4.997   1.422
18379SOL    HW155481   8.273   5.030   1.517
18379SOL    HW255482   8.192   5.016   1.376
18380SOL     OW55483   9.098   5.444   1.394
18380SOL    HW155484   9.151   5.454   1.310
18380SOL    HW255485   9.071   5.534   1.428
18381SOL     OW55486   9.289   3.899   0.963
18381SOL    HW155487   9.328   3.814   0.927
18381SOL    HW255488   9.191   3.901   0.944
18382SOL     OW55489   7.711   4.050   0.720
18382SOL    HW155490   7.632   4.101   0.686
18382SOL    HW255491   7.702   4.035   0.818
18383SOL     OW55492   8.270   4.726   1.372
18383SOL    HW155493   8.310   4.725   1.280
18383SOL    HW255494   8.280   4.818   1.412
18384SOL     OW55495   8.364   4.634   0.291
18384SOL    HW155496   8.427   4.672   0.223
18384SOL    HW255497   8.404   4.551   0.330
18385SOL     OW55498   7.820   5.012   1.490
18385SOL    HW155499   7.807   5.105   1.456
18385SOL    HW255500   7.736   4.960   1.477
18386SOL     OW55501   9.062   5.016   1.289
18386SOL    HW155502   9.122   5.019   1.369
18386SOL    HW255503   8.987   5.080   1.302
18387SOL     OW55504   8.487   4.822   0.696
18387SOL    HW155505   8.417   4.775   0.750
18387SOL    HW255506   8.546   4.754   0.653
18388SOL     OW55507   8.462   3.960   0.971
18388SOL    HW155508   8.454   3.924   0.878
18388SOL    HW255509   8.460   3.884   1.036
18389SOL     OW55510   8.038   5.211   0.491
18389SOL    HW155511   8.080   5.153   0.421
18389SOL    HW255512   7.994   5.290   0.447
18390SOL     OW55513   9.157   4.109   1.381
18390SOL    HW155514   9.230   4.178   1.385
18390SOL    HW255515   9.185   4.034   1.322
18391SOL     OW55516   7.703   5.072   0.290
18391SOL    HW155517   7.607   5.073   0.263
18391SOL    HW255518   7.715   5.125   0.374
18392SOL     OW55519   7.553   4.737   1.726
18392SOL    HW155520   7.476   4.704   1.780
18392SOL    HW255521   7.638   4.707   1.768
18393SOL     OW55522   8.120   3.927   1.489
18393SOL    HW155523   8.210   3.911   1.449
18393SOL    HW255524   8.128   3.932   1.588
18394SOL     OW55525   8.888   4.580   1.398
18394SOL    HW155526   8.831   4.632   1.335
18394SOL    HW255527   8.984   4.592   1.374
18395SOL     OW55528   8.061   4.566   1.431
18395SOL    HW155529   8.117   4.647   1.414
18395SOL    HW255530   8.120   4.486   1.434
18396SOL     OW55531   8.941   5.491   0.959
18396SOL    HW155532   8.974   5.555   0.890
18396SOL    HW255533   9.007   5.485   1.034
18397SOL     OW55534   8.164   4.289   1.708
18397SOL    HW155535   8.183   4.354   1.782
18397SOL    HW255536   8.224   4.209   1.717
18398SOL     OW55537   8.898   4.944   1.633
18398SOL    HW155538   8.889   4.934   1.732
18398SOL    HW255539   8.994   4.937   1.607
18399SOL     OW55540   7.838   5.465   1.560
18399SOL    HW155541   7.747   5.506   1.558
18399SOL    HW255542   7.831   5.371   1.592
18400SOL     OW55543   9.122   4.607   1.254
18400SOL    HW155544   9.095   4.518   1.217
18400SOL    HW255545   9.123   4.675   1.181
18401SOL     OW55546   8.673   4.049   0.449
18401SOL    HW155547   8.738   3.975   0.438
18401SOL    HW255548   8.693   4.099   0.533
18402SOL     OW55549   8.042   4.469   0.652
18402SOL    HW155550   8.092   4.554   0.633
18402SOL    HW255551   7.954   4.471   0.604
18403SOL     OW55552   9.225   4.066   1.642
18403SOL    HW155553   9.208   4.097   1.548
18403SOL    HW255554   9.141   4.029   1.680
18404SOL     OW55555   9.178   4.658   1.517
18404SOL    HW155556   9.216   4.749   1.532
18404SOL    HW255557   9.170   4.641   1.418
18405SOL     OW55558   8.109   5.514   0.953
18405SOL    HW155559   8.063   5.602   0.940
18405SOL    HW255560   8.208   5.526   0.946
18406SOL     OW55561   8.307   4.680   0.861
18406SOL    HW155562   8.361   4.611   0.909
18406SOL    HW255563   8.275   4.749   0.927
18407SOL     OW55564   9.309   5.293   0.851
18407SOL    HW155565   9.238   5.281   0.781
18407SOL    HW255566   9.310   5.214   0.911
18408SOL     OW55567   7.669   5.038   1.844
18408SOL    HW155568   7.604   4.965   1.823
18408SOL    HW255569   7.673   5.052   1.942
18409SOL     OW55570   7.527   4.964   0.653
18409SOL    HW155571   7.526   4.917   0.741
18409SOL    HW255572   7.609   4.936   0.602
18410SOL     OW55573   8.120   5.115   1.624
18410SOL    HW155574   8.042   5.065   1.662
18410SOL    HW255575   8.117   5.210   1.655
18411SOL     OW55576   9.272   3.916   1.227
18411SOL    HW155577   9.268   3.826   1.271
18411SOL    HW255578   9.275   3.905   1.128
18412SOL     OW55579   7.876   4.148   0.520
18412SOL    HW155580   7.906   4.076   0.458
18412SOL    HW255581   7.837   4.108   0.603
18413SOL     OW55582   9.153   5.211   1.104
18413SOL    HW155583   9.060   5.186   1.077
18413SOL    HW255584   9.179   5.161   1.186
18414SOL     OW55585   7.765   4.271   1.280
18414SOL    HW155586   7.803   4.212   1.352
18414SOL    HW255587   7.805   4.245   1.192
18415SOL     OW55588   8.260   5.310   0.687
18415SOL    HW155589   8.292   5.320   0.593
18415SOL    HW255590   8.181   5.248   0.689
18416SOL     OW55591   8.872   3.938   1.112
18416SOL    HW155592   8.924   3.873   1.167
18416SOL    HW255593   8.823   4.001   1.173
18417SOL     OW55594   8.449   3.758   1.154
18417SOL    HW155595   8.386   3.686   1.123
18417SOL    HW255596   8.542   3.722   1.154
18418SOL     OW55597   8.218   5.054   0.301
18418SOL    HW155598   8.172   4.967   0.318
18418SOL    HW255599   8.309   5.051   0.342
18419SOL     OW55600   8.066   5.291   1.284
18419SOL    HW155601   8.061   5.373   1.341
18419SOL    HW255602   8.155   5.288   1.239
18420SOL     OW55603   8.748   4.177   0.691
18420SOL    HW155604   8.689   4.257   0.695
18420SOL    HW255605   8.763   4.142   0.784
18421SOL     OW55606   9.041   3.945   0.882
18421SOL    HW155607   8.957   3.944   0.936
18421SOL    HW255608   9.043   4.028   0.826
18422SOL     OW55609   8.323   5.370   0.337
18422SOL    HW155610   8.246   5.335   0.283
18422SOL    HW255611   8.291   5.441   0.399
18423SOL     OW55612   7.678   4.352   1.975
18423SOL    HW155613   7.585   4.350   2.012
18423SOL    HW255614   7.679   4.313   1.883
18424SOL     OW55615   7.673   3.999   2.858
18424SOL    HW155616   7.708   3.982   2.950
18424SOL    HW255617   7.585   3.954   2.846
18425SOL     OW55618   7.467   4.092   2.509
18425SOL    HW155619   7.385   4.135   2.548
18425SOL    HW255620   7.439   4.019   2.446
18426SOL     OW55621   8.017   4.999   3.027
18426SOL    HW155622   7.924   4.992   2.990
18426SOL    HW255623   8.028   5.088   3.071
18427SOL     OW55624   9.003   5.235   2.565
18427SOL    HW155625   8.946   5.219   2.646
18427SOL    HW255626   8.944   5.245   2.485
18428SOL     OW55627   8.583   4.427   2.579
18428SOL    HW155628   8.640   4.505   2.554
18428SOL    HW255629   8.523   4.453   2.655
18429SOL     OW55630   9.203   4.331   2.093
18429SOL    HW155631   9.191   4.318   1.994
18429SOL    HW255632   9.173   4.250   2.142
18430SOL     OW55633   8.216   4.868   2.885
18430SOL    HW155634   8.138   4.885   2.945
18430SOL    HW255635   8.250   4.955   2.849
18431SOL     OW55636   8.298   4.522   3.685
18431SOL    HW155637   8.294   4.598   3.750
18431SOL    HW255638   8.320   4.558   3.594
18432SOL     OW55639   8.133   4.736   2.527
18432SOL    HW155640   8.202   4.720   2.597
18432SOL    HW255641   8.060   4.793   2.565
18433SOL     OW55642   8.134   4.885   3.665
18433SOL    HW155643   8.194   4.964   3.679
18433SOL    HW255644   8.048   4.916   3.624
18434SOL     OW55645   7.783   5.159   2.923
18434SOL    HW155646   7.705   5.128   2.870
18434SOL    HW255647   7.841   5.217   2.866
18435SOL     OW55648   8.908   5.229   3.201
18435SOL    HW155649   8.932   5.323   3.227
18435SOL    HW255650   8.892   5.175   3.283
18436SOL     OW55651   7.886   4.116   3.361
18436SOL    HW155652   7.968   4.060   3.370
18436SOL    HW255653   7.805   4.058   3.365
18437SOL     OW55654   9.051   4.171   2.599
18437SOL    HW155655   8.977   4.217   2.549
18437SOL    HW255656   9.102   4.239   2.652
18438SOL     OW55657   7.679   5.437   2.345
18438SOL    HW155658   7.713   5.514   2.399
18438SOL    HW255659   7.723   5.437   2.255
18439SOL     OW55660   8.575   5.065   3.552
18439SOL    HW155661   8.622   5.065   3.640
18439SOL    HW255662   8.527   4.978   3.541
18440SOL     OW55663   7.678   5.158   2.400
18440SOL    HW155664   7.652   5.254   2.400
18440SOL    HW255665   7.607   5.104   2.445
18441SOL     OW55666   7.688   4.815   2.748
18441SOL    HW155667   7.702   4.731   2.800
18441SOL    HW255668   7.633   4.879   2.803
18442SOL     OW55669   8.068   5.510   3.301
18442SOL    HW155670   7.976   5.493   3.336
18442SOL    HW255671   8.096   5.602   3.327
18443SOL     OW55672   8.054   4.688   1.985
18443SOL    HW155673   8.061   4.772   1.931
18443SOL    HW255674   8.100   4.701   2.073
18444SOL     OW55675   9.042   3.838   3.342
18444SOL    HW155676   9.024   3.905   3.270
18444SOL    HW255677   9.039   3.884   3.431
18445SOL     OW55678   7.570   4.367   2.425
18445SOL    HW155679   7.525   4.279   2.442
18445SOL    HW255680   7.569   4.421   2.509
18446SOL     OW55681   9.290   5.491   2.221
18446SOL    HW155682   9.344   5.462   2.301
18446SOL    HW255683   9.320   5.581   2.192
18447SOL     OW55684   7.475   5.320   1.979
18447SOL    HW155685   7.456   5.224   2.000
18447SOL    HW255686   7.442   5.378   2.054
18448SOL     OW55687   9.137   4.646   2.474
18448SOL    HW155688   9.232   4.617   2.482
18448SOL    HW255689   9.129   4.711   2.399
18449SOL     OW55690   9.089   4.832   2.294
18449SOL    HW155691   9.175   4.834   2.242
18449SOL    HW255692   9.103   4.879   2.382
18450SOL     OW55693   7.561   4.461   3.459
18450SOL    HW155694   7.649   4.448   3.504
18450SOL    HW255695   7.548   4.558   3.437
18451SOL     OW55696   8.061   5.089   2.588
18451SOL    HW155697   8.012   5.002   2.597
18451SOL    HW255698   8.038   5.132   2.501
18452SOL     OW55699   8.741   4.952   3.285
18452SOL    HW155700   8.778   4.879   3.227
18452SOL    HW255701   8.793   4.957   3.370
18453SOL     OW55702   8.257   3.728   2.364
18453SOL    HW155703   8.297   3.819   2.355
18453SOL    HW255704   8.157   3.736   2.370
18454SOL     OW55705   7.645   4.700   3.126
18454SOL    HW155706   7.734   4.655   3.112
18454SOL    HW255707   7.572   4.635   3.107
18455SOL     OW55708   8.973   4.723   2.052
18455SOL    HW155709   8.910   4.647   2.065
18455SOL    HW255710   9.021   4.741   2.138
18456SOL     OW55711   8.635   5.516   3.478
18456SOL    HW155712   8.659   5.576   3.402
18456SOL    HW255713   8.642   5.421   3.448
18457SOL     OW55714   7.765   3.975   3.663
18457SOL    HW155715   7.836   4.046   3.669
18457SOL    HW255716   7.677   4.014   3.691
18458SOL     OW55717   8.914   5.141   2.815
18458SOL    HW155718   8.855   5.147   2.895
18458SOL    HW255719   8.899   5.053   2.769
18459SOL     OW55720   9.115   5.438   2.434
18459SOL    HW155721   9.074   5.415   2.346
18459SOL    HW255722   9.097   5.364   2.499
18460SOL     OW55723   8.046   4.453   2.132
18460SOL    HW155724   8.070   4.522   2.064
18460SOL    HW255725   7.968   4.486   2.186
18461SOL     OW55726   8.729   4.069   2.806
18461SOL    HW155727   8.643   4.019   2.793
18461SOL    HW255728   8.791   4.015   2.862
18462SOL     OW55729   9.024   5.386   2.169
18462SOL    HW155730   9.113   5.432   2.172
18462SOL    HW255731   9.003   5.362   2.074
18463SOL     OW55732   8.255   4.329   3.327
18463SOL    HW155733   8.208   4.326   3.416
18463SOL    HW255734   8.204   4.274   3.261
18464SOL     OW55735   8.842   4.193   3.536
18464SOL    HW155736   8.822   4.236   3.624
18464SOL    HW255737   8.920   4.131   3.545
18465SOL     OW55738   8.421   4.614   3.434
18465SOL    HW155739   8.467   4.530   3.405
18465SOL    HW255740   8.365   4.648   3.359
18466SOL     OW55741   8.439   4.134   3.104
18466SOL    HW155742   8.362   4.168   3.158
18466SOL    HW255743   8.405   4.083   3.025
18467SOL     OW55744   8.489   4.425   2.291
18467SOL    HW155745   8.515   4.421   2.387
18467SOL    HW255746   8.404   4.374   2.277
18468SOL     OW55747   7.524   4.535   2.651
18468SOL    HW155748   7.623   4.523   2.660
18468SOL    HW255749   7.500   4.630   2.672
18469SOL     OW55750   7.578   5.545   3.433
18469SOL    HW155751   7.568   5.530   3.532
18469SOL    HW255752   7.492   5.581   3.397
18470SOL     OW55753   8.313   4.072   2.057
18470SOL    HW155754   8.372   4.135   2.008
18470SOL    HW255755   8.332   3.978   2.028
18471SOL     OW55756   9.167   4.309   3.693
18471SOL    HW155757   9.141   4.398   3.657
18471SOL    HW255758   9.165   4.241   3.620
18472SOL     OW55759   8.810   4.868   2.407
18472SOL    HW155760   8.893   4.839   2.359
18472SOL    HW255761   8.761   4.935   2.351
18473SOL     OW55762   7.998   3.920   2.747
18473SOL    HW155763   7.993   3.915   2.847
18473SOL    HW255764   8.000   4.016   2.718
18474SOL     OW55765   8.456   5.180   2.339
18474SOL    HW155766   8.410   5.252   2.287
18474SOL    HW255767   8.452   5.200   2.437
18475SOL     OW55768   7.799   5.525   2.715
18475SOL    HW155769   7.849   5.439   2.721
18475SOL    HW255770   7.864   5.602   2.712
18476SOL     OW55771   9.243   4.790   2.735
18476SOL    HW155772   9.181   4.775   2.659
18476SOL    HW255773   9.191   4.801   2.820
18477SOL     OW55774   8.675   5.274   3.368
18477SOL    HW155775   8.681   5.197   3.432
18477SOL    HW255776   8.623   5.248   3.288
18478SOL     OW55777   7.769   4.667   2.104
18478SOL    HW155778   7.851   4.706   2.062
18478SOL    HW255779   7.742   4.585   2.055
18479SOL     OW55780   8.906   4.459   2.590
18479SOL    HW155781   8.901   4.394   2.665
18479SOL    HW255782   8.986   4.518   2.603
18480SOL     OW55783   7.909   4.990   3.589
18480SOL    HW155784   7.859   4.991   3.503
18480SOL    HW255785   7.846   4.972   3.665
18481SOL     OW55786   8.559   5.500   2.099
18481SOL    HW155787   8.499   5.438   2.149
18481SOL    HW255788   8.590   5.456   2.014
18482SOL     OW55789   7.650   4.009   3.360
18482SOL    HW155790   7.570   4.069   3.347
18482SOL    HW255791   7.640   3.960   3.446
18483SOL     OW55792   9.080   5.101   1.943
18483SOL    HW155793   9.048   5.195   1.933
18483SOL    HW255794   9.004   5.038   1.931
18484SOL     OW55795   7.912   5.467   2.185
18484SOL    HW155796   7.945   5.506   2.271
18484SOL    HW255797   7.988   5.460   2.120
18485SOL     OW55798   8.848   3.831   2.288
18485SOL    HW155799   8.824   3.794   2.198
18485SOL    HW255800   8.947   3.847   2.292
18486SOL     OW55801   7.697   5.509   3.103
18486SOL    HW155802   7.754   5.444   3.153
18486SOL    HW255803   7.681   5.476   3.010
18487SOL     OW55804   8.388   5.422   2.766
18487SOL    HW155805   8.468   5.365   2.787
18487SOL    HW255806   8.339   5.382   2.689
18488SOL     OW55807   7.830   4.424   2.342
18488SOL    HW155808   7.875   4.334   2.339
18488SOL    HW255809   7.736   4.413   2.375
18489SOL     OW55810   8.995   3.946   3.591
18489SOL    HW155811   8.990   3.983   3.683
18489SOL    HW255812   8.923   3.877   3.579
18490SOL     OW55813   8.062   3.846   1.979
18490SOL    HW155814   8.160   3.824   1.986
18490SOL    HW255815   8.031   3.829   1.886
18491SOL     OW55816   8.229   3.988   3.611
18491SOL    HW155817   8.296   3.927   3.654
18491SOL    HW255818   8.156   4.007   3.676
18492SOL     OW55819   8.336   5.238   3.057
18492SOL    HW155820   8.313   5.213   2.963
18492SOL    HW255821   8.397   5.169   3.096
18493SOL     OW55822   8.799   4.314   3.295
18493SOL    HW155823   8.827   4.271   3.380
18493SOL    HW255824   8.824   4.410   3.296
18494SOL     OW55825   8.251   5.126   2.786
18494SOL    HW155826   8.341   5.140   2.744
18494SOL    HW255827   8.180   5.128   2.715
18495SOL     OW55828   8.370   4.227   2.761
18495SOL    HW155829   8.345   4.218   2.665
18495SOL    HW255830   8.418   4.145   2.792
18496SOL     OW55831   7.987   3.788   2.374
18496SOL    HW155832   7.906   3.789   2.432
18496SOL    HW255833   7.990   3.871   2.319
18497SOL     OW55834   8.882   4.912   1.903
18497SOL    HW155835   8.914   4.836   1.960
18497SOL    HW255836   8.790   4.939   1.933
18498SOL     OW55837   7.745   3.759   2.033
18498SOL    HW155838   7.794   3.843   2.012
18498SOL    HW255839   7.807   3.694   2.078
18499SOL     OW55840   8.383   3.960   2.342
18499SOL    HW155841   8.335   4.001   2.264
18499SOL    HW255842   8.482   3.958   2.323
18500SOL     OW55843   8.524   4.407   3.326
18500SOL    HW155844   8.444   4.346   3.329
18500SOL    HW255845   8.605   4.354   3.302
18501SOL     OW55846   8.675   5.294   2.655
18501SOL    HW155847   8.696   5.368   2.590
18501SOL    HW255848   8.743   5.294   2.728
18502SOL     OW55849   7.907   4.876   2.603
18502SOL    HW155850   7.836   4.849   2.668
18502SOL    HW255851   7.881   4.848   2.510
18503SOL     OW55852   8.719   5.521   2.453
18503SOL    HW155853   8.763   5.585   2.389
18503SOL    HW255854   8.669   5.573   2.523
18504SOL     OW55855   8.480   4.273   1.878
18504SOL    HW155856   8.439   4.355   1.839
18504SOL    HW255857   8.544   4.299   1.951
18505SOL     OW55858   7.526   4.280   3.248
18505SOL    HW155859   7.618   4.279   3.207
18505SOL    HW255860   7.520   4.354   3.315
18506SOL     OW55861   8.009   3.946   3.009
18506SOL    HW155862   8.047   3.862   3.046
18506SOL    HW255863   7.921   3.965   3.053
18507SOL     OW55864   8.314   4.178   2.504
18507SOL    HW155865   8.282   4.250   2.442
18507SOL    HW255866   8.338   4.097   2.451
18508SOL     OW55867   8.465   3.763   2.615
18508SOL    HW155868   8.393   3.768   2.546
18508SOL    HW255869   8.441   3.694   2.684
18509SOL     OW55870   8.877   4.897   2.729
18509SOL    HW155871   8.822   4.813   2.722
18509SOL    HW255872   8.903   4.926   2.637
18510SOL     OW55873   8.914   4.314   2.854
18510SOL    HW155874   8.884   4.219   2.861
18510SOL    HW255875   8.987   4.330   2.920
18511SOL     OW55876   9.305   4.557   2.239
18511SOL    HW155877   9.347   4.493   2.303
18511SOL    HW255878   9.267   4.506   2.161
18512SOL     OW55879   7.936   5.109   2.036
18512SOL    HW155880   7.849   5.094   2.083
18512SOL    HW255881   7.919   5.135   1.941
18513SOL     OW55882   9.112   5.004   2.519
18513SOL    HW155883   9.211   5.012   2.533
18513SOL    HW255884   9.067   5.088   2.550
18514SOL     OW55885   8.838   4.299   1.940
18514SOL    HW155886   8.784   4.278   2.021
18514SOL    HW255887   8.929   4.258   1.949
18515SOL     OW55888   7.975   3.980   2.190
18515SOL    HW155889   8.002   3.921   2.115
18515SOL    HW255890   7.975   4.075   2.159
18516SOL     OW55891   9.202   4.947   3.450
18516SOL    HW155892   9.293   4.908   3.437
18516SOL    HW255893   9.210   5.043   3.474
18517SOL     OW55894   8.512   5.071   3.202
18517SOL    HW155895   8.432   5.048   3.257
18517SOL    HW255896   8.595   5.045   3.251
18518SOL     OW55897   9.040   5.353   3.487
18518SOL    HW155898   9.067   5.387   3.397
18518SOL    HW255899   9.119   5.315   3.533
18519SOL     OW55900   8.559   4.919   2.962
18519SOL    HW155901   8.519   4.963   3.043
18519SOL    HW255902   8.518   4.956   2.879
18520SOL     OW55903   9.086   4.823   2.941
18520SOL    HW155904   9.091   4.904   3.000
18520SOL    HW255905   9.000   4.825   2.890
18521SOL     OW55906   8.363   3.813   3.264
18521SOL    HW155907   8.388   3.793   3.169
18521SOL    HW255908   8.435   3.869   3.306
18522SOL     OW55909   8.428   4.840   3.581
18522SOL    HW155910   8.329   4.846   3.591
18522SOL    HW255911   8.451   4.760   3.525
18523SOL     OW55912   8.153   4.774   2.230
18523SOL    HW155913   8.139   4.781   2.329
18523SOL    HW255914   8.237   4.723   2.212
18524SOL     OW55915   7.858   4.537   3.113
18524SOL    HW155916   7.944   4.549   3.163
18524SOL    HW255917   7.816   4.450   3.140
18525SOL     OW55918   8.722   4.110   3.124
18525SOL    HW155919   8.743   4.184   3.188
18525SOL    HW255920   8.633   4.127   3.081
18526SOL     OW55921   7.512   5.288   3.193
18526SOL    HW155922   7.466   5.370   3.159
18526SOL    HW255923   7.610   5.307   3.202
18527SOL     OW55924   7.815   4.824   2.363
18527SOL    HW155925   7.808   4.907   2.307
18527SOL    HW255926   7.819   4.744   2.303
18528SOL     OW55927   8.014   4.261   2.727
18528SOL    HW155928   8.026   4.327   2.653
18528SOL    HW255929   8.060   4.295   2.810
18529SOL     OW55930   8.700   5.072   2.250
18529SOL    HW155931   8.750   5.149   2.290
18529SOL    HW255932   8.605   5.074   2.282
18530SOL     OW55933   8.720   5.169   3.004
18530SOL    HW155934   8.767   5.182   3.091
18530SOL    HW255935   8.654   5.095   3.013
18531SOL     OW55936   9.030   4.363   2.334
18531SOL    HW155937   8.999   4.424   2.407
18531SOL    HW255938   9.080   4.415   2.265
18532SOL     OW55939   7.802   5.234   3.191
18532SOL    HW155940   7.781   5.190   3.104
18532SOL    HW255941   7.899   5.260   3.194
18533SOL     OW55942   7.850   4.475   3.460
18533SOL    HW155943   7.918   4.530   3.413
18533SOL    HW255944   7.890   4.387   3.487
18534SOL     OW55945   9.035   4.503   3.532
18534SOL    HW155946   8.943   4.541   3.527
18534SOL    HW255947   9.095   4.550   3.467
18535SOL     OW55948   8.461   3.829   3.632
18535SOL    HW155949   8.467   3.914   3.580
18535SOL    HW255950   8.493   3.753   3.575
18536SOL     OW55951   7.952   3.774   3.602
18536SOL    HW155952   7.910   3.717   3.532
18536SOL    HW255953   7.886   3.843   3.634
18537SOL     OW55954   8.021   4.594   2.891
18537SOL    HW155955   8.065   4.683   2.882
18537SOL    HW255956   7.958   4.594   2.968
18538SOL     OW55957   8.808   4.586   2.907
18538SOL    HW155958   8.733   4.586   2.841
18538SOL    HW255959   8.845   4.494   2.916
18539SOL     OW55960   8.657   4.249   2.137
18539SOL    HW155961   8.670   4.165   2.191
18539SOL    HW255962   8.628   4.323   2.197
18540SOL     OW55963   7.755   3.937   3.093
18540SOL    HW155964   7.732   3.974   3.183
18540SOL    HW255965   7.725   3.842   3.087
18541SOL     OW55966   7.485   5.034   3.144
18541SOL    HW155967   7.538   4.985   3.212
18541SOL    HW255968   7.507   5.132   3.149
18542SOL     OW55969   8.180   4.358   2.926
18542SOL    HW155970   8.239   4.332   2.850
18542SOL    HW255971   8.152   4.454   2.915
18543SOL     OW55972   9.176   4.659   3.716
18543SOL    HW155973   9.130   4.652   3.627
18543SOL    HW255974   9.114   4.703   3.782
18544SOL     OW55975   7.755   3.787   2.480
18544SOL    HW155976   7.744   3.881   2.513
18544SOL    HW255977   7.750   3.724   2.557
18545SOL     OW55978   9.070   4.091   2.236
18545SOL    HW155979   9.072   4.015   2.300
18545SOL    HW255980   9.022   4.168   2.276
18546SOL     OW55981   8.471   4.490   2.828
18546SOL    HW155982   8.486   4.511   2.924
18546SOL    HW255983   8.441   4.395   2.819
18547SOL     OW55984   8.428   5.297   3.562
18547SOL    HW155985   8.408   5.341   3.474
18547SOL    HW255986   8.467   5.206   3.546
18548SOL     OW55987   9.307   5.242   3.467
18548SOL    HW155988   9.321   5.269   3.372
18548SOL    HW255989   9.390   5.264   3.520
18549SOL     OW55990   7.798   4.622   3.666
18549SOL    HW155991   7.874   4.666   3.714
18549SOL    HW255992   7.833   4.575   3.584
18550SOL     OW55993   8.988   3.998   1.987
18550SOL    HW155994   8.927   3.923   2.010
18550SOL    HW255995   9.010   4.050   2.070
18551SOL     OW55996   8.751   4.562   1.904
18551SOL    HW155997   8.785   4.469   1.919
18551SOL    HW255998   8.769   4.589   1.809
18552SOL     OW55999   8.516   5.057   2.711
18552SOL    HW156000   8.523   4.973   2.656
18552SOL    HW256001   8.578   5.126   2.675
18553SOL     OW56002   7.767   4.534   2.811
18553SOL    HW156003   7.860   4.570   2.816
18553SOL    HW256004   7.761   4.449   2.863
18554SOL     OW56005   7.787   4.233   2.868
18554SOL    HW156006   7.735   4.150   2.851
18554SOL    HW256007   7.864   4.238   2.804
18555SOL     OW56008   8.586   4.104   3.540
18555SOL    HW156009   8.541   4.167   3.604
18555SOL    HW256010   8.679   4.135   3.523
18556SOL     OW56011   8.608   3.931   3.339
18556SOL    HW156012   8.608   3.995   3.416
18556SOL    HW256013   8.636   3.979   3.256
18557SOL     OW56014   7.456   5.050   2.062
18557SOL    HW156015   7.363   5.071   2.031
18557SOL    HW256016   7.466   4.951   2.075
18558SOL     OW56017   7.536   5.525   2.789
18558SOL    HW156018   7.494   5.439   2.762
18558SOL    HW256019   7.630   5.528   2.755
18559SOL     OW56020   7.952   5.292   2.772
18559SOL    HW156021   8.018   5.366   2.781
18559SOL    HW256022   7.996   5.213   2.730
18560SOL     OW56023   8.450   4.520   3.100
18560SOL    HW156024   8.491   4.488   3.186
18560SOL    HW256025   8.354   4.493   3.097
18561SOL     OW56026   7.488   4.268   2.976
18561SOL    HW156027   7.573   4.235   2.935
18561SOL    HW256028   7.501   4.283   3.074
18562SOL     OW56029   7.637   4.244   3.584
18562SOL    HW156030   7.696   4.204   3.514
18562SOL    HW256031   7.579   4.315   3.543
18563SOL     OW56032   8.817   4.674   3.522
18563SOL    HW156033   8.856   4.763   3.542
18563SOL    HW256034   8.827   4.654   3.425
18564SOL     OW56035   8.263   4.296   2.187
18564SOL    HW156036   8.270   4.207   2.141
18564SOL    HW256037   8.169   4.330   2.179
18565SOL     OW56038   9.105   4.328   3.068
18565SOL    HW156039   9.067   4.259   3.130
18565SOL    HW256040   9.187   4.292   3.024
18566SOL     OW56041   7.700   5.288   3.606
18566SOL    HW156042   7.670   5.345   3.682
18566SOL    HW256043   7.693   5.191   3.632
18567SOL     OW56044   8.119   4.188   3.131
18567SOL    HW156045   8.085   4.099   3.101
18567SOL    HW256046   8.145   4.242   3.051
18568SOL     OW56047   8.378   5.402   3.327
18568SOL    HW156048   8.354   5.384   3.232
18568SOL    HW256049   8.408   5.496   3.337
18569SOL     OW56050   7.921   4.224   2.053
18569SOL    HW156051   7.982   4.304   2.057
18569SOL    HW256052   7.826   4.255   2.060
18570SOL     OW56053   7.607   4.861   3.328
18570SOL    HW156054   7.629   4.800   3.404
18570SOL    HW256055   7.617   4.812   3.242
18571SOL     OW56056   8.795   4.783   3.096
18571SOL    HW156057   8.819   4.720   3.022
18571SOL    HW256058   8.705   4.823   3.078
18572SOL     OW56059   8.750   4.579   2.171
18572SOL    HW156060   8.664   4.548   2.213
18572SOL    HW256061   8.746   4.565   2.072
18573SOL     OW56062   9.207   5.471   3.016
18573SOL    HW156063   9.268   5.501   2.943
18573SOL    HW256064   9.169   5.382   2.994
18574SOL     OW56065   8.700   5.455   2.990
18574SOL    HW156066   8.784   5.460   2.936
18574SOL    HW256067   8.677   5.359   3.008
18575SOL     OW56068   7.531   4.982   2.884
18575SOL    HW156069   7.526   4.981   2.984
18575SOL    HW256070   7.448   4.941   2.846
18576SOL     OW56071   8.136   5.386   3.578
18576SOL    HW156072   8.080   5.467   3.587
18576SOL    HW256073   8.188   5.390   3.492
18577SOL     OW56074   9.174   3.859   2.385
18577SOL    HW156075   9.247   3.842   2.318
18577SOL    HW256076   9.143   3.772   2.423
18578SOL     OW56077   8.836   5.297   2.339
18578SOL    HW156078   8.903   5.309   2.265
18578SOL    HW256079   8.796   5.386   2.362
18579SOL     OW56080   7.578   5.518   3.713
18579SOL    HW156081   7.537   5.444   3.766
18579SOL    HW256082   7.642   5.569   3.771
18580SOL     OW56083   8.728   4.651   2.534
18580SOL    HW156084   8.788   4.570   2.536
18580SOL    HW256085   8.768   4.720   2.474
18581SOL     OW56086   8.278   4.997   3.284
18581SOL    HW156087   8.273   5.030   3.379
18581SOL    HW256088   8.192   5.016   3.238
18582SOL     OW56089   8.120   5.340   2.016
18582SOL    HW156090   8.129   5.350   1.917
18582SOL    HW256091   8.080   5.251   2.037
18583SOL     OW56092   9.098   5.444   3.256
18583SOL    HW156093   9.151   5.454   3.172
18583SOL    HW256094   9.071   5.534   3.290
18584SOL     OW56095   9.289   3.899   2.825
18584SOL    HW156096   9.328   3.814   2.789
18584SOL    HW256097   9.191   3.901   2.806
18585SOL     OW56098   7.711   4.050   2.582
18585SOL    HW156099   7.632   4.101   2.548
18585SOL    HW256100   7.702   4.035   2.680
18586SOL     OW56101   8.642   5.336   1.893
18586SOL    HW156102   8.648   5.243   1.930
18586SOL    HW256103   8.583   5.336   1.813
18587SOL     OW56104   8.270   4.726   3.234
18587SOL    HW156105   8.310   4.725   3.142
18587SOL    HW256106   8.280   4.818   3.274
18588SOL     OW56107   8.364   4.634   2.153
18588SOL    HW156108   8.427   4.672   2.085
18588SOL    HW256109   8.404   4.551   2.192
18589SOL     OW56110   8.952   5.331   1.906
18589SOL    HW156111   8.860   5.368   1.913
18589SOL    HW256112   8.990   5.351   1.816
18590SOL     OW56113   7.820   5.012   3.352
18590SOL    HW156114   7.807   5.105   3.318
18590SOL    HW256115   7.736   4.960   3.339
18591SOL     OW56116   9.062   5.016   3.151
18591SOL    HW156117   9.122   5.019   3.231
18591SOL    HW256118   8.987   5.080   3.164
18592SOL     OW56119   8.487   4.822   2.558
18592SOL    HW156120   8.417   4.775   2.612
18592SOL    HW256121   8.546   4.754   2.515
18593SOL     OW56122   8.462   3.960   2.833
18593SOL    HW156123   8.454   3.924   2.740
18593SOL    HW256124   8.460   3.884   2.898
18594SOL     OW56125   8.038   5.211   2.353
18594SOL    HW156126   8.080   5.153   2.283
18594SOL    HW256127   7.994   5.290   2.309
18595SOL     OW56128   9.157   4.109   3.243
18595SOL    HW156129   9.230   4.178   3.247
18595SOL    HW256130   9.185   4.034   3.184
18596SOL     OW56131   7.703   5.072   2.152
18596SOL    HW156132   7.607   5.073   2.125
18596SOL    HW256133   7.715   5.125   2.236
18597SOL     OW56134   7.553   4.737   3.588
18597SOL    HW156135   7.476   4.704   3.642
18597SOL    HW256136   7.638   4.707   3.630
18598SOL     OW56137   8.120   3.927   3.351
18598SOL    HW156138   8.210   3.911   3.311
18598SOL    HW256139   8.128   3.932   3.450
18599SOL     OW56140   7.523   4.069   1.895
18599SOL    HW156141   7.431   4.041   1.866
18599SOL    HW256142   7.554   4.146   1.839
18600SOL     OW56143   8.888   4.580   3.260
18600SOL    HW156144   8.831   4.632   3.197
18600SOL    HW256145   8.984   4.592   3.236
18601SOL     OW56146   7.520   3.890   2.180
18601SOL    HW156147   7.503   3.973   2.126
18601SOL    HW256148   7.610   3.853   2.158
18602SOL     OW56149   8.631   5.059   1.981
18602SOL    HW156150   8.532   5.048   1.983
18602SOL    HW256151   8.665   5.074   2.074
18603SOL     OW56152   8.061   4.566   3.293
18603SOL    HW156153   8.117   4.647   3.276
18603SOL    HW256154   8.120   4.486   3.296
18604SOL     OW56155   8.941   5.491   2.821
18604SOL    HW156156   8.974   5.555   2.752
18604SOL    HW256157   9.007   5.485   2.896
18605SOL     OW56158   8.164   4.289   3.570
18605SOL    HW156159   8.183   4.354   3.644
18605SOL    HW256160   8.224   4.209   3.579
18606SOL     OW56161   8.898   4.944   3.495
18606SOL    HW156162   8.889   4.934   3.594
18606SOL    HW256163   8.994   4.937   3.469
18607SOL     OW56164   7.838   5.465   3.422
18607SOL    HW156165   7.747   5.506   3.420
18607SOL    HW256166   7.831   5.371   3.454
18608SOL     OW56167   9.122   4.607   3.116
18608SOL    HW156168   9.095   4.518   3.079
18608SOL    HW256169   9.123   4.675   3.043
18609SOL     OW56170   8.673   4.049   2.311
18609SOL    HW156171   8.738   3.975   2.300
18609SOL    HW256172   8.693   4.099   2.395
18610SOL     OW56173   8.042   4.469   2.514
18610SOL    HW156174   8.092   4.554   2.495
18610SOL    HW256175   7.954   4.471   2.466
18611SOL     OW56176   9.225   4.066   3.504
18611SOL    HW156177   9.208   4.097   3.410
18611SOL    HW256178   9.141   4.029   3.542
18612SOL     OW56179   9.178   4.658   3.379
18612SOL    HW156180   9.216   4.749   3.394
18612SOL    HW256181   9.170   4.641   3.280
18613SOL     OW56182   8.307   5.098   1.878
18613SOL    HW156183   8.261   5.113   1.966
18613SOL    HW256184   8.351   5.183   1.848
18614SOL     OW56185   8.109   5.514   2.815
18614SOL    HW156186   8.063   5.602   2.802
18614SOL    HW256187   8.208   5.526   2.808
18615SOL     OW56188   8.307   4.680   2.723
18615SOL    HW156189   8.361   4.611   2.771
18615SOL    HW256190   8.275   4.749   2.789
18616SOL     OW56191   8.531   4.708   1.949
18616SOL    HW156192   8.508   4.761   1.867
18616SOL    HW256193   8.612   4.652   1.930
18617SOL     OW56194   9.309   5.293   2.713
18617SOL    HW156195   9.238   5.281   2.643
18617SOL    HW256196   9.310   5.214   2.773
18618SOL     OW56197   7.669   5.038   3.706
18618SOL    HW156198   7.604   4.965   3.685
18618SOL    HW256199   7.673   5.052   3.804
18619SOL     OW56200   7.527   4.964   2.515
18619SOL    HW156201   7.526   4.917   2.603
18619SOL    HW256202   7.609   4.936   2.464
18620SOL     OW56203   8.120   5.115   3.486
18620SOL    HW156204   8.042   5.065   3.524
18620SOL    HW256205   8.117   5.210   3.517
18621SOL     OW56206   9.272   3.916   3.089
18621SOL    HW156207   9.268   3.826   3.133
18621SOL    HW256208   9.275   3.905   2.990
18622SOL     OW56209   7.876   4.148   2.382
18622SOL    HW156210   7.906   4.076   2.320
18622SOL    HW256211   7.837   4.108   2.465
18623SOL     OW56212   9.153   5.211   2.966
18623SOL    HW156213   9.060   5.186   2.939
18623SOL    HW256214   9.179   5.161   3.048
18624SOL     OW56215   7.765   4.271   3.142
18624SOL    HW156216   7.803   4.212   3.214
18624SOL    HW256217   7.805   4.245   3.054
18625SOL     OW56218   8.260   5.310   2.549
18625SOL    HW156219   8.292   5.320   2.455
18625SOL    HW256220   8.181   5.248   2.551
18626SOL     OW56221   8.872   3.938   2.974
18626SOL    HW156222   8.924   3.873   3.029
18626SOL    HW256223   8.823   4.001   3.035
18627SOL     OW56224   8.449   3.758   3.016
18627SOL    HW156225   8.386   3.686   2.985
18627SOL    HW256226   8.542   3.722   3.016
18628SOL     OW56227   8.218   5.054   2.163
18628SOL    HW156228   8.172   4.967   2.180
18628SOL    HW256229   8.309   5.051   2.204
18629SOL     OW56230   8.066   5.291   3.146
18629SOL    HW156231   8.061   5.373   3.203
18629SOL    HW256232   8.155   5.288   3.101
18630SOL     OW56233   8.800   3.776   2.030
18630SOL    HW156234   8.835   3.735   1.946
18630SOL    HW256235   8.710   3.738   2.050
18631SOL     OW56236   8.748   4.177   2.553
18631SOL    HW156237   8.689   4.257   2.557
18631SOL    HW256238   8.763   4.142   2.646
18632SOL     OW56239   9.041   3.945   2.744
18632SOL    HW156240   8.957   3.944   2.798
18632SOL    HW256241   9.043   4.028   2.688
18633SOL     OW56242   7.487   4.801   2.162
18633SOL    HW156243   7.586   4.790   2.153
18633SOL    HW256244   7.447   4.715   2.194
18634SOL     OW56245   8.323   5.370   2.199
18634SOL    HW156246   8.246   5.335   2.145
18634SOL    HW256247   8.291   5.441   2.261
18635SOL     OW56248   7.678   4.352   3.837
18635SOL    HW156249   7.585   4.350   3.874
18635SOL    HW256250   7.679   4.313   3.745
18636SOL     OW56251   7.673   3.999   4.720
18636SOL    HW156252   7.708   3.982   4.812
18636SOL    HW256253   7.585   3.954   4.708
18637SOL     OW56254   7.467   4.092   4.371
18637SOL    HW156255   7.385   4.135   4.410
18637SOL    HW256256   7.439   4.019   4.308
18638SOL     OW56257   8.017   4.999   4.889
18638SOL    HW156258   7.924   4.992   4.852
18638SOL    HW256259   8.028   5.088   4.933
18639SOL     OW56260   9.003   5.235   4.427
18639SOL    HW156261   8.946   5.219   4.508
18639SOL    HW256262   8.944   5.245   4.347
18640SOL     OW56263   8.583   4.427   4.441
18640SOL    HW156264   8.640   4.505   4.416
18640SOL    HW256265   8.523   4.453   4.517
18641SOL     OW56266   9.203   4.331   3.955
18641SOL    HW156267   9.191   4.318   3.856
18641SOL    HW256268   9.173   4.250   4.004
18642SOL     OW56269   8.216   4.868   4.747
18642SOL    HW156270   8.138   4.885   4.807
18642SOL    HW256271   8.250   4.955   4.711
18643SOL     OW56272   8.298   4.522   5.547
18643SOL    HW156273   8.294   4.598   5.612
18643SOL    HW256274   8.320   4.558   5.456
18644SOL     OW56275   8.133   4.736   4.389
18644SOL    HW156276   8.202   4.720   4.459
18644SOL    HW256277   8.060   4.793   4.427
18645SOL     OW56278   8.134   4.885   5.527
18645SOL    HW156279   8.194   4.964   5.541
18645SOL    HW256280   8.048   4.916   5.486
18646SOL     OW56281   7.783   5.159   4.785
18646SOL    HW156282   7.705   5.128   4.732
18646SOL    HW256283   7.841   5.217   4.728
18647SOL     OW56284   8.908   5.229   5.063
18647SOL    HW156285   8.932   5.323   5.089
18647SOL    HW256286   8.892   5.175   5.145
18648SOL     OW56287   7.886   4.116   5.223
18648SOL    HW156288   7.968   4.060   5.232
18648SOL    HW256289   7.805   4.058   5.227
18649SOL     OW56290   9.051   4.171   4.461
18649SOL    HW156291   8.977   4.217   4.411
18649SOL    HW256292   9.102   4.239   4.514
18650SOL     OW56293   7.679   5.437   4.207
18650SOL    HW156294   7.713   5.514   4.261
18650SOL    HW256295   7.723   5.437   4.117
18651SOL     OW56296   8.575   5.065   5.414
18651SOL    HW156297   8.622   5.065   5.502
18651SOL    HW256298   8.527   4.978   5.403
18652SOL     OW56299   7.678   5.158   4.262
18652SOL    HW156300   7.652   5.254   4.262
18652SOL    HW256301   7.607   5.104   4.307
18653SOL     OW56302   7.688   4.815   4.610
18653SOL    HW156303   7.702   4.731   4.662
18653SOL    HW256304   7.633   4.879   4.665
18654SOL     OW56305   8.068   5.510   5.163
18654SOL    HW156306   7.976   5.493   5.198
18654SOL    HW256307   8.096   5.602   5.189
18655SOL     OW56308   8.054   4.688   3.847
18655SOL    HW156309   8.061   4.772   3.793
18655SOL    HW256310   8.100   4.701   3.935
18656SOL     OW56311   9.042   3.838   5.204
18656SOL    HW156312   9.024   3.905   5.132
18656SOL    HW256313   9.039   3.884   5.293
18657SOL     OW56314   7.570   4.367   4.287
18657SOL    HW156315   7.525   4.279   4.304
18657SOL    HW256316   7.569   4.421   4.371
18658SOL     OW56317   9.290   5.491   4.083
18658SOL    HW156318   9.344   5.462   4.163
18658SOL    HW256319   9.320   5.581   4.054
18659SOL     OW56320   7.475   5.320   3.841
18659SOL    HW156321   7.456   5.224   3.862
18659SOL    HW256322   7.442   5.378   3.916
18660SOL     OW56323   9.137   4.646   4.336
18660SOL    HW156324   9.232   4.617   4.344
18660SOL    HW256325   9.129   4.711   4.261
18661SOL     OW56326   9.089   4.832   4.156
18661SOL    HW156327   9.175   4.834   4.104
18661SOL    HW256328   9.103   4.879   4.244
18662SOL     OW56329   7.561   4.461   5.321
18662SOL    HW156330   7.649   4.448   5.366
18662SOL    HW256331   7.548   4.558   5.299
18663SOL     OW56332   8.061   5.089   4.450
18663SOL    HW156333   8.012   5.002   4.459
18663SOL    HW256334   8.038   5.132   4.363
18664SOL     OW56335   8.741   4.952   5.147
18664SOL    HW156336   8.778   4.879   5.089
18664SOL    HW256337   8.793   4.957   5.232
18665SOL     OW56338   8.257   3.728   4.226
18665SOL    HW156339   8.297   3.819   4.217
18665SOL    HW256340   8.157   3.736   4.232
18666SOL     OW56341   7.645   4.700   4.988
18666SOL    HW156342   7.734   4.655   4.974
18666SOL    HW256343   7.572   4.635   4.969
18667SOL     OW56344   8.973   4.723   3.914
18667SOL    HW156345   8.910   4.647   3.927
18667SOL    HW256346   9.021   4.741   4.000
18668SOL     OW56347   8.635   5.516   5.340
18668SOL    HW156348   8.659   5.576   5.264
18668SOL    HW256349   8.642   5.421   5.310
18669SOL     OW56350   7.765   3.975   5.525
18669SOL    HW156351   7.836   4.046   5.531
18669SOL    HW256352   7.677   4.014   5.553
18670SOL     OW56353   8.914   5.141   4.677
18670SOL    HW156354   8.855   5.147   4.757
18670SOL    HW256355   8.899   5.053   4.631
18671SOL     OW56356   9.115   5.438   4.296
18671SOL    HW156357   9.074   5.415   4.208
18671SOL    HW256358   9.097   5.364   4.361
18672SOL     OW56359   8.046   4.453   3.994
18672SOL    HW156360   8.070   4.522   3.926
18672SOL    HW256361   7.968   4.486   4.048
18673SOL     OW56362   8.729   4.069   4.668
18673SOL    HW156363   8.643   4.019   4.655
18673SOL    HW256364   8.791   4.015   4.724
18674SOL     OW56365   9.024   5.386   4.031
18674SOL    HW156366   9.113   5.432   4.034
18674SOL    HW256367   9.003   5.362   3.936
18675SOL     OW56368   8.255   4.329   5.189
18675SOL    HW156369   8.208   4.326   5.278
18675SOL    HW256370   8.204   4.274   5.123
18676SOL     OW56371   8.842   4.193   5.398
18676SOL    HW156372   8.822   4.236   5.486
18676SOL    HW256373   8.920   4.131   5.407
18677SOL     OW56374   8.421   4.614   5.296
18677SOL    HW156375   8.467   4.530   5.267
18677SOL    HW256376   8.365   4.648   5.221
18678SOL     OW56377   8.439   4.134   4.966
18678SOL    HW156378   8.362   4.168   5.020
18678SOL    HW256379   8.405   4.083   4.887
18679SOL     OW56380   8.489   4.425   4.153
18679SOL    HW156381   8.515   4.421   4.249
18679SOL    HW256382   8.404   4.374   4.139
18680SOL     OW56383   7.524   4.535   4.513
18680SOL    HW156384   7.623   4.523   4.522
18680SOL    HW256385   7.500   4.630   4.534
18681SOL     OW56386   7.578   5.545   5.295
18681SOL    HW156387   7.568   5.530   5.394
18681SOL    HW256388   7.492   5.581   5.259
18682SOL     OW56389   8.313   4.072   3.919
18682SOL    HW156390   8.372   4.135   3.870
18682SOL    HW256391   8.332   3.978   3.890
18683SOL     OW56392   9.167   4.309   5.555
18683SOL    HW156393   9.141   4.398   5.519
18683SOL    HW256394   9.165   4.241   5.482
18684SOL     OW56395   8.810   4.868   4.269
18684SOL    HW156396   8.893   4.839   4.221
18684SOL    HW256397   8.761   4.935   4.213
18685SOL     OW56398   7.998   3.920   4.609
18685SOL    HW156399   7.993   3.915   4.709
18685SOL    HW256400   8.000   4.016   4.580
18686SOL     OW56401   8.456   5.180   4.201
18686SOL    HW156402   8.410   5.252   4.149
18686SOL    HW256403   8.452   5.200   4.299
18687SOL     OW56404   7.799   5.525   4.577
18687SOL    HW156405   7.849   5.439   4.583
18687SOL    HW256406   7.864   5.602   4.574
18688SOL     OW56407   9.243   4.790   4.597
18688SOL    HW156408   9.181   4.775   4.521
18688SOL    HW256409   9.191   4.801   4.682
18689SOL     OW56410   8.675   5.274   5.230
18689SOL    HW156411   8.681   5.197   5.294
18689SOL    HW256412   8.623   5.248   5.150
18690SOL     OW56413   7.769   4.667   3.966
18690SOL    HW156414   7.851   4.706   3.924
18690SOL    HW256415   7.742   4.585   3.917
18691SOL     OW56416   8.906   4.459   4.452
18691SOL    HW156417   8.901   4.394   4.527
18691SOL    HW256418   8.986   4.518   4.465
18692SOL     OW56419   7.909   4.990   5.451
18692SOL    HW156420   7.859   4.991   5.365
18692SOL    HW256421   7.846   4.972   5.527
18693SOL     OW56422   8.559   5.500   3.961
18693SOL    HW156423   8.499   5.438   4.011
18693SOL    HW256424   8.590   5.456   3.876
18694SOL     OW56425   7.650   4.009   5.222
18694SOL    HW156426   7.570   4.069   5.209
18694SOL    HW256427   7.640   3.960   5.308
18695SOL     OW56428   9.080   5.101   3.805
18695SOL    HW156429   9.048   5.195   3.795
18695SOL    HW256430   9.004   5.038   3.793
18696SOL     OW56431   7.912   5.467   4.047
18696SOL    HW156432   7.945   5.506   4.133
18696SOL    HW256433   7.988   5.460   3.982
18697SOL     OW56434   8.848   3.831   4.150
18697SOL    HW156435   8.824   3.794   4.060
18697SOL    HW256436   8.947   3.847   4.154
18698SOL     OW56437   7.697   5.509   4.965
18698SOL    HW156438   7.754   5.444   5.015
18698SOL    HW256439   7.681   5.476   4.872
18699SOL     OW56440   8.388   5.422   4.628
18699SOL    HW156441   8.468   5.365   4.649
18699SOL    HW256442   8.339   5.382   4.551
18700SOL     OW56443   7.830   4.424   4.204
18700SOL    HW156444   7.875   4.334   4.201
18700SOL    HW256445   7.736   4.413   4.237
18701SOL     OW56446   8.995   3.946   5.453
18701SOL    HW156447   8.990   3.983   5.545
18701SOL    HW256448   8.923   3.877   5.441
18702SOL     OW56449   8.062   3.846   3.841
18702SOL    HW156450   8.160   3.824   3.848
18702SOL    HW256451   8.031   3.829   3.748
18703SOL     OW56452   8.229   3.988   5.473
18703SOL    HW156453   8.296   3.927   5.516
18703SOL    HW256454   8.156   4.007   5.538
18704SOL     OW56455   8.336   5.238   4.919
18704SOL    HW156456   8.313   5.213   4.825
18704SOL    HW256457   8.397   5.169   4.958
18705SOL     OW56458   8.799   4.314   5.157
18705SOL    HW156459   8.827   4.271   5.242
18705SOL    HW256460   8.824   4.410   5.158
18706SOL     OW56461   8.251   5.126   4.648
18706SOL    HW156462   8.341   5.140   4.606
18706SOL    HW256463   8.180   5.128   4.577
18707SOL     OW56464   8.370   4.227   4.623
18707SOL    HW156465   8.345   4.218   4.527
18707SOL    HW256466   8.418   4.145   4.654
18708SOL     OW56467   7.987   3.788   4.236
18708SOL    HW156468   7.906   3.789   4.294
18708SOL    HW256469   7.990   3.871   4.181
18709SOL     OW56470   8.882   4.912   3.765
18709SOL    HW156471   8.914   4.836   3.822
18709SOL    HW256472   8.790   4.939   3.795
18710SOL     OW56473   7.745   3.759   3.895
18710SOL    HW156474   7.794   3.843   3.874
18710SOL    HW256475   7.807   3.694   3.940
18711SOL     OW56476   8.383   3.960   4.204
18711SOL    HW156477   8.335   4.001   4.126
18711SOL    HW256478   8.482   3.958   4.185
18712SOL     OW56479   8.524   4.407   5.188
18712SOL    HW156480   8.444   4.346   5.191
18712SOL    HW256481   8.605   4.354   5.164
18713SOL     OW56482   8.675   5.294   4.517
18713SOL    HW156483   8.696   5.368   4.452
18713SOL    HW256484   8.743   5.294   4.590
18714SOL     OW56485   7.907   4.876   4.465
18714SOL    HW156486   7.836   4.849   4.530
18714SOL    HW256487   7.881   4.848   4.372
18715SOL     OW56488   8.719   5.521   4.315
18715SOL    HW156489   8.763   5.585   4.251
18715SOL    HW256490   8.669   5.573   4.385
18716SOL     OW56491   8.480   4.273   3.740
18716SOL    HW156492   8.439   4.355   3.701
18716SOL    HW256493   8.544   4.299   3.813
18717SOL     OW56494   7.526   4.280   5.110
18717SOL    HW156495   7.618   4.279   5.069
18717SOL    HW256496   7.520   4.354   5.177
18718SOL     OW56497   8.009   3.946   4.871
18718SOL    HW156498   8.047   3.862   4.908
18718SOL    HW256499   7.921   3.965   4.915
18719SOL     OW56500   8.314   4.178   4.366
18719SOL    HW156501   8.282   4.250   4.304
18719SOL    HW256502   8.338   4.097   4.313
18720SOL     OW56503   8.465   3.763   4.477
18720SOL    HW156504   8.393   3.768   4.408
18720SOL    HW256505   8.441   3.694   4.546
18721SOL     OW56506   8.877   4.897   4.591
18721SOL    HW156507   8.822   4.813   4.584
18721SOL    HW256508   8.903   4.926   4.499
18722SOL     OW56509   8.914   4.314   4.716
18722SOL    HW156510   8.884   4.219   4.723
18722SOL    HW256511   8.987   4.330   4.782
18723SOL     OW56512   9.305   4.557   4.101
18723SOL    HW156513   9.347   4.493   4.165
18723SOL    HW256514   9.267   4.506   4.023
18724SOL     OW56515   7.936   5.109   3.898
18724SOL    HW156516   7.849   5.094   3.945
18724SOL    HW256517   7.919   5.135   3.803
18725SOL     OW56518   9.112   5.004   4.381
18725SOL    HW156519   9.211   5.012   4.395
18725SOL    HW256520   9.067   5.088   4.412
18726SOL     OW56521   8.838   4.299   3.802
18726SOL    HW156522   8.784   4.278   3.883
18726SOL    HW256523   8.929   4.258   3.811
18727SOL     OW56524   7.975   3.980   4.052
18727SOL    HW156525   8.002   3.921   3.977
18727SOL    HW256526   7.975   4.075   4.021
18728SOL     OW56527   9.202   4.947   5.312
18728SOL    HW156528   9.293   4.908   5.299
18728SOL    HW256529   9.210   5.043   5.336
18729SOL     OW56530   8.512   5.071   5.064
18729SOL    HW156531   8.432   5.048   5.119
18729SOL    HW256532   8.595   5.045   5.113
18730SOL     OW56533   9.040   5.353   5.349
18730SOL    HW156534   9.067   5.387   5.259
18730SOL    HW256535   9.119   5.315   5.395
18731SOL     OW56536   8.559   4.919   4.824
18731SOL    HW156537   8.519   4.963   4.905
18731SOL    HW256538   8.518   4.956   4.741
18732SOL     OW56539   9.086   4.823   4.803
18732SOL    HW156540   9.091   4.904   4.862
18732SOL    HW256541   9.000   4.825   4.752
18733SOL     OW56542   8.363   3.813   5.126
18733SOL    HW156543   8.388   3.793   5.031
18733SOL    HW256544   8.435   3.869   5.168
18734SOL     OW56545   8.428   4.840   5.443
18734SOL    HW156546   8.329   4.846   5.453
18734SOL    HW256547   8.451   4.760   5.387
18735SOL     OW56548   8.153   4.774   4.092
18735SOL    HW156549   8.139   4.781   4.191
18735SOL    HW256550   8.237   4.723   4.074
18736SOL     OW56551   7.858   4.537   4.975
18736SOL    HW156552   7.944   4.549   5.025
18736SOL    HW256553   7.816   4.450   5.002
18737SOL     OW56554   8.722   4.110   4.986
18737SOL    HW156555   8.743   4.184   5.050
18737SOL    HW256556   8.633   4.127   4.943
18738SOL     OW56557   7.512   5.288   5.055
18738SOL    HW156558   7.466   5.370   5.021
18738SOL    HW256559   7.610   5.307   5.064
18739SOL     OW56560   7.815   4.824   4.225
18739SOL    HW156561   7.808   4.907   4.169
18739SOL    HW256562   7.819   4.744   4.165
18740SOL     OW56563   8.014   4.261   4.589
18740SOL    HW156564   8.026   4.327   4.515
18740SOL    HW256565   8.060   4.295   4.672
18741SOL     OW56566   8.700   5.072   4.112
18741SOL    HW156567   8.750   5.149   4.152
18741SOL    HW256568   8.605   5.074   4.144
18742SOL     OW56569   8.720   5.169   4.866
18742SOL    HW156570   8.767   5.182   4.953
18742SOL    HW256571   8.654   5.095   4.875
18743SOL     OW56572   9.030   4.363   4.196
18743SOL    HW156573   8.999   4.424   4.269
18743SOL    HW256574   9.080   4.415   4.127
18744SOL     OW56575   7.802   5.234   5.053
18744SOL    HW156576   7.781   5.190   4.966
18744SOL    HW256577   7.899   5.260   5.056
18745SOL     OW56578   7.850   4.475   5.322
18745SOL    HW156579   7.918   4.530   5.275
18745SOL    HW256580   7.890   4.387   5.349
18746SOL     OW56581   9.035   4.503   5.394
18746SOL    HW156582   8.943   4.541   5.389
18746SOL    HW256583   9.095   4.550   5.329
18747SOL     OW56584   8.461   3.829   5.494
18747SOL    HW156585   8.467   3.914   5.442
18747SOL    HW256586   8.493   3.753   5.437
18748SOL     OW56587   7.952   3.774   5.464
18748SOL    HW156588   7.910   3.717   5.394
18748SOL    HW256589   7.886   3.843   5.496
18749SOL     OW56590   8.021   4.594   4.753
18749SOL    HW156591   8.065   4.683   4.744
18749SOL    HW256592   7.958   4.594   4.830
18750SOL     OW56593   8.808   4.586   4.769
18750SOL    HW156594   8.733   4.586   4.703
18750SOL    HW256595   8.845   4.494   4.778
18751SOL     OW56596   8.657   4.249   3.999
18751SOL    HW156597   8.670   4.165   4.053
18751SOL    HW256598   8.628   4.323   4.059
18752SOL     OW56599   7.755   3.937   4.955
18752SOL    HW156600   7.732   3.974   5.045
18752SOL    HW256601   7.725   3.842   4.949
18753SOL     OW56602   7.485   5.034   5.006
18753SOL    HW156603   7.538   4.985   5.074
18753SOL    HW256604   7.507   5.132   5.011
18754SOL     OW56605   8.180   4.358   4.788
18754SOL    HW156606   8.239   4.332   4.712
18754SOL    HW256607   8.152   4.454   4.777
18755SOL     OW56608   9.176   4.659   5.578
18755SOL    HW156609   9.130   4.652   5.489
18755SOL    HW256610   9.114   4.703   5.644
18756SOL     OW56611   7.755   3.787   4.342
18756SOL    HW156612   7.744   3.881   4.375
18756SOL    HW256613   7.750   3.724   4.419
18757SOL     OW56614   9.070   4.091   4.098
18757SOL    HW156615   9.072   4.015   4.162
18757SOL    HW256616   9.022   4.168   4.138
18758SOL     OW56617   8.471   4.490   4.690
18758SOL    HW156618   8.486   4.511   4.786
18758SOL    HW256619   8.441   4.395   4.681
18759SOL     OW56620   8.428   5.297   5.424
18759SOL    HW156621   8.408   5.341   5.336
18759SOL    HW256622   8.467   5.206   5.408
18760SOL     OW56623   9.307   5.242   5.329
18760SOL    HW156624   9.321   5.269   5.234
18760SOL    HW256625   9.390   5.264   5.382
18761SOL     OW56626   7.798   4.622   5.528
18761SOL    HW156627   7.874   4.666   5.576
18761SOL    HW256628   7.833   4.575   5.446
18762SOL     OW56629   8.988   3.998   3.849
18762SOL    HW156630   8.927   3.923   3.872
18762SOL    HW256631   9.010   4.050   3.932
18763SOL     OW56632   8.751   4.562   3.766
18763SOL    HW156633   8.785   4.469   3.781
18763SOL    HW256634   8.769   4.589   3.671
18764SOL     OW56635   8.516   5.057   4.573
18764SOL    HW156636   8.523   4.973   4.518
18764SOL    HW256637   8.578   5.126   4.537
18765SOL     OW56638   7.767   4.534   4.673
18765SOL    HW156639   7.860   4.570   4.678
18765SOL    HW256640   7.761   4.449   4.725
18766SOL     OW56641   7.787   4.233   4.730
18766SOL    HW156642   7.735   4.150   4.713
18766SOL    HW256643   7.864   4.238   4.666
18767SOL     OW56644   8.586   4.104   5.402
18767SOL    HW156645   8.541   4.167   5.466
18767SOL    HW256646   8.679   4.135   5.385
18768SOL     OW56647   8.608   3.931   5.201
18768SOL    HW156648   8.608   3.995   5.278
18768SOL    HW256649   8.636   3.979   5.118
18769SOL     OW56650   7.456   5.050   3.924
18769SOL    HW156651   7.363   5.071   3.893
18769SOL    HW256652   7.466   4.951   3.937
18770SOL     OW56653   7.536   5.525   4.651
18770SOL    HW156654   7.494   5.439   4.624
18770SOL    HW256655   7.630   5.528   4.617
18771SOL     OW56656   7.952   5.292   4.634
18771SOL    HW156657   8.018   5.366   4.643
18771SOL    HW256658   7.996   5.213   4.592
18772SOL     OW56659   8.450   4.520   4.962
18772SOL    HW156660   8.491   4.488   5.048
18772SOL    HW256661   8.354   4.493   4.959
18773SOL     OW56662   7.488   4.268   4.838
18773SOL    HW156663   7.573   4.235   4.797
18773SOL    HW256664   7.501   4.283   4.936
18774SOL     OW56665   7.637   4.244   5.446
18774SOL    HW156666   7.696   4.204   5.376
18774SOL    HW256667   7.579   4.315   5.405
18775SOL     OW56668   8.817   4.674   5.384
18775SOL    HW156669   8.856   4.763   5.404
18775SOL    HW256670   8.827   4.654   5.287
18776SOL     OW56671   8.263   4.296   4.049
18776SOL    HW156672   8.270   4.207   4.003
18776SOL    HW256673   8.169   4.330   4.041
18777SOL     OW56674   9.105   4.328   4.930
18777SOL    HW156675   9.067   4.259   4.992
18777SOL    HW256676   9.187   4.292   4.886
18778SOL     OW56677   7.700   5.288   5.468
18778SOL    HW156678   7.670   5.345   5.544
18778SOL    HW256679   7.693   5.191   5.494
18779SOL     OW56680   8.119   4.188   4.993
18779SOL    HW156681   8.085   4.099   4.963
18779SOL    HW256682   8.145   4.242   4.913
18780SOL     OW56683   8.378   5.402   5.189
18780SOL    HW156684   8.354   5.384   5.094
18780SOL    HW256685   8.408   5.496   5.199
18781SOL     OW56686   7.921   4.224   3.915
18781SOL    HW156687   7.982   4.304   3.919
18781SOL    HW256688   7.826   4.255   3.922
18782SOL     OW56689   7.607   4.861   5.190
18782SOL    HW156690   7.629   4.800   5.266
18782SOL    HW256691   7.617   4.812   5.104
18783SOL     OW56692   8.795   4.783   4.958
18783SOL    HW156693   8.819   4.720   4.884
18783SOL    HW256694   8.705   4.823   4.940
18784SOL     OW56695   8.750   4.579   4.033
18784SOL    HW156696   8.664   4.548   4.075
18784SOL    HW256697   8.746   4.565   3.934
18785SOL     OW56698   9.207   5.471   4.878
18785SOL    HW156699   9.268   5.501   4.805
18785SOL    HW256700   9.169   5.382   4.856
18786SOL     OW56701   8.700   5.455   4.852
18786SOL    HW156702   8.784   5.460   4.798
18786SOL    HW256703   8.677   5.359   4.870
18787SOL     OW56704   7.531   4.982   4.746
18787SOL    HW156705   7.526   4.981   4.846
18787SOL    HW256706   7.448   4.941   4.708
18788SOL     OW56707   8.136   5.386   5.440
18788SOL    HW156708   8.080   5.467   5.449
18788SOL    HW256709   8.188   5.390   5.354
18789SOL     OW56710   9.174   3.859   4.247
18789SOL    HW156711   9.247   3.842   4.180
18789SOL    HW256712   9.143   3.772   4.285
18790SOL     OW56713   8.836   5.297   4.201
18790SOL    HW156714   8.903   5.309   4.127
18790SOL    HW256715   8.796   5.386   4.224
18791SOL     OW56716   7.578   5.518   5.575
18791SOL    HW156717   7.537   5.444   5.628
18791SOL    HW256718   7.642   5.569   5.633
18792SOL     OW56719   8.728   4.651   4.396
18792SOL    HW156720   8.788   4.570   4.398
18792SOL    HW256721   8.768   4.720   4.336
18793SOL     OW56722   8.278   4.997   5.146
18793SOL    HW156723   8.273   5.030   5.241
18793SOL    HW256724   8.192   5.016   5.100
18794SOL     OW56725   8.120   5.340   3.878
18794SOL    HW156726   8.129   5.350   3.779
18794SOL    HW256727   8.080   5.251   3.899
18795SOL     OW56728   9.098   5.444   5.118
18795SOL    HW156729   9.151   5.454   5.034
18795SOL    HW256730   9.071   5.534   5.152
18796SOL     OW56731   9.289   3.899   4.687
18796SOL    HW156732   9.328   3.814   4.651
18796SOL    HW256733   9.191   3.901   4.668
18797SOL     OW56734   7.711   4.050   4.444
18797SOL    HW156735   7.632   4.101   4.410
18797SOL    HW256736   7.702   4.035   4.542
18798SOL     OW56737   8.642   5.336   3.755
18798SOL    HW156738   8.648   5.243   3.792
18798SOL    HW256739   8.583   5.336   3.675
18799SOL     OW56740   8.270   4.726   5.096
18799SOL    HW156741   8.310   4.725   5.004
18799SOL    HW256742   8.280   4.818   5.136
18800SOL     OW56743   8.364   4.634   4.015
18800SOL    HW156744   8.427   4.672   3.947
18800SOL    HW256745   8.404   4.551   4.054
18801SOL     OW56746   8.952   5.331   3.768
18801SOL    HW156747   8.860   5.368   3.775
18801SOL    HW256748   8.990   5.351   3.678
18802SOL     OW56749   7.820   5.012   5.214
18802SOL    HW156750   7.807   5.105   5.180
18802SOL    HW256751   7.736   4.960   5.201
18803SOL     OW56752   9.062   5.016   5.013
18803SOL    HW156753   9.122   5.019   5.093
18803SOL    HW256754   8.987   5.080   5.026
18804SOL     OW56755   8.487   4.822   4.420
18804SOL    HW156756   8.417   4.775   4.474
18804SOL    HW256757   8.546   4.754   4.377
18805SOL     OW56758   8.462   3.960   4.695
18805SOL    HW156759   8.454   3.924   4.602
18805SOL    HW256760   8.460   3.884   4.760
18806SOL     OW56761   8.038   5.211   4.215
18806SOL    HW156762   8.080   5.153   4.145
18806SOL    HW256763   7.994   5.290   4.171
18807SOL     OW56764   9.157   4.109   5.105
18807SOL    HW156765   9.230   4.178   5.109
18807SOL    HW256766   9.185   4.034   5.046
18808SOL     OW56767   7.703   5.072   4.014
18808SOL    HW156768   7.607   5.073   3.987
18808SOL    HW256769   7.715   5.125   4.098
18809SOL     OW56770   7.553   4.737   5.450
18809SOL    HW156771   7.476   4.704   5.504
18809SOL    HW256772   7.638   4.707   5.492
18810SOL     OW56773   8.120   3.927   5.213
18810SOL    HW156774   8.210   3.911   5.173
18810SOL    HW256775   8.128   3.932   5.312
18811SOL     OW56776   7.523   4.069   3.757
18811SOL    HW156777   7.431   4.041   3.728
18811SOL    HW256778   7.554   4.146   3.701
18812SOL     OW56779   8.888   4.580   5.122
18812SOL    HW156780   8.831   4.632   5.059
18812SOL    HW256781   8.984   4.592   5.098
18813SOL     OW56782   7.520   3.890   4.042
18813SOL    HW156783   7.503   3.973   3.988
18813SOL    HW256784   7.610   3.853   4.020
18814SOL     OW56785   8.631   5.059   3.843
18814SOL    HW156786   8.532   5.048   3.845
18814SOL    HW256787   8.665   5.074   3.936
18815SOL     OW56788   8.061   4.566   5.155
18815SOL    HW156789   8.117   4.647   5.138
18815SOL    HW256790   8.120   4.486   5.158
18816SOL     OW56791   8.941   5.491   4.683
18816SOL    HW156792   8.974   5.555   4.614
18816SOL    HW256793   9.007   5.485   4.758
18817SOL     OW56794   8.164   4.289   5.432
18817SOL    HW156795   8.183   4.354   5.506
18817SOL    HW256796   8.224   4.209   5.441
18818SOL     OW56797   8.898   4.944   5.357
18818SOL    HW156798   8.889   4.934   5.456
18818SOL    HW256799   8.994   4.937   5.331
18819SOL     OW56800   7.838   5.465   5.284
18819SOL    HW156801   7.747   5.506   5.282
18819SOL    HW256802   7.831   5.371   5.316
18820SOL     OW56803   9.122   4.607   4.978
18820SOL    HW156804   9.095   4.518   4.941
18820SOL    HW256805   9.123   4.675   4.905
18821SOL     OW56806   8.673   4.049   4.173
18821SOL    HW156807   8.738   3.975   4.162
18821SOL    HW256808   8.693   4.099   4.257
18822SOL     OW56809   8.042   4.469   4.376
18822SOL    HW156810   8.092   4.554   4.357
18822SOL    HW256811   7.954   4.471   4.328
18823SOL     OW56812   9.225   4.066   5.366
18823SOL    HW156813   9.208   4.097   5.272
18823SOL    HW256814   9.141   4.029   5.404
18824SOL     OW56815   9.178   4.658   5.241
18824SOL    HW156816   9.216   4.749   5.256
18824SOL    HW256817   9.170   4.641   5.142
18825SOL     OW56818   8.307   5.098   3.740
18825SOL    HW156819   8.261   5.113   3.828
18825SOL    HW256820   8.351   5.183   3.710
18826SOL     OW56821   8.109   5.514   4.677
18826SOL    HW156822   8.063   5.602   4.664
18826SOL    HW256823   8.208   5.526   4.670
18827SOL     OW56824   8.307   4.680   4.585
18827SOL    HW156825   8.361   4.611   4.633
18827SOL    HW256826   8.275   4.749   4.651
18828SOL     OW56827   8.531   4.708   3.811
18828SOL    HW156828   8.508   4.761   3.729
18828SOL    HW256829   8.612   4.652   3.792
18829SOL     OW56830   9.309   5.293   4.575
18829SOL    HW156831   9.238   5.281   4.505
18829SOL    HW256832   9.310   5.214   4.635
18830SOL     OW56833   7.669   5.038   5.568
18830SOL    HW156834   7.604   4.965   5.547
18830SOL    HW256835   7.673   5.052   5.666
18831SOL     OW56836   7.527   4.964   4.377
18831SOL    HW156837   7.526   4.917   4.465
18831SOL    HW256838   7.609   4.936   4.326
18832SOL     OW56839   8.120   5.115   5.348
18832SOL    HW156840   8.042   5.065   5.386
18832SOL    HW256841   8.117   5.210   5.379
18833SOL     OW56842   9.272   3.916   4.951
18833SOL    HW156843   9.268   3.826   4.995
18833SOL    HW256844   9.275   3.905   4.852
18834SOL     OW56845   7.876   4.148   4.244
18834SOL    HW156846   7.906   4.076   4.182
18834SOL    HW256847   7.837   4.108   4.327
18835SOL     OW56848   9.153   5.211   4.828
18835SOL    HW156849   9.060   5.186   4.801
18835SOL    HW256850   9.179   5.161   4.910
18836SOL     OW56851   7.765   4.271   5.004
18836SOL    HW156852   7.803   4.212   5.076
18836SOL    HW256853   7.805   4.245   4.916
18837SOL     OW56854   8.260   5.310   4.411
18837SOL    HW156855   8.292   5.320   4.317
18837SOL    HW256856   8.181   5.248   4.413
18838SOL     OW56857   8.872   3.938   4.836
18838SOL    HW156858   8.924   3.873   4.891
18838SOL    HW256859   8.823   4.001   4.897
18839SOL     OW56860   8.449   3.758   4.878
18839SOL    HW156861   8.386   3.686   4.847
18839SOL    HW256862   8.542   3.722   4.878
18840SOL     OW56863   8.218   5.054   4.025
18840SOL    HW156864   8.172   4.967   4.042
18840SOL    HW256865   8.309   5.051   4.066
18841SOL     OW56866   8.066   5.291   5.008
18841SOL    HW156867   8.061   5.373   5.065
18841SOL    HW256868   8.155   5.288   4.963
18842SOL     OW56869   8.800   3.776   3.892
18842SOL    HW156870   8.835   3.735   3.808
18842SOL    HW256871   8.710   3.738   3.912
18843SOL     OW56872   8.748   4.177   4.415
18843SOL    HW156873   8.689   4.257   4.419
18843SOL    HW256874   8.763   4.142   4.508
18844SOL     OW56875   9.041   3.945   4.606
18844SOL    HW156876   8.957   3.944   4.660
18844SOL    HW256877   9.043   4.028   4.550
18845SOL     OW56878   7.487   4.801   4.024
18845SOL    HW156879   7.586   4.790   4.015
18845SOL    HW256880   7.447   4.715   4.056
18846SOL     OW56881   8.323   5.370   4.061
18846SOL    HW156882   8.246   5.335   4.007
18846SOL    HW256883   8.291   5.441   4.123
18847SOL     OW56884   7.678   4.352   5.699
18847SOL    HW156885   7.585   4.350   5.736
18847SOL    HW256886   7.679   4.313   5.607
18848SOL     OW56887   7.673   3.999   6.582
18848SOL    HW156888   7.708   3.982   6.674
18848SOL    HW256889   7.585   3.954   6.570
18849SOL     OW56890   7.467   4.092   6.233
18849SOL    HW156891   7.385   4.135   6.272
18849SOL    HW256892   7.439   4.019   6.170
18850SOL     OW56893   8.017   4.999   6.751
18850SOL    HW156894   7.924   4.992   6.714
18850SOL    HW256895   8.028   5.088   6.795
18851SOL     OW56896   9.003   5.235   6.289
18851SOL    HW156897   8.946   5.219   6.370
18851SOL    HW256898   8.944   5.245   6.209
18852SOL     OW56899   8.583   4.427   6.303
18852SOL    HW156900   8.640   4.505   6.278
18852SOL    HW256901   8.523   4.453   6.379
18853SOL     OW56902   9.203   4.331   5.817
18853SOL    HW156903   9.191   4.318   5.718
18853SOL    HW256904   9.173   4.250   5.866
18854SOL     OW56905   8.216   4.868   6.609
18854SOL    HW156906   8.138   4.885   6.669
18854SOL    HW256907   8.250   4.955   6.573
18855SOL     OW56908   8.298   4.522   7.409
18855SOL    HW156909   8.294   4.598   7.474
18855SOL    HW256910   8.320   4.558   7.318
18856SOL     OW56911   8.133   4.736   6.251
18856SOL    HW156912   8.202   4.720   6.321
18856SOL    HW256913   8.060   4.793   6.289
18857SOL     OW56914   8.134   4.885   7.389
18857SOL    HW156915   8.194   4.964   7.403
18857SOL    HW256916   8.048   4.916   7.348
18858SOL     OW56917   7.783   5.159   6.647
18858SOL    HW156918   7.705   5.128   6.594
18858SOL    HW256919   7.841   5.217   6.590
18859SOL     OW56920   8.908   5.229   6.925
18859SOL    HW156921   8.932   5.323   6.951
18859SOL    HW256922   8.892   5.175   7.007
18860SOL     OW56923   7.886   4.116   7.085
18860SOL    HW156924   7.968   4.060   7.094
18860SOL    HW256925   7.805   4.058   7.089
18861SOL     OW56926   9.051   4.171   6.323
18861SOL    HW156927   8.977   4.217   6.273
18861SOL    HW256928   9.102   4.239   6.376
18862SOL     OW56929   7.679   5.437   6.069
18862SOL    HW156930   7.713   5.514   6.123
18862SOL    HW256931   7.723   5.437   5.979
18863SOL     OW56932   8.575   5.065   7.276
18863SOL    HW156933   8.622   5.065   7.364
18863SOL    HW256934   8.527   4.978   7.265
18864SOL     OW56935   7.678   5.158   6.124
18864SOL    HW156936   7.652   5.254   6.124
18864SOL    HW256937   7.607   5.104   6.169
18865SOL     OW56938   7.688   4.815   6.472
18865SOL    HW156939   7.702   4.731   6.524
18865SOL    HW256940   7.633   4.879   6.527
18866SOL     OW56941   8.068   5.510   7.025
18866SOL    HW156942   7.976   5.493   7.060
18866SOL    HW256943   8.096   5.602   7.051
18867SOL     OW56944   8.054   4.688   5.709
18867SOL    HW156945   8.061   4.772   5.655
18867SOL    HW256946   8.100   4.701   5.797
18868SOL     OW56947   9.042   3.838   7.066
18868SOL    HW156948   9.024   3.905   6.994
18868SOL    HW256949   9.039   3.884   7.155
18869SOL     OW56950   7.570   4.367   6.149
18869SOL    HW156951   7.525   4.279   6.166
18869SOL    HW256952   7.569   4.421   6.233
18870SOL     OW56953   9.290   5.491   5.945
18870SOL    HW156954   9.344   5.462   6.025
18870SOL    HW256955   9.320   5.581   5.916
18871SOL     OW56956   7.475   5.320   5.703
18871SOL    HW156957   7.456   5.224   5.724
18871SOL    HW256958   7.442   5.378   5.778
18872SOL     OW56959   9.137   4.646   6.198
18872SOL    HW156960   9.232   4.617   6.206
18872SOL    HW256961   9.129   4.711   6.123
18873SOL     OW56962   9.089   4.832   6.018
18873SOL    HW156963   9.175   4.834   5.966
18873SOL    HW256964   9.103   4.879   6.106
18874SOL     OW56965   7.561   4.461   7.183
18874SOL    HW156966   7.649   4.448   7.228
18874SOL    HW256967   7.548   4.558   7.161
18875SOL     OW56968   8.741   4.952   7.009
18875SOL    HW156969   8.778   4.879   6.951
18875SOL    HW256970   8.793   4.957   7.094
18876SOL     OW56971   8.257   3.728   6.088
18876SOL    HW156972   8.297   3.819   6.079
18876SOL    HW256973   8.157   3.736   6.094
18877SOL     OW56974   7.645   4.700   6.850
18877SOL    HW156975   7.734   4.655   6.836
18877SOL    HW256976   7.572   4.635   6.831
18878SOL     OW56977   8.973   4.723   5.776
18878SOL    HW156978   8.910   4.647   5.789
18878SOL    HW256979   9.021   4.741   5.862
18879SOL     OW56980   8.635   5.516   7.202
18879SOL    HW156981   8.659   5.576   7.126
18879SOL    HW256982   8.642   5.421   7.172
18880SOL     OW56983   7.765   3.975   7.387
18880SOL    HW156984   7.836   4.046   7.393
18880SOL    HW256985   7.677   4.014   7.415
18881SOL     OW56986   8.914   5.141   6.539
18881SOL    HW156987   8.855   5.147   6.619
18881SOL    HW256988   8.899   5.053   6.493
18882SOL     OW56989   9.115   5.438   6.158
18882SOL    HW156990   9.074   5.415   6.070
18882SOL    HW256991   9.097   5.364   6.223
18883SOL     OW56992   8.046   4.453   5.856
18883SOL    HW156993   8.070   4.522   5.788
18883SOL    HW256994   7.968   4.486   5.910
18884SOL     OW56995   8.729   4.069   6.530
18884SOL    HW156996   8.643   4.019   6.517
18884SOL    HW256997   8.791   4.015   6.586
18885SOL     OW56998   9.024   5.386   5.893
18885SOL    HW156999   9.113   5.432   5.896
18885SOL    HW257000   9.003   5.362   5.798
18886SOL     OW57001   8.255   4.329   7.051
18886SOL    HW157002   8.208   4.326   7.140
18886SOL    HW257003   8.204   4.274   6.985
18887SOL     OW57004   8.842   4.193   7.260
18887SOL    HW157005   8.822   4.236   7.348
18887SOL    HW257006   8.920   4.131   7.269
18888SOL     OW57007   8.421   4.614   7.158
18888SOL    HW157008   8.467   4.530   7.129
18888SOL    HW257009   8.365   4.648   7.083
18889SOL     OW57010   8.439   4.134   6.828
18889SOL    HW157011   8.362   4.168   6.882
18889SOL    HW257012   8.405   4.083   6.749
18890SOL     OW57013   8.489   4.425   6.015
18890SOL    HW157014   8.515   4.421   6.111
18890SOL    HW257015   8.404   4.374   6.001
18891SOL     OW57016   7.524   4.535   6.375
18891SOL    HW157017   7.623   4.523   6.384
18891SOL    HW257018   7.500   4.630   6.396
18892SOL     OW57019   7.578   5.545   7.157
18892SOL    HW157020   7.568   5.530   7.256
18892SOL    HW257021   7.492   5.581   7.121
18893SOL     OW57022   8.313   4.072   5.781
18893SOL    HW157023   8.372   4.135   5.732
18893SOL    HW257024   8.332   3.978   5.752
18894SOL     OW57025   9.167   4.309   7.417
18894SOL    HW157026   9.141   4.398   7.381
18894SOL    HW257027   9.165   4.241   7.344
18895SOL     OW57028   8.810   4.868   6.131
18895SOL    HW157029   8.893   4.839   6.083
18895SOL    HW257030   8.761   4.935   6.075
18896SOL     OW57031   7.998   3.920   6.471
18896SOL    HW157032   7.993   3.915   6.571
18896SOL    HW257033   8.000   4.016   6.442
18897SOL     OW57034   8.456   5.180   6.063
18897SOL    HW157035   8.410   5.252   6.011
18897SOL    HW257036   8.452   5.200   6.161
18898SOL     OW57037   7.799   5.525   6.439
18898SOL    HW157038   7.849   5.439   6.445
18898SOL    HW257039   7.864   5.602   6.436
18899SOL     OW57040   9.243   4.790   6.459
18899SOL    HW157041   9.181   4.775   6.383
18899SOL    HW257042   9.191   4.801   6.544
18900SOL     OW57043   8.675   5.274   7.092
18900SOL    HW157044   8.681   5.197   7.156
18900SOL    HW257045   8.623   5.248   7.012
18901SOL     OW57046   7.769   4.667   5.828
18901SOL    HW157047   7.851   4.706   5.786
18901SOL    HW257048   7.742   4.585   5.779
18902SOL     OW57049   8.906   4.459   6.314
18902SOL    HW157050   8.901   4.394   6.389
18902SOL    HW257051   8.986   4.518   6.327
18903SOL     OW57052   7.909   4.990   7.313
18903SOL    HW157053   7.859   4.991   7.227
18903SOL    HW257054   7.846   4.972   7.389
18904SOL     OW57055   8.559   5.500   5.823
18904SOL    HW157056   8.499   5.438   5.873
18904SOL    HW257057   8.590   5.456   5.738
18905SOL     OW57058   7.650   4.009   7.084
18905SOL    HW157059   7.570   4.069   7.071
18905SOL    HW257060   7.640   3.960   7.170
18906SOL     OW57061   9.080   5.101   5.667
18906SOL    HW157062   9.048   5.195   5.657
18906SOL    HW257063   9.004   5.038   5.655
18907SOL     OW57064   7.912   5.467   5.909
18907SOL    HW157065   7.945   5.506   5.995
18907SOL    HW257066   7.988   5.460   5.844
18908SOL     OW57067   8.848   3.831   6.012
18908SOL    HW157068   8.824   3.794   5.922
18908SOL    HW257069   8.947   3.847   6.016
18909SOL     OW57070   7.697   5.509   6.827
18909SOL    HW157071   7.754   5.444   6.877
18909SOL    HW257072   7.681   5.476   6.734
18910SOL     OW57073   8.388   5.422   6.490
18910SOL    HW157074   8.468   5.365   6.511
18910SOL    HW257075   8.339   5.382   6.413
18911SOL     OW57076   7.830   4.424   6.066
18911SOL    HW157077   7.875   4.334   6.063
18911SOL    HW257078   7.736   4.413   6.099
18912SOL     OW57079   8.995   3.946   7.315
18912SOL    HW157080   8.990   3.983   7.407
18912SOL    HW257081   8.923   3.877   7.303
18913SOL     OW57082   8.062   3.846   5.703
18913SOL    HW157083   8.160   3.824   5.710
18913SOL    HW257084   8.031   3.829   5.610
18914SOL     OW57085   8.229   3.988   7.335
18914SOL    HW157086   8.296   3.927   7.378
18914SOL    HW257087   8.156   4.007   7.400
18915SOL     OW57088   8.336   5.238   6.781
18915SOL    HW157089   8.313   5.213   6.687
18915SOL    HW257090   8.397   5.169   6.820
18916SOL     OW57091   8.799   4.314   7.019
18916SOL    HW157092   8.827   4.271   7.104
18916SOL    HW257093   8.824   4.410   7.020
18917SOL     OW57094   8.251   5.126   6.510
18917SOL    HW157095   8.341   5.140   6.468
18917SOL    HW257096   8.180   5.128   6.439
18918SOL     OW57097   8.370   4.227   6.485
18918SOL    HW157098   8.345   4.218   6.389
18918SOL    HW257099   8.418   4.145   6.516
18919SOL     OW57100   7.987   3.788   6.098
18919SOL    HW157101   7.906   3.789   6.156
18919SOL    HW257102   7.990   3.871   6.043
18920SOL     OW57103   8.882   4.912   5.627
18920SOL    HW157104   8.914   4.836   5.684
18920SOL    HW257105   8.790   4.939   5.657
18921SOL     OW57106   7.745   3.759   5.757
18921SOL    HW157107   7.794   3.843   5.736
18921SOL    HW257108   7.807   3.694   5.802
18922SOL     OW57109   8.383   3.960   6.066
18922SOL    HW157110   8.335   4.001   5.988
18922SOL    HW257111   8.482   3.958   6.047
18923SOL     OW57112   8.524   4.407   7.050
18923SOL    HW157113   8.444   4.346   7.053
18923SOL    HW257114   8.605   4.354   7.026
18924SOL     OW57115   8.675   5.294   6.379
18924SOL    HW157116   8.696   5.368   6.314
18924SOL    HW257117   8.743   5.294   6.452
18925SOL     OW57118   7.907   4.876   6.327
18925SOL    HW157119   7.836   4.849   6.392
18925SOL    HW257120   7.881   4.848   6.234
18926SOL     OW57121   8.719   5.521   6.177
18926SOL    HW157122   8.763   5.585   6.113
18926SOL    HW257123   8.669   5.573   6.247
18927SOL     OW57124   8.480   4.273   5.602
18927SOL    HW157125   8.439   4.355   5.563
18927SOL    HW257126   8.544   4.299   5.675
18928SOL     OW57127   7.526   4.280   6.972
18928SOL    HW157128   7.618   4.279   6.931
18928SOL    HW257129   7.520   4.354   7.039
18929SOL     OW57130   8.009   3.946   6.733
18929SOL    HW157131   8.047   3.862   6.770
18929SOL    HW257132   7.921   3.965   6.777
18930SOL     OW57133   8.314   4.178   6.228
18930SOL    HW157134   8.282   4.250   6.166
18930SOL    HW257135   8.338   4.097   6.175
18931SOL     OW57136   8.465   3.763   6.339
18931SOL    HW157137   8.393   3.768   6.270
18931SOL    HW257138   8.441   3.694   6.408
18932SOL     OW57139   8.877   4.897   6.453
18932SOL    HW157140   8.822   4.813   6.446
18932SOL    HW257141   8.903   4.926   6.361
18933SOL     OW57142   8.914   4.314   6.578
18933SOL    HW157143   8.884   4.219   6.585
18933SOL    HW257144   8.987   4.330   6.644
18934SOL     OW57145   9.305   4.557   5.963
18934SOL    HW157146   9.347   4.493   6.027
18934SOL    HW257147   9.267   4.506   5.885
18935SOL     OW57148   7.936   5.109   5.760
18935SOL    HW157149   7.849   5.094   5.807
18935SOL    HW257150   7.919   5.135   5.665
18936SOL     OW57151   9.112   5.004   6.243
18936SOL    HW157152   9.211   5.012   6.257
18936SOL    HW257153   9.067   5.088   6.274
18937SOL     OW57154   8.838   4.299   5.664
18937SOL    HW157155   8.784   4.278   5.745
18937SOL    HW257156   8.929   4.258   5.673
18938SOL     OW57157   7.975   3.980   5.914
18938SOL    HW157158   8.002   3.921   5.839
18938SOL    HW257159   7.975   4.075   5.883
18939SOL     OW57160   9.202   4.947   7.174
18939SOL    HW157161   9.293   4.908   7.161
18939SOL    HW257162   9.210   5.043   7.198
18940SOL     OW57163   8.512   5.071   6.926
18940SOL    HW157164   8.432   5.048   6.981
18940SOL    HW257165   8.595   5.045   6.975
18941SOL     OW57166   9.040   5.353   7.211
18941SOL    HW157167   9.067   5.387   7.121
18941SOL    HW257168   9.119   5.315   7.257
18942SOL     OW57169   8.559   4.919   6.686
18942SOL    HW157170   8.519   4.963   6.767
18942SOL    HW257171   8.518   4.956   6.603
18943SOL     OW57172   9.086   4.823   6.665
18943SOL    HW157173   9.091   4.904   6.724
18943SOL    HW257174   9.000   4.825   6.614
18944SOL     OW57175   8.363   3.813   6.988
18944SOL    HW157176   8.388   3.793   6.893
18944SOL    HW257177   8.435   3.869   7.030
18945SOL     OW57178   8.428   4.840   7.305
18945SOL    HW157179   8.329   4.846   7.315
18945SOL    HW257180   8.451   4.760   7.249
18946SOL     OW57181   8.153   4.774   5.954
18946SOL    HW157182   8.139   4.781   6.053
18946SOL    HW257183   8.237   4.723   5.936
18947SOL     OW57184   7.858   4.537   6.837
18947SOL    HW157185   7.944   4.549   6.887
18947SOL    HW257186   7.816   4.450   6.864
18948SOL     OW57187   8.722   4.110   6.848
18948SOL    HW157188   8.743   4.184   6.912
18948SOL    HW257189   8.633   4.127   6.805
18949SOL     OW57190   7.512   5.288   6.917
18949SOL    HW157191   7.466   5.370   6.883
18949SOL    HW257192   7.610   5.307   6.926
18950SOL     OW57193   7.815   4.824   6.087
18950SOL    HW157194   7.808   4.907   6.031
18950SOL    HW257195   7.819   4.744   6.027
18951SOL     OW57196   8.014   4.261   6.451
18951SOL    HW157197   8.026   4.327   6.377
18951SOL    HW257198   8.060   4.295   6.534
18952SOL     OW57199   8.700   5.072   5.974
18952SOL    HW157200   8.750   5.149   6.014
18952SOL    HW257201   8.605   5.074   6.006
18953SOL     OW57202   8.720   5.169   6.728
18953SOL    HW157203   8.767   5.182   6.815
18953SOL    HW257204   8.654   5.095   6.737
18954SOL     OW57205   9.030   4.363   6.058
18954SOL    HW157206   8.999   4.424   6.131
18954SOL    HW257207   9.080   4.415   5.989
18955SOL     OW57208   7.802   5.234   6.915
18955SOL    HW157209   7.781   5.190   6.828
18955SOL    HW257210   7.899   5.260   6.918
18956SOL     OW57211   7.850   4.475   7.184
18956SOL    HW157212   7.918   4.530   7.137
18956SOL    HW257213   7.890   4.387   7.211
18957SOL     OW57214   9.035   4.503   7.256
18957SOL    HW157215   8.943   4.541   7.251
18957SOL    HW257216   9.095   4.550   7.191
18958SOL     OW57217   8.461   3.829   7.356
18958SOL    HW157218   8.467   3.914   7.304
18958SOL    HW257219   8.493   3.753   7.299
18959SOL     OW57220   7.952   3.774   7.326
18959SOL    HW157221   7.910   3.717   7.256
18959SOL    HW257222   7.886   3.843   7.358
18960SOL     OW57223   8.021   4.594   6.615
18960SOL    HW157224   8.065   4.683   6.606
18960SOL    HW257225   7.958   4.594   6.692
18961SOL     OW57226   8.808   4.586   6.631
18961SOL    HW157227   8.733   4.586   6.565
18961SOL    HW257228   8.845   4.494   6.640
18962SOL     OW57229   8.657   4.249   5.861
18962SOL    HW157230   8.670   4.165   5.915
18962SOL    HW257231   8.628   4.323   5.921
18963SOL     OW57232   7.755   3.937   6.817
18963SOL    HW157233   7.732   3.974   6.907
18963SOL    HW257234   7.725   3.842   6.811
18964SOL     OW57235   7.485   5.034   6.868
18964SOL    HW157236   7.538   4.985   6.936
18964SOL    HW257237   7.507   5.132   6.873
18965SOL     OW57238   8.180   4.358   6.650
18965SOL    HW157239   8.239   4.332   6.574
18965SOL    HW257240   8.152   4.454   6.639
18966SOL     OW57241   9.176   4.659   7.440
18966SOL    HW157242   9.130   4.652   7.351
18966SOL    HW257243   9.114   4.703   7.506
18967SOL     OW57244   7.755   3.787   6.204
18967SOL    HW157245   7.744   3.881   6.237
18967SOL    HW257246   7.750   3.724   6.281
18968SOL     OW57247   9.070   4.091   5.960
18968SOL    HW157248   9.072   4.015   6.024
18968SOL    HW257249   9.022   4.168   6.000
18969SOL     OW57250   8.471   4.490   6.552
18969SOL    HW157251   8.486   4.511   6.648
18969SOL    HW257252   8.441   4.395   6.543
18970SOL     OW57253   8.428   5.297   7.286
18970SOL    HW157254   8.408   5.341   7.198
18970SOL    HW257255   8.467   5.206   7.270
18971SOL     OW57256   9.307   5.242   7.191
18971SOL    HW157257   9.321   5.269   7.096
18971SOL    HW257258   9.390   5.264   7.244
18972SOL     OW57259   7.798   4.622   7.390
18972SOL    HW157260   7.874   4.666   7.438
18972SOL    HW257261   7.833   4.575   7.308
18973SOL     OW57262   8.988   3.998   5.711
18973SOL    HW157263   8.927   3.923   5.734
18973SOL    HW257264   9.010   4.050   5.794
18974SOL     OW57265   8.751   4.562   5.628
18974SOL    HW157266   8.785   4.469   5.643
18974SOL    HW257267   8.769   4.589   5.533
18975SOL     OW57268   8.516   5.057   6.435
18975SOL    HW157269   8.523   4.973   6.380
18975SOL    HW257270   8.578   5.126   6.399
18976SOL     OW57271   7.767   4.534   6.535
18976SOL    HW157272   7.860   4.570   6.540
18976SOL    HW257273   7.761   4.449   6.587
18977SOL     OW57274   7.787   4.233   6.592
18977SOL    HW157275   7.735   4.150   6.575
18977SOL    HW257276   7.864   4.238   6.528
18978SOL     OW57277   8.586   4.104   7.264
18978SOL    HW157278   8.541   4.167   7.328
18978SOL    HW257279   8.679   4.135   7.247
18979SOL     OW57280   8.608   3.931   7.063
18979SOL    HW157281   8.608   3.995   7.140
18979SOL    HW257282   8.636   3.979   6.980
18980SOL     OW57283   7.456   5.050   5.786
18980SOL    HW157284   7.363   5.071   5.755
18980SOL    HW257285   7.466   4.951   5.799
18981SOL     OW57286   7.536   5.525   6.513
18981SOL    HW157287   7.494   5.439   6.486
18981SOL    HW257288   7.630   5.528   6.479
18982SOL     OW57289   7.952   5.292   6.496
18982SOL    HW157290   8.018   5.366   6.505
18982SOL    HW257291   7.996   5.213   6.454
18983SOL     OW57292   8.450   4.520   6.824
18983SOL    HW157293   8.491   4.488   6.910
18983SOL    HW257294   8.354   4.493   6.821
18984SOL     OW57295   7.488   4.268   6.700
18984SOL    HW157296   7.573   4.235   6.659
18984SOL    HW257297   7.501   4.283   6.798
18985SOL     OW57298   7.637   4.244   7.308
18985SOL    HW157299   7.696   4.204   7.238
18985SOL    HW257300   7.579   4.315   7.267
18986SOL     OW57301   8.817   4.674   7.246
18986SOL    HW157302   8.856   4.763   7.266
18986SOL    HW257303   8.827   4.654   7.149
18987SOL     OW57304   8.263   4.296   5.911
18987SOL    HW157305   8.270   4.207   5.865
18987SOL    HW257306   8.169   4.330   5.903
18988SOL     OW57307   9.105   4.328   6.792
18988SOL    HW157308   9.067   4.259   6.854
18988SOL    HW257309   9.187   4.292   6.748
18989SOL     OW57310   7.700   5.288   7.330
18989SOL    HW157311   7.670   5.345   7.406
18989SOL    HW257312   7.693   5.191   7.356
18990SOL     OW57313   8.119   4.188   6.855
18990SOL    HW157314   8.085   4.099   6.825
18990SOL    HW257315   8.145   4.242   6.775
18991SOL     OW57316   8.378   5.402   7.051
18991SOL    HW157317   8.354   5.384   6.956
18991SOL    HW257318   8.408   5.496   7.061
18992SOL     OW57319   7.921   4.224   5.777
18992SOL    HW157320   7.982   4.304   5.781
18992SOL    HW257321   7.826   4.255   5.784
18993SOL     OW57322   7.607   4.861   7.052
18993SOL    HW157323   7.629   4.800   7.128
18993SOL    HW257324   7.617   4.812   6.966
18994SOL     OW57325   8.795   4.783   6.820
18994SOL    HW157326   8.819   4.720   6.746
18994SOL    HW257327   8.705   4.823   6.802
18995SOL     OW57328   8.750   4.579   5.895
18995SOL    HW157329   8.664   4.548   5.937
18995SOL    HW257330   8.746   4.565   5.796
18996SOL     OW57331   9.207   5.471   6.740
18996SOL    HW157332   9.268   5.501   6.667
18996SOL    HW257333   9.169   5.382   6.718
18997SOL     OW57334   8.700   5.455   6.714
18997SOL    HW157335   8.784   5.460   6.660
18997SOL    HW257336   8.677   5.359   6.732
18998SOL     OW57337   7.531   4.982   6.608
18998SOL    HW157338   7.526   4.981   6.708
18998SOL    HW257339   7.448   4.941   6.570
18999SOL     OW57340   8.136   5.386   7.302
18999SOL    HW157341   8.080   5.467   7.311
18999SOL    HW257342   8.188   5.390   7.216
19000SOL     OW57343   9.174   3.859   6.109
19000SOL    HW157344   9.247   3.842   6.042
19000SOL    HW257345   9.143   3.772   6.147
19001SOL     OW57346   8.836   5.297   6.063
19001SOL    HW157347   8.903   5.309   5.989
19001SOL    HW257348   8.796   5.386   6.086
19002SOL     OW57349   7.578   5.518   7.437
19002SOL    HW157350   7.537   5.444   7.490
19002SOL    HW257351   7.642   5.569   7.495
19003SOL     OW57352   8.728   4.651   6.258
19003SOL    HW157353   8.788   4.570   6.260
19003SOL    HW257354   8.768   4.720   6.198
19004SOL     OW57355   8.278   4.997   7.008
19004SOL    HW157356   8.273   5.030   7.103
19004SOL    HW257357   8.192   5.016   6.962
19005SOL     OW57358   8.120   5.340   5.740
19005SOL    HW157359   8.129   5.350   5.641
19005SOL    HW257360   8.080   5.251   5.761
19006SOL     OW57361   9.098   5.444   6.980
19006SOL    HW157362   9.151   5.454   6.896
19006SOL    HW257363   9.071   5.534   7.014
19007SOL     OW57364   9.289   3.899   6.549
19007SOL    HW157365   9.328   3.814   6.513
19007SOL    HW257366   9.191   3.901   6.530
19008SOL     OW57367   7.711   4.050   6.306
19008SOL    HW157368   7.632   4.101   6.272
19008SOL    HW257369   7.702   4.035   6.404
19009SOL     OW57370   8.642   5.336   5.617
19009SOL    HW157371   8.648   5.243   5.654
19009SOL    HW257372   8.583   5.336   5.537
19010SOL     OW57373   8.270   4.726   6.958
19010SOL    HW157374   8.310   4.725   6.866
19010SOL    HW257375   8.280   4.818   6.998
19011SOL     OW57376   8.364   4.634   5.877
19011SOL    HW157377   8.427   4.672   5.809
19011SOL    HW257378   8.404   4.551   5.916
19012SOL     OW57379   8.952   5.331   5.630
19012SOL    HW157380   8.860   5.368   5.637
19012SOL    HW257381   8.990   5.351   5.540
19013SOL     OW57382   7.820   5.012   7.076
19013SOL    HW157383   7.807   5.105   7.042
19013SOL    HW257384   7.736   4.960   7.063
19014SOL     OW57385   9.062   5.016   6.875
19014SOL    HW157386   9.122   5.019   6.955
19014SOL    HW257387   8.987   5.080   6.888
19015SOL     OW57388   8.487   4.822   6.282
19015SOL    HW157389   8.417   4.775   6.336
19015SOL    HW257390   8.546   4.754   6.239
19016SOL     OW57391   8.462   3.960   6.557
19016SOL    HW157392   8.454   3.924   6.464
19016SOL    HW257393   8.460   3.884   6.622
19017SOL     OW57394   8.038   5.211   6.077
19017SOL    HW157395   8.080   5.153   6.007
19017SOL    HW257396   7.994   5.290   6.033
19018SOL     OW57397   7.703   5.072   5.876
19018SOL    HW157398   7.607   5.073   5.849
19018SOL    HW257399   7.715   5.125   5.960
19019SOL     OW57400   7.553   4.737   7.312
19019SOL    HW157401   7.476   4.704   7.366
19019SOL    HW257402   7.638   4.707   7.354
19020SOL     OW57403   8.120   3.927   7.075
19020SOL    HW157404   8.210   3.911   7.035
19020SOL    HW257405   8.128   3.932   7.174
19021SOL     OW57406   7.523   4.069   5.619
19021SOL    HW157407   7.431   4.041   5.590
19021SOL    HW257408   7.554   4.146   5.563
19022SOL     OW57409   8.888   4.580   6.984
19022SOL    HW157410   8.831   4.632   6.921
19022SOL    HW257411   8.984   4.592   6.960
19023SOL     OW57412   7.520   3.890   5.904
19023SOL    HW157413   7.503   3.973   5.850
19023SOL    HW257414   7.610   3.853   5.882
19024SOL     OW57415   8.631   5.059   5.705
19024SOL    HW157416   8.532   5.048   5.707
19024SOL    HW257417   8.665   5.074   5.798
19025SOL     OW57418   8.061   4.566   7.017
19025SOL    HW157419   8.117   4.647   7.000
19025SOL    HW257420   8.120   4.486   7.020
19026SOL     OW57421   8.941   5.491   6.545
19026SOL    HW157422   8.974   5.555   6.476
19026SOL    HW257423   9.007   5.485   6.620
19027SOL     OW57424   8.164   4.289   7.294
19027SOL    HW157425   8.183   4.354   7.368
19027SOL    HW257426   8.224   4.209   7.303
19028SOL     OW57427   8.898   4.944   7.219
19028SOL    HW157428   8.889   4.934   7.318
19028SOL    HW257429   8.994   4.937   7.193
19029SOL     OW57430   7.838   5.465   7.146
19029SOL    HW157431   7.747   5.506   7.144
19029SOL    HW257432   7.831   5.371   7.178
19030SOL     OW57433   9.122   4.607   6.840
19030SOL    HW157434   9.095   4.518   6.803
19030SOL    HW257435   9.123   4.675   6.767
19031SOL     OW57436   8.673   4.049   6.035
19031SOL    HW157437   8.738   3.975   6.024
19031SOL    HW257438   8.693   4.099   6.119
19032SOL     OW57439   8.042   4.469   6.238
19032SOL    HW157440   8.092   4.554   6.219
19032SOL    HW257441   7.954   4.471   6.190
19033SOL     OW57442   9.225   4.066   7.228
19033SOL    HW157443   9.208   4.097   7.134
19033SOL    HW257444   9.141   4.029   7.266
19034SOL     OW57445   9.178   4.658   7.103
19034SOL    HW157446   9.216   4.749   7.118
19034SOL    HW257447   9.170   4.641   7.004
19035SOL     OW57448   8.307   5.098   5.602
19035SOL    HW157449   8.261   5.113   5.690
19035SOL    HW257450   8.351   5.183   5.572
19036SOL     OW57451   8.109   5.514   6.539
19036SOL    HW157452   8.063   5.602   6.526
19036SOL    HW257453   8.208   5.526   6.532
19037SOL     OW57454   8.307   4.680   6.447
19037SOL    HW157455   8.361   4.611   6.495
19037SOL    HW257456   8.275   4.749   6.513
19038SOL     OW57457   8.531   4.708   5.673
19038SOL    HW157458   8.508   4.761   5.591
19038SOL    HW257459   8.612   4.652   5.654
19039SOL     OW57460   9.309   5.293   6.437
19039SOL    HW157461   9.238   5.281   6.367
19039SOL    HW257462   9.310   5.214   6.497
19040SOL     OW57463   7.669   5.038   7.430
19040SOL    HW157464   7.604   4.965   7.409
19040SOL    HW257465   7.673   5.052   7.528
19041SOL     OW57466   7.527   4.964   6.239
19041SOL    HW157467   7.526   4.917   6.327
19041SOL    HW257468   7.609   4.936   6.188
19042SOL     OW57469   8.120   5.115   7.210
19042SOL    HW157470   8.042   5.065   7.248
19042SOL    HW257471   8.117   5.210   7.241
19043SOL     OW57472   9.272   3.916   6.813
19043SOL    HW157473   9.268   3.826   6.857
19043SOL    HW257474   9.275   3.905   6.714
19044SOL     OW57475   7.876   4.148   6.106
19044SOL    HW157476   7.906   4.076   6.044
19044SOL    HW257477   7.837   4.108   6.189
19045SOL     OW57478   9.153   5.211   6.690
19045SOL    HW157479   9.060   5.186   6.663
19045SOL    HW257480   9.179   5.161   6.772
19046SOL     OW57481   7.765   4.271   6.866
19046SOL    HW157482   7.803   4.212   6.938
19046SOL    HW257483   7.805   4.245   6.778
19047SOL     OW57484   8.260   5.310   6.273
19047SOL    HW157485   8.292   5.320   6.179
19047SOL    HW257486   8.181   5.248   6.275
19048SOL     OW57487   8.872   3.938   6.698
19048SOL    HW157488   8.924   3.873   6.753
19048SOL    HW257489   8.823   4.001   6.759
19049SOL     OW57490   8.449   3.758   6.740
19049SOL    HW157491   8.386   3.686   6.709
19049SOL    HW257492   8.542   3.722   6.740
19050SOL     OW57493   8.218   5.054   5.887
19050SOL    HW157494   8.172   4.967   5.904
19050SOL    HW257495   8.309   5.051   5.928
19051SOL     OW57496   8.066   5.291   6.870
19051SOL    HW157497   8.061   5.373   6.927
19051SOL    HW257498   8.155   5.288   6.825
19052SOL     OW57499   8.800   3.776   5.754
19052SOL    HW157500   8.835   3.735   5.670
19052SOL    HW257501   8.710   3.738   5.774
19053SOL     OW57502   8.748   4.177   6.277
19053SOL    HW157503   8.689   4.257   6.281
19053SOL    HW257504   8.763   4.142   6.370
19054SOL     OW57505   9.041   3.945   6.468
19054SOL    HW157506   8.957   3.944   6.522
19054SOL    HW257507   9.043   4.028   6.412
19055SOL     OW57508   7.487   4.801   5.886
19055SOL    HW157509   7.586   4.790   5.877
19055SOL    HW257510   7.447   4.715   5.918
19056SOL     OW57511   8.323   5.370   5.923
19056SOL    HW157512   8.246   5.335   5.869
19056SOL    HW257513   8.291   5.441   5.985
19057SOL     OW57514   7.678   4.352   7.561
19057SOL    HW157515   7.585   4.350   7.598
19057SOL    HW257516   7.679   4.313   7.469
19058SOL     OW57517   9.203   4.331   7.679
19058SOL    HW157518   9.191   4.318   7.580
19058SOL    HW257519   9.173   4.250   7.728
19059SOL     OW57520   8.973   4.723   7.638
19059SOL    HW157521   8.910   4.647   7.651
19059SOL    HW257522   9.021   4.741   7.724
19060SOL     OW57523   8.559   5.500   7.685
19060SOL    HW157524   8.499   5.438   7.735
19060SOL    HW257525   8.590   5.456   7.600
19061SOL     OW57526   9.080   5.101   7.529
19061SOL    HW157527   9.048   5.195   7.519
19061SOL    HW257528   9.004   5.038   7.517
19062SOL     OW57529   8.882   4.912   7.489
19062SOL    HW157530   8.914   4.836   7.546
19062SOL    HW257531   8.790   4.939   7.519
19063SOL     OW57532   8.480   4.273   7.464
19063SOL    HW157533   8.439   4.355   7.425
19063SOL    HW257534   8.544   4.299   7.537
19064SOL     OW57535   7.936   5.109   7.622
19064SOL    HW157536   7.849   5.094   7.669
19064SOL    HW257537   7.919   5.135   7.527
19065SOL     OW57538   8.838   4.299   7.526
19065SOL    HW157539   8.784   4.278   7.607
19065SOL    HW257540   8.929   4.258   7.535
19066SOL     OW57541   8.988   3.998   7.573
19066SOL    HW157542   8.927   3.923   7.596
19066SOL    HW257543   9.010   4.050   7.656
19067SOL     OW57544   8.751   4.562   7.490
19067SOL    HW157545   8.785   4.469   7.505
19067SOL    HW257546   8.769   4.589   7.395
19068SOL     OW57547   7.921   4.224   7.639
19068SOL    HW157548   7.982   4.304   7.643
19068SOL    HW257549   7.826   4.255   7.646
19069SOL     OW57550   8.120   5.340   7.602
19069SOL    HW157551   8.129   5.350   7.503
19069SOL    HW257552   8.080   5.251   7.623
19070SOL     OW57553   8.642   5.336   7.479
19070SOL    HW157554   8.648   5.243   7.516
19070SOL    HW257555   8.583   5.336   7.399
19071SOL     OW57556   8.952   5.331   7.492
19071SOL    HW157557   8.860   5.368   7.499
19071SOL    HW257558   8.990   5.351   7.402
19072SOL     OW57559   7.523   4.069   7.481
19072SOL    HW157560   7.431   4.041   7.452
19072SOL    HW257561   7.554   4.146   7.425
19073SOL     OW57562   8.631   5.059   7.567
19073SOL    HW157563   8.532   5.048   7.569
19073SOL    HW257564   8.665   5.074   7.660
19074SOL     OW57565   8.307   5.098   7.464
19074SOL    HW157566   8.261   5.113   7.552
19074SOL    HW257567   8.351   5.183   7.434
19075SOL     OW57568   8.531   4.708   7.535
19075SOL    HW157569   8.508   4.761   7.453
19075SOL    HW257570   8.612   4.652   7.516
19076SOL     OW57571   8.800   3.776   7.616
19076SOL    HW157572   8.835   3.735   7.532
19076SOL    HW257573   8.710   3.738   7.636
19077SOL     OW57574   7.487   4.801   7.748
19077SOL    HW157575   7.586   4.790   7.739
19077SOL    HW257576   7.447   4.715   7.780
19078SOL     OW57577   8.323   5.370   7.785
19078SOL    HW157578   8.246   5.335   7.731
19078SOL    HW257579   8.291   5.441   7.847
19079SOL     OW57580   7.678   6.214   0.113
19079SOL    HW157581   7.585   6.212   0.150
19079SOL    HW257582   7.679   6.175   0.021
19080SOL     OW57583   7.673   5.861   0.996
19080SOL    HW157584   7.708   5.844   1.088
19080SOL    HW257585   7.585   5.816   0.984
19081SOL     OW57586   7.467   5.954   0.647
19081SOL    HW157587   7.385   5.997   0.686
19081SOL    HW257588   7.439   5.881   0.584
19082SOL     OW57589   8.017   6.861   1.165
19082SOL    HW157590   7.924   6.854   1.128
19082SOL    HW257591   8.028   6.950   1.209
19083SOL     OW57592   9.003   7.097   0.703
19083SOL    HW157593   8.946   7.081   0.784
19083SOL    HW257594   8.944   7.107   0.623
19084SOL     OW57595   8.583   6.289   0.717
19084SOL    HW157596   8.640   6.367   0.692
19084SOL    HW257597   8.523   6.315   0.793
19085SOL     OW57598   8.216   6.730   1.023
19085SOL    HW157599   8.138   6.747   1.083
19085SOL    HW257600   8.250   6.817   0.987
19086SOL     OW57601   8.298   6.384   1.823
19086SOL    HW157602   8.294   6.460   1.888
19086SOL    HW257603   8.320   6.420   1.732
19087SOL     OW57604   8.133   6.598   0.665
19087SOL    HW157605   8.202   6.582   0.735
19087SOL    HW257606   8.060   6.655   0.703
19088SOL     OW57607   8.134   6.747   1.803
19088SOL    HW157608   8.194   6.826   1.817
19088SOL    HW257609   8.048   6.778   1.762
19089SOL     OW57610   7.783   7.021   1.061
19089SOL    HW157611   7.705   6.990   1.008
19089SOL    HW257612   7.841   7.079   1.004
19090SOL     OW57613   8.908   7.091   1.339
19090SOL    HW157614   8.932   7.185   1.365
19090SOL    HW257615   8.892   7.037   1.421
19091SOL     OW57616   7.886   5.978   1.499
19091SOL    HW157617   7.968   5.922   1.508
19091SOL    HW257618   7.805   5.920   1.503
19092SOL     OW57619   9.051   6.033   0.737
19092SOL    HW157620   8.977   6.079   0.687
19092SOL    HW257621   9.102   6.101   0.790
19093SOL     OW57622   7.679   7.299   0.483
19093SOL    HW157623   7.713   7.376   0.537
19093SOL    HW257624   7.723   7.299   0.393
19094SOL     OW57625   8.575   6.927   1.690
19094SOL    HW157626   8.622   6.927   1.778
19094SOL    HW257627   8.527   6.840   1.679
19095SOL     OW57628   7.678   7.020   0.538
19095SOL    HW157629   7.652   7.116   0.538
19095SOL    HW257630   7.607   6.966   0.583
19096SOL     OW57631   7.688   6.677   0.886
19096SOL    HW157632   7.702   6.593   0.938
19096SOL    HW257633   7.633   6.741   0.941
19097SOL     OW57634   8.068   7.372   1.439
19097SOL    HW157635   7.976   7.355   1.474
19097SOL    HW257636   8.096   7.464   1.465
19098SOL     OW57637   9.042   5.700   1.480
19098SOL    HW157638   9.024   5.767   1.408
19098SOL    HW257639   9.039   5.746   1.569
19099SOL     OW57640   7.570   6.229   0.563
19099SOL    HW157641   7.525   6.141   0.580
19099SOL    HW257642   7.569   6.283   0.647
19100SOL     OW57643   9.290   7.353   0.359
19100SOL    HW157644   9.344   7.324   0.439
19100SOL    HW257645   9.320   7.443   0.330
19101SOL     OW57646   9.137   6.508   0.612
19101SOL    HW157647   9.232   6.479   0.620
19101SOL    HW257648   9.129   6.573   0.537
19102SOL     OW57649   9.089   6.694   0.432
19102SOL    HW157650   9.175   6.696   0.380
19102SOL    HW257651   9.103   6.741   0.520
19103SOL     OW57652   7.561   6.323   1.597
19103SOL    HW157653   7.649   6.310   1.642
19103SOL    HW257654   7.548   6.420   1.575
19104SOL     OW57655   8.061   6.951   0.726
19104SOL    HW157656   8.012   6.864   0.735
19104SOL    HW257657   8.038   6.994   0.639
19105SOL     OW57658   8.741   6.814   1.423
19105SOL    HW157659   8.778   6.741   1.365
19105SOL    HW257660   8.793   6.819   1.508
19106SOL     OW57661   8.257   5.590   0.502
19106SOL    HW157662   8.297   5.681   0.493
19106SOL    HW257663   8.157   5.598   0.508
19107SOL     OW57664   7.645   6.562   1.264
19107SOL    HW157665   7.734   6.517   1.250
19107SOL    HW257666   7.572   6.497   1.245
19108SOL     OW57667   8.635   7.378   1.616
19108SOL    HW157668   8.659   7.438   1.540
19108SOL    HW257669   8.642   7.283   1.586
19109SOL     OW57670   7.765   5.837   1.801
19109SOL    HW157671   7.836   5.908   1.807
19109SOL    HW257672   7.677   5.876   1.829
19110SOL     OW57673   8.914   7.003   0.953
19110SOL    HW157674   8.855   7.009   1.033
19110SOL    HW257675   8.899   6.915   0.907
19111SOL     OW57676   9.115   7.300   0.572
19111SOL    HW157677   9.074   7.277   0.484
19111SOL    HW257678   9.097   7.226   0.637
19112SOL     OW57679   8.729   5.931   0.944
19112SOL    HW157680   8.643   5.881   0.931
19112SOL    HW257681   8.791   5.877   1.000
19113SOL     OW57682   9.024   7.248   0.307
19113SOL    HW157683   9.113   7.294   0.310
19113SOL    HW257684   9.003   7.224   0.212
19114SOL     OW57685   8.255   6.191   1.465
19114SOL    HW157686   8.208   6.188   1.554
19114SOL    HW257687   8.204   6.136   1.399
19115SOL     OW57688   8.842   6.055   1.674
19115SOL    HW157689   8.822   6.098   1.762
19115SOL    HW257690   8.920   5.993   1.683
19116SOL     OW57691   8.421   6.476   1.572
19116SOL    HW157692   8.467   6.392   1.543
19116SOL    HW257693   8.365   6.510   1.497
19117SOL     OW57694   8.439   5.996   1.242
19117SOL    HW157695   8.362   6.030   1.296
19117SOL    HW257696   8.405   5.945   1.163
19118SOL     OW57697   7.524   6.397   0.789
19118SOL    HW157698   7.623   6.385   0.798
19118SOL    HW257699   7.500   6.492   0.810
19119SOL     OW57700   7.578   7.407   1.571
19119SOL    HW157701   7.568   7.392   1.670
19119SOL    HW257702   7.492   7.443   1.535
19120SOL     OW57703   9.167   6.171   1.831
19120SOL    HW157704   9.141   6.260   1.795
19120SOL    HW257705   9.165   6.103   1.758
19121SOL     OW57706   8.810   6.730   0.545
19121SOL    HW157707   8.893   6.701   0.497
19121SOL    HW257708   8.761   6.797   0.489
19122SOL     OW57709   7.998   5.782   0.885
19122SOL    HW157710   7.993   5.777   0.985
19122SOL    HW257711   8.000   5.878   0.856
19123SOL     OW57712   8.456   7.042   0.477
19123SOL    HW157713   8.410   7.114   0.425
19123SOL    HW257714   8.452   7.062   0.575
19124SOL     OW57715   7.799   7.387   0.853
19124SOL    HW157716   7.849   7.301   0.859
19124SOL    HW257717   7.864   7.464   0.850
19125SOL     OW57718   9.243   6.652   0.873
19125SOL    HW157719   9.181   6.637   0.797
19125SOL    HW257720   9.191   6.663   0.958
19126SOL     OW57721   8.675   7.136   1.506
19126SOL    HW157722   8.681   7.059   1.570
19126SOL    HW257723   8.623   7.110   1.426
19127SOL     OW57724   8.906   6.321   0.728
19127SOL    HW157725   8.901   6.256   0.803
19127SOL    HW257726   8.986   6.380   0.741
19128SOL     OW57727   7.909   6.852   1.727
19128SOL    HW157728   7.859   6.853   1.641
19128SOL    HW257729   7.846   6.834   1.803
19129SOL     OW57730   7.650   5.871   1.498
19129SOL    HW157731   7.570   5.931   1.485
19129SOL    HW257732   7.640   5.822   1.584
19130SOL     OW57733   8.848   5.693   0.426
19130SOL    HW157734   8.824   5.656   0.336
19130SOL    HW257735   8.947   5.709   0.430
19131SOL     OW57736   7.697   7.371   1.241
19131SOL    HW157737   7.754   7.306   1.291
19131SOL    HW257738   7.681   7.338   1.148
19132SOL     OW57739   8.388   7.284   0.904
19132SOL    HW157740   8.468   7.227   0.925
19132SOL    HW257741   8.339   7.244   0.827
19133SOL     OW57742   7.830   6.286   0.480
19133SOL    HW157743   7.875   6.196   0.477
19133SOL    HW257744   7.736   6.275   0.513
19134SOL     OW57745   8.995   5.808   1.729
19134SOL    HW157746   8.990   5.845   1.821
19134SOL    HW257747   8.923   5.739   1.717
19135SOL     OW57748   8.062   5.708   0.117
19135SOL    HW157749   8.160   5.686   0.124
19135SOL    HW257750   8.031   5.691   0.024
19136SOL     OW57751   8.229   5.850   1.749
19136SOL    HW157752   8.296   5.789   1.792
19136SOL    HW257753   8.156   5.869   1.814
19137SOL     OW57754   8.336   7.100   1.195
19137SOL    HW157755   8.313   7.075   1.101
19137SOL    HW257756   8.397   7.031   1.234
19138SOL     OW57757   8.799   6.176   1.433
19138SOL    HW157758   8.827   6.133   1.518
19138SOL    HW257759   8.824   6.272   1.434
19139SOL     OW57760   8.251   6.988   0.924
19139SOL    HW157761   8.341   7.002   0.882
19139SOL    HW257762   8.180   6.990   0.853
19140SOL     OW57763   8.370   6.089   0.899
19140SOL    HW157764   8.345   6.080   0.803
19140SOL    HW257765   8.418   6.007   0.930
19141SOL     OW57766   7.987   5.650   0.512
19141SOL    HW157767   7.906   5.651   0.570
19141SOL    HW257768   7.990   5.733   0.457
19142SOL     OW57769   8.383   5.822   0.480
19142SOL    HW157770   8.335   5.863   0.402
19142SOL    HW257771   8.482   5.820   0.461
19143SOL     OW57772   8.524   6.269   1.464
19143SOL    HW157773   8.444   6.208   1.467
19143SOL    HW257774   8.605   6.216   1.440
19144SOL     OW57775   8.675   7.156   0.793
19144SOL    HW157776   8.696   7.230   0.728
19144SOL    HW257777   8.743   7.156   0.866
19145SOL     OW57778   7.907   6.738   0.741
19145SOL    HW157779   7.836   6.711   0.806
19145SOL    HW257780   7.881   6.710   0.648
19146SOL     OW57781   8.719   7.383   0.591
19146SOL    HW157782   8.763   7.447   0.527
19146SOL    HW257783   8.669   7.435   0.661
19147SOL     OW57784   7.526   6.142   1.386
19147SOL    HW157785   7.618   6.141   1.345
19147SOL    HW257786   7.520   6.216   1.453
19148SOL     OW57787   8.009   5.808   1.147
19148SOL    HW157788   8.047   5.724   1.184
19148SOL    HW257789   7.921   5.827   1.191
19149SOL     OW57790   8.314   6.040   0.642
19149SOL    HW157791   8.282   6.112   0.580
19149SOL    HW257792   8.338   5.959   0.589
19150SOL     OW57793   8.465   5.625   0.753
19150SOL    HW157794   8.393   5.630   0.684
19150SOL    HW257795   8.441   5.556   0.822
19151SOL     OW57796   8.877   6.759   0.867
19151SOL    HW157797   8.822   6.675   0.860
19151SOL    HW257798   8.903   6.788   0.775
19152SOL     OW57799   8.914   6.176   0.992
19152SOL    HW157800   8.884   6.081   0.999
19152SOL    HW257801   8.987   6.192   1.058
19153SOL     OW57802   9.305   6.419   0.377
19153SOL    HW157803   9.347   6.355   0.441
19153SOL    HW257804   9.267   6.368   0.299
19154SOL     OW57805   9.112   6.866   0.657
19154SOL    HW157806   9.211   6.874   0.671
19154SOL    HW257807   9.067   6.950   0.688
19155SOL     OW57808   7.975   5.842   0.328
19155SOL    HW157809   8.002   5.783   0.253
19155SOL    HW257810   7.975   5.937   0.297
19156SOL     OW57811   9.202   6.809   1.588
19156SOL    HW157812   9.293   6.770   1.575
19156SOL    HW257813   9.210   6.905   1.612
19157SOL     OW57814   8.512   6.933   1.340
19157SOL    HW157815   8.432   6.910   1.395
19157SOL    HW257816   8.595   6.907   1.389
19158SOL     OW57817   8.559   6.781   1.100
19158SOL    HW157818   8.519   6.825   1.181
19158SOL    HW257819   8.518   6.818   1.017
19159SOL     OW57820   9.086   6.685   1.079
19159SOL    HW157821   9.091   6.766   1.138
19159SOL    HW257822   9.000   6.687   1.028
19160SOL     OW57823   8.363   5.675   1.402
19160SOL    HW157824   8.388   5.655   1.307
19160SOL    HW257825   8.435   5.731   1.444
19161SOL     OW57826   8.428   6.702   1.719
19161SOL    HW157827   8.329   6.708   1.729
19161SOL    HW257828   8.451   6.622   1.663
19162SOL     OW57829   8.153   6.636   0.368
19162SOL    HW157830   8.139   6.643   0.467
19162SOL    HW257831   8.237   6.585   0.350
19163SOL     OW57832   7.858   6.399   1.251
19163SOL    HW157833   7.944   6.411   1.301
19163SOL    HW257834   7.816   6.312   1.278
19164SOL     OW57835   8.722   5.972   1.262
19164SOL    HW157836   8.743   6.046   1.326
19164SOL    HW257837   8.633   5.989   1.219
19165SOL     OW57838   7.512   7.150   1.331
19165SOL    HW157839   7.466   7.232   1.297
19165SOL    HW257840   7.610   7.169   1.340
19166SOL     OW57841   7.815   6.686   0.501
19166SOL    HW157842   7.808   6.769   0.445
19166SOL    HW257843   7.819   6.606   0.441
19167SOL     OW57844   8.014   6.123   0.865
19167SOL    HW157845   8.026   6.189   0.791
19167SOL    HW257846   8.060   6.157   0.948
19168SOL     OW57847   8.700   6.934   0.388
19168SOL    HW157848   8.750   7.011   0.428
19168SOL    HW257849   8.605   6.936   0.420
19169SOL     OW57850   8.720   7.031   1.142
19169SOL    HW157851   8.767   7.044   1.229
19169SOL    HW257852   8.654   6.957   1.151
19170SOL     OW57853   9.030   6.225   0.472
19170SOL    HW157854   8.999   6.286   0.545
19170SOL    HW257855   9.080   6.277   0.403
19171SOL     OW57856   7.802   7.096   1.329
19171SOL    HW157857   7.781   7.052   1.242
19171SOL    HW257858   7.899   7.122   1.332
19172SOL     OW57859   7.850   6.337   1.598
19172SOL    HW157860   7.918   6.392   1.551
19172SOL    HW257861   7.890   6.249   1.625
19173SOL     OW57862   9.035   6.365   1.670
19173SOL    HW157863   8.943   6.403   1.665
19173SOL    HW257864   9.095   6.412   1.605
19174SOL     OW57865   8.461   5.691   1.770
19174SOL    HW157866   8.467   5.776   1.718
19174SOL    HW257867   8.493   5.615   1.713
19175SOL     OW57868   7.952   5.636   1.740
19175SOL    HW157869   7.910   5.579   1.670
19175SOL    HW257870   7.886   5.705   1.772
19176SOL     OW57871   8.021   6.456   1.029
19176SOL    HW157872   8.065   6.545   1.020
19176SOL    HW257873   7.958   6.456   1.106
19177SOL     OW57874   8.808   6.448   1.045
19177SOL    HW157875   8.733   6.448   0.979
19177SOL    HW257876   8.845   6.356   1.054
19178SOL     OW57877   7.755   5.799   1.231
19178SOL    HW157878   7.732   5.836   1.321
19178SOL    HW257879   7.725   5.704   1.225
19179SOL     OW57880   8.180   6.220   1.064
19179SOL    HW157881   8.239   6.194   0.988
19179SOL    HW257882   8.152   6.316   1.053
19180SOL     OW57883   9.176   6.521   1.854
19180SOL    HW157884   9.130   6.514   1.765
19180SOL    HW257885   9.114   6.565   1.920
19181SOL     OW57886   7.755   5.649   0.618
19181SOL    HW157887   7.744   5.743   0.651
19181SOL    HW257888   7.750   5.586   0.695
19182SOL     OW57889   8.471   6.352   0.966
19182SOL    HW157890   8.486   6.373   1.062
19182SOL    HW257891   8.441   6.257   0.957
19183SOL     OW57892   8.428   7.159   1.700
19183SOL    HW157893   8.408   7.203   1.612
19183SOL    HW257894   8.467   7.068   1.684
19184SOL     OW57895   9.307   7.104   1.605
19184SOL    HW157896   9.321   7.131   1.510
19184SOL    HW257897   9.390   7.126   1.658
19185SOL     OW57898   7.798   6.484   1.804
19185SOL    HW157899   7.874   6.528   1.852
19185SOL    HW257900   7.833   6.437   1.722
19186SOL     OW57901   8.516   6.919   0.849
19186SOL    HW157902   8.523   6.835   0.794
19186SOL    HW257903   8.578   6.988   0.813
19187SOL     OW57904   7.767   6.396   0.949
19187SOL    HW157905   7.860   6.432   0.954
19187SOL    HW257906   7.761   6.311   1.001
19188SOL     OW57907   7.787   6.095   1.006
19188SOL    HW157908   7.735   6.012   0.989
19188SOL    HW257909   7.864   6.100   0.942
19189SOL     OW57910   8.586   5.966   1.678
19189SOL    HW157911   8.541   6.029   1.742
19189SOL    HW257912   8.679   5.997   1.661
19190SOL     OW57913   8.608   5.793   1.477
19190SOL    HW157914   8.608   5.857   1.554
19190SOL    HW257915   8.636   5.841   1.394
19191SOL     OW57916   7.536   7.387   0.927
19191SOL    HW157917   7.494   7.301   0.900
19191SOL    HW257918   7.630   7.390   0.893
19192SOL     OW57919   7.952   7.154   0.910
19192SOL    HW157920   8.018   7.228   0.919
19192SOL    HW257921   7.996   7.075   0.868
19193SOL     OW57922   8.450   6.382   1.238
19193SOL    HW157923   8.491   6.350   1.324
19193SOL    HW257924   8.354   6.355   1.235
19194SOL     OW57925   7.488   6.130   1.114
19194SOL    HW157926   7.573   6.097   1.073
19194SOL    HW257927   7.501   6.145   1.212
19195SOL     OW57928   7.637   6.106   1.722
19195SOL    HW157929   7.696   6.066   1.652
19195SOL    HW257930   7.579   6.177   1.681
19196SOL     OW57931   8.817   6.536   1.660
19196SOL    HW157932   8.856   6.625   1.680
19196SOL    HW257933   8.827   6.516   1.563
19197SOL     OW57934   9.105   6.190   1.206
19197SOL    HW157935   9.067   6.121   1.268
19197SOL    HW257936   9.187   6.154   1.162
19198SOL     OW57937   7.700   7.150   1.744
19198SOL    HW157938   7.670   7.207   1.820
19198SOL    HW257939   7.693   7.053   1.770
19199SOL     OW57940   8.119   6.050   1.269
19199SOL    HW157941   8.085   5.961   1.239
19199SOL    HW257942   8.145   6.104   1.189
19200SOL     OW57943   8.378   7.264   1.465
19200SOL    HW157944   8.354   7.246   1.370
19200SOL    HW257945   8.408   7.358   1.475
19201SOL     OW57946   7.607   6.723   1.466
19201SOL    HW157947   7.629   6.662   1.542
19201SOL    HW257948   7.617   6.674   1.380
19202SOL     OW57949   8.795   6.645   1.234
19202SOL    HW157950   8.819   6.582   1.160
19202SOL    HW257951   8.705   6.685   1.216
19203SOL     OW57952   9.207   7.333   1.154
19203SOL    HW157953   9.268   7.363   1.081
19203SOL    HW257954   9.169   7.244   1.132
19204SOL     OW57955   8.700   7.317   1.128
19204SOL    HW157956   8.784   7.322   1.074
19204SOL    HW257957   8.677   7.221   1.146
19205SOL     OW57958   7.531   6.844   1.022
19205SOL    HW157959   7.526   6.843   1.122
19205SOL    HW257960   7.448   6.803   0.984
19206SOL     OW57961   8.136   7.248   1.716
19206SOL    HW157962   8.080   7.329   1.725
19206SOL    HW257963   8.188   7.252   1.630
19207SOL     OW57964   9.174   5.721   0.523
19207SOL    HW157965   9.247   5.704   0.456
19207SOL    HW257966   9.143   5.634   0.561
19208SOL     OW57967   8.836   7.159   0.477
19208SOL    HW157968   8.903   7.171   0.403
19208SOL    HW257969   8.796   7.248   0.500
19209SOL     OW57970   7.578   7.380   1.851
19209SOL    HW157971   7.537   7.306   1.904
19209SOL    HW257972   7.642   7.431   1.909
19210SOL     OW57973   8.728   6.513   0.672
19210SOL    HW157974   8.788   6.432   0.674
19210SOL    HW257975   8.768   6.582   0.612
19211SOL     OW57976   8.278   6.859   1.422
19211SOL    HW157977   8.273   6.892   1.517
19211SOL    HW257978   8.192   6.878   1.376
19212SOL     OW57979   9.098   7.306   1.394
19212SOL    HW157980   9.151   7.316   1.310
19212SOL    HW257981   9.071   7.396   1.428
19213SOL     OW57982   9.289   5.761   0.963
19213SOL    HW157983   9.328   5.676   0.927
19213SOL    HW257984   9.191   5.763   0.944
19214SOL     OW57985   7.711   5.912   0.720
19214SOL    HW157986   7.632   5.963   0.686
19214SOL    HW257987   7.702   5.897   0.818
19215SOL     OW57988   8.270   6.588   1.372
19215SOL    HW157989   8.310   6.587   1.280
19215SOL    HW257990   8.280   6.680   1.412
19216SOL     OW57991   8.364   6.496   0.291
19216SOL    HW157992   8.427   6.534   0.223
19216SOL    HW257993   8.404   6.413   0.330
19217SOL     OW57994   7.820   6.874   1.490
19217SOL    HW157995   7.807   6.967   1.456
19217SOL    HW257996   7.736   6.822   1.477
19218SOL     OW57997   9.062   6.878   1.289
19218SOL    HW157998   9.122   6.881   1.369
19218SOL    HW257999   8.987   6.942   1.302
19219SOL     OW58000   8.487   6.684   0.696
19219SOL    HW158001   8.417   6.637   0.750
19219SOL    HW258002   8.546   6.616   0.653
19220SOL     OW58003   8.462   5.822   0.971
19220SOL    HW158004   8.454   5.786   0.878
19220SOL    HW258005   8.460   5.746   1.036
19221SOL     OW58006   8.038   7.073   0.491
19221SOL    HW158007   8.080   7.015   0.421
19221SOL    HW258008   7.994   7.152   0.447
19222SOL     OW58009   9.157   5.971   1.381
19222SOL    HW158010   9.230   6.040   1.385
19222SOL    HW258011   9.185   5.896   1.322
19223SOL     OW58012   7.703   6.934   0.290
19223SOL    HW158013   7.607   6.935   0.263
19223SOL    HW258014   7.715   6.987   0.374
19224SOL     OW58015   7.553   6.599   1.726
19224SOL    HW158016   7.476   6.566   1.780
19224SOL    HW258017   7.638   6.569   1.768
19225SOL     OW58018   8.120   5.789   1.489
19225SOL    HW158019   8.210   5.773   1.449
19225SOL    HW258020   8.128   5.794   1.588
19226SOL     OW58021   8.888   6.442   1.398
19226SOL    HW158022   8.831   6.494   1.335
19226SOL    HW258023   8.984   6.454   1.374
19227SOL     OW58024   8.061   6.428   1.431
19227SOL    HW158025   8.117   6.509   1.414
19227SOL    HW258026   8.120   6.348   1.434
19228SOL     OW58027   8.941   7.353   0.959
19228SOL    HW158028   8.974   7.417   0.890
19228SOL    HW258029   9.007   7.347   1.034
19229SOL     OW58030   8.164   6.151   1.708
19229SOL    HW158031   8.183   6.216   1.782
19229SOL    HW258032   8.224   6.071   1.717
19230SOL     OW58033   8.898   6.806   1.633
19230SOL    HW158034   8.889   6.796   1.732
19230SOL    HW258035   8.994   6.799   1.607
19231SOL     OW58036   7.838   7.327   1.560
19231SOL    HW158037   7.747   7.368   1.558
19231SOL    HW258038   7.831   7.233   1.592
19232SOL     OW58039   9.122   6.469   1.254
19232SOL    HW158040   9.095   6.380   1.217
19232SOL    HW258041   9.123   6.537   1.181
19233SOL     OW58042   8.673   5.911   0.449
19233SOL    HW158043   8.738   5.837   0.438
19233SOL    HW258044   8.693   5.961   0.533
19234SOL     OW58045   8.042   6.331   0.652
19234SOL    HW158046   8.092   6.416   0.633
19234SOL    HW258047   7.954   6.333   0.604
19235SOL     OW58048   9.225   5.928   1.642
19235SOL    HW158049   9.208   5.959   1.548
19235SOL    HW258050   9.141   5.891   1.680
19236SOL     OW58051   9.178   6.520   1.517
19236SOL    HW158052   9.216   6.611   1.532
19236SOL    HW258053   9.170   6.503   1.418
19237SOL     OW58054   8.109   7.376   0.953
19237SOL    HW158055   8.063   7.464   0.940
19237SOL    HW258056   8.208   7.388   0.946
19238SOL     OW58057   8.307   6.542   0.861
19238SOL    HW158058   8.361   6.473   0.909
19238SOL    HW258059   8.275   6.611   0.927
19239SOL     OW58060   9.309   7.155   0.851
19239SOL    HW158061   9.238   7.143   0.781
19239SOL    HW258062   9.310   7.076   0.911
19240SOL     OW58063   7.669   6.900   1.844
19240SOL    HW158064   7.604   6.827   1.823
19240SOL    HW258065   7.673   6.914   1.942
19241SOL     OW58066   7.527   6.826   0.653
19241SOL    HW158067   7.526   6.779   0.741
19241SOL    HW258068   7.609   6.798   0.602
19242SOL     OW58069   8.120   6.977   1.624
19242SOL    HW158070   8.042   6.927   1.662
19242SOL    HW258071   8.117   7.072   1.655
19243SOL     OW58072   9.272   5.778   1.227
19243SOL    HW158073   9.268   5.688   1.271
19243SOL    HW258074   9.275   5.767   1.128
19244SOL     OW58075   7.876   6.010   0.520
19244SOL    HW158076   7.906   5.938   0.458
19244SOL    HW258077   7.837   5.970   0.603
19245SOL     OW58078   9.153   7.073   1.104
19245SOL    HW158079   9.060   7.048   1.077
19245SOL    HW258080   9.179   7.023   1.186
19246SOL     OW58081   7.765   6.133   1.280
19246SOL    HW158082   7.803   6.074   1.352
19246SOL    HW258083   7.805   6.107   1.192
19247SOL     OW58084   8.260   7.172   0.687
19247SOL    HW158085   8.292   7.182   0.593
19247SOL    HW258086   8.181   7.110   0.689
19248SOL     OW58087   8.872   5.800   1.112
19248SOL    HW158088   8.924   5.735   1.167
19248SOL    HW258089   8.823   5.863   1.173
19249SOL     OW58090   8.449   5.620   1.154
19249SOL    HW158091   8.386   5.548   1.123
19249SOL    HW258092   8.542   5.584   1.154
19250SOL     OW58093   8.218   6.916   0.301
19250SOL    HW158094   8.172   6.829   0.318
19250SOL    HW258095   8.309   6.913   0.342
19251SOL     OW58096   8.066   7.153   1.284
19251SOL    HW158097   8.061   7.235   1.341
19251SOL    HW258098   8.155   7.150   1.239
19252SOL     OW58099   8.748   6.039   0.691
19252SOL    HW158100   8.689   6.119   0.695
19252SOL    HW258101   8.763   6.004   0.784
19253SOL     OW58102   9.041   5.807   0.882
19253SOL    HW158103   8.957   5.806   0.936
19253SOL    HW258104   9.043   5.890   0.826
19254SOL     OW58105   8.323   7.232   0.337
19254SOL    HW158106   8.246   7.197   0.283
19254SOL    HW258107   8.291   7.303   0.399
19255SOL     OW58108   7.678   6.214   1.975
19255SOL    HW158109   7.585   6.212   2.012
19255SOL    HW258110   7.679   6.175   1.883
19256SOL     OW58111   7.673   5.861   2.858
19256SOL    HW158112   7.708   5.844   2.950
19256SOL    HW258113   7.585   5.816   2.846
19257SOL     OW58114   7.467   5.954   2.509
19257SOL    HW158115   7.385   5.997   2.548
19257SOL    HW258116   7.439   5.881   2.446
19258SOL     OW58117   8.017   6.861   3.027
19258SOL    HW158118   7.924   6.854   2.990
19258SOL    HW258119   8.028   6.950   3.071
19259SOL     OW58120   9.003   7.097   2.565
19259SOL    HW158121   8.946   7.081   2.646
19259SOL    HW258122   8.944   7.107   2.485
19260SOL     OW58123   8.583   6.289   2.579
19260SOL    HW158124   8.640   6.367   2.554
19260SOL    HW258125   8.523   6.315   2.655
19261SOL     OW58126   9.203   6.193   2.093
19261SOL    HW158127   9.191   6.180   1.994
19261SOL    HW258128   9.173   6.112   2.142
19262SOL     OW58129   8.216   6.730   2.885
19262SOL    HW158130   8.138   6.747   2.945
19262SOL    HW258131   8.250   6.817   2.849
19263SOL     OW58132   8.298   6.384   3.685
19263SOL    HW158133   8.294   6.460   3.750
19263SOL    HW258134   8.320   6.420   3.594
19264SOL     OW58135   8.133   6.598   2.527
19264SOL    HW158136   8.202   6.582   2.597
19264SOL    HW258137   8.060   6.655   2.565
19265SOL     OW58138   8.134   6.747   3.665
19265SOL    HW158139   8.194   6.826   3.679
19265SOL    HW258140   8.048   6.778   3.624
19266SOL     OW58141   7.783   7.021   2.923
19266SOL    HW158142   7.705   6.990   2.870
19266SOL    HW258143   7.841   7.079   2.866
19267SOL     OW58144   8.908   7.091   3.201
19267SOL    HW158145   8.932   7.185   3.227
19267SOL    HW258146   8.892   7.037   3.283
19268SOL     OW58147   7.886   5.978   3.361
19268SOL    HW158148   7.968   5.922   3.370
19268SOL    HW258149   7.805   5.920   3.365
19269SOL     OW58150   9.051   6.033   2.599
19269SOL    HW158151   8.977   6.079   2.549
19269SOL    HW258152   9.102   6.101   2.652
19270SOL     OW58153   7.679   7.299   2.345
19270SOL    HW158154   7.713   7.376   2.399
19270SOL    HW258155   7.723   7.299   2.255
19271SOL     OW58156   8.575   6.927   3.552
19271SOL    HW158157   8.622   6.927   3.640
19271SOL    HW258158   8.527   6.840   3.541
19272SOL     OW58159   7.678   7.020   2.400
19272SOL    HW158160   7.652   7.116   2.400
19272SOL    HW258161   7.607   6.966   2.445
19273SOL     OW58162   7.688   6.677   2.748
19273SOL    HW158163   7.702   6.593   2.800
19273SOL    HW258164   7.633   6.741   2.803
19274SOL     OW58165   8.068   7.372   3.301
19274SOL    HW158166   7.976   7.355   3.336
19274SOL    HW258167   8.096   7.464   3.327
19275SOL     OW58168   8.054   6.550   1.985
19275SOL    HW158169   8.061   6.634   1.931
19275SOL    HW258170   8.100   6.563   2.073
19276SOL     OW58171   9.042   5.700   3.342
19276SOL    HW158172   9.024   5.767   3.270
19276SOL    HW258173   9.039   5.746   3.431
19277SOL     OW58174   7.570   6.229   2.425
19277SOL    HW158175   7.525   6.141   2.442
19277SOL    HW258176   7.569   6.283   2.509
19278SOL     OW58177   9.290   7.353   2.221
19278SOL    HW158178   9.344   7.324   2.301
19278SOL    HW258179   9.320   7.443   2.192
19279SOL     OW58180   7.475   7.182   1.979
19279SOL    HW158181   7.456   7.086   2.000
19279SOL    HW258182   7.442   7.240   2.054
19280SOL     OW58183   9.137   6.508   2.474
19280SOL    HW158184   9.232   6.479   2.482
19280SOL    HW258185   9.129   6.573   2.399
19281SOL     OW58186   9.089   6.694   2.294
19281SOL    HW158187   9.175   6.696   2.242
19281SOL    HW258188   9.103   6.741   2.382
19282SOL     OW58189   7.561   6.323   3.459
19282SOL    HW158190   7.649   6.310   3.504
19282SOL    HW258191   7.548   6.420   3.437
19283SOL     OW58192   8.061   6.951   2.588
19283SOL    HW158193   8.012   6.864   2.597
19283SOL    HW258194   8.038   6.994   2.501
19284SOL     OW58195   8.741   6.814   3.285
19284SOL    HW158196   8.778   6.741   3.227
19284SOL    HW258197   8.793   6.819   3.370
19285SOL     OW58198   8.257   5.590   2.364
19285SOL    HW158199   8.297   5.681   2.355
19285SOL    HW258200   8.157   5.598   2.370
19286SOL     OW58201   7.645   6.562   3.126
19286SOL    HW158202   7.734   6.517   3.112
19286SOL    HW258203   7.572   6.497   3.107
19287SOL     OW58204   8.973   6.585   2.052
19287SOL    HW158205   8.910   6.509   2.065
19287SOL    HW258206   9.021   6.603   2.138
19288SOL     OW58207   8.635   7.378   3.478
19288SOL    HW158208   8.659   7.438   3.402
19288SOL    HW258209   8.642   7.283   3.448
19289SOL     OW58210   7.765   5.837   3.663
19289SOL    HW158211   7.836   5.908   3.669
19289SOL    HW258212   7.677   5.876   3.691
19290SOL     OW58213   8.914   7.003   2.815
19290SOL    HW158214   8.855   7.009   2.895
19290SOL    HW258215   8.899   6.915   2.769
19291SOL     OW58216   9.115   7.300   2.434
19291SOL    HW158217   9.074   7.277   2.346
19291SOL    HW258218   9.097   7.226   2.499
19292SOL     OW58219   8.046   6.315   2.132
19292SOL    HW158220   8.070   6.384   2.064
19292SOL    HW258221   7.968   6.348   2.186
19293SOL     OW58222   8.729   5.931   2.806
19293SOL    HW158223   8.643   5.881   2.793
19293SOL    HW258224   8.791   5.877   2.862
19294SOL     OW58225   9.024   7.248   2.169
19294SOL    HW158226   9.113   7.294   2.172
19294SOL    HW258227   9.003   7.224   2.074
19295SOL     OW58228   8.255   6.191   3.327
19295SOL    HW158229   8.208   6.188   3.416
19295SOL    HW258230   8.204   6.136   3.261
19296SOL     OW58231   8.842   6.055   3.536
19296SOL    HW158232   8.822   6.098   3.624
19296SOL    HW258233   8.920   5.993   3.545
19297SOL     OW58234   8.421   6.476   3.434
19297SOL    HW158235   8.467   6.392   3.405
19297SOL    HW258236   8.365   6.510   3.359
19298SOL     OW58237   8.439   5.996   3.104
19298SOL    HW158238   8.362   6.030   3.158
19298SOL    HW258239   8.405   5.945   3.025
19299SOL     OW58240   8.489   6.287   2.291
19299SOL    HW158241   8.515   6.283   2.387
19299SOL    HW258242   8.404   6.236   2.277
19300SOL     OW58243   7.524   6.397   2.651
19300SOL    HW158244   7.623   6.385   2.660
19300SOL    HW258245   7.500   6.492   2.672
19301SOL     OW58246   7.578   7.407   3.433
19301SOL    HW158247   7.568   7.392   3.532
19301SOL    HW258248   7.492   7.443   3.397
19302SOL     OW58249   8.313   5.934   2.057
19302SOL    HW158250   8.372   5.997   2.008
19302SOL    HW258251   8.332   5.840   2.028
19303SOL     OW58252   9.167   6.171   3.693
19303SOL    HW158253   9.141   6.260   3.657
19303SOL    HW258254   9.165   6.103   3.620
19304SOL     OW58255   8.810   6.730   2.407
19304SOL    HW158256   8.893   6.701   2.359
19304SOL    HW258257   8.761   6.797   2.351
19305SOL     OW58258   7.998   5.782   2.747
19305SOL    HW158259   7.993   5.777   2.847
19305SOL    HW258260   8.000   5.878   2.718
19306SOL     OW58261   8.456   7.042   2.339
19306SOL    HW158262   8.410   7.114   2.287
19306SOL    HW258263   8.452   7.062   2.437
19307SOL     OW58264   9.243   6.652   2.735
19307SOL    HW158265   9.181   6.637   2.659
19307SOL    HW258266   9.191   6.663   2.820
19308SOL     OW58267   8.675   7.136   3.368
19308SOL    HW158268   8.681   7.059   3.432
19308SOL    HW258269   8.623   7.110   3.288
19309SOL     OW58270   7.769   6.529   2.104
19309SOL    HW158271   7.851   6.568   2.062
19309SOL    HW258272   7.742   6.447   2.055
19310SOL     OW58273   8.906   6.321   2.590
19310SOL    HW158274   8.901   6.256   2.665
19310SOL    HW258275   8.986   6.380   2.603
19311SOL     OW58276   7.909   6.852   3.589
19311SOL    HW158277   7.859   6.853   3.503
19311SOL    HW258278   7.846   6.834   3.665
19312SOL     OW58279   8.559   7.362   2.099
19312SOL    HW158280   8.499   7.300   2.149
19312SOL    HW258281   8.590   7.318   2.014
19313SOL     OW58282   7.650   5.871   3.360
19313SOL    HW158283   7.570   5.931   3.347
19313SOL    HW258284   7.640   5.822   3.446
19314SOL     OW58285   9.080   6.963   1.943
19314SOL    HW158286   9.048   7.057   1.933
19314SOL    HW258287   9.004   6.900   1.931
19315SOL     OW58288   7.912   7.329   2.185
19315SOL    HW158289   7.945   7.368   2.271
19315SOL    HW258290   7.988   7.322   2.120
19316SOL     OW58291   8.848   5.693   2.288
19316SOL    HW158292   8.824   5.656   2.198
19316SOL    HW258293   8.947   5.709   2.292
19317SOL     OW58294   7.697   7.371   3.103
19317SOL    HW158295   7.754   7.306   3.153
19317SOL    HW258296   7.681   7.338   3.010
19318SOL     OW58297   8.388   7.284   2.766
19318SOL    HW158298   8.468   7.227   2.787
19318SOL    HW258299   8.339   7.244   2.689
19319SOL     OW58300   7.830   6.286   2.342
19319SOL    HW158301   7.875   6.196   2.339
19319SOL    HW258302   7.736   6.275   2.375
19320SOL     OW58303   8.995   5.808   3.591
19320SOL    HW158304   8.990   5.845   3.683
19320SOL    HW258305   8.923   5.739   3.579
19321SOL     OW58306   8.062   5.708   1.979
19321SOL    HW158307   8.160   5.686   1.986
19321SOL    HW258308   8.031   5.691   1.886
19322SOL     OW58309   8.229   5.850   3.611
19322SOL    HW158310   8.296   5.789   3.654
19322SOL    HW258311   8.156   5.869   3.676
19323SOL     OW58312   8.336   7.100   3.057
19323SOL    HW158313   8.313   7.075   2.963
19323SOL    HW258314   8.397   7.031   3.096
19324SOL     OW58315   8.799   6.176   3.295
19324SOL    HW158316   8.827   6.133   3.380
19324SOL    HW258317   8.824   6.272   3.296
19325SOL     OW58318   8.251   6.988   2.786
19325SOL    HW158319   8.341   7.002   2.744
19325SOL    HW258320   8.180   6.990   2.715
19326SOL     OW58321   8.370   6.089   2.761
19326SOL    HW158322   8.345   6.080   2.665
19326SOL    HW258323   8.418   6.007   2.792
19327SOL     OW58324   7.987   5.650   2.374
19327SOL    HW158325   7.906   5.651   2.432
19327SOL    HW258326   7.990   5.733   2.319
19328SOL     OW58327   8.882   6.774   1.903
19328SOL    HW158328   8.914   6.698   1.960
19328SOL    HW258329   8.790   6.801   1.933
19329SOL     OW58330   7.745   5.621   2.033
19329SOL    HW158331   7.794   5.705   2.012
19329SOL    HW258332   7.807   5.556   2.078
19330SOL     OW58333   8.383   5.822   2.342
19330SOL    HW158334   8.335   5.863   2.264
19330SOL    HW258335   8.482   5.820   2.323
19331SOL     OW58336   8.524   6.269   3.326
19331SOL    HW158337   8.444   6.208   3.329
19331SOL    HW258338   8.605   6.216   3.302
19332SOL     OW58339   8.675   7.156   2.655
19332SOL    HW158340   8.696   7.230   2.590
19332SOL    HW258341   8.743   7.156   2.728
19333SOL     OW58342   7.907   6.738   2.603
19333SOL    HW158343   7.836   6.711   2.668
19333SOL    HW258344   7.881   6.710   2.510
19334SOL     OW58345   8.719   7.383   2.453
19334SOL    HW158346   8.763   7.447   2.389
19334SOL    HW258347   8.669   7.435   2.523
19335SOL     OW58348   8.480   6.135   1.878
19335SOL    HW158349   8.439   6.217   1.839
19335SOL    HW258350   8.544   6.161   1.951
19336SOL     OW58351   7.526   6.142   3.248
19336SOL    HW158352   7.618   6.141   3.207
19336SOL    HW258353   7.520   6.216   3.315
19337SOL     OW58354   8.009   5.808   3.009
19337SOL    HW158355   8.047   5.724   3.046
19337SOL    HW258356   7.921   5.827   3.053
19338SOL     OW58357   8.314   6.040   2.504
19338SOL    HW158358   8.282   6.112   2.442
19338SOL    HW258359   8.338   5.959   2.451
19339SOL     OW58360   8.465   5.625   2.615
19339SOL    HW158361   8.393   5.630   2.546
19339SOL    HW258362   8.441   5.556   2.684
19340SOL     OW58363   8.877   6.759   2.729
19340SOL    HW158364   8.822   6.675   2.722
19340SOL    HW258365   8.903   6.788   2.637
19341SOL     OW58366   8.914   6.176   2.854
19341SOL    HW158367   8.884   6.081   2.861
19341SOL    HW258368   8.987   6.192   2.920
19342SOL     OW58369   9.305   6.419   2.239
19342SOL    HW158370   9.347   6.355   2.303
19342SOL    HW258371   9.267   6.368   2.161
19343SOL     OW58372   7.936   6.971   2.036
19343SOL    HW158373   7.849   6.956   2.083
19343SOL    HW258374   7.919   6.997   1.941
19344SOL     OW58375   9.112   6.866   2.519
19344SOL    HW158376   9.211   6.874   2.533
19344SOL    HW258377   9.067   6.950   2.550
19345SOL     OW58378   8.838   6.161   1.940
19345SOL    HW158379   8.784   6.140   2.021
19345SOL    HW258380   8.929   6.120   1.949
19346SOL     OW58381   7.975   5.842   2.190
19346SOL    HW158382   8.002   5.783   2.115
19346SOL    HW258383   7.975   5.937   2.159
19347SOL     OW58384   9.202   6.809   3.450
19347SOL    HW158385   9.293   6.770   3.437
19347SOL    HW258386   9.210   6.905   3.474
19348SOL     OW58387   8.512   6.933   3.202
19348SOL    HW158388   8.432   6.910   3.257
19348SOL    HW258389   8.595   6.907   3.251
19349SOL     OW58390   9.040   7.215   3.487
19349SOL    HW158391   9.067   7.249   3.397
19349SOL    HW258392   9.119   7.177   3.533
19350SOL     OW58393   8.559   6.781   2.962
19350SOL    HW158394   8.519   6.825   3.043
19350SOL    HW258395   8.518   6.818   2.879
19351SOL     OW58396   9.086   6.685   2.941
19351SOL    HW158397   9.091   6.766   3.000
19351SOL    HW258398   9.000   6.687   2.890
19352SOL     OW58399   8.363   5.675   3.264
19352SOL    HW158400   8.388   5.655   3.169
19352SOL    HW258401   8.435   5.731   3.306
19353SOL     OW58402   8.428   6.702   3.581
19353SOL    HW158403   8.329   6.708   3.591
19353SOL    HW258404   8.451   6.622   3.525
19354SOL     OW58405   8.153   6.636   2.230
19354SOL    HW158406   8.139   6.643   2.329
19354SOL    HW258407   8.237   6.585   2.212
19355SOL     OW58408   7.858   6.399   3.113
19355SOL    HW158409   7.944   6.411   3.163
19355SOL    HW258410   7.816   6.312   3.140
19356SOL     OW58411   8.722   5.972   3.124
19356SOL    HW158412   8.743   6.046   3.188
19356SOL    HW258413   8.633   5.989   3.081
19357SOL     OW58414   7.512   7.150   3.193
19357SOL    HW158415   7.466   7.232   3.159
19357SOL    HW258416   7.610   7.169   3.202
19358SOL     OW58417   7.815   6.686   2.363
19358SOL    HW158418   7.808   6.769   2.307
19358SOL    HW258419   7.819   6.606   2.303
19359SOL     OW58420   8.014   6.123   2.727
19359SOL    HW158421   8.026   6.189   2.653
19359SOL    HW258422   8.060   6.157   2.810
19360SOL     OW58423   8.700   6.934   2.250
19360SOL    HW158424   8.750   7.011   2.290
19360SOL    HW258425   8.605   6.936   2.282
19361SOL     OW58426   8.720   7.031   3.004
19361SOL    HW158427   8.767   7.044   3.091
19361SOL    HW258428   8.654   6.957   3.013
19362SOL     OW58429   9.030   6.225   2.334
19362SOL    HW158430   8.999   6.286   2.407
19362SOL    HW258431   9.080   6.277   2.265
19363SOL     OW58432   7.802   7.096   3.191
19363SOL    HW158433   7.781   7.052   3.104
19363SOL    HW258434   7.899   7.122   3.194
19364SOL     OW58435   7.850   6.337   3.460
19364SOL    HW158436   7.918   6.392   3.413
19364SOL    HW258437   7.890   6.249   3.487
19365SOL     OW58438   9.035   6.365   3.532
19365SOL    HW158439   8.943   6.403   3.527
19365SOL    HW258440   9.095   6.412   3.467
19366SOL     OW58441   8.461   5.691   3.632
19366SOL    HW158442   8.467   5.776   3.580
19366SOL    HW258443   8.493   5.615   3.575
19367SOL     OW58444   7.952   5.636   3.602
19367SOL    HW158445   7.910   5.579   3.532
19367SOL    HW258446   7.886   5.705   3.634
19368SOL     OW58447   8.021   6.456   2.891
19368SOL    HW158448   8.065   6.545   2.882
19368SOL    HW258449   7.958   6.456   2.968
19369SOL     OW58450   8.808   6.448   2.907
19369SOL    HW158451   8.733   6.448   2.841
19369SOL    HW258452   8.845   6.356   2.916
19370SOL     OW58453   8.657   6.111   2.137
19370SOL    HW158454   8.670   6.027   2.191
19370SOL    HW258455   8.628   6.185   2.197
19371SOL     OW58456   7.755   5.799   3.093
19371SOL    HW158457   7.732   5.836   3.183
19371SOL    HW258458   7.725   5.704   3.087
19372SOL     OW58459   7.485   6.896   3.144
19372SOL    HW158460   7.538   6.847   3.212
19372SOL    HW258461   7.507   6.994   3.149
19373SOL     OW58462   8.180   6.220   2.926
19373SOL    HW158463   8.239   6.194   2.850
19373SOL    HW258464   8.152   6.316   2.915
19374SOL     OW58465   9.176   6.521   3.716
19374SOL    HW158466   9.130   6.514   3.627
19374SOL    HW258467   9.114   6.565   3.782
19375SOL     OW58468   7.755   5.649   2.480
19375SOL    HW158469   7.744   5.743   2.513
19375SOL    HW258470   7.750   5.586   2.557
19376SOL     OW58471   9.070   5.953   2.236
19376SOL    HW158472   9.072   5.877   2.300
19376SOL    HW258473   9.022   6.030   2.276
19377SOL     OW58474   8.471   6.352   2.828
19377SOL    HW158475   8.486   6.373   2.924
19377SOL    HW258476   8.441   6.257   2.819
19378SOL     OW58477   8.428   7.159   3.562
19378SOL    HW158478   8.408   7.203   3.474
19378SOL    HW258479   8.467   7.068   3.546
19379SOL     OW58480   9.307   7.104   3.467
19379SOL    HW158481   9.321   7.131   3.372
19379SOL    HW258482   9.390   7.126   3.520
19380SOL     OW58483   7.798   6.484   3.666
19380SOL    HW158484   7.874   6.528   3.714
19380SOL    HW258485   7.833   6.437   3.584
19381SOL     OW58486   8.988   5.860   1.987
19381SOL    HW158487   8.927   5.785   2.010
19381SOL    HW258488   9.010   5.912   2.070
19382SOL     OW58489   8.751   6.424   1.904
19382SOL    HW158490   8.785   6.331   1.919
19382SOL    HW258491   8.769   6.451   1.809
19383SOL     OW58492   8.516   6.919   2.711
19383SOL    HW158493   8.523   6.835   2.656
19383SOL    HW258494   8.578   6.988   2.675
19384SOL     OW58495   7.767   6.396   2.811
19384SOL    HW158496   7.860   6.432   2.816
19384SOL    HW258497   7.761   6.311   2.863
19385SOL     OW58498   7.787   6.095   2.868
19385SOL    HW158499   7.735   6.012   2.851
19385SOL    HW258500   7.864   6.100   2.804
19386SOL     OW58501   8.586   5.966   3.540
19386SOL    HW158502   8.541   6.029   3.604
19386SOL    HW258503   8.679   5.997   3.523
19387SOL     OW58504   8.608   5.793   3.339
19387SOL    HW158505   8.608   5.857   3.416
19387SOL    HW258506   8.636   5.841   3.256
19388SOL     OW58507   7.456   6.912   2.062
19388SOL    HW158508   7.363   6.933   2.031
19388SOL    HW258509   7.466   6.813   2.075
19389SOL     OW58510   7.536   7.387   2.789
19389SOL    HW158511   7.494   7.301   2.762
19389SOL    HW258512   7.630   7.390   2.755
19390SOL     OW58513   7.952   7.154   2.772
19390SOL    HW158514   8.018   7.228   2.781
19390SOL    HW258515   7.996   7.075   2.730
19391SOL     OW58516   8.450   6.382   3.100
19391SOL    HW158517   8.491   6.350   3.186
19391SOL    HW258518   8.354   6.355   3.097
19392SOL     OW58519   7.488   6.130   2.976
19392SOL    HW158520   7.573   6.097   2.935
19392SOL    HW258521   7.501   6.145   3.074
19393SOL     OW58522   7.637   6.106   3.584
19393SOL    HW158523   7.696   6.066   3.514
19393SOL    HW258524   7.579   6.177   3.543
19394SOL     OW58525   8.817   6.536   3.522
19394SOL    HW158526   8.856   6.625   3.542
19394SOL    HW258527   8.827   6.516   3.425
19395SOL     OW58528   8.263   6.158   2.187
19395SOL    HW158529   8.270   6.069   2.141
19395SOL    HW258530   8.169   6.192   2.179
19396SOL     OW58531   9.105   6.190   3.068
19396SOL    HW158532   9.067   6.121   3.130
19396SOL    HW258533   9.187   6.154   3.024
19397SOL     OW58534   7.700   7.150   3.606
19397SOL    HW158535   7.670   7.207   3.682
19397SOL    HW258536   7.693   7.053   3.632
19398SOL     OW58537   8.119   6.050   3.131
19398SOL    HW158538   8.085   5.961   3.101
19398SOL    HW258539   8.145   6.104   3.051
19399SOL     OW58540   8.378   7.264   3.327
19399SOL    HW158541   8.354   7.246   3.232
19399SOL    HW258542   8.408   7.358   3.337
19400SOL     OW58543   7.921   6.086   2.053
19400SOL    HW158544   7.982   6.166   2.057
19400SOL    HW258545   7.826   6.117   2.060
19401SOL     OW58546   7.607   6.723   3.328
19401SOL    HW158547   7.629   6.662   3.404
19401SOL    HW258548   7.617   6.674   3.242
19402SOL     OW58549   8.795   6.645   3.096
19402SOL    HW158550   8.819   6.582   3.022
19402SOL    HW258551   8.705   6.685   3.078
19403SOL     OW58552   8.750   6.441   2.171
19403SOL    HW158553   8.664   6.410   2.213
19403SOL    HW258554   8.746   6.427   2.072
19404SOL     OW58555   9.207   7.333   3.016
19404SOL    HW158556   9.268   7.363   2.943
19404SOL    HW258557   9.169   7.244   2.994
19405SOL     OW58558   8.700   7.317   2.990
19405SOL    HW158559   8.784   7.322   2.936
19405SOL    HW258560   8.677   7.221   3.008
19406SOL     OW58561   7.531   6.844   2.884
19406SOL    HW158562   7.526   6.843   2.984
19406SOL    HW258563   7.448   6.803   2.846
19407SOL     OW58564   8.136   7.248   3.578
19407SOL    HW158565   8.080   7.329   3.587
19407SOL    HW258566   8.188   7.252   3.492
19408SOL     OW58567   9.174   5.721   2.385
19408SOL    HW158568   9.247   5.704   2.318
19408SOL    HW258569   9.143   5.634   2.423
19409SOL     OW58570   8.836   7.159   2.339
19409SOL    HW158571   8.903   7.171   2.265
19409SOL    HW258572   8.796   7.248   2.362
19410SOL     OW58573   7.578   7.380   3.713
19410SOL    HW158574   7.537   7.306   3.766
19410SOL    HW258575   7.642   7.431   3.771
19411SOL     OW58576   8.728   6.513   2.534
19411SOL    HW158577   8.788   6.432   2.536
19411SOL    HW258578   8.768   6.582   2.474
19412SOL     OW58579   8.278   6.859   3.284
19412SOL    HW158580   8.273   6.892   3.379
19412SOL    HW258581   8.192   6.878   3.238
19413SOL     OW58582   8.120   7.202   2.016
19413SOL    HW158583   8.129   7.212   1.917
19413SOL    HW258584   8.080   7.113   2.037
19414SOL     OW58585   9.098   7.306   3.256
19414SOL    HW158586   9.151   7.316   3.172
19414SOL    HW258587   9.071   7.396   3.290
19415SOL     OW58588   9.289   5.761   2.825
19415SOL    HW158589   9.328   5.676   2.789
19415SOL    HW258590   9.191   5.763   2.806
19416SOL     OW58591   7.711   5.912   2.582
19416SOL    HW158592   7.632   5.963   2.548
19416SOL    HW258593   7.702   5.897   2.680
19417SOL     OW58594   8.642   7.198   1.893
19417SOL    HW158595   8.648   7.105   1.930
19417SOL    HW258596   8.583   7.198   1.813
19418SOL     OW58597   8.270   6.588   3.234
19418SOL    HW158598   8.310   6.587   3.142
19418SOL    HW258599   8.280   6.680   3.274
19419SOL     OW58600   8.364   6.496   2.153
19419SOL    HW158601   8.427   6.534   2.085
19419SOL    HW258602   8.404   6.413   2.192
19420SOL     OW58603   8.952   7.193   1.906
19420SOL    HW158604   8.860   7.230   1.913
19420SOL    HW258605   8.990   7.213   1.816
19421SOL     OW58606   7.820   6.874   3.352
19421SOL    HW158607   7.807   6.967   3.318
19421SOL    HW258608   7.736   6.822   3.339
19422SOL     OW58609   9.062   6.878   3.151
19422SOL    HW158610   9.122   6.881   3.231
19422SOL    HW258611   8.987   6.942   3.164
19423SOL     OW58612   8.487   6.684   2.558
19423SOL    HW158613   8.417   6.637   2.612
19423SOL    HW258614   8.546   6.616   2.515
19424SOL     OW58615   8.462   5.822   2.833
19424SOL    HW158616   8.454   5.786   2.740
19424SOL    HW258617   8.460   5.746   2.898
19425SOL     OW58618   8.038   7.073   2.353
19425SOL    HW158619   8.080   7.015   2.283
19425SOL    HW258620   7.994   7.152   2.309
19426SOL     OW58621   9.157   5.971   3.243
19426SOL    HW158622   9.230   6.040   3.247
19426SOL    HW258623   9.185   5.896   3.184
19427SOL     OW58624   7.703   6.934   2.152
19427SOL    HW158625   7.607   6.935   2.125
19427SOL    HW258626   7.715   6.987   2.236
19428SOL     OW58627   7.553   6.599   3.588
19428SOL    HW158628   7.476   6.566   3.642
19428SOL    HW258629   7.638   6.569   3.630
19429SOL     OW58630   8.120   5.789   3.351
19429SOL    HW158631   8.210   5.773   3.311
19429SOL    HW258632   8.128   5.794   3.450
19430SOL     OW58633   7.523   5.931   1.895
19430SOL    HW158634   7.431   5.903   1.866
19430SOL    HW258635   7.554   6.008   1.839
19431SOL     OW58636   8.888   6.442   3.260
19431SOL    HW158637   8.831   6.494   3.197
19431SOL    HW258638   8.984   6.454   3.236
19432SOL     OW58639   7.520   5.752   2.180
19432SOL    HW158640   7.503   5.835   2.126
19432SOL    HW258641   7.610   5.715   2.158
19433SOL     OW58642   8.631   6.921   1.981
19433SOL    HW158643   8.532   6.910   1.983
19433SOL    HW258644   8.665   6.936   2.074
19434SOL     OW58645   8.061   6.428   3.293
19434SOL    HW158646   8.117   6.509   3.276
19434SOL    HW258647   8.120   6.348   3.296
19435SOL     OW58648   8.941   7.353   2.821
19435SOL    HW158649   8.974   7.417   2.752
19435SOL    HW258650   9.007   7.347   2.896
19436SOL     OW58651   8.164   6.151   3.570
19436SOL    HW158652   8.183   6.216   3.644
19436SOL    HW258653   8.224   6.071   3.579
19437SOL     OW58654   8.898   6.806   3.495
19437SOL    HW158655   8.889   6.796   3.594
19437SOL    HW258656   8.994   6.799   3.469
19438SOL     OW58657   7.838   7.327   3.422
19438SOL    HW158658   7.747   7.368   3.420
19438SOL    HW258659   7.831   7.233   3.454
19439SOL     OW58660   9.122   6.469   3.116
19439SOL    HW158661   9.095   6.380   3.079
19439SOL    HW258662   9.123   6.537   3.043
19440SOL     OW58663   8.673   5.911   2.311
19440SOL    HW158664   8.738   5.837   2.300
19440SOL    HW258665   8.693   5.961   2.395
19441SOL     OW58666   8.042   6.331   2.514
19441SOL    HW158667   8.092   6.416   2.495
19441SOL    HW258668   7.954   6.333   2.466
19442SOL     OW58669   9.225   5.928   3.504
19442SOL    HW158670   9.208   5.959   3.410
19442SOL    HW258671   9.141   5.891   3.542
19443SOL     OW58672   9.178   6.520   3.379
19443SOL    HW158673   9.216   6.611   3.394
19443SOL    HW258674   9.170   6.503   3.280
19444SOL     OW58675   8.307   6.960   1.878
19444SOL    HW158676   8.261   6.975   1.966
19444SOL    HW258677   8.351   7.045   1.848
19445SOL     OW58678   8.109   7.376   2.815
19445SOL    HW158679   8.063   7.464   2.802
19445SOL    HW258680   8.208   7.388   2.808
19446SOL     OW58681   8.307   6.542   2.723
19446SOL    HW158682   8.361   6.473   2.771
19446SOL    HW258683   8.275   6.611   2.789
19447SOL     OW58684   8.531   6.570   1.949
19447SOL    HW158685   8.508   6.623   1.867
19447SOL    HW258686   8.612   6.514   1.930
19448SOL     OW58687   9.309   7.155   2.713
19448SOL    HW158688   9.238   7.143   2.643
19448SOL    HW258689   9.310   7.076   2.773
19449SOL     OW58690   7.669   6.900   3.706
19449SOL    HW158691   7.604   6.827   3.685
19449SOL    HW258692   7.673   6.914   3.804
19450SOL     OW58693   7.527   6.826   2.515
19450SOL    HW158694   7.526   6.779   2.603
19450SOL    HW258695   7.609   6.798   2.464
19451SOL     OW58696   8.120   6.977   3.486
19451SOL    HW158697   8.042   6.927   3.524
19451SOL    HW258698   8.117   7.072   3.517
19452SOL     OW58699   9.272   5.778   3.089
19452SOL    HW158700   9.268   5.688   3.133
19452SOL    HW258701   9.275   5.767   2.990
19453SOL     OW58702   7.876   6.010   2.382
19453SOL    HW158703   7.906   5.938   2.320
19453SOL    HW258704   7.837   5.970   2.465
19454SOL     OW58705   9.153   7.073   2.966
19454SOL    HW158706   9.060   7.048   2.939
19454SOL    HW258707   9.179   7.023   3.048
19455SOL     OW58708   7.765   6.133   3.142
19455SOL    HW158709   7.803   6.074   3.214
19455SOL    HW258710   7.805   6.107   3.054
19456SOL     OW58711   8.260   7.172   2.549
19456SOL    HW158712   8.292   7.182   2.455
19456SOL    HW258713   8.181   7.110   2.551
19457SOL     OW58714   8.872   5.800   2.974
19457SOL    HW158715   8.924   5.735   3.029
19457SOL    HW258716   8.823   5.863   3.035
19458SOL     OW58717   8.449   5.620   3.016
19458SOL    HW158718   8.386   5.548   2.985
19458SOL    HW258719   8.542   5.584   3.016
19459SOL     OW58720   8.218   6.916   2.163
19459SOL    HW158721   8.172   6.829   2.180
19459SOL    HW258722   8.309   6.913   2.204
19460SOL     OW58723   8.066   7.153   3.146
19460SOL    HW158724   8.061   7.235   3.203
19460SOL    HW258725   8.155   7.150   3.101
19461SOL     OW58726   8.800   5.638   2.030
19461SOL    HW158727   8.835   5.597   1.946
19461SOL    HW258728   8.710   5.600   2.050
19462SOL     OW58729   8.748   6.039   2.553
19462SOL    HW158730   8.689   6.119   2.557
19462SOL    HW258731   8.763   6.004   2.646
19463SOL     OW58732   9.041   5.807   2.744
19463SOL    HW158733   8.957   5.806   2.798
19463SOL    HW258734   9.043   5.890   2.688
19464SOL     OW58735   7.487   6.663   2.162
19464SOL    HW158736   7.586   6.652   2.153
19464SOL    HW258737   7.447   6.577   2.194
19465SOL     OW58738   8.323   7.232   2.199
19465SOL    HW158739   8.246   7.197   2.145
19465SOL    HW258740   8.291   7.303   2.261
19466SOL     OW58741   7.678   6.214   3.837
19466SOL    HW158742   7.585   6.212   3.874
19466SOL    HW258743   7.679   6.175   3.745
19467SOL     OW58744   7.673   5.861   4.720
19467SOL    HW158745   7.708   5.844   4.812
19467SOL    HW258746   7.585   5.816   4.708
19468SOL     OW58747   7.467   5.954   4.371
19468SOL    HW158748   7.385   5.997   4.410
19468SOL    HW258749   7.439   5.881   4.308
19469SOL     OW58750   8.017   6.861   4.889
19469SOL    HW158751   7.924   6.854   4.852
19469SOL    HW258752   8.028   6.950   4.933
19470SOL     OW58753   9.003   7.097   4.427
19470SOL    HW158754   8.946   7.081   4.508
19470SOL    HW258755   8.944   7.107   4.347
19471SOL     OW58756   8.583   6.289   4.441
19471SOL    HW158757   8.640   6.367   4.416
19471SOL    HW258758   8.523   6.315   4.517
19472SOL     OW58759   9.203   6.193   3.955
19472SOL    HW158760   9.191   6.180   3.856
19472SOL    HW258761   9.173   6.112   4.004
19473SOL     OW58762   8.216   6.730   4.747
19473SOL    HW158763   8.138   6.747   4.807
19473SOL    HW258764   8.250   6.817   4.711
19474SOL     OW58765   8.298   6.384   5.547
19474SOL    HW158766   8.294   6.460   5.612
19474SOL    HW258767   8.320   6.420   5.456
19475SOL     OW58768   8.133   6.598   4.389
19475SOL    HW158769   8.202   6.582   4.459
19475SOL    HW258770   8.060   6.655   4.427
19476SOL     OW58771   8.134   6.747   5.527
19476SOL    HW158772   8.194   6.826   5.541
19476SOL    HW258773   8.048   6.778   5.486
19477SOL     OW58774   7.783   7.021   4.785
19477SOL    HW158775   7.705   6.990   4.732
19477SOL    HW258776   7.841   7.079   4.728
19478SOL     OW58777   8.908   7.091   5.063
19478SOL    HW158778   8.932   7.185   5.089
19478SOL    HW258779   8.892   7.037   5.145
19479SOL     OW58780   7.886   5.978   5.223
19479SOL    HW158781   7.968   5.922   5.232
19479SOL    HW258782   7.805   5.920   5.227
19480SOL     OW58783   9.051   6.033   4.461
19480SOL    HW158784   8.977   6.079   4.411
19480SOL    HW258785   9.102   6.101   4.514
19481SOL     OW58786   7.679   7.299   4.207
19481SOL    HW158787   7.713   7.376   4.261
19481SOL    HW258788   7.723   7.299   4.117
19482SOL     OW58789   8.575   6.927   5.414
19482SOL    HW158790   8.622   6.927   5.502
19482SOL    HW258791   8.527   6.840   5.403
19483SOL     OW58792   7.678   7.020   4.262
19483SOL    HW158793   7.652   7.116   4.262
19483SOL    HW258794   7.607   6.966   4.307
19484SOL     OW58795   7.688   6.677   4.610
19484SOL    HW158796   7.702   6.593   4.662
19484SOL    HW258797   7.633   6.741   4.665
19485SOL     OW58798   8.068   7.372   5.163
19485SOL    HW158799   7.976   7.355   5.198
19485SOL    HW258800   8.096   7.464   5.189
19486SOL     OW58801   8.054   6.550   3.847
19486SOL    HW158802   8.061   6.634   3.793
19486SOL    HW258803   8.100   6.563   3.935
19487SOL     OW58804   9.042   5.700   5.204
19487SOL    HW158805   9.024   5.767   5.132
19487SOL    HW258806   9.039   5.746   5.293
19488SOL     OW58807   7.570   6.229   4.287
19488SOL    HW158808   7.525   6.141   4.304
19488SOL    HW258809   7.569   6.283   4.371
19489SOL     OW58810   9.290   7.353   4.083
19489SOL    HW158811   9.344   7.324   4.163
19489SOL    HW258812   9.320   7.443   4.054
19490SOL     OW58813   7.475   7.182   3.841
19490SOL    HW158814   7.456   7.086   3.862
19490SOL    HW258815   7.442   7.240   3.916
19491SOL     OW58816   9.137   6.508   4.336
19491SOL    HW158817   9.232   6.479   4.344
19491SOL    HW258818   9.129   6.573   4.261
19492SOL     OW58819   9.089   6.694   4.156
19492SOL    HW158820   9.175   6.696   4.104
19492SOL    HW258821   9.103   6.741   4.244
19493SOL     OW58822   7.561   6.323   5.321
19493SOL    HW158823   7.649   6.310   5.366
19493SOL    HW258824   7.548   6.420   5.299
19494SOL     OW58825   8.061   6.951   4.450
19494SOL    HW158826   8.012   6.864   4.459
19494SOL    HW258827   8.038   6.994   4.363
19495SOL     OW58828   8.741   6.814   5.147
19495SOL    HW158829   8.778   6.741   5.089
19495SOL    HW258830   8.793   6.819   5.232
19496SOL     OW58831   8.257   5.590   4.226
19496SOL    HW158832   8.297   5.681   4.217
19496SOL    HW258833   8.157   5.598   4.232
19497SOL     OW58834   7.645   6.562   4.988
19497SOL    HW158835   7.734   6.517   4.974
19497SOL    HW258836   7.572   6.497   4.969
19498SOL     OW58837   8.973   6.585   3.914
19498SOL    HW158838   8.910   6.509   3.927
19498SOL    HW258839   9.021   6.603   4.000
19499SOL     OW58840   8.635   7.378   5.340
19499SOL    HW158841   8.659   7.438   5.264
19499SOL    HW258842   8.642   7.283   5.310
19500SOL     OW58843   7.765   5.837   5.525
19500SOL    HW158844   7.836   5.908   5.531
19500SOL    HW258845   7.677   5.876   5.553
19501SOL     OW58846   8.914   7.003   4.677
19501SOL    HW158847   8.855   7.009   4.757
19501SOL    HW258848   8.899   6.915   4.631
19502SOL     OW58849   9.115   7.300   4.296
19502SOL    HW158850   9.074   7.277   4.208
19502SOL    HW258851   9.097   7.226   4.361
19503SOL     OW58852   8.046   6.315   3.994
19503SOL    HW158853   8.070   6.384   3.926
19503SOL    HW258854   7.968   6.348   4.048
19504SOL     OW58855   8.729   5.931   4.668
19504SOL    HW158856   8.643   5.881   4.655
19504SOL    HW258857   8.791   5.877   4.724
19505SOL     OW58858   9.024   7.248   4.031
19505SOL    HW158859   9.113   7.294   4.034
19505SOL    HW258860   9.003   7.224   3.936
19506SOL     OW58861   8.255   6.191   5.189
19506SOL    HW158862   8.208   6.188   5.278
19506SOL    HW258863   8.204   6.136   5.123
19507SOL     OW58864   8.842   6.055   5.398
19507SOL    HW158865   8.822   6.098   5.486
19507SOL    HW258866   8.920   5.993   5.407
19508SOL     OW58867   8.421   6.476   5.296
19508SOL    HW158868   8.467   6.392   5.267
19508SOL    HW258869   8.365   6.510   5.221
19509SOL     OW58870   8.439   5.996   4.966
19509SOL    HW158871   8.362   6.030   5.020
19509SOL    HW258872   8.405   5.945   4.887
19510SOL     OW58873   8.489   6.287   4.153
19510SOL    HW158874   8.515   6.283   4.249
19510SOL    HW258875   8.404   6.236   4.139
19511SOL     OW58876   7.524   6.397   4.513
19511SOL    HW158877   7.623   6.385   4.522
19511SOL    HW258878   7.500   6.492   4.534
19512SOL     OW58879   7.578   7.407   5.295
19512SOL    HW158880   7.568   7.392   5.394
19512SOL    HW258881   7.492   7.443   5.259
19513SOL     OW58882   8.313   5.934   3.919
19513SOL    HW158883   8.372   5.997   3.870
19513SOL    HW258884   8.332   5.840   3.890
19514SOL     OW58885   9.167   6.171   5.555
19514SOL    HW158886   9.141   6.260   5.519
19514SOL    HW258887   9.165   6.103   5.482
19515SOL     OW58888   8.810   6.730   4.269
19515SOL    HW158889   8.893   6.701   4.221
19515SOL    HW258890   8.761   6.797   4.213
19516SOL     OW58891   7.998   5.782   4.609
19516SOL    HW158892   7.993   5.777   4.709
19516SOL    HW258893   8.000   5.878   4.580
19517SOL     OW58894   8.456   7.042   4.201
19517SOL    HW158895   8.410   7.114   4.149
19517SOL    HW258896   8.452   7.062   4.299
19518SOL     OW58897   7.799   7.387   4.577
19518SOL    HW158898   7.849   7.301   4.583
19518SOL    HW258899   7.864   7.464   4.574
19519SOL     OW58900   9.243   6.652   4.597
19519SOL    HW158901   9.181   6.637   4.521
19519SOL    HW258902   9.191   6.663   4.682
19520SOL     OW58903   8.675   7.136   5.230
19520SOL    HW158904   8.681   7.059   5.294
19520SOL    HW258905   8.623   7.110   5.150
19521SOL     OW58906   7.769   6.529   3.966
19521SOL    HW158907   7.851   6.568   3.924
19521SOL    HW258908   7.742   6.447   3.917
19522SOL     OW58909   8.906   6.321   4.452
19522SOL    HW158910   8.901   6.256   4.527
19522SOL    HW258911   8.986   6.380   4.465
19523SOL     OW58912   7.909   6.852   5.451
19523SOL    HW158913   7.859   6.853   5.365
19523SOL    HW258914   7.846   6.834   5.527
19524SOL     OW58915   8.559   7.362   3.961
19524SOL    HW158916   8.499   7.300   4.011
19524SOL    HW258917   8.590   7.318   3.876
19525SOL     OW58918   7.650   5.871   5.222
19525SOL    HW158919   7.570   5.931   5.209
19525SOL    HW258920   7.640   5.822   5.308
19526SOL     OW58921   9.080   6.963   3.805
19526SOL    HW158922   9.048   7.057   3.795
19526SOL    HW258923   9.004   6.900   3.793
19527SOL     OW58924   7.912   7.329   4.047
19527SOL    HW158925   7.945   7.368   4.133
19527SOL    HW258926   7.988   7.322   3.982
19528SOL     OW58927   8.848   5.693   4.150
19528SOL    HW158928   8.824   5.656   4.060
19528SOL    HW258929   8.947   5.709   4.154
19529SOL     OW58930   7.697   7.371   4.965
19529SOL    HW158931   7.754   7.306   5.015
19529SOL    HW258932   7.681   7.338   4.872
19530SOL     OW58933   8.388   7.284   4.628
19530SOL    HW158934   8.468   7.227   4.649
19530SOL    HW258935   8.339   7.244   4.551
19531SOL     OW58936   7.830   6.286   4.204
19531SOL    HW158937   7.875   6.196   4.201
19531SOL    HW258938   7.736   6.275   4.237
19532SOL     OW58939   8.995   5.808   5.453
19532SOL    HW158940   8.990   5.845   5.545
19532SOL    HW258941   8.923   5.739   5.441
19533SOL     OW58942   8.062   5.708   3.841
19533SOL    HW158943   8.160   5.686   3.848
19533SOL    HW258944   8.031   5.691   3.748
19534SOL     OW58945   8.229   5.850   5.473
19534SOL    HW158946   8.296   5.789   5.516
19534SOL    HW258947   8.156   5.869   5.538
19535SOL     OW58948   8.336   7.100   4.919
19535SOL    HW158949   8.313   7.075   4.825
19535SOL    HW258950   8.397   7.031   4.958
19536SOL     OW58951   8.799   6.176   5.157
19536SOL    HW158952   8.827   6.133   5.242
19536SOL    HW258953   8.824   6.272   5.158
19537SOL     OW58954   8.251   6.988   4.648
19537SOL    HW158955   8.341   7.002   4.606
19537SOL    HW258956   8.180   6.990   4.577
19538SOL     OW58957   8.370   6.089   4.623
19538SOL    HW158958   8.345   6.080   4.527
19538SOL    HW258959   8.418   6.007   4.654
19539SOL     OW58960   7.987   5.650   4.236
19539SOL    HW158961   7.906   5.651   4.294
19539SOL    HW258962   7.990   5.733   4.181
19540SOL     OW58963   8.882   6.774   3.765
19540SOL    HW158964   8.914   6.698   3.822
19540SOL    HW258965   8.790   6.801   3.795
19541SOL     OW58966   7.745   5.621   3.895
19541SOL    HW158967   7.794   5.705   3.874
19541SOL    HW258968   7.807   5.556   3.940
19542SOL     OW58969   8.383   5.822   4.204
19542SOL    HW158970   8.335   5.863   4.126
19542SOL    HW258971   8.482   5.820   4.185
19543SOL     OW58972   8.524   6.269   5.188
19543SOL    HW158973   8.444   6.208   5.191
19543SOL    HW258974   8.605   6.216   5.164
19544SOL     OW58975   8.675   7.156   4.517
19544SOL    HW158976   8.696   7.230   4.452
19544SOL    HW258977   8.743   7.156   4.590
19545SOL     OW58978   7.907   6.738   4.465
19545SOL    HW158979   7.836   6.711   4.530
19545SOL    HW258980   7.881   6.710   4.372
19546SOL     OW58981   8.719   7.383   4.315
19546SOL    HW158982   8.763   7.447   4.251
19546SOL    HW258983   8.669   7.435   4.385
19547SOL     OW58984   8.480   6.135   3.740
19547SOL    HW158985   8.439   6.217   3.701
19547SOL    HW258986   8.544   6.161   3.813
19548SOL     OW58987   7.526   6.142   5.110
19548SOL    HW158988   7.618   6.141   5.069
19548SOL    HW258989   7.520   6.216   5.177
19549SOL     OW58990   8.009   5.808   4.871
19549SOL    HW158991   8.047   5.724   4.908
19549SOL    HW258992   7.921   5.827   4.915
19550SOL     OW58993   8.314   6.040   4.366
19550SOL    HW158994   8.282   6.112   4.304
19550SOL    HW258995   8.338   5.959   4.313
19551SOL     OW58996   8.465   5.625   4.477
19551SOL    HW158997   8.393   5.630   4.408
19551SOL    HW258998   8.441   5.556   4.546
19552SOL     OW58999   8.877   6.759   4.591
19552SOL    HW159000   8.822   6.675   4.584
19552SOL    HW259001   8.903   6.788   4.499
19553SOL     OW59002   8.914   6.176   4.716
19553SOL    HW159003   8.884   6.081   4.723
19553SOL    HW259004   8.987   6.192   4.782
19554SOL     OW59005   9.305   6.419   4.101
19554SOL    HW159006   9.347   6.355   4.165
19554SOL    HW259007   9.267   6.368   4.023
19555SOL     OW59008   7.936   6.971   3.898
19555SOL    HW159009   7.849   6.956   3.945
19555SOL    HW259010   7.919   6.997   3.803
19556SOL     OW59011   9.112   6.866   4.381
19556SOL    HW159012   9.211   6.874   4.395
19556SOL    HW259013   9.067   6.950   4.412
19557SOL     OW59014   8.838   6.161   3.802
19557SOL    HW159015   8.784   6.140   3.883
19557SOL    HW259016   8.929   6.120   3.811
19558SOL     OW59017   7.975   5.842   4.052
19558SOL    HW159018   8.002   5.783   3.977
19558SOL    HW259019   7.975   5.937   4.021
19559SOL     OW59020   9.202   6.809   5.312
19559SOL    HW159021   9.293   6.770   5.299
19559SOL    HW259022   9.210   6.905   5.336
19560SOL     OW59023   8.512   6.933   5.064
19560SOL    HW159024   8.432   6.910   5.119
19560SOL    HW259025   8.595   6.907   5.113
19561SOL     OW59026   9.040   7.215   5.349
19561SOL    HW159027   9.067   7.249   5.259
19561SOL    HW259028   9.119   7.177   5.395
19562SOL     OW59029   8.559   6.781   4.824
19562SOL    HW159030   8.519   6.825   4.905
19562SOL    HW259031   8.518   6.818   4.741
19563SOL     OW59032   9.086   6.685   4.803
19563SOL    HW159033   9.091   6.766   4.862
19563SOL    HW259034   9.000   6.687   4.752
19564SOL     OW59035   8.363   5.675   5.126
19564SOL    HW159036   8.388   5.655   5.031
19564SOL    HW259037   8.435   5.731   5.168
19565SOL     OW59038   8.428   6.702   5.443
19565SOL    HW159039   8.329   6.708   5.453
19565SOL    HW259040   8.451   6.622   5.387
19566SOL     OW59041   8.153   6.636   4.092
19566SOL    HW159042   8.139   6.643   4.191
19566SOL    HW259043   8.237   6.585   4.074
19567SOL     OW59044   7.858   6.399   4.975
19567SOL    HW159045   7.944   6.411   5.025
19567SOL    HW259046   7.816   6.312   5.002
19568SOL     OW59047   8.722   5.972   4.986
19568SOL    HW159048   8.743   6.046   5.050
19568SOL    HW259049   8.633   5.989   4.943
19569SOL     OW59050   7.512   7.150   5.055
19569SOL    HW159051   7.466   7.232   5.021
19569SOL    HW259052   7.610   7.169   5.064
19570SOL     OW59053   7.815   6.686   4.225
19570SOL    HW159054   7.808   6.769   4.169
19570SOL    HW259055   7.819   6.606   4.165
19571SOL     OW59056   8.014   6.123   4.589
19571SOL    HW159057   8.026   6.189   4.515
19571SOL    HW259058   8.060   6.157   4.672
19572SOL     OW59059   8.700   6.934   4.112
19572SOL    HW159060   8.750   7.011   4.152
19572SOL    HW259061   8.605   6.936   4.144
19573SOL     OW59062   8.720   7.031   4.866
19573SOL    HW159063   8.767   7.044   4.953
19573SOL    HW259064   8.654   6.957   4.875
19574SOL     OW59065   9.030   6.225   4.196
19574SOL    HW159066   8.999   6.286   4.269
19574SOL    HW259067   9.080   6.277   4.127
19575SOL     OW59068   7.802   7.096   5.053
19575SOL    HW159069   7.781   7.052   4.966
19575SOL    HW259070   7.899   7.122   5.056
19576SOL     OW59071   7.850   6.337   5.322
19576SOL    HW159072   7.918   6.392   5.275
19576SOL    HW259073   7.890   6.249   5.349
19577SOL     OW59074   9.035   6.365   5.394
19577SOL    HW159075   8.943   6.403   5.389
19577SOL    HW259076   9.095   6.412   5.329
19578SOL     OW59077   8.461   5.691   5.494
19578SOL    HW159078   8.467   5.776   5.442
19578SOL    HW259079   8.493   5.615   5.437
19579SOL     OW59080   7.952   5.636   5.464
19579SOL    HW159081   7.910   5.579   5.394
19579SOL    HW259082   7.886   5.705   5.496
19580SOL     OW59083   8.021   6.456   4.753
19580SOL    HW159084   8.065   6.545   4.744
19580SOL    HW259085   7.958   6.456   4.830
19581SOL     OW59086   8.808   6.448   4.769
19581SOL    HW159087   8.733   6.448   4.703
19581SOL    HW259088   8.845   6.356   4.778
19582SOL     OW59089   8.657   6.111   3.999
19582SOL    HW159090   8.670   6.027   4.053
19582SOL    HW259091   8.628   6.185   4.059
19583SOL     OW59092   7.755   5.799   4.955
19583SOL    HW159093   7.732   5.836   5.045
19583SOL    HW259094   7.725   5.704   4.949
19584SOL     OW59095   7.485   6.896   5.006
19584SOL    HW159096   7.538   6.847   5.074
19584SOL    HW259097   7.507   6.994   5.011
19585SOL     OW59098   8.180   6.220   4.788
19585SOL    HW159099   8.239   6.194   4.712
19585SOL    HW259100   8.152   6.316   4.777
19586SOL     OW59101   9.176   6.521   5.578
19586SOL    HW159102   9.130   6.514   5.489
19586SOL    HW259103   9.114   6.565   5.644
19587SOL     OW59104   7.755   5.649   4.342
19587SOL    HW159105   7.744   5.743   4.375
19587SOL    HW259106   7.750   5.586   4.419
19588SOL     OW59107   9.070   5.953   4.098
19588SOL    HW159108   9.072   5.877   4.162
19588SOL    HW259109   9.022   6.030   4.138
19589SOL     OW59110   8.471   6.352   4.690
19589SOL    HW159111   8.486   6.373   4.786
19589SOL    HW259112   8.441   6.257   4.681
19590SOL     OW59113   8.428   7.159   5.424
19590SOL    HW159114   8.408   7.203   5.336
19590SOL    HW259115   8.467   7.068   5.408
19591SOL     OW59116   9.307   7.104   5.329
19591SOL    HW159117   9.321   7.131   5.234
19591SOL    HW259118   9.390   7.126   5.382
19592SOL     OW59119   7.798   6.484   5.528
19592SOL    HW159120   7.874   6.528   5.576
19592SOL    HW259121   7.833   6.437   5.446
19593SOL     OW59122   8.988   5.860   3.849
19593SOL    HW159123   8.927   5.785   3.872
19593SOL    HW259124   9.010   5.912   3.932
19594SOL     OW59125   8.751   6.424   3.766
19594SOL    HW159126   8.785   6.331   3.781
19594SOL    HW259127   8.769   6.451   3.671
19595SOL     OW59128   8.516   6.919   4.573
19595SOL    HW159129   8.523   6.835   4.518
19595SOL    HW259130   8.578   6.988   4.537
19596SOL     OW59131   7.767   6.396   4.673
19596SOL    HW159132   7.860   6.432   4.678
19596SOL    HW259133   7.761   6.311   4.725
19597SOL     OW59134   7.787   6.095   4.730
19597SOL    HW159135   7.735   6.012   4.713
19597SOL    HW259136   7.864   6.100   4.666
19598SOL     OW59137   8.586   5.966   5.402
19598SOL    HW159138   8.541   6.029   5.466
19598SOL    HW259139   8.679   5.997   5.385
19599SOL     OW59140   8.608   5.793   5.201
19599SOL    HW159141   8.608   5.857   5.278
19599SOL    HW259142   8.636   5.841   5.118
19600SOL     OW59143   7.456   6.912   3.924
19600SOL    HW159144   7.363   6.933   3.893
19600SOL    HW259145   7.466   6.813   3.937
19601SOL     OW59146   7.536   7.387   4.651
19601SOL    HW159147   7.494   7.301   4.624
19601SOL    HW259148   7.630   7.390   4.617
19602SOL     OW59149   7.952   7.154   4.634
19602SOL    HW159150   8.018   7.228   4.643
19602SOL    HW259151   7.996   7.075   4.592
19603SOL     OW59152   8.450   6.382   4.962
19603SOL    HW159153   8.491   6.350   5.048
19603SOL    HW259154   8.354   6.355   4.959
19604SOL     OW59155   7.488   6.130   4.838
19604SOL    HW159156   7.573   6.097   4.797
19604SOL    HW259157   7.501   6.145   4.936
19605SOL     OW59158   7.637   6.106   5.446
19605SOL    HW159159   7.696   6.066   5.376
19605SOL    HW259160   7.579   6.177   5.405
19606SOL     OW59161   8.817   6.536   5.384
19606SOL    HW159162   8.856   6.625   5.404
19606SOL    HW259163   8.827   6.516   5.287
19607SOL     OW59164   9.105   6.190   4.930
19607SOL    HW159165   9.067   6.121   4.992
19607SOL    HW259166   9.187   6.154   4.886
19608SOL     OW59167   7.700   7.150   5.468
19608SOL    HW159168   7.670   7.207   5.544
19608SOL    HW259169   7.693   7.053   5.494
19609SOL     OW59170   8.119   6.050   4.993
19609SOL    HW159171   8.085   5.961   4.963
19609SOL    HW259172   8.145   6.104   4.913
19610SOL     OW59173   8.378   7.264   5.189
19610SOL    HW159174   8.354   7.246   5.094
19610SOL    HW259175   8.408   7.358   5.199
19611SOL     OW59176   7.921   6.086   3.915
19611SOL    HW159177   7.982   6.166   3.919
19611SOL    HW259178   7.826   6.117   3.922
19612SOL     OW59179   7.607   6.723   5.190
19612SOL    HW159180   7.629   6.662   5.266
19612SOL    HW259181   7.617   6.674   5.104
19613SOL     OW59182   8.795   6.645   4.958
19613SOL    HW159183   8.819   6.582   4.884
19613SOL    HW259184   8.705   6.685   4.940
19614SOL     OW59185   8.750   6.441   4.033
19614SOL    HW159186   8.664   6.410   4.075
19614SOL    HW259187   8.746   6.427   3.934
19615SOL     OW59188   9.207   7.333   4.878
19615SOL    HW159189   9.268   7.363   4.805
19615SOL    HW259190   9.169   7.244   4.856
19616SOL     OW59191   8.700   7.317   4.852
19616SOL    HW159192   8.784   7.322   4.798
19616SOL    HW259193   8.677   7.221   4.870
19617SOL     OW59194   7.531   6.844   4.746
19617SOL    HW159195   7.526   6.843   4.846
19617SOL    HW259196   7.448   6.803   4.708
19618SOL     OW59197   8.136   7.248   5.440
19618SOL    HW159198   8.080   7.329   5.449
19618SOL    HW259199   8.188   7.252   5.354
19619SOL     OW59200   9.174   5.721   4.247
19619SOL    HW159201   9.247   5.704   4.180
19619SOL    HW259202   9.143   5.634   4.285
19620SOL     OW59203   8.836   7.159   4.201
19620SOL    HW159204   8.903   7.171   4.127
19620SOL    HW259205   8.796   7.248   4.224
19621SOL     OW59206   7.578   7.380   5.575
19621SOL    HW159207   7.537   7.306   5.628
19621SOL    HW259208   7.642   7.431   5.633
19622SOL     OW59209   8.728   6.513   4.396
19622SOL    HW159210   8.788   6.432   4.398
19622SOL    HW259211   8.768   6.582   4.336
19623SOL     OW59212   8.278   6.859   5.146
19623SOL    HW159213   8.273   6.892   5.241
19623SOL    HW259214   8.192   6.878   5.100
19624SOL     OW59215   8.120   7.202   3.878
19624SOL    HW159216   8.129   7.212   3.779
19624SOL    HW259217   8.080   7.113   3.899
19625SOL     OW59218   9.098   7.306   5.118
19625SOL    HW159219   9.151   7.316   5.034
19625SOL    HW259220   9.071   7.396   5.152
19626SOL     OW59221   9.289   5.761   4.687
19626SOL    HW159222   9.328   5.676   4.651
19626SOL    HW259223   9.191   5.763   4.668
19627SOL     OW59224   7.711   5.912   4.444
19627SOL    HW159225   7.632   5.963   4.410
19627SOL    HW259226   7.702   5.897   4.542
19628SOL     OW59227   8.642   7.198   3.755
19628SOL    HW159228   8.648   7.105   3.792
19628SOL    HW259229   8.583   7.198   3.675
19629SOL     OW59230   8.270   6.588   5.096
19629SOL    HW159231   8.310   6.587   5.004
19629SOL    HW259232   8.280   6.680   5.136
19630SOL     OW59233   8.364   6.496   4.015
19630SOL    HW159234   8.427   6.534   3.947
19630SOL    HW259235   8.404   6.413   4.054
19631SOL     OW59236   8.952   7.193   3.768
19631SOL    HW159237   8.860   7.230   3.775
19631SOL    HW259238   8.990   7.213   3.678
19632SOL     OW59239   7.820   6.874   5.214
19632SOL    HW159240   7.807   6.967   5.180
19632SOL    HW259241   7.736   6.822   5.201
19633SOL     OW59242   9.062   6.878   5.013
19633SOL    HW159243   9.122   6.881   5.093
19633SOL    HW259244   8.987   6.942   5.026
19634SOL     OW59245   8.487   6.684   4.420
19634SOL    HW159246   8.417   6.637   4.474
19634SOL    HW259247   8.546   6.616   4.377
19635SOL     OW59248   8.462   5.822   4.695
19635SOL    HW159249   8.454   5.786   4.602
19635SOL    HW259250   8.460   5.746   4.760
19636SOL     OW59251   8.038   7.073   4.215
19636SOL    HW159252   8.080   7.015   4.145
19636SOL    HW259253   7.994   7.152   4.171
19637SOL     OW59254   9.157   5.971   5.105
19637SOL    HW159255   9.230   6.040   5.109
19637SOL    HW259256   9.185   5.896   5.046
19638SOL     OW59257   7.703   6.934   4.014
19638SOL    HW159258   7.607   6.935   3.987
19638SOL    HW259259   7.715   6.987   4.098
19639SOL     OW59260   7.553   6.599   5.450
19639SOL    HW159261   7.476   6.566   5.504
19639SOL    HW259262   7.638   6.569   5.492
19640SOL     OW59263   8.120   5.789   5.213
19640SOL    HW159264   8.210   5.773   5.173
19640SOL    HW259265   8.128   5.794   5.312
19641SOL     OW59266   7.523   5.931   3.757
19641SOL    HW159267   7.431   5.903   3.728
19641SOL    HW259268   7.554   6.008   3.701
19642SOL     OW59269   8.888   6.442   5.122
19642SOL    HW159270   8.831   6.494   5.059
19642SOL    HW259271   8.984   6.454   5.098
19643SOL     OW59272   7.520   5.752   4.042
19643SOL    HW159273   7.503   5.835   3.988
19643SOL    HW259274   7.610   5.715   4.020
19644SOL     OW59275   8.631   6.921   3.843
19644SOL    HW159276   8.532   6.910   3.845
19644SOL    HW259277   8.665   6.936   3.936
19645SOL     OW59278   8.061   6.428   5.155
19645SOL    HW159279   8.117   6.509   5.138
19645SOL    HW259280   8.120   6.348   5.158
19646SOL     OW59281   8.941   7.353   4.683
19646SOL    HW159282   8.974   7.417   4.614
19646SOL    HW259283   9.007   7.347   4.758
19647SOL     OW59284   8.164   6.151   5.432
19647SOL    HW159285   8.183   6.216   5.506
19647SOL    HW259286   8.224   6.071   5.441
19648SOL     OW59287   8.898   6.806   5.357
19648SOL    HW159288   8.889   6.796   5.456
19648SOL    HW259289   8.994   6.799   5.331
19649SOL     OW59290   7.838   7.327   5.284
19649SOL    HW159291   7.747   7.368   5.282
19649SOL    HW259292   7.831   7.233   5.316
19650SOL     OW59293   9.122   6.469   4.978
19650SOL    HW159294   9.095   6.380   4.941
19650SOL    HW259295   9.123   6.537   4.905
19651SOL     OW59296   8.673   5.911   4.173
19651SOL    HW159297   8.738   5.837   4.162
19651SOL    HW259298   8.693   5.961   4.257
19652SOL     OW59299   8.042   6.331   4.376
19652SOL    HW159300   8.092   6.416   4.357
19652SOL    HW259301   7.954   6.333   4.328
19653SOL     OW59302   9.225   5.928   5.366
19653SOL    HW159303   9.208   5.959   5.272
19653SOL    HW259304   9.141   5.891   5.404
19654SOL     OW59305   9.178   6.520   5.241
19654SOL    HW159306   9.216   6.611   5.256
19654SOL    HW259307   9.170   6.503   5.142
19655SOL     OW59308   8.307   6.960   3.740
19655SOL    HW159309   8.261   6.975   3.828
19655SOL    HW259310   8.351   7.045   3.710
19656SOL     OW59311   8.109   7.376   4.677
19656SOL    HW159312   8.063   7.464   4.664
19656SOL    HW259313   8.208   7.388   4.670
19657SOL     OW59314   8.307   6.542   4.585
19657SOL    HW159315   8.361   6.473   4.633
19657SOL    HW259316   8.275   6.611   4.651
19658SOL     OW59317   8.531   6.570   3.811
19658SOL    HW159318   8.508   6.623   3.729
19658SOL    HW259319   8.612   6.514   3.792
19659SOL     OW59320   9.309   7.155   4.575
19659SOL    HW159321   9.238   7.143   4.505
19659SOL    HW259322   9.310   7.076   4.635
19660SOL     OW59323   7.669   6.900   5.568
19660SOL    HW159324   7.604   6.827   5.547
19660SOL    HW259325   7.673   6.914   5.666
19661SOL     OW59326   7.527   6.826   4.377
19661SOL    HW159327   7.526   6.779   4.465
19661SOL    HW259328   7.609   6.798   4.326
19662SOL     OW59329   8.120   6.977   5.348
19662SOL    HW159330   8.042   6.927   5.386
19662SOL    HW259331   8.117   7.072   5.379
19663SOL     OW59332   9.272   5.778   4.951
19663SOL    HW159333   9.268   5.688   4.995
19663SOL    HW259334   9.275   5.767   4.852
19664SOL     OW59335   7.876   6.010   4.244
19664SOL    HW159336   7.906   5.938   4.182
19664SOL    HW259337   7.837   5.970   4.327
19665SOL     OW59338   9.153   7.073   4.828
19665SOL    HW159339   9.060   7.048   4.801
19665SOL    HW259340   9.179   7.023   4.910
19666SOL     OW59341   7.765   6.133   5.004
19666SOL    HW159342   7.803   6.074   5.076
19666SOL    HW259343   7.805   6.107   4.916
19667SOL     OW59344   8.260   7.172   4.411
19667SOL    HW159345   8.292   7.182   4.317
19667SOL    HW259346   8.181   7.110   4.413
19668SOL     OW59347   8.872   5.800   4.836
19668SOL    HW159348   8.924   5.735   4.891
19668SOL    HW259349   8.823   5.863   4.897
19669SOL     OW59350   8.449   5.620   4.878
19669SOL    HW159351   8.386   5.548   4.847
19669SOL    HW259352   8.542   5.584   4.878
19670SOL     OW59353   8.218   6.916   4.025
19670SOL    HW159354   8.172   6.829   4.042
19670SOL    HW259355   8.309   6.913   4.066
19671SOL     OW59356   8.066   7.153   5.008
19671SOL    HW159357   8.061   7.235   5.065
19671SOL    HW259358   8.155   7.150   4.963
19672SOL     OW59359   8.800   5.638   3.892
19672SOL    HW159360   8.835   5.597   3.808
19672SOL    HW259361   8.710   5.600   3.912
19673SOL     OW59362   8.748   6.039   4.415
19673SOL    HW159363   8.689   6.119   4.419
19673SOL    HW259364   8.763   6.004   4.508
19674SOL     OW59365   9.041   5.807   4.606
19674SOL    HW159366   8.957   5.806   4.660
19674SOL    HW259367   9.043   5.890   4.550
19675SOL     OW59368   7.487   6.663   4.024
19675SOL    HW159369   7.586   6.652   4.015
19675SOL    HW259370   7.447   6.577   4.056
19676SOL     OW59371   8.323   7.232   4.061
19676SOL    HW159372   8.246   7.197   4.007
19676SOL    HW259373   8.291   7.303   4.123
19677SOL     OW59374   7.678   6.214   5.699
19677SOL    HW159375   7.585   6.212   5.736
19677SOL    HW259376   7.679   6.175   5.607
19678SOL     OW59377   7.673   5.861   6.582
19678SOL    HW159378   7.708   5.844   6.674
19678SOL    HW259379   7.585   5.816   6.570
19679SOL     OW59380   7.467   5.954   6.233
19679SOL    HW159381   7.385   5.997   6.272
19679SOL    HW259382   7.439   5.881   6.170
19680SOL     OW59383   8.017   6.861   6.751
19680SOL    HW159384   7.924   6.854   6.714
19680SOL    HW259385   8.028   6.950   6.795
19681SOL     OW59386   9.003   7.097   6.289
19681SOL    HW159387   8.946   7.081   6.370
19681SOL    HW259388   8.944   7.107   6.209
19682SOL     OW59389   8.583   6.289   6.303
19682SOL    HW159390   8.640   6.367   6.278
19682SOL    HW259391   8.523   6.315   6.379
19683SOL     OW59392   9.203   6.193   5.817
19683SOL    HW159393   9.191   6.180   5.718
19683SOL    HW259394   9.173   6.112   5.866
19684SOL     OW59395   8.216   6.730   6.609
19684SOL    HW159396   8.138   6.747   6.669
19684SOL    HW259397   8.250   6.817   6.573
19685SOL     OW59398   8.298   6.384   7.409
19685SOL    HW159399   8.294   6.460   7.474
19685SOL    HW259400   8.320   6.420   7.318
19686SOL     OW59401   8.133   6.598   6.251
19686SOL    HW159402   8.202   6.582   6.321
19686SOL    HW259403   8.060   6.655   6.289
19687SOL     OW59404   8.134   6.747   7.389
19687SOL    HW159405   8.194   6.826   7.403
19687SOL    HW259406   8.048   6.778   7.348
19688SOL     OW59407   7.783   7.021   6.647
19688SOL    HW159408   7.705   6.990   6.594
19688SOL    HW259409   7.841   7.079   6.590
19689SOL     OW59410   8.908   7.091   6.925
19689SOL    HW159411   8.932   7.185   6.951
19689SOL    HW259412   8.892   7.037   7.007
19690SOL     OW59413   7.886   5.978   7.085
19690SOL    HW159414   7.968   5.922   7.094
19690SOL    HW259415   7.805   5.920   7.089
19691SOL     OW59416   9.051   6.033   6.323
19691SOL    HW159417   8.977   6.079   6.273
19691SOL    HW259418   9.102   6.101   6.376
19692SOL     OW59419   7.679   7.299   6.069
19692SOL    HW159420   7.713   7.376   6.123
19692SOL    HW259421   7.723   7.299   5.979
19693SOL     OW59422   8.575   6.927   7.276
19693SOL    HW159423   8.622   6.927   7.364
19693SOL    HW259424   8.527   6.840   7.265
19694SOL     OW59425   7.678   7.020   6.124
19694SOL    HW159426   7.652   7.116   6.124
19694SOL    HW259427   7.607   6.966   6.169
19695SOL     OW59428   7.688   6.677   6.472
19695SOL    HW159429   7.702   6.593   6.524
19695SOL    HW259430   7.633   6.741   6.527
19696SOL     OW59431   8.068   7.372   7.025
19696SOL    HW159432   7.976   7.355   7.060
19696SOL    HW259433   8.096   7.464   7.051
19697SOL     OW59434   8.054   6.550   5.709
19697SOL    HW159435   8.061   6.634   5.655
19697SOL    HW259436   8.100   6.563   5.797
19698SOL     OW59437   9.042   5.700   7.066
19698SOL    HW159438   9.024   5.767   6.994
19698SOL    HW259439   9.039   5.746   7.155
19699SOL     OW59440   7.570   6.229   6.149
19699SOL    HW159441   7.525   6.141   6.166
19699SOL    HW259442   7.569   6.283   6.233
19700SOL     OW59443   9.290   7.353   5.945
19700SOL    HW159444   9.344   7.324   6.025
19700SOL    HW259445   9.320   7.443   5.916
19701SOL     OW59446   7.475   7.182   5.703
19701SOL    HW159447   7.456   7.086   5.724
19701SOL    HW259448   7.442   7.240   5.778
19702SOL     OW59449   9.137   6.508   6.198
19702SOL    HW159450   9.232   6.479   6.206
19702SOL    HW259451   9.129   6.573   6.123
19703SOL     OW59452   9.089   6.694   6.018
19703SOL    HW159453   9.175   6.696   5.966
19703SOL    HW259454   9.103   6.741   6.106
19704SOL     OW59455   7.561   6.323   7.183
19704SOL    HW159456   7.649   6.310   7.228
19704SOL    HW259457   7.548   6.420   7.161
19705SOL     OW59458   8.061   6.951   6.312
19705SOL    HW159459   8.012   6.864   6.321
19705SOL    HW259460   8.038   6.994   6.225
19706SOL     OW59461   8.741   6.814   7.009
19706SOL    HW159462   8.778   6.741   6.951
19706SOL    HW259463   8.793   6.819   7.094
19707SOL     OW59464   8.257   5.590   6.088
19707SOL    HW159465   8.297   5.681   6.079
19707SOL    HW259466   8.157   5.598   6.094
19708SOL     OW59467   7.645   6.562   6.850
19708SOL    HW159468   7.734   6.517   6.836
19708SOL    HW259469   7.572   6.497   6.831
19709SOL     OW59470   8.973   6.585   5.776
19709SOL    HW159471   8.910   6.509   5.789
19709SOL    HW259472   9.021   6.603   5.862
19710SOL     OW59473   8.635   7.378   7.202
19710SOL    HW159474   8.659   7.438   7.126
19710SOL    HW259475   8.642   7.283   7.172
19711SOL     OW59476   7.765   5.837   7.387
19711SOL    HW159477   7.836   5.908   7.393
19711SOL    HW259478   7.677   5.876   7.415
19712SOL     OW59479   8.914   7.003   6.539
19712SOL    HW159480   8.855   7.009   6.619
19712SOL    HW259481   8.899   6.915   6.493
19713SOL     OW59482   9.115   7.300   6.158
19713SOL    HW159483   9.074   7.277   6.070
19713SOL    HW259484   9.097   7.226   6.223
19714SOL     OW59485   8.046   6.315   5.856
19714SOL    HW159486   8.070   6.384   5.788
19714SOL    HW259487   7.968   6.348   5.910
19715SOL     OW59488   8.729   5.931   6.530
19715SOL    HW159489   8.643   5.881   6.517
19715SOL    HW259490   8.791   5.877   6.586
19716SOL     OW59491   9.024   7.248   5.893
19716SOL    HW159492   9.113   7.294   5.896
19716SOL    HW259493   9.003   7.224   5.798
19717SOL     OW59494   8.255   6.191   7.051
19717SOL    HW159495   8.208   6.188   7.140
19717SOL    HW259496   8.204   6.136   6.985
19718SOL     OW59497   8.842   6.055   7.260
19718SOL    HW159498   8.822   6.098   7.348
19718SOL    HW259499   8.920   5.993   7.269
19719SOL     OW59500   8.421   6.476   7.158
19719SOL    HW159501   8.467   6.392   7.129
19719SOL    HW259502   8.365   6.510   7.083
19720SOL     OW59503   8.439   5.996   6.828
19720SOL    HW159504   8.362   6.030   6.882
19720SOL    HW259505   8.405   5.945   6.749
19721SOL     OW59506   8.489   6.287   6.015
19721SOL    HW159507   8.515   6.283   6.111
19721SOL    HW259508   8.404   6.236   6.001
19722SOL     OW59509   7.524   6.397   6.375
19722SOL    HW159510   7.623   6.385   6.384
19722SOL    HW259511   7.500   6.492   6.396
19723SOL     OW59512   7.578   7.407   7.157
19723SOL    HW159513   7.568   7.392   7.256
19723SOL    HW259514   7.492   7.443   7.121
19724SOL     OW59515   8.313   5.934   5.781
19724SOL    HW159516   8.372   5.997   5.732
19724SOL    HW259517   8.332   5.840   5.752
19725SOL     OW59518   9.167   6.171   7.417
19725SOL    HW159519   9.141   6.260   7.381
19725SOL    HW259520   9.165   6.103   7.344
19726SOL     OW59521   8.810   6.730   6.131
19726SOL    HW159522   8.893   6.701   6.083
19726SOL    HW259523   8.761   6.797   6.075
19727SOL     OW59524   7.998   5.782   6.471
19727SOL    HW159525   7.993   5.777   6.571
19727SOL    HW259526   8.000   5.878   6.442
19728SOL     OW59527   8.456   7.042   6.063
19728SOL    HW159528   8.410   7.114   6.011
19728SOL    HW259529   8.452   7.062   6.161
19729SOL     OW59530   7.799   7.387   6.439
19729SOL    HW159531   7.849   7.301   6.445
19729SOL    HW259532   7.864   7.464   6.436
19730SOL     OW59533   9.243   6.652   6.459
19730SOL    HW159534   9.181   6.637   6.383
19730SOL    HW259535   9.191   6.663   6.544
19731SOL     OW59536   8.675   7.136   7.092
19731SOL    HW159537   8.681   7.059   7.156
19731SOL    HW259538   8.623   7.110   7.012
19732SOL     OW59539   7.769   6.529   5.828
19732SOL    HW159540   7.851   6.568   5.786
19732SOL    HW259541   7.742   6.447   5.779
19733SOL     OW59542   8.906   6.321   6.314
19733SOL    HW159543   8.901   6.256   6.389
19733SOL    HW259544   8.986   6.380   6.327
19734SOL     OW59545   7.909   6.852   7.313
19734SOL    HW159546   7.859   6.853   7.227
19734SOL    HW259547   7.846   6.834   7.389
19735SOL     OW59548   8.559   7.362   5.823
19735SOL    HW159549   8.499   7.300   5.873
19735SOL    HW259550   8.590   7.318   5.738
19736SOL     OW59551   7.650   5.871   7.084
19736SOL    HW159552   7.570   5.931   7.071
19736SOL    HW259553   7.640   5.822   7.170
19737SOL     OW59554   9.080   6.963   5.667
19737SOL    HW159555   9.048   7.057   5.657
19737SOL    HW259556   9.004   6.900   5.655
19738SOL     OW59557   7.912   7.329   5.909
19738SOL    HW159558   7.945   7.368   5.995
19738SOL    HW259559   7.988   7.322   5.844
19739SOL     OW59560   8.848   5.693   6.012
19739SOL    HW159561   8.824   5.656   5.922
19739SOL    HW259562   8.947   5.709   6.016
19740SOL     OW59563   7.697   7.371   6.827
19740SOL    HW159564   7.754   7.306   6.877
19740SOL    HW259565   7.681   7.338   6.734
19741SOL     OW59566   8.388   7.284   6.490
19741SOL    HW159567   8.468   7.227   6.511
19741SOL    HW259568   8.339   7.244   6.413
19742SOL     OW59569   7.830   6.286   6.066
19742SOL    HW159570   7.875   6.196   6.063
19742SOL    HW259571   7.736   6.275   6.099
19743SOL     OW59572   8.995   5.808   7.315
19743SOL    HW159573   8.990   5.845   7.407
19743SOL    HW259574   8.923   5.739   7.303
19744SOL     OW59575   8.062   5.708   5.703
19744SOL    HW159576   8.160   5.686   5.710
19744SOL    HW259577   8.031   5.691   5.610
19745SOL     OW59578   8.229   5.850   7.335
19745SOL    HW159579   8.296   5.789   7.378
19745SOL    HW259580   8.156   5.869   7.400
19746SOL     OW59581   8.336   7.100   6.781
19746SOL    HW159582   8.313   7.075   6.687
19746SOL    HW259583   8.397   7.031   6.820
19747SOL     OW59584   8.799   6.176   7.019
19747SOL    HW159585   8.827   6.133   7.104
19747SOL    HW259586   8.824   6.272   7.020
19748SOL     OW59587   8.251   6.988   6.510
19748SOL    HW159588   8.341   7.002   6.468
19748SOL    HW259589   8.180   6.990   6.439
19749SOL     OW59590   8.370   6.089   6.485
19749SOL    HW159591   8.345   6.080   6.389
19749SOL    HW259592   8.418   6.007   6.516
19750SOL     OW59593   7.987   5.650   6.098
19750SOL    HW159594   7.906   5.651   6.156
19750SOL    HW259595   7.990   5.733   6.043
19751SOL     OW59596   8.882   6.774   5.627
19751SOL    HW159597   8.914   6.698   5.684
19751SOL    HW259598   8.790   6.801   5.657
19752SOL     OW59599   7.745   5.621   5.757
19752SOL    HW159600   7.794   5.705   5.736
19752SOL    HW259601   7.807   5.556   5.802
19753SOL     OW59602   8.383   5.822   6.066
19753SOL    HW159603   8.335   5.863   5.988
19753SOL    HW259604   8.482   5.820   6.047
19754SOL     OW59605   8.524   6.269   7.050
19754SOL    HW159606   8.444   6.208   7.053
19754SOL    HW259607   8.605   6.216   7.026
19755SOL     OW59608   8.675   7.156   6.379
19755SOL    HW159609   8.696   7.230   6.314
19755SOL    HW259610   8.743   7.156   6.452
19756SOL     OW59611   7.907   6.738   6.327
19756SOL    HW159612   7.836   6.711   6.392
19756SOL    HW259613   7.881   6.710   6.234
19757SOL     OW59614   8.719   7.383   6.177
19757SOL    HW159615   8.763   7.447   6.113
19757SOL    HW259616   8.669   7.435   6.247
19758SOL     OW59617   7.526   6.142   6.972
19758SOL    HW159618   7.618   6.141   6.931
19758SOL    HW259619   7.520   6.216   7.039
19759SOL     OW59620   8.009   5.808   6.733
19759SOL    HW159621   8.047   5.724   6.770
19759SOL    HW259622   7.921   5.827   6.777
19760SOL     OW59623   8.314   6.040   6.228
19760SOL    HW159624   8.282   6.112   6.166
19760SOL    HW259625   8.338   5.959   6.175
19761SOL     OW59626   8.465   5.625   6.339
19761SOL    HW159627   8.393   5.630   6.270
19761SOL    HW259628   8.441   5.556   6.408
19762SOL     OW59629   8.877   6.759   6.453
19762SOL    HW159630   8.822   6.675   6.446
19762SOL    HW259631   8.903   6.788   6.361
19763SOL     OW59632   8.914   6.176   6.578
19763SOL    HW159633   8.884   6.081   6.585
19763SOL    HW259634   8.987   6.192   6.644
19764SOL     OW59635   9.305   6.419   5.963
19764SOL    HW159636   9.347   6.355   6.027
19764SOL    HW259637   9.267   6.368   5.885
19765SOL     OW59638   7.936   6.971   5.760
19765SOL    HW159639   7.849   6.956   5.807
19765SOL    HW259640   7.919   6.997   5.665
19766SOL     OW59641   9.112   6.866   6.243
19766SOL    HW159642   9.211   6.874   6.257
19766SOL    HW259643   9.067   6.950   6.274
19767SOL     OW59644   8.838   6.161   5.664
19767SOL    HW159645   8.784   6.140   5.745
19767SOL    HW259646   8.929   6.120   5.673
19768SOL     OW59647   7.975   5.842   5.914
19768SOL    HW159648   8.002   5.783   5.839
19768SOL    HW259649   7.975   5.937   5.883
19769SOL     OW59650   9.202   6.809   7.174
19769SOL    HW159651   9.293   6.770   7.161
19769SOL    HW259652   9.210   6.905   7.198
19770SOL     OW59653   8.512   6.933   6.926
19770SOL    HW159654   8.432   6.910   6.981
19770SOL    HW259655   8.595   6.907   6.975
19771SOL     OW59656   9.040   7.215   7.211
19771SOL    HW159657   9.067   7.249   7.121
19771SOL    HW259658   9.119   7.177   7.257
19772SOL     OW59659   8.559   6.781   6.686
19772SOL    HW159660   8.519   6.825   6.767
19772SOL    HW259661   8.518   6.818   6.603
19773SOL     OW59662   9.086   6.685   6.665
19773SOL    HW159663   9.091   6.766   6.724
19773SOL    HW259664   9.000   6.687   6.614
19774SOL     OW59665   8.363   5.675   6.988
19774SOL    HW159666   8.388   5.655   6.893
19774SOL    HW259667   8.435   5.731   7.030
19775SOL     OW59668   8.428   6.702   7.305
19775SOL    HW159669   8.329   6.708   7.315
19775SOL    HW259670   8.451   6.622   7.249
19776SOL     OW59671   8.153   6.636   5.954
19776SOL    HW159672   8.139   6.643   6.053
19776SOL    HW259673   8.237   6.585   5.936
19777SOL     OW59674   7.858   6.399   6.837
19777SOL    HW159675   7.944   6.411   6.887
19777SOL    HW259676   7.816   6.312   6.864
19778SOL     OW59677   8.722   5.972   6.848
19778SOL    HW159678   8.743   6.046   6.912
19778SOL    HW259679   8.633   5.989   6.805
19779SOL     OW59680   7.512   7.150   6.917
19779SOL    HW159681   7.466   7.232   6.883
19779SOL    HW259682   7.610   7.169   6.926
19780SOL     OW59683   7.815   6.686   6.087
19780SOL    HW159684   7.808   6.769   6.031
19780SOL    HW259685   7.819   6.606   6.027
19781SOL     OW59686   8.014   6.123   6.451
19781SOL    HW159687   8.026   6.189   6.377
19781SOL    HW259688   8.060   6.157   6.534
19782SOL     OW59689   8.700   6.934   5.974
19782SOL    HW159690   8.750   7.011   6.014
19782SOL    HW259691   8.605   6.936   6.006
19783SOL     OW59692   8.720   7.031   6.728
19783SOL    HW159693   8.767   7.044   6.815
19783SOL    HW259694   8.654   6.957   6.737
19784SOL     OW59695   9.030   6.225   6.058
19784SOL    HW159696   8.999   6.286   6.131
19784SOL    HW259697   9.080   6.277   5.989
19785SOL     OW59698   7.802   7.096   6.915
19785SOL    HW159699   7.781   7.052   6.828
19785SOL    HW259700   7.899   7.122   6.918
19786SOL     OW59701   7.850   6.337   7.184
19786SOL    HW159702   7.918   6.392   7.137
19786SOL    HW259703   7.890   6.249   7.211
19787SOL     OW59704   9.035   6.365   7.256
19787SOL    HW159705   8.943   6.403   7.251
19787SOL    HW259706   9.095   6.412   7.191
19788SOL     OW59707   8.461   5.691   7.356
19788SOL    HW159708   8.467   5.776   7.304
19788SOL    HW259709   8.493   5.615   7.299
19789SOL     OW59710   7.952   5.636   7.326
19789SOL    HW159711   7.910   5.579   7.256
19789SOL    HW259712   7.886   5.705   7.358
19790SOL     OW59713   8.021   6.456   6.615
19790SOL    HW159714   8.065   6.545   6.606
19790SOL    HW259715   7.958   6.456   6.692
19791SOL     OW59716   8.808   6.448   6.631
19791SOL    HW159717   8.733   6.448   6.565
19791SOL    HW259718   8.845   6.356   6.640
19792SOL     OW59719   8.657   6.111   5.861
19792SOL    HW159720   8.670   6.027   5.915
19792SOL    HW259721   8.628   6.185   5.921
19793SOL     OW59722   7.755   5.799   6.817
19793SOL    HW159723   7.732   5.836   6.907
19793SOL    HW259724   7.725   5.704   6.811
19794SOL     OW59725   7.485   6.896   6.868
19794SOL    HW159726   7.538   6.847   6.936
19794SOL    HW259727   7.507   6.994   6.873
19795SOL     OW59728   8.180   6.220   6.650
19795SOL    HW159729   8.239   6.194   6.574
19795SOL    HW259730   8.152   6.316   6.639
19796SOL     OW59731   9.176   6.521   7.440
19796SOL    HW159732   9.130   6.514   7.351
19796SOL    HW259733   9.114   6.565   7.506
19797SOL     OW59734   7.755   5.649   6.204
19797SOL    HW159735   7.744   5.743   6.237
19797SOL    HW259736   7.750   5.586   6.281
19798SOL     OW59737   9.070   5.953   5.960
19798SOL    HW159738   9.072   5.877   6.024
19798SOL    HW259739   9.022   6.030   6.000
19799SOL     OW59740   8.471   6.352   6.552
19799SOL    HW159741   8.486   6.373   6.648
19799SOL    HW259742   8.441   6.257   6.543
19800SOL     OW59743   8.428   7.159   7.286
19800SOL    HW159744   8.408   7.203   7.198
19800SOL    HW259745   8.467   7.068   7.270
19801SOL     OW59746   9.307   7.104   7.191
19801SOL    HW159747   9.321   7.131   7.096
19801SOL    HW259748   9.390   7.126   7.244
19802SOL     OW59749   7.798   6.484   7.390
19802SOL    HW159750   7.874   6.528   7.438
19802SOL    HW259751   7.833   6.437   7.308
19803SOL     OW59752   8.988   5.860   5.711
19803SOL    HW159753   8.927   5.785   5.734
19803SOL    HW259754   9.010   5.912   5.794
19804SOL     OW59755   8.751   6.424   5.628
19804SOL    HW159756   8.785   6.331   5.643
19804SOL    HW259757   8.769   6.451   5.533
19805SOL     OW59758   8.516   6.919   6.435
19805SOL    HW159759   8.523   6.835   6.380
19805SOL    HW259760   8.578   6.988   6.399
19806SOL     OW59761   7.767   6.396   6.535
19806SOL    HW159762   7.860   6.432   6.540
19806SOL    HW259763   7.761   6.311   6.587
19807SOL     OW59764   7.787   6.095   6.592
19807SOL    HW159765   7.735   6.012   6.575
19807SOL    HW259766   7.864   6.100   6.528
19808SOL     OW59767   8.586   5.966   7.264
19808SOL    HW159768   8.541   6.029   7.328
19808SOL    HW259769   8.679   5.997   7.247
19809SOL     OW59770   8.608   5.793   7.063
19809SOL    HW159771   8.608   5.857   7.140
19809SOL    HW259772   8.636   5.841   6.980
19810SOL     OW59773   7.456   6.912   5.786
19810SOL    HW159774   7.363   6.933   5.755
19810SOL    HW259775   7.466   6.813   5.799
19811SOL     OW59776   7.536   7.387   6.513
19811SOL    HW159777   7.494   7.301   6.486
19811SOL    HW259778   7.630   7.390   6.479
19812SOL     OW59779   7.952   7.154   6.496
19812SOL    HW159780   8.018   7.228   6.505
19812SOL    HW259781   7.996   7.075   6.454
19813SOL     OW59782   8.450   6.382   6.824
19813SOL    HW159783   8.491   6.350   6.910
19813SOL    HW259784   8.354   6.355   6.821
19814SOL     OW59785   7.488   6.130   6.700
19814SOL    HW159786   7.573   6.097   6.659
19814SOL    HW259787   7.501   6.145   6.798
19815SOL     OW59788   7.637   6.106   7.308
19815SOL    HW159789   7.696   6.066   7.238
19815SOL    HW259790   7.579   6.177   7.267
19816SOL     OW59791   8.817   6.536   7.246
19816SOL    HW159792   8.856   6.625   7.266
19816SOL    HW259793   8.827   6.516   7.149
19817SOL     OW59794   8.263   6.158   5.911
19817SOL    HW159795   8.270   6.069   5.865
19817SOL    HW259796   8.169   6.192   5.903
19818SOL     OW59797   9.105   6.190   6.792
19818SOL    HW159798   9.067   6.121   6.854
19818SOL    HW259799   9.187   6.154   6.748
19819SOL     OW59800   7.700   7.150   7.330
19819SOL    HW159801   7.670   7.207   7.406
19819SOL    HW259802   7.693   7.053   7.356
19820SOL     OW59803   8.119   6.050   6.855
19820SOL    HW159804   8.085   5.961   6.825
19820SOL    HW259805   8.145   6.104   6.775
19821SOL     OW59806   8.378   7.264   7.051
19821SOL    HW159807   8.354   7.246   6.956
19821SOL    HW259808   8.408   7.358   7.061
19822SOL     OW59809   7.921   6.086   5.777
19822SOL    HW159810   7.982   6.166   5.781
19822SOL    HW259811   7.826   6.117   5.784
19823SOL     OW59812   7.607   6.723   7.052
19823SOL    HW159813   7.629   6.662   7.128
19823SOL    HW259814   7.617   6.674   6.966
19824SOL     OW59815   8.795   6.645   6.820
19824SOL    HW159816   8.819   6.582   6.746
19824SOL    HW259817   8.705   6.685   6.802
19825SOL     OW59818   8.750   6.441   5.895
19825SOL    HW159819   8.664   6.410   5.937
19825SOL    HW259820   8.746   6.427   5.796
19826SOL     OW59821   9.207   7.333   6.740
19826SOL    HW159822   9.268   7.363   6.667
19826SOL    HW259823   9.169   7.244   6.718
19827SOL     OW59824   8.700   7.317   6.714
19827SOL    HW159825   8.784   7.322   6.660
19827SOL    HW259826   8.677   7.221   6.732
19828SOL     OW59827   7.531   6.844   6.608
19828SOL    HW159828   7.526   6.843   6.708
19828SOL    HW259829   7.448   6.803   6.570
19829SOL     OW59830   8.136   7.248   7.302
19829SOL    HW159831   8.080   7.329   7.311
19829SOL    HW259832   8.188   7.252   7.216
19830SOL     OW59833   9.174   5.721   6.109
19830SOL    HW159834   9.247   5.704   6.042
19830SOL    HW259835   9.143   5.634   6.147
19831SOL     OW59836   8.836   7.159   6.063
19831SOL    HW159837   8.903   7.171   5.989
19831SOL    HW259838   8.796   7.248   6.086
19832SOL     OW59839   7.578   7.380   7.437
19832SOL    HW159840   7.537   7.306   7.490
19832SOL    HW259841   7.642   7.431   7.495
19833SOL     OW59842   8.728   6.513   6.258
19833SOL    HW159843   8.788   6.432   6.260
19833SOL    HW259844   8.768   6.582   6.198
19834SOL     OW59845   8.278   6.859   7.008
19834SOL    HW159846   8.273   6.892   7.103
19834SOL    HW259847   8.192   6.878   6.962
19835SOL     OW59848   8.120   7.202   5.740
19835SOL    HW159849   8.129   7.212   5.641
19835SOL    HW259850   8.080   7.113   5.761
19836SOL     OW59851   9.098   7.306   6.980
19836SOL    HW159852   9.151   7.316   6.896
19836SOL    HW259853   9.071   7.396   7.014
19837SOL     OW59854   9.289   5.761   6.549
19837SOL    HW159855   9.328   5.676   6.513
19837SOL    HW259856   9.191   5.763   6.530
19838SOL     OW59857   7.711   5.912   6.306
19838SOL    HW159858   7.632   5.963   6.272
19838SOL    HW259859   7.702   5.897   6.404
19839SOL     OW59860   8.642   7.198   5.617
19839SOL    HW159861   8.648   7.105   5.654
19839SOL    HW259862   8.583   7.198   5.537
19840SOL     OW59863   8.270   6.588   6.958
19840SOL    HW159864   8.310   6.587   6.866
19840SOL    HW259865   8.280   6.680   6.998
19841SOL     OW59866   8.364   6.496   5.877
19841SOL    HW159867   8.427   6.534   5.809
19841SOL    HW259868   8.404   6.413   5.916
19842SOL     OW59869   8.952   7.193   5.630
19842SOL    HW159870   8.860   7.230   5.637
19842SOL    HW259871   8.990   7.213   5.540
19843SOL     OW59872   7.820   6.874   7.076
19843SOL    HW159873   7.807   6.967   7.042
19843SOL    HW259874   7.736   6.822   7.063
19844SOL     OW59875   9.062   6.878   6.875
19844SOL    HW159876   9.122   6.881   6.955
19844SOL    HW259877   8.987   6.942   6.888
19845SOL     OW59878   8.487   6.684   6.282
19845SOL    HW159879   8.417   6.637   6.336
19845SOL    HW259880   8.546   6.616   6.239
19846SOL     OW59881   8.462   5.822   6.557
19846SOL    HW159882   8.454   5.786   6.464
19846SOL    HW259883   8.460   5.746   6.622
19847SOL     OW59884   8.038   7.073   6.077
19847SOL    HW159885   8.080   7.015   6.007
19847SOL    HW259886   7.994   7.152   6.033
19848SOL     OW59887   9.157   5.971   6.967
19848SOL    HW159888   9.230   6.040   6.971
19848SOL    HW259889   9.185   5.896   6.908
19849SOL     OW59890   7.703   6.934   5.876
19849SOL    HW159891   7.607   6.935   5.849
19849SOL    HW259892   7.715   6.987   5.960
19850SOL     OW59893   7.553   6.599   7.312
19850SOL    HW159894   7.476   6.566   7.366
19850SOL    HW259895   7.638   6.569   7.354
19851SOL     OW59896   8.120   5.789   7.075
19851SOL    HW159897   8.210   5.773   7.035
19851SOL    HW259898   8.128   5.794   7.174
19852SOL     OW59899   7.523   5.931   5.619
19852SOL    HW159900   7.431   5.903   5.590
19852SOL    HW259901   7.554   6.008   5.563
19853SOL     OW59902   8.888   6.442   6.984
19853SOL    HW159903   8.831   6.494   6.921
19853SOL    HW259904   8.984   6.454   6.960
19854SOL     OW59905   7.520   5.752   5.904
19854SOL    HW159906   7.503   5.835   5.850
19854SOL    HW259907   7.610   5.715   5.882
19855SOL     OW59908   8.631   6.921   5.705
19855SOL    HW159909   8.532   6.910   5.707
19855SOL    HW259910   8.665   6.936   5.798
19856SOL     OW59911   8.061   6.428   7.017
19856SOL    HW159912   8.117   6.509   7.000
19856SOL    HW259913   8.120   6.348   7.020
19857SOL     OW59914   8.941   7.353   6.545
19857SOL    HW159915   8.974   7.417   6.476
19857SOL    HW259916   9.007   7.347   6.620
19858SOL     OW59917   8.164   6.151   7.294
19858SOL    HW159918   8.183   6.216   7.368
19858SOL    HW259919   8.224   6.071   7.303
19859SOL     OW59920   8.898   6.806   7.219
19859SOL    HW159921   8.889   6.796   7.318
19859SOL    HW259922   8.994   6.799   7.193
19860SOL     OW59923   7.838   7.327   7.146
19860SOL    HW159924   7.747   7.368   7.144
19860SOL    HW259925   7.831   7.233   7.178
19861SOL     OW59926   9.122   6.469   6.840
19861SOL    HW159927   9.095   6.380   6.803
19861SOL    HW259928   9.123   6.537   6.767
19862SOL     OW59929   8.673   5.911   6.035
19862SOL    HW159930   8.738   5.837   6.024
19862SOL    HW259931   8.693   5.961   6.119
19863SOL     OW59932   8.042   6.331   6.238
19863SOL    HW159933   8.092   6.416   6.219
19863SOL    HW259934   7.954   6.333   6.190
19864SOL     OW59935   9.225   5.928   7.228
19864SOL    HW159936   9.208   5.959   7.134
19864SOL    HW259937   9.141   5.891   7.266
19865SOL     OW59938   9.178   6.520   7.103
19865SOL    HW159939   9.216   6.611   7.118
19865SOL    HW259940   9.170   6.503   7.004
19866SOL     OW59941   8.307   6.960   5.602
19866SOL    HW159942   8.261   6.975   5.690
19866SOL    HW259943   8.351   7.045   5.572
19867SOL     OW59944   8.109   7.376   6.539
19867SOL    HW159945   8.063   7.464   6.526
19867SOL    HW259946   8.208   7.388   6.532
19868SOL     OW59947   8.307   6.542   6.447
19868SOL    HW159948   8.361   6.473   6.495
19868SOL    HW259949   8.275   6.611   6.513
19869SOL     OW59950   8.531   6.570   5.673
19869SOL    HW159951   8.508   6.623   5.591
19869SOL    HW259952   8.612   6.514   5.654
19870SOL     OW59953   9.309   7.155   6.437
19870SOL    HW159954   9.238   7.143   6.367
19870SOL    HW259955   9.310   7.076   6.497
19871SOL     OW59956   7.669   6.900   7.430
19871SOL    HW159957   7.604   6.827   7.409
19871SOL    HW259958   7.673   6.914   7.528
19872SOL     OW59959   7.527   6.826   6.239
19872SOL    HW159960   7.526   6.779   6.327
19872SOL    HW259961   7.609   6.798   6.188
19873SOL     OW59962   8.120   6.977   7.210
19873SOL    HW159963   8.042   6.927   7.248
19873SOL    HW259964   8.117   7.072   7.241
19874SOL     OW59965   9.272   5.778   6.813
19874SOL    HW159966   9.268   5.688   6.857
19874SOL    HW259967   9.275   5.767   6.714
19875SOL     OW59968   7.876   6.010   6.106
19875SOL    HW159969   7.906   5.938   6.044
19875SOL    HW259970   7.837   5.970   6.189
19876SOL     OW59971   9.153   7.073   6.690
19876SOL    HW159972   9.060   7.048   6.663
19876SOL    HW259973   9.179   7.023   6.772
19877SOL     OW59974   7.765   6.133   6.866
19877SOL    HW159975   7.803   6.074   6.938
19877SOL    HW259976   7.805   6.107   6.778
19878SOL     OW59977   8.260   7.172   6.273
19878SOL    HW159978   8.292   7.182   6.179
19878SOL    HW259979   8.181   7.110   6.275
19879SOL     OW59980   8.872   5.800   6.698
19879SOL    HW159981   8.924   5.735   6.753
19879SOL    HW259982   8.823   5.863   6.759
19880SOL     OW59983   8.449   5.620   6.740
19880SOL    HW159984   8.386   5.548   6.709
19880SOL    HW259985   8.542   5.584   6.740
19881SOL     OW59986   8.218   6.916   5.887
19881SOL    HW159987   8.172   6.829   5.904
19881SOL    HW259988   8.309   6.913   5.928
19882SOL     OW59989   8.066   7.153   6.870
19882SOL    HW159990   8.061   7.235   6.927
19882SOL    HW259991   8.155   7.150   6.825
19883SOL     OW59992   8.800   5.638   5.754
19883SOL    HW159993   8.835   5.597   5.670
19883SOL    HW259994   8.710   5.600   5.774
19884SOL     OW59995   8.748   6.039   6.277
19884SOL    HW159996   8.689   6.119   6.281
19884SOL    HW259997   8.763   6.004   6.370
19885SOL     OW59998   9.041   5.807   6.468
19885SOL    HW159999   8.957   5.806   6.522
19885SOL    HW260000   9.043   5.890   6.412
19886SOL     OW60001   7.487   6.663   5.886
19886SOL    HW160002   7.586   6.652   5.877
19886SOL    HW260003   7.447   6.577   5.918
19887SOL     OW60004   8.323   7.232   5.923
19887SOL    HW160005   8.246   7.197   5.869
19887SOL    HW260006   8.291   7.303   5.985
19888SOL     OW60007   7.678   6.214   7.561
19888SOL    HW160008   7.585   6.212   7.598
19888SOL    HW260009   7.679   6.175   7.469
19889SOL     OW60010   9.203   6.193   7.679
19889SOL    HW160011   9.191   6.180   7.580
19889SOL    HW260012   9.173   6.112   7.728
19890SOL     OW60013   8.973   6.585   7.638
19890SOL    HW160014   8.910   6.509   7.651
19890SOL    HW260015   9.021   6.603   7.724
19891SOL     OW60016   8.046   6.315   7.718
19891SOL    HW160017   8.070   6.384   7.650
19891SOL    HW260018   7.968   6.348   7.772
19892SOL     OW60019   8.313   5.934   7.643
19892SOL    HW160020   8.372   5.997   7.594
19892SOL    HW260021   8.332   5.840   7.614
19893SOL     OW60022   8.559   7.362   7.685
19893SOL    HW160023   8.499   7.300   7.735
19893SOL    HW260024   8.590   7.318   7.600
19894SOL     OW60025   9.080   6.963   7.529
19894SOL    HW160026   9.048   7.057   7.519
19894SOL    HW260027   9.004   6.900   7.517
19895SOL     OW60028   8.062   5.708   7.565
19895SOL    HW160029   8.160   5.686   7.572
19895SOL    HW260030   8.031   5.691   7.472
19896SOL     OW60031   8.882   6.774   7.489
19896SOL    HW160032   8.914   6.698   7.546
19896SOL    HW260033   8.790   6.801   7.519
19897SOL     OW60034   8.480   6.135   7.464
19897SOL    HW160035   8.439   6.217   7.425
19897SOL    HW260036   8.544   6.161   7.537
19898SOL     OW60037   7.936   6.971   7.622
19898SOL    HW160038   7.849   6.956   7.669
19898SOL    HW260039   7.919   6.997   7.527
19899SOL     OW60040   8.838   6.161   7.526
19899SOL    HW160041   8.784   6.140   7.607
19899SOL    HW260042   8.929   6.120   7.535
19900SOL     OW60043   8.657   6.111   7.723
19900SOL    HW160044   8.670   6.027   7.777
19900SOL    HW260045   8.628   6.185   7.783
19901SOL     OW60046   8.120   7.202   7.602
19901SOL    HW160047   8.129   7.212   7.503
19901SOL    HW260048   8.080   7.113   7.623
19902SOL     OW60049   8.642   7.198   7.479
19902SOL    HW160050   8.648   7.105   7.516
19902SOL    HW260051   8.583   7.198   7.399
19903SOL     OW60052   8.952   7.193   7.492
19903SOL    HW160053   8.860   7.230   7.499
19903SOL    HW260054   8.990   7.213   7.402
19904SOL     OW60055   7.523   5.931   7.481
19904SOL    HW160056   7.431   5.903   7.452
19904SOL    HW260057   7.554   6.008   7.425
19905SOL     OW60058   8.631   6.921   7.567
19905SOL    HW160059   8.532   6.910   7.569
19905SOL    HW260060   8.665   6.936   7.660
19906SOL     OW60061   8.307   6.960   7.464
19906SOL    HW160062   8.261   6.975   7.552
19906SOL    HW260063   8.351   7.045   7.434
19907SOL     OW60064   8.531   6.570   7.535
19907SOL    HW160065   8.508   6.623   7.453
19907SOL    HW260066   8.612   6.514   7.516
19908SOL     OW60067   8.800   5.638   7.616
19908SOL    HW160068   8.835   5.597   7.532
19908SOL    HW260069   8.710   5.600   7.636
19909SOL     OW60070   7.487   6.663   7.748
19909SOL    HW160071   7.586   6.652   7.739
19909SOL    HW260072   7.447   6.577   7.780
19910SOL     OW60073   8.323   7.232   7.785
19910SOL    HW160074   8.246   7.197   7.731
19910SOL    HW260075   8.291   7.303   7.847
19911SOL     OW60076   7.678   8.076   0.113
19911SOL    HW160077   7.585   8.074   0.150
19911SOL    HW260078   7.679   8.037   0.021
19912SOL     OW60079   7.673   7.723   0.996
19912SOL    HW160080   7.708   7.706   1.088
19912SOL    HW260081   7.585   7.678   0.984
19913SOL     OW60082   7.467   7.816   0.647
19913SOL    HW160083   7.385   7.859   0.686
19913SOL    HW260084   7.439   7.743   0.584
19914SOL     OW60085   8.583   8.151   0.717
19914SOL    HW160086   8.640   8.229   0.692
19914SOL    HW260087   8.523   8.177   0.793
19915SOL     OW60088   8.216   8.592   1.023
19915SOL    HW160089   8.138   8.609   1.083
19915SOL    HW260090   8.250   8.679   0.987
19916SOL     OW60091   8.298   8.246   1.823
19916SOL    HW160092   8.294   8.322   1.888
19916SOL    HW260093   8.320   8.282   1.732
19917SOL     OW60094   8.133   8.460   0.665
19917SOL    HW160095   8.202   8.444   0.735
19917SOL    HW260096   8.060   8.517   0.703
19918SOL     OW60097   8.134   8.609   1.803
19918SOL    HW160098   8.194   8.688   1.817
19918SOL    HW260099   8.048   8.640   1.762
19919SOL     OW60100   7.886   7.840   1.499
19919SOL    HW160101   7.968   7.784   1.508
19919SOL    HW260102   7.805   7.782   1.503
19920SOL     OW60103   9.051   7.895   0.737
19920SOL    HW160104   8.977   7.941   0.687
19920SOL    HW260105   9.102   7.963   0.790
19921SOL     OW60106   8.575   8.789   1.690
19921SOL    HW160107   8.622   8.789   1.778
19921SOL    HW260108   8.527   8.702   1.679
19922SOL     OW60109   7.688   8.539   0.886
19922SOL    HW160110   7.702   8.455   0.938
19922SOL    HW260111   7.633   8.603   0.941
19923SOL     OW60112   9.042   7.562   1.480
19923SOL    HW160113   9.024   7.629   1.408
19923SOL    HW260114   9.039   7.608   1.569
19924SOL     OW60115   7.570   8.091   0.563
19924SOL    HW160116   7.525   8.003   0.580
19924SOL    HW260117   7.569   8.145   0.647
19925SOL     OW60118   9.137   8.370   0.612
19925SOL    HW160119   9.232   8.341   0.620
19925SOL    HW260120   9.129   8.435   0.537
19926SOL     OW60121   9.089   8.556   0.432
19926SOL    HW160122   9.175   8.558   0.380
19926SOL    HW260123   9.103   8.603   0.520
19927SOL     OW60124   7.561   8.185   1.597
19927SOL    HW160125   7.649   8.172   1.642
19927SOL    HW260126   7.548   8.282   1.575
19928SOL     OW60127   8.061   8.813   0.726
19928SOL    HW160128   8.012   8.726   0.735
19928SOL    HW260129   8.038   8.856   0.639
19929SOL     OW60130   8.741   8.676   1.423
19929SOL    HW160131   8.778   8.603   1.365
19929SOL    HW260132   8.793   8.681   1.508
19930SOL     OW60133   8.257   7.452   0.502
19930SOL    HW160134   8.297   7.543   0.493
19930SOL    HW260135   8.157   7.460   0.508
19931SOL     OW60136   7.645   8.424   1.264
19931SOL    HW160137   7.734   8.379   1.250
19931SOL    HW260138   7.572   8.359   1.245
19932SOL     OW60139   7.765   7.699   1.801
19932SOL    HW160140   7.836   7.770   1.807
19932SOL    HW260141   7.677   7.738   1.829
19933SOL     OW60142   8.914   8.865   0.953
19933SOL    HW160143   8.855   8.871   1.033
19933SOL    HW260144   8.899   8.777   0.907
19934SOL     OW60145   8.729   7.793   0.944
19934SOL    HW160146   8.643   7.743   0.931
19934SOL    HW260147   8.791   7.739   1.000
19935SOL     OW60148   8.255   8.053   1.465
19935SOL    HW160149   8.208   8.050   1.554
19935SOL    HW260150   8.204   7.998   1.399
19936SOL     OW60151   8.842   7.917   1.674
19936SOL    HW160152   8.822   7.960   1.762
19936SOL    HW260153   8.920   7.855   1.683
19937SOL     OW60154   8.421   8.338   1.572
19937SOL    HW160155   8.467   8.254   1.543
19937SOL    HW260156   8.365   8.372   1.497
19938SOL     OW60157   8.439   7.858   1.242
19938SOL    HW160158   8.362   7.892   1.296
19938SOL    HW260159   8.405   7.807   1.163
19939SOL     OW60160   7.524   8.259   0.789
19939SOL    HW160161   7.623   8.247   0.798
19939SOL    HW260162   7.500   8.354   0.810
19940SOL     OW60163   9.167   8.033   1.831
19940SOL    HW160164   9.141   8.122   1.795
19940SOL    HW260165   9.165   7.965   1.758
19941SOL     OW60166   8.810   8.592   0.545
19941SOL    HW160167   8.893   8.563   0.497
19941SOL    HW260168   8.761   8.659   0.489
19942SOL     OW60169   7.998   7.644   0.885
19942SOL    HW160170   7.993   7.639   0.985
19942SOL    HW260171   8.000   7.740   0.856
19943SOL     OW60172   9.243   8.514   0.873
19943SOL    HW160173   9.181   8.499   0.797
19943SOL    HW260174   9.191   8.525   0.958
19944SOL     OW60175   8.675   8.998   1.506
19944SOL    HW160176   8.681   8.921   1.570
19944SOL    HW260177   8.623   8.972   1.426
19945SOL     OW60178   8.906   8.183   0.728
19945SOL    HW160179   8.901   8.118   0.803
19945SOL    HW260180   8.986   8.242   0.741
19946SOL     OW60181   7.909   8.714   1.727
19946SOL    HW160182   7.859   8.715   1.641
19946SOL    HW260183   7.846   8.696   1.803
19947SOL     OW60184   7.650   7.733   1.498
19947SOL    HW160185   7.570   7.793   1.485
19947SOL    HW260186   7.640   7.684   1.584
19948SOL     OW60187   8.848   7.555   0.426
19948SOL    HW160188   8.824   7.518   0.336
19948SOL    HW260189   8.947   7.571   0.430
19949SOL     OW60190   7.830   8.148   0.480
19949SOL    HW160191   7.875   8.058   0.477
19949SOL    HW260192   7.736   8.137   0.513
19950SOL     OW60193   8.995   7.670   1.729
19950SOL    HW160194   8.990   7.707   1.821
19950SOL    HW260195   8.923   7.601   1.717
19951SOL     OW60196   8.062   7.570   0.117
19951SOL    HW160197   8.160   7.548   0.124
19951SOL    HW260198   8.031   7.553   0.024
19952SOL     OW60199   8.229   7.712   1.749
19952SOL    HW160200   8.296   7.651   1.792
19952SOL    HW260201   8.156   7.731   1.814
19953SOL     OW60202   8.799   8.038   1.433
19953SOL    HW160203   8.827   7.995   1.518
19953SOL    HW260204   8.824   8.134   1.434
19954SOL     OW60205   8.251   8.850   0.924
19954SOL    HW160206   8.341   8.864   0.882
19954SOL    HW260207   8.180   8.852   0.853
19955SOL     OW60208   8.370   7.951   0.899
19955SOL    HW160209   8.345   7.942   0.803
19955SOL    HW260210   8.418   7.869   0.930
19956SOL     OW60211   7.987   7.512   0.512
19956SOL    HW160212   7.906   7.513   0.570
19956SOL    HW260213   7.990   7.595   0.457
19957SOL     OW60214   8.383   7.684   0.480
19957SOL    HW160215   8.335   7.725   0.402
19957SOL    HW260216   8.482   7.682   0.461
19958SOL     OW60217   8.524   8.131   1.464
19958SOL    HW160218   8.444   8.070   1.467
19958SOL    HW260219   8.605   8.078   1.440
19959SOL     OW60220   7.907   8.600   0.741
19959SOL    HW160221   7.836   8.573   0.806
19959SOL    HW260222   7.881   8.572   0.648
19960SOL     OW60223   7.526   8.004   1.386
19960SOL    HW160224   7.618   8.003   1.345
19960SOL    HW260225   7.520   8.078   1.453
19961SOL     OW60226   8.009   7.670   1.147
19961SOL    HW160227   8.047   7.586   1.184
19961SOL    HW260228   7.921   7.689   1.191
19962SOL     OW60229   8.314   7.902   0.642
19962SOL    HW160230   8.282   7.974   0.580
19962SOL    HW260231   8.338   7.821   0.589
19963SOL     OW60232   8.465   7.487   0.753
19963SOL    HW160233   8.393   7.492   0.684
19963SOL    HW260234   8.441   7.418   0.822
19964SOL     OW60235   8.877   8.621   0.867
19964SOL    HW160236   8.822   8.537   0.860
19964SOL    HW260237   8.903   8.650   0.775
19965SOL     OW60238   8.914   8.038   0.992
19965SOL    HW160239   8.884   7.943   0.999
19965SOL    HW260240   8.987   8.054   1.058
19966SOL     OW60241   9.305   8.281   0.377
19966SOL    HW160242   9.347   8.217   0.441
19966SOL    HW260243   9.267   8.230   0.299
19967SOL     OW60244   7.975   7.704   0.328
19967SOL    HW160245   8.002   7.645   0.253
19967SOL    HW260246   7.975   7.799   0.297
19968SOL     OW60247   8.512   8.795   1.340
19968SOL    HW160248   8.432   8.772   1.395
19968SOL    HW260249   8.595   8.769   1.389
19969SOL     OW60250   8.559   8.643   1.100
19969SOL    HW160251   8.519   8.687   1.181
19969SOL    HW260252   8.518   8.680   1.017
19970SOL     OW60253   9.086   8.547   1.079
19970SOL    HW160254   9.091   8.628   1.138
19970SOL    HW260255   9.000   8.549   1.028
19971SOL     OW60256   8.363   7.537   1.402
19971SOL    HW160257   8.388   7.517   1.307
19971SOL    HW260258   8.435   7.593   1.444
19972SOL     OW60259   8.428   8.564   1.719
19972SOL    HW160260   8.329   8.570   1.729
19972SOL    HW260261   8.451   8.484   1.663
19973SOL     OW60262   8.153   8.498   0.368
19973SOL    HW160263   8.139   8.505   0.467
19973SOL    HW260264   8.237   8.447   0.350
19974SOL     OW60265   7.858   8.261   1.251
19974SOL    HW160266   7.944   8.273   1.301
19974SOL    HW260267   7.816   8.174   1.278
19975SOL     OW60268   8.722   7.834   1.262
19975SOL    HW160269   8.743   7.908   1.326
19975SOL    HW260270   8.633   7.851   1.219
19976SOL     OW60271   7.815   8.548   0.501
19976SOL    HW160272   7.808   8.631   0.445
19976SOL    HW260273   7.819   8.468   0.441
19977SOL     OW60274   8.014   7.985   0.865
19977SOL    HW160275   8.026   8.051   0.791
19977SOL    HW260276   8.060   8.019   0.948
19978SOL     OW60277   8.700   8.796   0.388
19978SOL    HW160278   8.750   8.873   0.428
19978SOL    HW260279   8.605   8.798   0.420
19979SOL     OW60280   9.030   8.087   0.472
19979SOL    HW160281   8.999   8.148   0.545
19979SOL    HW260282   9.080   8.139   0.403
19980SOL     OW60283   7.850   8.199   1.598
19980SOL    HW160284   7.918   8.254   1.551
19980SOL    HW260285   7.890   8.111   1.625
19981SOL     OW60286   9.035   8.227   1.670
19981SOL    HW160287   8.943   8.265   1.665
19981SOL    HW260288   9.095   8.274   1.605
19982SOL     OW60289   8.461   7.553   1.770
19982SOL    HW160290   8.467   7.638   1.718
19982SOL    HW260291   8.493   7.477   1.713
19983SOL     OW60292   7.952   7.498   1.740
19983SOL    HW160293   7.910   7.441   1.670
19983SOL    HW260294   7.886   7.567   1.772
19984SOL     OW60295   8.021   8.318   1.029
19984SOL    HW160296   8.065   8.407   1.020
19984SOL    HW260297   7.958   8.318   1.106
19985SOL     OW60298   8.808   8.310   1.045
19985SOL    HW160299   8.733   8.310   0.979
19985SOL    HW260300   8.845   8.218   1.054
19986SOL     OW60301   7.755   7.661   1.231
19986SOL    HW160302   7.732   7.698   1.321
19986SOL    HW260303   7.725   7.566   1.225
19987SOL     OW60304   7.485   8.758   1.282
19987SOL    HW160305   7.538   8.709   1.350
19987SOL    HW260306   7.507   8.856   1.287
19988SOL     OW60307   8.180   8.082   1.064
19988SOL    HW160308   8.239   8.056   0.988
19988SOL    HW260309   8.152   8.178   1.053
19989SOL     OW60310   9.176   8.383   1.854
19989SOL    HW160311   9.130   8.376   1.765
19989SOL    HW260312   9.114   8.427   1.920
19990SOL     OW60313   7.755   7.511   0.618
19990SOL    HW160314   7.744   7.605   0.651
19990SOL    HW260315   7.750   7.448   0.695
19991SOL     OW60316   8.471   8.214   0.966
19991SOL    HW160317   8.486   8.235   1.062
19991SOL    HW260318   8.441   8.119   0.957
19992SOL     OW60319   7.798   8.346   1.804
19992SOL    HW160320   7.874   8.390   1.852
19992SOL    HW260321   7.833   8.299   1.722
19993SOL     OW60322   8.516   8.781   0.849
19993SOL    HW160323   8.523   8.697   0.794
19993SOL    HW260324   8.578   8.850   0.813
19994SOL     OW60325   7.767   8.258   0.949
19994SOL    HW160326   7.860   8.294   0.954
19994SOL    HW260327   7.761   8.173   1.001
19995SOL     OW60328   7.787   7.957   1.006
19995SOL    HW160329   7.735   7.874   0.989
19995SOL    HW260330   7.864   7.962   0.942
19996SOL     OW60331   8.586   7.828   1.678
19996SOL    HW160332   8.541   7.891   1.742
19996SOL    HW260333   8.679   7.859   1.661
19997SOL     OW60334   8.608   7.655   1.477
19997SOL    HW160335   8.608   7.719   1.554
19997SOL    HW260336   8.636   7.703   1.394
19998SOL     OW60337   8.450   8.244   1.238
19998SOL    HW160338   8.491   8.212   1.324
19998SOL    HW260339   8.354   8.217   1.235
19999SOL     OW60340   7.488   7.992   1.114
19999SOL    HW160341   7.573   7.959   1.073
19999SOL    HW260342   7.501   8.007   1.212
20000SOL     OW60343   7.637   7.968   1.722
20000SOL    HW160344   7.696   7.928   1.652
20000SOL    HW260345   7.579   8.039   1.681
20001SOL     OW60346   8.817   8.398   1.660
20001SOL    HW160347   8.856   8.487   1.680
20001SOL    HW260348   8.827   8.378   1.563
20002SOL     OW60349   9.105   8.052   1.206
20002SOL    HW160350   9.067   7.983   1.268
20002SOL    HW260351   9.187   8.016   1.162
20003SOL     OW60352   8.119   7.912   1.269
20003SOL    HW160353   8.085   7.823   1.239
20003SOL    HW260354   8.145   7.966   1.189
20004SOL     OW60355   7.607   8.585   1.466
20004SOL    HW160356   7.629   8.524   1.542
20004SOL    HW260357   7.617   8.536   1.380
20005SOL     OW60358   8.795   8.507   1.234
20005SOL    HW160359   8.819   8.444   1.160
20005SOL    HW260360   8.705   8.547   1.216
20006SOL     OW60361   7.531   8.706   1.022
20006SOL    HW160362   7.526   8.705   1.122
20006SOL    HW260363   7.448   8.665   0.984
20007SOL     OW60364   9.174   7.583   0.523
20007SOL    HW160365   9.247   7.566   0.456
20007SOL    HW260366   9.143   7.496   0.561
20008SOL     OW60367   8.836   9.021   0.477
20008SOL    HW160368   8.903   9.033   0.403
20008SOL    HW260369   8.796   9.110   0.500
20009SOL     OW60370   8.728   8.375   0.672
20009SOL    HW160371   8.788   8.294   0.674
20009SOL    HW260372   8.768   8.444   0.612
20010SOL     OW60373   8.278   8.721   1.422
20010SOL    HW160374   8.273   8.754   1.517
20010SOL    HW260375   8.192   8.740   1.376
20011SOL     OW60376   9.289   7.623   0.963
20011SOL    HW160377   9.328   7.538   0.927
20011SOL    HW260378   9.191   7.625   0.944
20012SOL     OW60379   7.711   7.774   0.720
20012SOL    HW160380   7.632   7.825   0.686
20012SOL    HW260381   7.702   7.759   0.818
20013SOL     OW60382   8.270   8.450   1.372
20013SOL    HW160383   8.310   8.449   1.280
20013SOL    HW260384   8.280   8.542   1.412
20014SOL     OW60385   8.364   8.358   0.291
20014SOL    HW160386   8.427   8.396   0.223
20014SOL    HW260387   8.404   8.275   0.330
20015SOL     OW60388   7.820   8.736   1.490
20015SOL    HW160389   7.807   8.829   1.456
20015SOL    HW260390   7.736   8.684   1.477
20016SOL     OW60391   9.062   8.740   1.289
20016SOL    HW160392   9.122   8.743   1.369
20016SOL    HW260393   8.987   8.804   1.302
20017SOL     OW60394   8.487   8.546   0.696
20017SOL    HW160395   8.417   8.499   0.750
20017SOL    HW260396   8.546   8.478   0.653
20018SOL     OW60397   8.462   7.684   0.971
20018SOL    HW160398   8.454   7.648   0.878
20018SOL    HW260399   8.460   7.608   1.036
20019SOL     OW60400   8.038   8.935   0.491
20019SOL    HW160401   8.080   8.877   0.421
20019SOL    HW260402   7.994   9.014   0.447
20020SOL     OW60403   9.157   7.833   1.381
20020SOL    HW160404   9.230   7.902   1.385
20020SOL    HW260405   9.185   7.758   1.322
20021SOL     OW60406   7.553   8.461   1.726
20021SOL    HW160407   7.476   8.428   1.780
20021SOL    HW260408   7.638   8.431   1.768
20022SOL     OW60409   8.120   7.651   1.489
20022SOL    HW160410   8.210   7.635   1.449
20022SOL    HW260411   8.128   7.656   1.588
20023SOL     OW60412   8.888   8.304   1.398
20023SOL    HW160413   8.831   8.356   1.335
20023SOL    HW260414   8.984   8.316   1.374
20024SOL     OW60415   8.061   8.290   1.431
20024SOL    HW160416   8.117   8.371   1.414
20024SOL    HW260417   8.120   8.210   1.434
20025SOL     OW60418   8.164   8.013   1.708
20025SOL    HW160419   8.183   8.078   1.782
20025SOL    HW260420   8.224   7.933   1.717
20026SOL     OW60421   8.898   8.668   1.633
20026SOL    HW160422   8.889   8.658   1.732
20026SOL    HW260423   8.994   8.661   1.607
20027SOL     OW60424   7.838   9.189   1.560
20027SOL    HW160425   7.747   9.230   1.558
20027SOL    HW260426   7.831   9.095   1.592
20028SOL     OW60427   9.122   8.331   1.254
20028SOL    HW160428   9.095   8.242   1.217
20028SOL    HW260429   9.123   8.399   1.181
20029SOL     OW60430   8.673   7.773   0.449
20029SOL    HW160431   8.738   7.699   0.438
20029SOL    HW260432   8.693   7.823   0.533
20030SOL     OW60433   8.042   8.193   0.652
20030SOL    HW160434   8.092   8.278   0.633
20030SOL    HW260435   7.954   8.195   0.604
20031SOL     OW60436   9.225   7.790   1.642
20031SOL    HW160437   9.208   7.821   1.548
20031SOL    HW260438   9.141   7.753   1.680
20032SOL     OW60439   9.178   8.382   1.517
20032SOL    HW160440   9.216   8.473   1.532
20032SOL    HW260441   9.170   8.365   1.418
20033SOL     OW60442   8.307   8.404   0.861
20033SOL    HW160443   8.361   8.335   0.909
20033SOL    HW260444   8.275   8.473   0.927
20034SOL     OW60445   7.669   8.762   1.844
20034SOL    HW160446   7.604   8.689   1.823
20034SOL    HW260447   7.673   8.776   1.942
20035SOL     OW60448   7.527   8.688   0.653
20035SOL    HW160449   7.526   8.641   0.741
20035SOL    HW260450   7.609   8.660   0.602
20036SOL     OW60451   8.120   8.839   1.624
20036SOL    HW160452   8.042   8.789   1.662
20036SOL    HW260453   8.117   8.934   1.655
20037SOL     OW60454   9.272   7.640   1.227
20037SOL    HW160455   9.268   7.550   1.271
20037SOL    HW260456   9.275   7.629   1.128
20038SOL     OW60457   7.876   7.872   0.520
20038SOL    HW160458   7.906   7.800   0.458
20038SOL    HW260459   7.837   7.832   0.603
20039SOL     OW60460   9.153   8.935   1.104
20039SOL    HW160461   9.060   8.910   1.077
20039SOL    HW260462   9.179   8.885   1.186
20040SOL     OW60463   7.765   7.995   1.280
20040SOL    HW160464   7.803   7.936   1.352
20040SOL    HW260465   7.805   7.969   1.192
20041SOL     OW60466   8.260   9.034   0.687
20041SOL    HW160467   8.292   9.044   0.593
20041SOL    HW260468   8.181   8.972   0.689
20042SOL     OW60469   8.872   7.662   1.112
20042SOL    HW160470   8.924   7.597   1.167
20042SOL    HW260471   8.823   7.725   1.173
20043SOL     OW60472   8.449   7.482   1.154
20043SOL    HW160473   8.386   7.410   1.123
20043SOL    HW260474   8.542   7.446   1.154
20044SOL     OW60475   8.218   8.778   0.301
20044SOL    HW160476   8.172   8.691   0.318
20044SOL    HW260477   8.309   8.775   0.342
20045SOL     OW60478   8.748   7.901   0.691
20045SOL    HW160479   8.689   7.981   0.695
20045SOL    HW260480   8.763   7.866   0.784
20046SOL     OW60481   9.041   7.669   0.882
20046SOL    HW160482   8.957   7.668   0.936
20046SOL    HW260483   9.043   7.752   0.826
20047SOL     OW60484   7.678   8.076   1.975
20047SOL    HW160485   7.585   8.074   2.012
20047SOL    HW260486   7.679   8.037   1.883
20048SOL     OW60487   7.673   7.723   2.858
20048SOL    HW160488   7.708   7.706   2.950
20048SOL    HW260489   7.585   7.678   2.846
20049SOL     OW60490   7.467   7.816   2.509
20049SOL    HW160491   7.385   7.859   2.548
20049SOL    HW260492   7.439   7.743   2.446
20050SOL     OW60493   8.583   8.151   2.579
20050SOL    HW160494   8.640   8.229   2.554
20050SOL    HW260495   8.523   8.177   2.655
20051SOL     OW60496   9.203   8.055   2.093
20051SOL    HW160497   9.191   8.042   1.994
20051SOL    HW260498   9.173   7.974   2.142
20052SOL     OW60499   8.216   8.592   2.885
20052SOL    HW160500   8.138   8.609   2.945
20052SOL    HW260501   8.250   8.679   2.849
20053SOL     OW60502   8.298   8.246   3.685
20053SOL    HW160503   8.294   8.322   3.750
20053SOL    HW260504   8.320   8.282   3.594
20054SOL     OW60505   8.133   8.460   2.527
20054SOL    HW160506   8.202   8.444   2.597
20054SOL    HW260507   8.060   8.517   2.565
20055SOL     OW60508   8.134   8.609   3.665
20055SOL    HW160509   8.194   8.688   3.679
20055SOL    HW260510   8.048   8.640   3.624
20056SOL     OW60511   7.886   7.840   3.361
20056SOL    HW160512   7.968   7.784   3.370
20056SOL    HW260513   7.805   7.782   3.365
20057SOL     OW60514   9.051   7.895   2.599
20057SOL    HW160515   8.977   7.941   2.549
20057SOL    HW260516   9.102   7.963   2.652
20058SOL     OW60517   8.575   8.789   3.552
20058SOL    HW160518   8.622   8.789   3.640
20058SOL    HW260519   8.527   8.702   3.541
20059SOL     OW60520   7.688   8.539   2.748
20059SOL    HW160521   7.702   8.455   2.800
20059SOL    HW260522   7.633   8.603   2.803
20060SOL     OW60523   8.054   8.412   1.985
20060SOL    HW160524   8.061   8.496   1.931
20060SOL    HW260525   8.100   8.425   2.073
20061SOL     OW60526   9.042   7.562   3.342
20061SOL    HW160527   9.024   7.629   3.270
20061SOL    HW260528   9.039   7.608   3.431
20062SOL     OW60529   7.570   8.091   2.425
20062SOL    HW160530   7.525   8.003   2.442
20062SOL    HW260531   7.569   8.145   2.509
20063SOL     OW60532   9.137   8.370   2.474
20063SOL    HW160533   9.232   8.341   2.482
20063SOL    HW260534   9.129   8.435   2.399
20064SOL     OW60535   9.089   8.556   2.294
20064SOL    HW160536   9.175   8.558   2.242
20064SOL    HW260537   9.103   8.603   2.382
20065SOL     OW60538   7.561   8.185   3.459
20065SOL    HW160539   7.649   8.172   3.504
20065SOL    HW260540   7.548   8.282   3.437
20066SOL     OW60541   8.061   8.813   2.588
20066SOL    HW160542   8.012   8.726   2.597
20066SOL    HW260543   8.038   8.856   2.501
20067SOL     OW60544   8.741   8.676   3.285
20067SOL    HW160545   8.778   8.603   3.227
20067SOL    HW260546   8.793   8.681   3.370
20068SOL     OW60547   8.257   7.452   2.364
20068SOL    HW160548   8.297   7.543   2.355
20068SOL    HW260549   8.157   7.460   2.370
20069SOL     OW60550   7.645   8.424   3.126
20069SOL    HW160551   7.734   8.379   3.112
20069SOL    HW260552   7.572   8.359   3.107
20070SOL     OW60553   8.973   8.447   2.052
20070SOL    HW160554   8.910   8.371   2.065
20070SOL    HW260555   9.021   8.465   2.138
20071SOL     OW60556   7.765   7.699   3.663
20071SOL    HW160557   7.836   7.770   3.669
20071SOL    HW260558   7.677   7.738   3.691
20072SOL     OW60559   8.914   8.865   2.815
20072SOL    HW160560   8.855   8.871   2.895
20072SOL    HW260561   8.899   8.777   2.769
20073SOL     OW60562   8.046   8.177   2.132
20073SOL    HW160563   8.070   8.246   2.064
20073SOL    HW260564   7.968   8.210   2.186
20074SOL     OW60565   8.729   7.793   2.806
20074SOL    HW160566   8.643   7.743   2.793
20074SOL    HW260567   8.791   7.739   2.862
20075SOL     OW60568   8.255   8.053   3.327
20075SOL    HW160569   8.208   8.050   3.416
20075SOL    HW260570   8.204   7.998   3.261
20076SOL     OW60571   8.842   7.917   3.536
20076SOL    HW160572   8.822   7.960   3.624
20076SOL    HW260573   8.920   7.855   3.545
20077SOL     OW60574   8.421   8.338   3.434
20077SOL    HW160575   8.467   8.254   3.405
20077SOL    HW260576   8.365   8.372   3.359
20078SOL     OW60577   8.439   7.858   3.104
20078SOL    HW160578   8.362   7.892   3.158
20078SOL    HW260579   8.405   7.807   3.025
20079SOL     OW60580   8.489   8.149   2.291
20079SOL    HW160581   8.515   8.145   2.387
20079SOL    HW260582   8.404   8.098   2.277
20080SOL     OW60583   7.524   8.259   2.651
20080SOL    HW160584   7.623   8.247   2.660
20080SOL    HW260585   7.500   8.354   2.672
20081SOL     OW60586   8.313   7.796   2.057
20081SOL    HW160587   8.372   7.859   2.008
20081SOL    HW260588   8.332   7.702   2.028
20082SOL     OW60589   8.810   8.592   2.407
20082SOL    HW160590   8.893   8.563   2.359
20082SOL    HW260591   8.761   8.659   2.351
20083SOL     OW60592   7.998   7.644   2.747
20083SOL    HW160593   7.993   7.639   2.847
20083SOL    HW260594   8.000   7.740   2.718
20084SOL     OW60595   9.243   8.514   2.735
20084SOL    HW160596   9.181   8.499   2.659
20084SOL    HW260597   9.191   8.525   2.820
20085SOL     OW60598   8.675   8.998   3.368
20085SOL    HW160599   8.681   8.921   3.432
20085SOL    HW260600   8.623   8.972   3.288
20086SOL     OW60601   7.769   8.391   2.104
20086SOL    HW160602   7.851   8.430   2.062
20086SOL    HW260603   7.742   8.309   2.055
20087SOL     OW60604   8.906   8.183   2.590
20087SOL    HW160605   8.901   8.118   2.665
20087SOL    HW260606   8.986   8.242   2.603
20088SOL     OW60607   7.909   8.714   3.589
20088SOL    HW160608   7.859   8.715   3.503
20088SOL    HW260609   7.846   8.696   3.665
20089SOL     OW60610   7.650   7.733   3.360
20089SOL    HW160611   7.570   7.793   3.347
20089SOL    HW260612   7.640   7.684   3.446
20090SOL     OW60613   8.848   7.555   2.288
20090SOL    HW160614   8.824   7.518   2.198
20090SOL    HW260615   8.947   7.571   2.292
20091SOL     OW60616   7.830   8.148   2.342
20091SOL    HW160617   7.875   8.058   2.339
20091SOL    HW260618   7.736   8.137   2.375
20092SOL     OW60619   8.995   7.670   3.591
20092SOL    HW160620   8.990   7.707   3.683
20092SOL    HW260621   8.923   7.601   3.579
20093SOL     OW60622   8.062   7.570   1.979
20093SOL    HW160623   8.160   7.548   1.986
20093SOL    HW260624   8.031   7.553   1.886
20094SOL     OW60625   8.229   7.712   3.611
20094SOL    HW160626   8.296   7.651   3.654
20094SOL    HW260627   8.156   7.731   3.676
20095SOL     OW60628   8.799   8.038   3.295
20095SOL    HW160629   8.827   7.995   3.380
20095SOL    HW260630   8.824   8.134   3.296
20096SOL     OW60631   8.251   8.850   2.786
20096SOL    HW160632   8.341   8.864   2.744
20096SOL    HW260633   8.180   8.852   2.715
20097SOL     OW60634   8.370   7.951   2.761
20097SOL    HW160635   8.345   7.942   2.665
20097SOL    HW260636   8.418   7.869   2.792
20098SOL     OW60637   7.987   7.512   2.374
20098SOL    HW160638   7.906   7.513   2.432
20098SOL    HW260639   7.990   7.595   2.319
20099SOL     OW60640   8.882   8.636   1.903
20099SOL    HW160641   8.914   8.560   1.960
20099SOL    HW260642   8.790   8.663   1.933
20100SOL     OW60643   7.745   7.483   2.033
20100SOL    HW160644   7.794   7.567   2.012
20100SOL    HW260645   7.807   7.418   2.078
20101SOL     OW60646   8.383   7.684   2.342
20101SOL    HW160647   8.335   7.725   2.264
20101SOL    HW260648   8.482   7.682   2.323
20102SOL     OW60649   8.524   8.131   3.326
20102SOL    HW160650   8.444   8.070   3.329
20102SOL    HW260651   8.605   8.078   3.302
20103SOL     OW60652   7.907   8.600   2.603
20103SOL    HW160653   7.836   8.573   2.668
20103SOL    HW260654   7.881   8.572   2.510
20104SOL     OW60655   8.480   7.997   1.878
20104SOL    HW160656   8.439   8.079   1.839
20104SOL    HW260657   8.544   8.023   1.951
20105SOL     OW60658   7.526   8.004   3.248
20105SOL    HW160659   7.618   8.003   3.207
20105SOL    HW260660   7.520   8.078   3.315
20106SOL     OW60661   8.009   7.670   3.009
20106SOL    HW160662   8.047   7.586   3.046
20106SOL    HW260663   7.921   7.689   3.053
20107SOL     OW60664   8.314   7.902   2.504
20107SOL    HW160665   8.282   7.974   2.442
20107SOL    HW260666   8.338   7.821   2.451
20108SOL     OW60667   8.465   7.487   2.615
20108SOL    HW160668   8.393   7.492   2.546
20108SOL    HW260669   8.441   7.418   2.684
20109SOL     OW60670   8.877   8.621   2.729
20109SOL    HW160671   8.822   8.537   2.722
20109SOL    HW260672   8.903   8.650   2.637
20110SOL     OW60673   8.914   8.038   2.854
20110SOL    HW160674   8.884   7.943   2.861
20110SOL    HW260675   8.987   8.054   2.920
20111SOL     OW60676   9.305   8.281   2.239
20111SOL    HW160677   9.347   8.217   2.303
20111SOL    HW260678   9.267   8.230   2.161
20112SOL     OW60679   7.936   8.833   2.036
20112SOL    HW160680   7.849   8.818   2.083
20112SOL    HW260681   7.919   8.859   1.941
20113SOL     OW60682   8.838   8.023   1.940
20113SOL    HW160683   8.784   8.002   2.021
20113SOL    HW260684   8.929   7.982   1.949
20114SOL     OW60685   7.975   7.704   2.190
20114SOL    HW160686   8.002   7.645   2.115
20114SOL    HW260687   7.975   7.799   2.159
20115SOL     OW60688   8.512   8.795   3.202
20115SOL    HW160689   8.432   8.772   3.257
20115SOL    HW260690   8.595   8.769   3.251
20116SOL     OW60691   8.559   8.643   2.962
20116SOL    HW160692   8.519   8.687   3.043
20116SOL    HW260693   8.518   8.680   2.879
20117SOL     OW60694   9.086   8.547   2.941
20117SOL    HW160695   9.091   8.628   3.000
20117SOL    HW260696   9.000   8.549   2.890
20118SOL     OW60697   8.363   7.537   3.264
20118SOL    HW160698   8.388   7.517   3.169
20118SOL    HW260699   8.435   7.593   3.306
20119SOL     OW60700   8.428   8.564   3.581
20119SOL    HW160701   8.329   8.570   3.591
20119SOL    HW260702   8.451   8.484   3.525
20120SOL     OW60703   8.153   8.498   2.230
20120SOL    HW160704   8.139   8.505   2.329
20120SOL    HW260705   8.237   8.447   2.212
20121SOL     OW60706   7.858   8.261   3.113
20121SOL    HW160707   7.944   8.273   3.163
20121SOL    HW260708   7.816   8.174   3.140
20122SOL     OW60709   8.722   7.834   3.124
20122SOL    HW160710   8.743   7.908   3.188
20122SOL    HW260711   8.633   7.851   3.081
20123SOL     OW60712   7.815   8.548   2.363
20123SOL    HW160713   7.808   8.631   2.307
20123SOL    HW260714   7.819   8.468   2.303
20124SOL     OW60715   8.014   7.985   2.727
20124SOL    HW160716   8.026   8.051   2.653
20124SOL    HW260717   8.060   8.019   2.810
20125SOL     OW60718   8.700   8.796   2.250
20125SOL    HW160719   8.750   8.873   2.290
20125SOL    HW260720   8.605   8.798   2.282
20126SOL     OW60721   9.030   8.087   2.334
20126SOL    HW160722   8.999   8.148   2.407
20126SOL    HW260723   9.080   8.139   2.265
20127SOL     OW60724   7.850   8.199   3.460
20127SOL    HW160725   7.918   8.254   3.413
20127SOL    HW260726   7.890   8.111   3.487
20128SOL     OW60727   9.035   8.227   3.532
20128SOL    HW160728   8.943   8.265   3.527
20128SOL    HW260729   9.095   8.274   3.467
20129SOL     OW60730   8.461   7.553   3.632
20129SOL    HW160731   8.467   7.638   3.580
20129SOL    HW260732   8.493   7.477   3.575
20130SOL     OW60733   7.952   7.498   3.602
20130SOL    HW160734   7.910   7.441   3.532
20130SOL    HW260735   7.886   7.567   3.634
20131SOL     OW60736   8.021   8.318   2.891
20131SOL    HW160737   8.065   8.407   2.882
20131SOL    HW260738   7.958   8.318   2.968
20132SOL     OW60739   8.808   8.310   2.907
20132SOL    HW160740   8.733   8.310   2.841
20132SOL    HW260741   8.845   8.218   2.916
20133SOL     OW60742   8.657   7.973   2.137
20133SOL    HW160743   8.670   7.889   2.191
20133SOL    HW260744   8.628   8.047   2.197
20134SOL     OW60745   7.755   7.661   3.093
20134SOL    HW160746   7.732   7.698   3.183
20134SOL    HW260747   7.725   7.566   3.087
20135SOL     OW60748   7.485   8.758   3.144
20135SOL    HW160749   7.538   8.709   3.212
20135SOL    HW260750   7.507   8.856   3.149
20136SOL     OW60751   8.180   8.082   2.926
20136SOL    HW160752   8.239   8.056   2.850
20136SOL    HW260753   8.152   8.178   2.915
20137SOL     OW60754   9.176   8.383   3.716
20137SOL    HW160755   9.130   8.376   3.627
20137SOL    HW260756   9.114   8.427   3.782
20138SOL     OW60757   7.755   7.511   2.480
20138SOL    HW160758   7.744   7.605   2.513
20138SOL    HW260759   7.750   7.448   2.557
20139SOL     OW60760   9.070   7.815   2.236
20139SOL    HW160761   9.072   7.739   2.300
20139SOL    HW260762   9.022   7.892   2.276
20140SOL     OW60763   8.471   8.214   2.828
20140SOL    HW160764   8.486   8.235   2.924
20140SOL    HW260765   8.441   8.119   2.819
20141SOL     OW60766   7.798   8.346   3.666
20141SOL    HW160767   7.874   8.390   3.714
20141SOL    HW260768   7.833   8.299   3.584
20142SOL     OW60769   8.988   7.722   1.987
20142SOL    HW160770   8.927   7.647   2.010
20142SOL    HW260771   9.010   7.774   2.070
20143SOL     OW60772   8.751   8.286   1.904
20143SOL    HW160773   8.785   8.193   1.919
20143SOL    HW260774   8.769   8.313   1.809
20144SOL     OW60775   8.516   8.781   2.711
20144SOL    HW160776   8.523   8.697   2.656
20144SOL    HW260777   8.578   8.850   2.675
20145SOL     OW60778   7.767   8.258   2.811
20145SOL    HW160779   7.860   8.294   2.816
20145SOL    HW260780   7.761   8.173   2.863
20146SOL     OW60781   7.787   7.957   2.868
20146SOL    HW160782   7.735   7.874   2.851
20146SOL    HW260783   7.864   7.962   2.804
20147SOL     OW60784   8.586   7.828   3.540
20147SOL    HW160785   8.541   7.891   3.604
20147SOL    HW260786   8.679   7.859   3.523
20148SOL     OW60787   8.608   7.655   3.339
20148SOL    HW160788   8.608   7.719   3.416
20148SOL    HW260789   8.636   7.703   3.256
20149SOL     OW60790   7.456   8.774   2.062
20149SOL    HW160791   7.363   8.795   2.031
20149SOL    HW260792   7.466   8.675   2.075
20150SOL     OW60793   8.450   8.244   3.100
20150SOL    HW160794   8.491   8.212   3.186
20150SOL    HW260795   8.354   8.217   3.097
20151SOL     OW60796   7.488   7.992   2.976
20151SOL    HW160797   7.573   7.959   2.935
20151SOL    HW260798   7.501   8.007   3.074
20152SOL     OW60799   7.637   7.968   3.584
20152SOL    HW160800   7.696   7.928   3.514
20152SOL    HW260801   7.579   8.039   3.543
20153SOL     OW60802   8.817   8.398   3.522
20153SOL    HW160803   8.856   8.487   3.542
20153SOL    HW260804   8.827   8.378   3.425
20154SOL     OW60805   8.263   8.020   2.187
20154SOL    HW160806   8.270   7.931   2.141
20154SOL    HW260807   8.169   8.054   2.179
20155SOL     OW60808   9.105   8.052   3.068
20155SOL    HW160809   9.067   7.983   3.130
20155SOL    HW260810   9.187   8.016   3.024
20156SOL     OW60811   8.119   7.912   3.131
20156SOL    HW160812   8.085   7.823   3.101
20156SOL    HW260813   8.145   7.966   3.051
20157SOL     OW60814   7.921   7.948   2.053
20157SOL    HW160815   7.982   8.028   2.057
20157SOL    HW260816   7.826   7.979   2.060
20158SOL     OW60817   7.607   8.585   3.328
20158SOL    HW160818   7.629   8.524   3.404
20158SOL    HW260819   7.617   8.536   3.242
20159SOL     OW60820   8.795   8.507   3.096
20159SOL    HW160821   8.819   8.444   3.022
20159SOL    HW260822   8.705   8.547   3.078
20160SOL     OW60823   8.750   8.303   2.171
20160SOL    HW160824   8.664   8.272   2.213
20160SOL    HW260825   8.746   8.289   2.072
20161SOL     OW60826   7.531   8.706   2.884
20161SOL    HW160827   7.526   8.705   2.984
20161SOL    HW260828   7.448   8.665   2.846
20162SOL     OW60829   9.174   7.583   2.385
20162SOL    HW160830   9.247   7.566   2.318
20162SOL    HW260831   9.143   7.496   2.423
20163SOL     OW60832   8.728   8.375   2.534
20163SOL    HW160833   8.788   8.294   2.536
20163SOL    HW260834   8.768   8.444   2.474
20164SOL     OW60835   8.278   8.721   3.284
20164SOL    HW160836   8.273   8.754   3.379
20164SOL    HW260837   8.192   8.740   3.238
20165SOL     OW60838   9.289   7.623   2.825
20165SOL    HW160839   9.328   7.538   2.789
20165SOL    HW260840   9.191   7.625   2.806
20166SOL     OW60841   7.711   7.774   2.582
20166SOL    HW160842   7.632   7.825   2.548
20166SOL    HW260843   7.702   7.759   2.680
20167SOL     OW60844   8.642   9.060   1.893
20167SOL    HW160845   8.648   8.967   1.930
20167SOL    HW260846   8.583   9.060   1.813
20168SOL     OW60847   8.270   8.450   3.234
20168SOL    HW160848   8.310   8.449   3.142
20168SOL    HW260849   8.280   8.542   3.274
20169SOL     OW60850   8.364   8.358   2.153
20169SOL    HW160851   8.427   8.396   2.085
20169SOL    HW260852   8.404   8.275   2.192
20170SOL     OW60853   7.820   8.736   3.352
20170SOL    HW160854   7.807   8.829   3.318
20170SOL    HW260855   7.736   8.684   3.339
20171SOL     OW60856   9.062   8.740   3.151
20171SOL    HW160857   9.122   8.743   3.231
20171SOL    HW260858   8.987   8.804   3.164
20172SOL     OW60859   8.487   8.546   2.558
20172SOL    HW160860   8.417   8.499   2.612
20172SOL    HW260861   8.546   8.478   2.515
20173SOL     OW60862   8.462   7.684   2.833
20173SOL    HW160863   8.454   7.648   2.740
20173SOL    HW260864   8.460   7.608   2.898
20174SOL     OW60865   8.038   8.935   2.353
20174SOL    HW160866   8.080   8.877   2.283
20174SOL    HW260867   7.994   9.014   2.309
20175SOL     OW60868   9.157   7.833   3.243
20175SOL    HW160869   9.230   7.902   3.247
20175SOL    HW260870   9.185   7.758   3.184
20176SOL     OW60871   7.553   8.461   3.588
20176SOL    HW160872   7.476   8.428   3.642
20176SOL    HW260873   7.638   8.431   3.630
20177SOL     OW60874   8.120   7.651   3.351
20177SOL    HW160875   8.210   7.635   3.311
20177SOL    HW260876   8.128   7.656   3.450
20178SOL     OW60877   7.523   7.793   1.895
20178SOL    HW160878   7.431   7.765   1.866
20178SOL    HW260879   7.554   7.870   1.839
20179SOL     OW60880   8.888   8.304   3.260
20179SOL    HW160881   8.831   8.356   3.197
20179SOL    HW260882   8.984   8.316   3.236
20180SOL     OW60883   7.520   7.614   2.180
20180SOL    HW160884   7.503   7.697   2.126
20180SOL    HW260885   7.610   7.577   2.158
20181SOL     OW60886   8.631   8.783   1.981
20181SOL    HW160887   8.532   8.772   1.983
20181SOL    HW260888   8.665   8.798   2.074
20182SOL     OW60889   8.061   8.290   3.293
20182SOL    HW160890   8.117   8.371   3.276
20182SOL    HW260891   8.120   8.210   3.296
20183SOL     OW60892   8.164   8.013   3.570
20183SOL    HW160893   8.183   8.078   3.644
20183SOL    HW260894   8.224   7.933   3.579
20184SOL     OW60895   8.898   8.668   3.495
20184SOL    HW160896   8.889   8.658   3.594
20184SOL    HW260897   8.994   8.661   3.469
20185SOL     OW60898   7.838   9.189   3.422
20185SOL    HW160899   7.747   9.230   3.420
20185SOL    HW260900   7.831   9.095   3.454
20186SOL     OW60901   9.122   8.331   3.116
20186SOL    HW160902   9.095   8.242   3.079
20186SOL    HW260903   9.123   8.399   3.043
20187SOL     OW60904   8.673   7.773   2.311
20187SOL    HW160905   8.738   7.699   2.300
20187SOL    HW260906   8.693   7.823   2.395
20188SOL     OW60907   8.042   8.193   2.514
20188SOL    HW160908   8.092   8.278   2.495
20188SOL    HW260909   7.954   8.195   2.466
20189SOL     OW60910   9.225   7.790   3.504
20189SOL    HW160911   9.208   7.821   3.410
20189SOL    HW260912   9.141   7.753   3.542
20190SOL     OW60913   9.178   8.382   3.379
20190SOL    HW160914   9.216   8.473   3.394
20190SOL    HW260915   9.170   8.365   3.280
20191SOL     OW60916   8.307   8.404   2.723
20191SOL    HW160917   8.361   8.335   2.771
20191SOL    HW260918   8.275   8.473   2.789
20192SOL     OW60919   8.531   8.432   1.949
20192SOL    HW160920   8.508   8.485   1.867
20192SOL    HW260921   8.612   8.376   1.930
20193SOL     OW60922   7.669   8.762   3.706
20193SOL    HW160923   7.604   8.689   3.685
20193SOL    HW260924   7.673   8.776   3.804
20194SOL     OW60925   7.527   8.688   2.515
20194SOL    HW160926   7.526   8.641   2.603
20194SOL    HW260927   7.609   8.660   2.464
20195SOL     OW60928   8.120   8.839   3.486
20195SOL    HW160929   8.042   8.789   3.524
20195SOL    HW260930   8.117   8.934   3.517
20196SOL     OW60931   9.272   7.640   3.089
20196SOL    HW160932   9.268   7.550   3.133
20196SOL    HW260933   9.275   7.629   2.990
20197SOL     OW60934   7.876   7.872   2.382
20197SOL    HW160935   7.906   7.800   2.320
20197SOL    HW260936   7.837   7.832   2.465
20198SOL     OW60937   9.153   8.935   2.966
20198SOL    HW160938   9.060   8.910   2.939
20198SOL    HW260939   9.179   8.885   3.048
20199SOL     OW60940   7.765   7.995   3.142
20199SOL    HW160941   7.803   7.936   3.214
20199SOL    HW260942   7.805   7.969   3.054
20200SOL     OW60943   8.260   9.034   2.549
20200SOL    HW160944   8.292   9.044   2.455
20200SOL    HW260945   8.181   8.972   2.551
20201SOL     OW60946   8.872   7.662   2.974
20201SOL    HW160947   8.924   7.597   3.029
20201SOL    HW260948   8.823   7.725   3.035
20202SOL     OW60949   8.449   7.482   3.016
20202SOL    HW160950   8.386   7.410   2.985
20202SOL    HW260951   8.542   7.446   3.016
20203SOL     OW60952   8.218   8.778   2.163
20203SOL    HW160953   8.172   8.691   2.180
20203SOL    HW260954   8.309   8.775   2.204
20204SOL     OW60955   8.800   7.500   2.030
20204SOL    HW160956   8.835   7.459   1.946
20204SOL    HW260957   8.710   7.462   2.050
20205SOL     OW60958   8.748   7.901   2.553
20205SOL    HW160959   8.689   7.981   2.557
20205SOL    HW260960   8.763   7.866   2.646
20206SOL     OW60961   9.041   7.669   2.744
20206SOL    HW160962   8.957   7.668   2.798
20206SOL    HW260963   9.043   7.752   2.688
20207SOL     OW60964   7.487   8.525   2.162
20207SOL    HW160965   7.586   8.514   2.153
20207SOL    HW260966   7.447   8.439   2.194
20208SOL     OW60967   7.678   8.076   3.837
20208SOL    HW160968   7.585   8.074   3.874
20208SOL    HW260969   7.679   8.037   3.745
20209SOL     OW60970   7.673   7.723   4.720
20209SOL    HW160971   7.708   7.706   4.812
20209SOL    HW260972   7.585   7.678   4.708
20210SOL     OW60973   7.467   7.816   4.371
20210SOL    HW160974   7.385   7.859   4.410
20210SOL    HW260975   7.439   7.743   4.308
20211SOL     OW60976   8.583   8.151   4.441
20211SOL    HW160977   8.640   8.229   4.416
20211SOL    HW260978   8.523   8.177   4.517
20212SOL     OW60979   9.203   8.055   3.955
20212SOL    HW160980   9.191   8.042   3.856
20212SOL    HW260981   9.173   7.974   4.004
20213SOL     OW60982   8.216   8.592   4.747
20213SOL    HW160983   8.138   8.609   4.807
20213SOL    HW260984   8.250   8.679   4.711
20214SOL     OW60985   8.298   8.246   5.547
20214SOL    HW160986   8.294   8.322   5.612
20214SOL    HW260987   8.320   8.282   5.456
20215SOL     OW60988   8.133   8.460   4.389
20215SOL    HW160989   8.202   8.444   4.459
20215SOL    HW260990   8.060   8.517   4.427
20216SOL     OW60991   8.134   8.609   5.527
20216SOL    HW160992   8.194   8.688   5.541
20216SOL    HW260993   8.048   8.640   5.486
20217SOL     OW60994   7.886   7.840   5.223
20217SOL    HW160995   7.968   7.784   5.232
20217SOL    HW260996   7.805   7.782   5.227
20218SOL     OW60997   9.051   7.895   4.461
20218SOL    HW160998   8.977   7.941   4.411
20218SOL    HW260999   9.102   7.963   4.514
20219SOL     OW61000   8.575   8.789   5.414
20219SOL    HW161001   8.622   8.789   5.502
20219SOL    HW261002   8.527   8.702   5.403
20220SOL     OW61003   7.688   8.539   4.610
20220SOL    HW161004   7.702   8.455   4.662
20220SOL    HW261005   7.633   8.603   4.665
20221SOL     OW61006   8.054   8.412   3.847
20221SOL    HW161007   8.061   8.496   3.793
20221SOL    HW261008   8.100   8.425   3.935
20222SOL     OW61009   9.042   7.562   5.204
20222SOL    HW161010   9.024   7.629   5.132
20222SOL    HW261011   9.039   7.608   5.293
20223SOL     OW61012   7.570   8.091   4.287
20223SOL    HW161013   7.525   8.003   4.304
20223SOL    HW261014   7.569   8.145   4.371
20224SOL     OW61015   9.137   8.370   4.336
20224SOL    HW161016   9.232   8.341   4.344
20224SOL    HW261017   9.129   8.435   4.261
20225SOL     OW61018   9.089   8.556   4.156
20225SOL    HW161019   9.175   8.558   4.104
20225SOL    HW261020   9.103   8.603   4.244
20226SOL     OW61021   7.561   8.185   5.321
20226SOL    HW161022   7.649   8.172   5.366
20226SOL    HW261023   7.548   8.282   5.299
20227SOL     OW61024   8.061   8.813   4.450
20227SOL    HW161025   8.012   8.726   4.459
20227SOL    HW261026   8.038   8.856   4.363
20228SOL     OW61027   8.741   8.676   5.147
20228SOL    HW161028   8.778   8.603   5.089
20228SOL    HW261029   8.793   8.681   5.232
20229SOL     OW61030   8.257   7.452   4.226
20229SOL    HW161031   8.297   7.543   4.217
20229SOL    HW261032   8.157   7.460   4.232
20230SOL     OW61033   7.645   8.424   4.988
20230SOL    HW161034   7.734   8.379   4.974
20230SOL    HW261035   7.572   8.359   4.969
20231SOL     OW61036   8.973   8.447   3.914
20231SOL    HW161037   8.910   8.371   3.927
20231SOL    HW261038   9.021   8.465   4.000
20232SOL     OW61039   7.765   7.699   5.525
20232SOL    HW161040   7.836   7.770   5.531
20232SOL    HW261041   7.677   7.738   5.553
20233SOL     OW61042   8.914   8.865   4.677
20233SOL    HW161043   8.855   8.871   4.757
20233SOL    HW261044   8.899   8.777   4.631
20234SOL     OW61045   8.046   8.177   3.994
20234SOL    HW161046   8.070   8.246   3.926
20234SOL    HW261047   7.968   8.210   4.048
20235SOL     OW61048   8.729   7.793   4.668
20235SOL    HW161049   8.643   7.743   4.655
20235SOL    HW261050   8.791   7.739   4.724
20236SOL     OW61051   8.255   8.053   5.189
20236SOL    HW161052   8.208   8.050   5.278
20236SOL    HW261053   8.204   7.998   5.123
20237SOL     OW61054   8.842   7.917   5.398
20237SOL    HW161055   8.822   7.960   5.486
20237SOL    HW261056   8.920   7.855   5.407
20238SOL     OW61057   8.421   8.338   5.296
20238SOL    HW161058   8.467   8.254   5.267
20238SOL    HW261059   8.365   8.372   5.221
20239SOL     OW61060   8.439   7.858   4.966
20239SOL    HW161061   8.362   7.892   5.020
20239SOL    HW261062   8.405   7.807   4.887
20240SOL     OW61063   8.489   8.149   4.153
20240SOL    HW161064   8.515   8.145   4.249
20240SOL    HW261065   8.404   8.098   4.139
20241SOL     OW61066   7.524   8.259   4.513
20241SOL    HW161067   7.623   8.247   4.522
20241SOL    HW261068   7.500   8.354   4.534
20242SOL     OW61069   8.313   7.796   3.919
20242SOL    HW161070   8.372   7.859   3.870
20242SOL    HW261071   8.332   7.702   3.890
20243SOL     OW61072   9.167   8.033   5.555
20243SOL    HW161073   9.141   8.122   5.519
20243SOL    HW261074   9.165   7.965   5.482
20244SOL     OW61075   8.810   8.592   4.269
20244SOL    HW161076   8.893   8.563   4.221
20244SOL    HW261077   8.761   8.659   4.213
20245SOL     OW61078   7.998   7.644   4.609
20245SOL    HW161079   7.993   7.639   4.709
20245SOL    HW261080   8.000   7.740   4.580
20246SOL     OW61081   9.243   8.514   4.597
20246SOL    HW161082   9.181   8.499   4.521
20246SOL    HW261083   9.191   8.525   4.682
20247SOL     OW61084   8.675   8.998   5.230
20247SOL    HW161085   8.681   8.921   5.294
20247SOL    HW261086   8.623   8.972   5.150
20248SOL     OW61087   7.769   8.391   3.966
20248SOL    HW161088   7.851   8.430   3.924
20248SOL    HW261089   7.742   8.309   3.917
20249SOL     OW61090   8.906   8.183   4.452
20249SOL    HW161091   8.901   8.118   4.527
20249SOL    HW261092   8.986   8.242   4.465
20250SOL     OW61093   7.909   8.714   5.451
20250SOL    HW161094   7.859   8.715   5.365
20250SOL    HW261095   7.846   8.696   5.527
20251SOL     OW61096   7.650   7.733   5.222
20251SOL    HW161097   7.570   7.793   5.209
20251SOL    HW261098   7.640   7.684   5.308
20252SOL     OW61099   8.848   7.555   4.150
20252SOL    HW161100   8.824   7.518   4.060
20252SOL    HW261101   8.947   7.571   4.154
20253SOL     OW61102   7.830   8.148   4.204
20253SOL    HW161103   7.875   8.058   4.201
20253SOL    HW261104   7.736   8.137   4.237
20254SOL     OW61105   8.995   7.670   5.453
20254SOL    HW161106   8.990   7.707   5.545
20254SOL    HW261107   8.923   7.601   5.441
20255SOL     OW61108   8.062   7.570   3.841
20255SOL    HW161109   8.160   7.548   3.848
20255SOL    HW261110   8.031   7.553   3.748
20256SOL     OW61111   8.229   7.712   5.473
20256SOL    HW161112   8.296   7.651   5.516
20256SOL    HW261113   8.156   7.731   5.538
20257SOL     OW61114   8.799   8.038   5.157
20257SOL    HW161115   8.827   7.995   5.242
20257SOL    HW261116   8.824   8.134   5.158
20258SOL     OW61117   8.251   8.850   4.648
20258SOL    HW161118   8.341   8.864   4.606
20258SOL    HW261119   8.180   8.852   4.577
20259SOL     OW61120   8.370   7.951   4.623
20259SOL    HW161121   8.345   7.942   4.527
20259SOL    HW261122   8.418   7.869   4.654
20260SOL     OW61123   7.987   7.512   4.236
20260SOL    HW161124   7.906   7.513   4.294
20260SOL    HW261125   7.990   7.595   4.181
20261SOL     OW61126   8.882   8.636   3.765
20261SOL    HW161127   8.914   8.560   3.822
20261SOL    HW261128   8.790   8.663   3.795
20262SOL     OW61129   7.745   7.483   3.895
20262SOL    HW161130   7.794   7.567   3.874
20262SOL    HW261131   7.807   7.418   3.940
20263SOL     OW61132   8.383   7.684   4.204
20263SOL    HW161133   8.335   7.725   4.126
20263SOL    HW261134   8.482   7.682   4.185
20264SOL     OW61135   8.524   8.131   5.188
20264SOL    HW161136   8.444   8.070   5.191
20264SOL    HW261137   8.605   8.078   5.164
20265SOL     OW61138   7.907   8.600   4.465
20265SOL    HW161139   7.836   8.573   4.530
20265SOL    HW261140   7.881   8.572   4.372
20266SOL     OW61141   8.480   7.997   3.740
20266SOL    HW161142   8.439   8.079   3.701
20266SOL    HW261143   8.544   8.023   3.813
20267SOL     OW61144   7.526   8.004   5.110
20267SOL    HW161145   7.618   8.003   5.069
20267SOL    HW261146   7.520   8.078   5.177
20268SOL     OW61147   8.009   7.670   4.871
20268SOL    HW161148   8.047   7.586   4.908
20268SOL    HW261149   7.921   7.689   4.915
20269SOL     OW61150   8.314   7.902   4.366
20269SOL    HW161151   8.282   7.974   4.304
20269SOL    HW261152   8.338   7.821   4.313
20270SOL     OW61153   8.465   7.487   4.477
20270SOL    HW161154   8.393   7.492   4.408
20270SOL    HW261155   8.441   7.418   4.546
20271SOL     OW61156   8.877   8.621   4.591
20271SOL    HW161157   8.822   8.537   4.584
20271SOL    HW261158   8.903   8.650   4.499
20272SOL     OW61159   8.914   8.038   4.716
20272SOL    HW161160   8.884   7.943   4.723
20272SOL    HW261161   8.987   8.054   4.782
20273SOL     OW61162   9.305   8.281   4.101
20273SOL    HW161163   9.347   8.217   4.165
20273SOL    HW261164   9.267   8.230   4.023
20274SOL     OW61165   7.936   8.833   3.898
20274SOL    HW161166   7.849   8.818   3.945
20274SOL    HW261167   7.919   8.859   3.803
20275SOL     OW61168   8.838   8.023   3.802
20275SOL    HW161169   8.784   8.002   3.883
20275SOL    HW261170   8.929   7.982   3.811
20276SOL     OW61171   7.975   7.704   4.052
20276SOL    HW161172   8.002   7.645   3.977
20276SOL    HW261173   7.975   7.799   4.021
20277SOL     OW61174   8.512   8.795   5.064
20277SOL    HW161175   8.432   8.772   5.119
20277SOL    HW261176   8.595   8.769   5.113
20278SOL     OW61177   8.559   8.643   4.824
20278SOL    HW161178   8.519   8.687   4.905
20278SOL    HW261179   8.518   8.680   4.741
20279SOL     OW61180   9.086   8.547   4.803
20279SOL    HW161181   9.091   8.628   4.862
20279SOL    HW261182   9.000   8.549   4.752
20280SOL     OW61183   8.363   7.537   5.126
20280SOL    HW161184   8.388   7.517   5.031
20280SOL    HW261185   8.435   7.593   5.168
20281SOL     OW61186   8.428   8.564   5.443
20281SOL    HW161187   8.329   8.570   5.453
20281SOL    HW261188   8.451   8.484   5.387
20282SOL     OW61189   8.153   8.498   4.092
20282SOL    HW161190   8.139   8.505   4.191
20282SOL    HW261191   8.237   8.447   4.074
20283SOL     OW61192   7.858   8.261   4.975
20283SOL    HW161193   7.944   8.273   5.025
20283SOL    HW261194   7.816   8.174   5.002
20284SOL     OW61195   8.722   7.834   4.986
20284SOL    HW161196   8.743   7.908   5.050
20284SOL    HW261197   8.633   7.851   4.943
20285SOL     OW61198   7.815   8.548   4.225
20285SOL    HW161199   7.808   8.631   4.169
20285SOL    HW261200   7.819   8.468   4.165
20286SOL     OW61201   8.014   7.985   4.589
20286SOL    HW161202   8.026   8.051   4.515
20286SOL    HW261203   8.060   8.019   4.672
20287SOL     OW61204   8.700   8.796   4.112
20287SOL    HW161205   8.750   8.873   4.152
20287SOL    HW261206   8.605   8.798   4.144
20288SOL     OW61207   9.030   8.087   4.196
20288SOL    HW161208   8.999   8.148   4.269
20288SOL    HW261209   9.080   8.139   4.127
20289SOL     OW61210   7.850   8.199   5.322
20289SOL    HW161211   7.918   8.254   5.275
20289SOL    HW261212   7.890   8.111   5.349
20290SOL     OW61213   9.035   8.227   5.394
20290SOL    HW161214   8.943   8.265   5.389
20290SOL    HW261215   9.095   8.274   5.329
20291SOL     OW61216   8.461   7.553   5.494
20291SOL    HW161217   8.467   7.638   5.442
20291SOL    HW261218   8.493   7.477   5.437
20292SOL     OW61219   7.952   7.498   5.464
20292SOL    HW161220   7.910   7.441   5.394
20292SOL    HW261221   7.886   7.567   5.496
20293SOL     OW61222   8.021   8.318   4.753
20293SOL    HW161223   8.065   8.407   4.744
20293SOL    HW261224   7.958   8.318   4.830
20294SOL     OW61225   8.808   8.310   4.769
20294SOL    HW161226   8.733   8.310   4.703
20294SOL    HW261227   8.845   8.218   4.778
20295SOL     OW61228   8.657   7.973   3.999
20295SOL    HW161229   8.670   7.889   4.053
20295SOL    HW261230   8.628   8.047   4.059
20296SOL     OW61231   7.755   7.661   4.955
20296SOL    HW161232   7.732   7.698   5.045
20296SOL    HW261233   7.725   7.566   4.949
20297SOL     OW61234   7.485   8.758   5.006
20297SOL    HW161235   7.538   8.709   5.074
20297SOL    HW261236   7.507   8.856   5.011
20298SOL     OW61237   8.180   8.082   4.788
20298SOL    HW161238   8.239   8.056   4.712
20298SOL    HW261239   8.152   8.178   4.777
20299SOL     OW61240   9.176   8.383   5.578
20299SOL    HW161241   9.130   8.376   5.489
20299SOL    HW261242   9.114   8.427   5.644
20300SOL     OW61243   7.755   7.511   4.342
20300SOL    HW161244   7.744   7.605   4.375
20300SOL    HW261245   7.750   7.448   4.419
20301SOL     OW61246   9.070   7.815   4.098
20301SOL    HW161247   9.072   7.739   4.162
20301SOL    HW261248   9.022   7.892   4.138
20302SOL     OW61249   8.471   8.214   4.690
20302SOL    HW161250   8.486   8.235   4.786
20302SOL    HW261251   8.441   8.119   4.681
20303SOL     OW61252   7.798   8.346   5.528
20303SOL    HW161253   7.874   8.390   5.576
20303SOL    HW261254   7.833   8.299   5.446
20304SOL     OW61255   8.988   7.722   3.849
20304SOL    HW161256   8.927   7.647   3.872
20304SOL    HW261257   9.010   7.774   3.932
20305SOL     OW61258   8.751   8.286   3.766
20305SOL    HW161259   8.785   8.193   3.781
20305SOL    HW261260   8.769   8.313   3.671
20306SOL     OW61261   8.516   8.781   4.573
20306SOL    HW161262   8.523   8.697   4.518
20306SOL    HW261263   8.578   8.850   4.537
20307SOL     OW61264   7.767   8.258   4.673
20307SOL    HW161265   7.860   8.294   4.678
20307SOL    HW261266   7.761   8.173   4.725
20308SOL     OW61267   7.787   7.957   4.730
20308SOL    HW161268   7.735   7.874   4.713
20308SOL    HW261269   7.864   7.962   4.666
20309SOL     OW61270   8.586   7.828   5.402
20309SOL    HW161271   8.541   7.891   5.466
20309SOL    HW261272   8.679   7.859   5.385
20310SOL     OW61273   8.608   7.655   5.201
20310SOL    HW161274   8.608   7.719   5.278
20310SOL    HW261275   8.636   7.703   5.118
20311SOL     OW61276   7.456   8.774   3.924
20311SOL    HW161277   7.363   8.795   3.893
20311SOL    HW261278   7.466   8.675   3.937
20312SOL     OW61279   8.450   8.244   4.962
20312SOL    HW161280   8.491   8.212   5.048
20312SOL    HW261281   8.354   8.217   4.959
20313SOL     OW61282   7.488   7.992   4.838
20313SOL    HW161283   7.573   7.959   4.797
20313SOL    HW261284   7.501   8.007   4.936
20314SOL     OW61285   7.637   7.968   5.446
20314SOL    HW161286   7.696   7.928   5.376
20314SOL    HW261287   7.579   8.039   5.405
20315SOL     OW61288   8.817   8.398   5.384
20315SOL    HW161289   8.856   8.487   5.404
20315SOL    HW261290   8.827   8.378   5.287
20316SOL     OW61291   8.263   8.020   4.049
20316SOL    HW161292   8.270   7.931   4.003
20316SOL    HW261293   8.169   8.054   4.041
20317SOL     OW61294   9.105   8.052   4.930
20317SOL    HW161295   9.067   7.983   4.992
20317SOL    HW261296   9.187   8.016   4.886
20318SOL     OW61297   8.119   7.912   4.993
20318SOL    HW161298   8.085   7.823   4.963
20318SOL    HW261299   8.145   7.966   4.913
20319SOL     OW61300   7.921   7.948   3.915
20319SOL    HW161301   7.982   8.028   3.919
20319SOL    HW261302   7.826   7.979   3.922
20320SOL     OW61303   7.607   8.585   5.190
20320SOL    HW161304   7.629   8.524   5.266
20320SOL    HW261305   7.617   8.536   5.104
20321SOL     OW61306   8.795   8.507   4.958
20321SOL    HW161307   8.819   8.444   4.884
20321SOL    HW261308   8.705   8.547   4.940
20322SOL     OW61309   8.750   8.303   4.033
20322SOL    HW161310   8.664   8.272   4.075
20322SOL    HW261311   8.746   8.289   3.934
20323SOL     OW61312   7.531   8.706   4.746
20323SOL    HW161313   7.526   8.705   4.846
20323SOL    HW261314   7.448   8.665   4.708
20324SOL     OW61315   9.174   7.583   4.247
20324SOL    HW161316   9.247   7.566   4.180
20324SOL    HW261317   9.143   7.496   4.285
20325SOL     OW61318   8.728   8.375   4.396
20325SOL    HW161319   8.788   8.294   4.398
20325SOL    HW261320   8.768   8.444   4.336
20326SOL     OW61321   8.278   8.721   5.146
20326SOL    HW161322   8.273   8.754   5.241
20326SOL    HW261323   8.192   8.740   5.100
20327SOL     OW61324   9.289   7.623   4.687
20327SOL    HW161325   9.328   7.538   4.651
20327SOL    HW261326   9.191   7.625   4.668
20328SOL     OW61327   7.711   7.774   4.444
20328SOL    HW161328   7.632   7.825   4.410
20328SOL    HW261329   7.702   7.759   4.542
20329SOL     OW61330   8.642   9.060   3.755
20329SOL    HW161331   8.648   8.967   3.792
20329SOL    HW261332   8.583   9.060   3.675
20330SOL     OW61333   8.270   8.450   5.096
20330SOL    HW161334   8.310   8.449   5.004
20330SOL    HW261335   8.280   8.542   5.136
20331SOL     OW61336   8.364   8.358   4.015
20331SOL    HW161337   8.427   8.396   3.947
20331SOL    HW261338   8.404   8.275   4.054
20332SOL     OW61339   7.820   8.736   5.214
20332SOL    HW161340   7.807   8.829   5.180
20332SOL    HW261341   7.736   8.684   5.201
20333SOL     OW61342   9.062   8.740   5.013
20333SOL    HW161343   9.122   8.743   5.093
20333SOL    HW261344   8.987   8.804   5.026
20334SOL     OW61345   8.487   8.546   4.420
20334SOL    HW161346   8.417   8.499   4.474
20334SOL    HW261347   8.546   8.478   4.377
20335SOL     OW61348   8.462   7.684   4.695
20335SOL    HW161349   8.454   7.648   4.602
20335SOL    HW261350   8.460   7.608   4.760
20336SOL     OW61351   8.038   8.935   4.215
20336SOL    HW161352   8.080   8.877   4.145
20336SOL    HW261353   7.994   9.014   4.171
20337SOL     OW61354   9.157   7.833   5.105
20337SOL    HW161355   9.230   7.902   5.109
20337SOL    HW261356   9.185   7.758   5.046
20338SOL     OW61357   7.553   8.461   5.450
20338SOL    HW161358   7.476   8.428   5.504
20338SOL    HW261359   7.638   8.431   5.492
20339SOL     OW61360   8.120   7.651   5.213
20339SOL    HW161361   8.210   7.635   5.173
20339SOL    HW261362   8.128   7.656   5.312
20340SOL     OW61363   7.523   7.793   3.757
20340SOL    HW161364   7.431   7.765   3.728
20340SOL    HW261365   7.554   7.870   3.701
20341SOL     OW61366   8.888   8.304   5.122
20341SOL    HW161367   8.831   8.356   5.059
20341SOL    HW261368   8.984   8.316   5.098
20342SOL     OW61369   7.520   7.614   4.042
20342SOL    HW161370   7.503   7.697   3.988
20342SOL    HW261371   7.610   7.577   4.020
20343SOL     OW61372   8.631   8.783   3.843
20343SOL    HW161373   8.532   8.772   3.845
20343SOL    HW261374   8.665   8.798   3.936
20344SOL     OW61375   8.061   8.290   5.155
20344SOL    HW161376   8.117   8.371   5.138
20344SOL    HW261377   8.120   8.210   5.158
20345SOL     OW61378   8.164   8.013   5.432
20345SOL    HW161379   8.183   8.078   5.506
20345SOL    HW261380   8.224   7.933   5.441
20346SOL     OW61381   8.898   8.668   5.357
20346SOL    HW161382   8.889   8.658   5.456
20346SOL    HW261383   8.994   8.661   5.331
20347SOL     OW61384   7.838   9.189   5.284
20347SOL    HW161385   7.747   9.230   5.282
20347SOL    HW261386   7.831   9.095   5.316
20348SOL     OW61387   9.122   8.331   4.978
20348SOL    HW161388   9.095   8.242   4.941
20348SOL    HW261389   9.123   8.399   4.905
20349SOL     OW61390   8.673   7.773   4.173
20349SOL    HW161391   8.738   7.699   4.162
20349SOL    HW261392   8.693   7.823   4.257
20350SOL     OW61393   8.042   8.193   4.376
20350SOL    HW161394   8.092   8.278   4.357
20350SOL    HW261395   7.954   8.195   4.328
20351SOL     OW61396   9.225   7.790   5.366
20351SOL    HW161397   9.208   7.821   5.272
20351SOL    HW261398   9.141   7.753   5.404
20352SOL     OW61399   9.178   8.382   5.241
20352SOL    HW161400   9.216   8.473   5.256
20352SOL    HW261401   9.170   8.365   5.142
20353SOL     OW61402   8.307   8.404   4.585
20353SOL    HW161403   8.361   8.335   4.633
20353SOL    HW261404   8.275   8.473   4.651
20354SOL     OW61405   8.531   8.432   3.811
20354SOL    HW161406   8.508   8.485   3.729
20354SOL    HW261407   8.612   8.376   3.792
20355SOL     OW61408   7.669   8.762   5.568
20355SOL    HW161409   7.604   8.689   5.547
20355SOL    HW261410   7.673   8.776   5.666
20356SOL     OW61411   7.527   8.688   4.377
20356SOL    HW161412   7.526   8.641   4.465
20356SOL    HW261413   7.609   8.660   4.326
20357SOL     OW61414   8.120   8.839   5.348
20357SOL    HW161415   8.042   8.789   5.386
20357SOL    HW261416   8.117   8.934   5.379
20358SOL     OW61417   9.272   7.640   4.951
20358SOL    HW161418   9.268   7.550   4.995
20358SOL    HW261419   9.275   7.629   4.852
20359SOL     OW61420   7.876   7.872   4.244
20359SOL    HW161421   7.906   7.800   4.182
20359SOL    HW261422   7.837   7.832   4.327
20360SOL     OW61423   9.153   8.935   4.828
20360SOL    HW161424   9.060   8.910   4.801
20360SOL    HW261425   9.179   8.885   4.910
20361SOL     OW61426   7.765   7.995   5.004
20361SOL    HW161427   7.803   7.936   5.076
20361SOL    HW261428   7.805   7.969   4.916
20362SOL     OW61429   8.260   9.034   4.411
20362SOL    HW161430   8.292   9.044   4.317
20362SOL    HW261431   8.181   8.972   4.413
20363SOL     OW61432   8.872   7.662   4.836
20363SOL    HW161433   8.924   7.597   4.891
20363SOL    HW261434   8.823   7.725   4.897
20364SOL     OW61435   8.449   7.482   4.878
20364SOL    HW161436   8.386   7.410   4.847
20364SOL    HW261437   8.542   7.446   4.878
20365SOL     OW61438   8.218   8.778   4.025
20365SOL    HW161439   8.172   8.691   4.042
20365SOL    HW261440   8.309   8.775   4.066
20366SOL     OW61441   8.800   7.500   3.892
20366SOL    HW161442   8.835   7.459   3.808
20366SOL    HW261443   8.710   7.462   3.912
20367SOL     OW61444   8.748   7.901   4.415
20367SOL    HW161445   8.689   7.981   4.419
20367SOL    HW261446   8.763   7.866   4.508
20368SOL     OW61447   9.041   7.669   4.606
20368SOL    HW161448   8.957   7.668   4.660
20368SOL    HW261449   9.043   7.752   4.550
20369SOL     OW61450   7.487   8.525   4.024
20369SOL    HW161451   7.586   8.514   4.015
20369SOL    HW261452   7.447   8.439   4.056
20370SOL     OW61453   7.678   8.076   5.699
20370SOL    HW161454   7.585   8.074   5.736
20370SOL    HW261455   7.679   8.037   5.607
20371SOL     OW61456   7.673   7.723   6.582
20371SOL    HW161457   7.708   7.706   6.674
20371SOL    HW261458   7.585   7.678   6.570
20372SOL     OW61459   7.467   7.816   6.233
20372SOL    HW161460   7.385   7.859   6.272
20372SOL    HW261461   7.439   7.743   6.170
20373SOL     OW61462   8.583   8.151   6.303
20373SOL    HW161463   8.640   8.229   6.278
20373SOL    HW261464   8.523   8.177   6.379
20374SOL     OW61465   9.203   8.055   5.817
20374SOL    HW161466   9.191   8.042   5.718
20374SOL    HW261467   9.173   7.974   5.866
20375SOL     OW61468   8.216   8.592   6.609
20375SOL    HW161469   8.138   8.609   6.669
20375SOL    HW261470   8.250   8.679   6.573
20376SOL     OW61471   8.298   8.246   7.409
20376SOL    HW161472   8.294   8.322   7.474
20376SOL    HW261473   8.320   8.282   7.318
20377SOL     OW61474   8.133   8.460   6.251
20377SOL    HW161475   8.202   8.444   6.321
20377SOL    HW261476   8.060   8.517   6.289
20378SOL     OW61477   8.134   8.609   7.389
20378SOL    HW161478   8.194   8.688   7.403
20378SOL    HW261479   8.048   8.640   7.348
20379SOL     OW61480   7.886   7.840   7.085
20379SOL    HW161481   7.968   7.784   7.094
20379SOL    HW261482   7.805   7.782   7.089
20380SOL     OW61483   9.051   7.895   6.323
20380SOL    HW161484   8.977   7.941   6.273
20380SOL    HW261485   9.102   7.963   6.376
20381SOL     OW61486   8.575   8.789   7.276
20381SOL    HW161487   8.622   8.789   7.364
20381SOL    HW261488   8.527   8.702   7.265
20382SOL     OW61489   7.688   8.539   6.472
20382SOL    HW161490   7.702   8.455   6.524
20382SOL    HW261491   7.633   8.603   6.527
20383SOL     OW61492   8.054   8.412   5.709
20383SOL    HW161493   8.061   8.496   5.655
20383SOL    HW261494   8.100   8.425   5.797
20384SOL     OW61495   9.042   7.562   7.066
20384SOL    HW161496   9.024   7.629   6.994
20384SOL    HW261497   9.039   7.608   7.155
20385SOL     OW61498   7.570   8.091   6.149
20385SOL    HW161499   7.525   8.003   6.166
20385SOL    HW261500   7.569   8.145   6.233
20386SOL     OW61501   9.137   8.370   6.198
20386SOL    HW161502   9.232   8.341   6.206
20386SOL    HW261503   9.129   8.435   6.123
20387SOL     OW61504   9.089   8.556   6.018
20387SOL    HW161505   9.175   8.558   5.966
20387SOL    HW261506   9.103   8.603   6.106
20388SOL     OW61507   7.561   8.185   7.183
20388SOL    HW161508   7.649   8.172   7.228
20388SOL    HW261509   7.548   8.282   7.161
20389SOL     OW61510   8.061   8.813   6.312
20389SOL    HW161511   8.012   8.726   6.321
20389SOL    HW261512   8.038   8.856   6.225
20390SOL     OW61513   8.741   8.676   7.009
20390SOL    HW161514   8.778   8.603   6.951
20390SOL    HW261515   8.793   8.681   7.094
20391SOL     OW61516   8.257   7.452   6.088
20391SOL    HW161517   8.297   7.543   6.079
20391SOL    HW261518   8.157   7.460   6.094
20392SOL     OW61519   7.645   8.424   6.850
20392SOL    HW161520   7.734   8.379   6.836
20392SOL    HW261521   7.572   8.359   6.831
20393SOL     OW61522   8.973   8.447   5.776
20393SOL    HW161523   8.910   8.371   5.789
20393SOL    HW261524   9.021   8.465   5.862
20394SOL     OW61525   7.765   7.699   7.387
20394SOL    HW161526   7.836   7.770   7.393
20394SOL    HW261527   7.677   7.738   7.415
20395SOL     OW61528   8.914   8.865   6.539
20395SOL    HW161529   8.855   8.871   6.619
20395SOL    HW261530   8.899   8.777   6.493
20396SOL     OW61531   8.046   8.177   5.856
20396SOL    HW161532   8.070   8.246   5.788
20396SOL    HW261533   7.968   8.210   5.910
20397SOL     OW61534   8.729   7.793   6.530
20397SOL    HW161535   8.643   7.743   6.517
20397SOL    HW261536   8.791   7.739   6.586
20398SOL     OW61537   8.255   8.053   7.051
20398SOL    HW161538   8.208   8.050   7.140
20398SOL    HW261539   8.204   7.998   6.985
20399SOL     OW61540   8.842   7.917   7.260
20399SOL    HW161541   8.822   7.960   7.348
20399SOL    HW261542   8.920   7.855   7.269
20400SOL     OW61543   8.421   8.338   7.158
20400SOL    HW161544   8.467   8.254   7.129
20400SOL    HW261545   8.365   8.372   7.083
20401SOL     OW61546   8.439   7.858   6.828
20401SOL    HW161547   8.362   7.892   6.882
20401SOL    HW261548   8.405   7.807   6.749
20402SOL     OW61549   8.489   8.149   6.015
20402SOL    HW161550   8.515   8.145   6.111
20402SOL    HW261551   8.404   8.098   6.001
20403SOL     OW61552   7.524   8.259   6.375
20403SOL    HW161553   7.623   8.247   6.384
20403SOL    HW261554   7.500   8.354   6.396
20404SOL     OW61555   8.313   7.796   5.781
20404SOL    HW161556   8.372   7.859   5.732
20404SOL    HW261557   8.332   7.702   5.752
20405SOL     OW61558   9.167   8.033   7.417
20405SOL    HW161559   9.141   8.122   7.381
20405SOL    HW261560   9.165   7.965   7.344
20406SOL     OW61561   8.810   8.592   6.131
20406SOL    HW161562   8.893   8.563   6.083
20406SOL    HW261563   8.761   8.659   6.075
20407SOL     OW61564   7.998   7.644   6.471
20407SOL    HW161565   7.993   7.639   6.571
20407SOL    HW261566   8.000   7.740   6.442
20408SOL     OW61567   9.243   8.514   6.459
20408SOL    HW161568   9.181   8.499   6.383
20408SOL    HW261569   9.191   8.525   6.544
20409SOL     OW61570   8.675   8.998   7.092
20409SOL    HW161571   8.681   8.921   7.156
20409SOL    HW261572   8.623   8.972   7.012
20410SOL     OW61573   7.769   8.391   5.828
20410SOL    HW161574   7.851   8.430   5.786
20410SOL    HW261575   7.742   8.309   5.779
20411SOL     OW61576   8.906   8.183   6.314
20411SOL    HW161577   8.901   8.118   6.389
20411SOL    HW261578   8.986   8.242   6.327
20412SOL     OW61579   7.909   8.714   7.313
20412SOL    HW161580   7.859   8.715   7.227
20412SOL    HW261581   7.846   8.696   7.389
20413SOL     OW61582   7.650   7.733   7.084
20413SOL    HW161583   7.570   7.793   7.071
20413SOL    HW261584   7.640   7.684   7.170
20414SOL     OW61585   8.848   7.555   6.012
20414SOL    HW161586   8.824   7.518   5.922
20414SOL    HW261587   8.947   7.571   6.016
20415SOL     OW61588   7.830   8.148   6.066
20415SOL    HW161589   7.875   8.058   6.063
20415SOL    HW261590   7.736   8.137   6.099
20416SOL     OW61591   8.995   7.670   7.315
20416SOL    HW161592   8.990   7.707   7.407
20416SOL    HW261593   8.923   7.601   7.303
20417SOL     OW61594   8.062   7.570   5.703
20417SOL    HW161595   8.160   7.548   5.710
20417SOL    HW261596   8.031   7.553   5.610
20418SOL     OW61597   8.229   7.712   7.335
20418SOL    HW161598   8.296   7.651   7.378
20418SOL    HW261599   8.156   7.731   7.400
20419SOL     OW61600   8.799   8.038   7.019
20419SOL    HW161601   8.827   7.995   7.104
20419SOL    HW261602   8.824   8.134   7.020
20420SOL     OW61603   8.251   8.850   6.510
20420SOL    HW161604   8.341   8.864   6.468
20420SOL    HW261605   8.180   8.852   6.439
20421SOL     OW61606   8.370   7.951   6.485
20421SOL    HW161607   8.345   7.942   6.389
20421SOL    HW261608   8.418   7.869   6.516
20422SOL     OW61609   7.987   7.512   6.098
20422SOL    HW161610   7.906   7.513   6.156
20422SOL    HW261611   7.990   7.595   6.043
20423SOL     OW61612   8.882   8.636   5.627
20423SOL    HW161613   8.914   8.560   5.684
20423SOL    HW261614   8.790   8.663   5.657
20424SOL     OW61615   7.745   7.483   5.757
20424SOL    HW161616   7.794   7.567   5.736
20424SOL    HW261617   7.807   7.418   5.802
20425SOL     OW61618   8.383   7.684   6.066
20425SOL    HW161619   8.335   7.725   5.988
20425SOL    HW261620   8.482   7.682   6.047
20426SOL     OW61621   8.524   8.131   7.050
20426SOL    HW161622   8.444   8.070   7.053
20426SOL    HW261623   8.605   8.078   7.026
20427SOL     OW61624   7.907   8.600   6.327
20427SOL    HW161625   7.836   8.573   6.392
20427SOL    HW261626   7.881   8.572   6.234
20428SOL     OW61627   8.480   7.997   5.602
20428SOL    HW161628   8.439   8.079   5.563
20428SOL    HW261629   8.544   8.023   5.675
20429SOL     OW61630   7.526   8.004   6.972
20429SOL    HW161631   7.618   8.003   6.931
20429SOL    HW261632   7.520   8.078   7.039
20430SOL     OW61633   8.009   7.670   6.733
20430SOL    HW161634   8.047   7.586   6.770
20430SOL    HW261635   7.921   7.689   6.777
20431SOL     OW61636   8.314   7.902   6.228
20431SOL    HW161637   8.282   7.974   6.166
20431SOL    HW261638   8.338   7.821   6.175
20432SOL     OW61639   8.465   7.487   6.339
20432SOL    HW161640   8.393   7.492   6.270
20432SOL    HW261641   8.441   7.418   6.408
20433SOL     OW61642   8.877   8.621   6.453
20433SOL    HW161643   8.822   8.537   6.446
20433SOL    HW261644   8.903   8.650   6.361
20434SOL     OW61645   8.914   8.038   6.578
20434SOL    HW161646   8.884   7.943   6.585
20434SOL    HW261647   8.987   8.054   6.644
20435SOL     OW61648   9.305   8.281   5.963
20435SOL    HW161649   9.347   8.217   6.027
20435SOL    HW261650   9.267   8.230   5.885
20436SOL     OW61651   7.936   8.833   5.760
20436SOL    HW161652   7.849   8.818   5.807
20436SOL    HW261653   7.919   8.859   5.665
20437SOL     OW61654   8.838   8.023   5.664
20437SOL    HW161655   8.784   8.002   5.745
20437SOL    HW261656   8.929   7.982   5.673
20438SOL     OW61657   7.975   7.704   5.914
20438SOL    HW161658   8.002   7.645   5.839
20438SOL    HW261659   7.975   7.799   5.883
20439SOL     OW61660   8.512   8.795   6.926
20439SOL    HW161661   8.432   8.772   6.981
20439SOL    HW261662   8.595   8.769   6.975
20440SOL     OW61663   8.559   8.643   6.686
20440SOL    HW161664   8.519   8.687   6.767
20440SOL    HW261665   8.518   8.680   6.603
20441SOL     OW61666   9.086   8.547   6.665
20441SOL    HW161667   9.091   8.628   6.724
20441SOL    HW261668   9.000   8.549   6.614
20442SOL     OW61669   8.363   7.537   6.988
20442SOL    HW161670   8.388   7.517   6.893
20442SOL    HW261671   8.435   7.593   7.030
20443SOL     OW61672   8.428   8.564   7.305
20443SOL    HW161673   8.329   8.570   7.315
20443SOL    HW261674   8.451   8.484   7.249
20444SOL     OW61675   8.153   8.498   5.954
20444SOL    HW161676   8.139   8.505   6.053
20444SOL    HW261677   8.237   8.447   5.936
20445SOL     OW61678   7.858   8.261   6.837
20445SOL    HW161679   7.944   8.273   6.887
20445SOL    HW261680   7.816   8.174   6.864
20446SOL     OW61681   8.722   7.834   6.848
20446SOL    HW161682   8.743   7.908   6.912
20446SOL    HW261683   8.633   7.851   6.805
20447SOL     OW61684   7.815   8.548   6.087
20447SOL    HW161685   7.808   8.631   6.031
20447SOL    HW261686   7.819   8.468   6.027
20448SOL     OW61687   8.014   7.985   6.451
20448SOL    HW161688   8.026   8.051   6.377
20448SOL    HW261689   8.060   8.019   6.534
20449SOL     OW61690   8.700   8.796   5.974
20449SOL    HW161691   8.750   8.873   6.014
20449SOL    HW261692   8.605   8.798   6.006
20450SOL     OW61693   9.030   8.087   6.058
20450SOL    HW161694   8.999   8.148   6.131
20450SOL    HW261695   9.080   8.139   5.989
20451SOL     OW61696   7.850   8.199   7.184
20451SOL    HW161697   7.918   8.254   7.137
20451SOL    HW261698   7.890   8.111   7.211
20452SOL     OW61699   9.035   8.227   7.256
20452SOL    HW161700   8.943   8.265   7.251
20452SOL    HW261701   9.095   8.274   7.191
20453SOL     OW61702   8.461   7.553   7.356
20453SOL    HW161703   8.467   7.638   7.304
20453SOL    HW261704   8.493   7.477   7.299
20454SOL     OW61705   7.952   7.498   7.326
20454SOL    HW161706   7.910   7.441   7.256
20454SOL    HW261707   7.886   7.567   7.358
20455SOL     OW61708   8.021   8.318   6.615
20455SOL    HW161709   8.065   8.407   6.606
20455SOL    HW261710   7.958   8.318   6.692
20456SOL     OW61711   8.808   8.310   6.631
20456SOL    HW161712   8.733   8.310   6.565
20456SOL    HW261713   8.845   8.218   6.640
20457SOL     OW61714   8.657   7.973   5.861
20457SOL    HW161715   8.670   7.889   5.915
20457SOL    HW261716   8.628   8.047   5.921
20458SOL     OW61717   7.755   7.661   6.817
20458SOL    HW161718   7.732   7.698   6.907
20458SOL    HW261719   7.725   7.566   6.811
20459SOL     OW61720   7.485   8.758   6.868
20459SOL    HW161721   7.538   8.709   6.936
20459SOL    HW261722   7.507   8.856   6.873
20460SOL     OW61723   8.180   8.082   6.650
20460SOL    HW161724   8.239   8.056   6.574
20460SOL    HW261725   8.152   8.178   6.639
20461SOL     OW61726   9.176   8.383   7.440
20461SOL    HW161727   9.130   8.376   7.351
20461SOL    HW261728   9.114   8.427   7.506
20462SOL     OW61729   7.755   7.511   6.204
20462SOL    HW161730   7.744   7.605   6.237
20462SOL    HW261731   7.750   7.448   6.281
20463SOL     OW61732   9.070   7.815   5.960
20463SOL    HW161733   9.072   7.739   6.024
20463SOL    HW261734   9.022   7.892   6.000
20464SOL     OW61735   8.471   8.214   6.552
20464SOL    HW161736   8.486   8.235   6.648
20464SOL    HW261737   8.441   8.119   6.543
20465SOL     OW61738   7.798   8.346   7.390
20465SOL    HW161739   7.874   8.390   7.438
20465SOL    HW261740   7.833   8.299   7.308
20466SOL     OW61741   8.988   7.722   5.711
20466SOL    HW161742   8.927   7.647   5.734
20466SOL    HW261743   9.010   7.774   5.794
20467SOL     OW61744   8.751   8.286   5.628
20467SOL    HW161745   8.785   8.193   5.643
20467SOL    HW261746   8.769   8.313   5.533
20468SOL     OW61747   8.516   8.781   6.435
20468SOL    HW161748   8.523   8.697   6.380
20468SOL    HW261749   8.578   8.850   6.399
20469SOL     OW61750   7.767   8.258   6.535
20469SOL    HW161751   7.860   8.294   6.540
20469SOL    HW261752   7.761   8.173   6.587
20470SOL     OW61753   7.787   7.957   6.592
20470SOL    HW161754   7.735   7.874   6.575
20470SOL    HW261755   7.864   7.962   6.528
20471SOL     OW61756   8.586   7.828   7.264
20471SOL    HW161757   8.541   7.891   7.328
20471SOL    HW261758   8.679   7.859   7.247
20472SOL     OW61759   8.608   7.655   7.063
20472SOL    HW161760   8.608   7.719   7.140
20472SOL    HW261761   8.636   7.703   6.980
20473SOL     OW61762   7.456   8.774   5.786
20473SOL    HW161763   7.363   8.795   5.755
20473SOL    HW261764   7.466   8.675   5.799
20474SOL     OW61765   8.450   8.244   6.824
20474SOL    HW161766   8.491   8.212   6.910
20474SOL    HW261767   8.354   8.217   6.821
20475SOL     OW61768   7.488   7.992   6.700
20475SOL    HW161769   7.573   7.959   6.659
20475SOL    HW261770   7.501   8.007   6.798
20476SOL     OW61771   7.637   7.968   7.308
20476SOL    HW161772   7.696   7.928   7.238
20476SOL    HW261773   7.579   8.039   7.267
20477SOL     OW61774   8.817   8.398   7.246
20477SOL    HW161775   8.856   8.487   7.266
20477SOL    HW261776   8.827   8.378   7.149
20478SOL     OW61777   8.263   8.020   5.911
20478SOL    HW161778   8.270   7.931   5.865
20478SOL    HW261779   8.169   8.054   5.903
20479SOL     OW61780   9.105   8.052   6.792
20479SOL    HW161781   9.067   7.983   6.854
20479SOL    HW261782   9.187   8.016   6.748
20480SOL     OW61783   8.119   7.912   6.855
20480SOL    HW161784   8.085   7.823   6.825
20480SOL    HW261785   8.145   7.966   6.775
20481SOL     OW61786   7.921   7.948   5.777
20481SOL    HW161787   7.982   8.028   5.781
20481SOL    HW261788   7.826   7.979   5.784
20482SOL     OW61789   7.607   8.585   7.052
20482SOL    HW161790   7.629   8.524   7.128
20482SOL    HW261791   7.617   8.536   6.966
20483SOL     OW61792   8.795   8.507   6.820
20483SOL    HW161793   8.819   8.444   6.746
20483SOL    HW261794   8.705   8.547   6.802
20484SOL     OW61795   8.750   8.303   5.895
20484SOL    HW161796   8.664   8.272   5.937
20484SOL    HW261797   8.746   8.289   5.796
20485SOL     OW61798   7.531   8.706   6.608
20485SOL    HW161799   7.526   8.705   6.708
20485SOL    HW261800   7.448   8.665   6.570
20486SOL     OW61801   9.174   7.583   6.109
20486SOL    HW161802   9.247   7.566   6.042
20486SOL    HW261803   9.143   7.496   6.147
20487SOL     OW61804   8.728   8.375   6.258
20487SOL    HW161805   8.788   8.294   6.260
20487SOL    HW261806   8.768   8.444   6.198
20488SOL     OW61807   8.278   8.721   7.008
20488SOL    HW161808   8.273   8.754   7.103
20488SOL    HW261809   8.192   8.740   6.962
20489SOL     OW61810   9.289   7.623   6.549
20489SOL    HW161811   9.328   7.538   6.513
20489SOL    HW261812   9.191   7.625   6.530
20490SOL     OW61813   7.711   7.774   6.306
20490SOL    HW161814   7.632   7.825   6.272
20490SOL    HW261815   7.702   7.759   6.404
20491SOL     OW61816   8.642   9.060   5.617
20491SOL    HW161817   8.648   8.967   5.654
20491SOL    HW261818   8.583   9.060   5.537
20492SOL     OW61819   8.270   8.450   6.958
20492SOL    HW161820   8.310   8.449   6.866
20492SOL    HW261821   8.280   8.542   6.998
20493SOL     OW61822   8.364   8.358   5.877
20493SOL    HW161823   8.427   8.396   5.809
20493SOL    HW261824   8.404   8.275   5.916
20494SOL     OW61825   7.820   8.736   7.076
20494SOL    HW161826   7.807   8.829   7.042
20494SOL    HW261827   7.736   8.684   7.063
20495SOL     OW61828   9.062   8.740   6.875
20495SOL    HW161829   9.122   8.743   6.955
20495SOL    HW261830   8.987   8.804   6.888
20496SOL     OW61831   8.487   8.546   6.282
20496SOL    HW161832   8.417   8.499   6.336
20496SOL    HW261833   8.546   8.478   6.239
20497SOL     OW61834   8.462   7.684   6.557
20497SOL    HW161835   8.454   7.648   6.464
20497SOL    HW261836   8.460   7.608   6.622
20498SOL     OW61837   8.038   8.935   6.077
20498SOL    HW161838   8.080   8.877   6.007
20498SOL    HW261839   7.994   9.014   6.033
20499SOL     OW61840   9.157   7.833   6.967
20499SOL    HW161841   9.230   7.902   6.971
20499SOL    HW261842   9.185   7.758   6.908
20500SOL     OW61843   7.553   8.461   7.312
20500SOL    HW161844   7.476   8.428   7.366
20500SOL    HW261845   7.638   8.431   7.354
20501SOL     OW61846   8.120   7.651   7.075
20501SOL    HW161847   8.210   7.635   7.035
20501SOL    HW261848   8.128   7.656   7.174
20502SOL     OW61849   7.523   7.793   5.619
20502SOL    HW161850   7.431   7.765   5.590
20502SOL    HW261851   7.554   7.870   5.563
20503SOL     OW61852   8.888   8.304   6.984
20503SOL    HW161853   8.831   8.356   6.921
20503SOL    HW261854   8.984   8.316   6.960
20504SOL     OW61855   7.520   7.614   5.904
20504SOL    HW161856   7.503   7.697   5.850
20504SOL    HW261857   7.610   7.577   5.882
20505SOL     OW61858   8.631   8.783   5.705
20505SOL    HW161859   8.532   8.772   5.707
20505SOL    HW261860   8.665   8.798   5.798
20506SOL     OW61861   8.061   8.290   7.017
20506SOL    HW161862   8.117   8.371   7.000
20506SOL    HW261863   8.120   8.210   7.020
20507SOL     OW61864   8.164   8.013   7.294
20507SOL    HW161865   8.183   8.078   7.368
20507SOL    HW261866   8.224   7.933   7.303
20508SOL     OW61867   8.898   8.668   7.219
20508SOL    HW161868   8.889   8.658   7.318
20508SOL    HW261869   8.994   8.661   7.193
20509SOL     OW61870   7.838   9.189   7.146
20509SOL    HW161871   7.747   9.230   7.144
20509SOL    HW261872   7.831   9.095   7.178
20510SOL     OW61873   9.122   8.331   6.840
20510SOL    HW161874   9.095   8.242   6.803
20510SOL    HW261875   9.123   8.399   6.767
20511SOL     OW61876   8.673   7.773   6.035
20511SOL    HW161877   8.738   7.699   6.024
20511SOL    HW261878   8.693   7.823   6.119
20512SOL     OW61879   8.042   8.193   6.238
20512SOL    HW161880   8.092   8.278   6.219
20512SOL    HW261881   7.954   8.195   6.190
20513SOL     OW61882   9.225   7.790   7.228
20513SOL    HW161883   9.208   7.821   7.134
20513SOL    HW261884   9.141   7.753   7.266
20514SOL     OW61885   9.178   8.382   7.103
20514SOL    HW161886   9.216   8.473   7.118
20514SOL    HW261887   9.170   8.365   7.004
20515SOL     OW61888   8.307   8.404   6.447
20515SOL    HW161889   8.361   8.335   6.495
20515SOL    HW261890   8.275   8.473   6.513
20516SOL     OW61891   8.531   8.432   5.673
20516SOL    HW161892   8.508   8.485   5.591
20516SOL    HW261893   8.612   8.376   5.654
20517SOL     OW61894   7.669   8.762   7.430
20517SOL    HW161895   7.604   8.689   7.409
20517SOL    HW261896   7.673   8.776   7.528
20518SOL     OW61897   7.527   8.688   6.239
20518SOL    HW161898   7.526   8.641   6.327
20518SOL    HW261899   7.609   8.660   6.188
20519SOL     OW61900   8.120   8.839   7.210
20519SOL    HW161901   8.042   8.789   7.248
20519SOL    HW261902   8.117   8.934   7.241
20520SOL     OW61903   9.272   7.640   6.813
20520SOL    HW161904   9.268   7.550   6.857
20520SOL    HW261905   9.275   7.629   6.714
20521SOL     OW61906   7.876   7.872   6.106
20521SOL    HW161907   7.906   7.800   6.044
20521SOL    HW261908   7.837   7.832   6.189
20522SOL     OW61909   9.153   8.935   6.690
20522SOL    HW161910   9.060   8.910   6.663
20522SOL    HW261911   9.179   8.885   6.772
20523SOL     OW61912   7.765   7.995   6.866
20523SOL    HW161913   7.803   7.936   6.938
20523SOL    HW261914   7.805   7.969   6.778
20524SOL     OW61915   8.260   9.034   6.273
20524SOL    HW161916   8.292   9.044   6.179
20524SOL    HW261917   8.181   8.972   6.275
20525SOL     OW61918   8.872   7.662   6.698
20525SOL    HW161919   8.924   7.597   6.753
20525SOL    HW261920   8.823   7.725   6.759
20526SOL     OW61921   8.449   7.482   6.740
20526SOL    HW161922   8.386   7.410   6.709
20526SOL    HW261923   8.542   7.446   6.740
20527SOL     OW61924   8.218   8.778   5.887
20527SOL    HW161925   8.172   8.691   5.904
20527SOL    HW261926   8.309   8.775   5.928
20528SOL     OW61927   8.800   7.500   5.754
20528SOL    HW161928   8.835   7.459   5.670
20528SOL    HW261929   8.710   7.462   5.774
20529SOL     OW61930   8.748   7.901   6.277
20529SOL    HW161931   8.689   7.981   6.281
20529SOL    HW261932   8.763   7.866   6.370
20530SOL     OW61933   9.041   7.669   6.468
20530SOL    HW161934   8.957   7.668   6.522
20530SOL    HW261935   9.043   7.752   6.412
20531SOL     OW61936   7.487   8.525   5.886
20531SOL    HW161937   7.586   8.514   5.877
20531SOL    HW261938   7.447   8.439   5.918
20532SOL     OW61939   7.678   8.076   7.561
20532SOL    HW161940   7.585   8.074   7.598
20532SOL    HW261941   7.679   8.037   7.469
20533SOL     OW61942   9.203   8.055   7.679
20533SOL    HW161943   9.191   8.042   7.580
20533SOL    HW261944   9.173   7.974   7.728
20534SOL     OW61945   8.973   8.447   7.638
20534SOL    HW161946   8.910   8.371   7.651
20534SOL    HW261947   9.021   8.465   7.724
20535SOL     OW61948   8.046   8.177   7.718
20535SOL    HW161949   8.070   8.246   7.650
20535SOL    HW261950   7.968   8.210   7.772
20536SOL     OW61951   8.313   7.796   7.643
20536SOL    HW161952   8.372   7.859   7.594
20536SOL    HW261953   8.332   7.702   7.614
20537SOL     OW61954   9.080   8.825   7.529
20537SOL    HW161955   9.048   8.919   7.519
20537SOL    HW261956   9.004   8.762   7.517
20538SOL     OW61957   8.062   7.570   7.565
20538SOL    HW161958   8.160   7.548   7.572
20538SOL    HW261959   8.031   7.553   7.472
20539SOL     OW61960   8.882   8.636   7.489
20539SOL    HW161961   8.914   8.560   7.546
20539SOL    HW261962   8.790   8.663   7.519
20540SOL     OW61963   8.480   7.997   7.464
20540SOL    HW161964   8.439   8.079   7.425
20540SOL    HW261965   8.544   8.023   7.537
20541SOL     OW61966   7.936   8.833   7.622
20541SOL    HW161967   7.849   8.818   7.669
20541SOL    HW261968   7.919   8.859   7.527
20542SOL     OW61969   8.838   8.023   7.526
20542SOL    HW161970   8.784   8.002   7.607
20542SOL    HW261971   8.929   7.982   7.535
20543SOL     OW61972   8.657   7.973   7.723
20543SOL    HW161973   8.670   7.889   7.777
20543SOL    HW261974   8.628   8.047   7.783
20544SOL     OW61975   8.751   8.286   7.490
20544SOL    HW161976   8.785   8.193   7.505
20544SOL    HW261977   8.769   8.313   7.395
20545SOL     OW61978   8.642   9.060   7.479
20545SOL    HW161979   8.648   8.967   7.516
20545SOL    HW261980   8.583   9.060   7.399
20546SOL     OW61981   7.523   7.793   7.481
20546SOL    HW161982   7.431   7.765   7.452
20546SOL    HW261983   7.554   7.870   7.425
20547SOL     OW61984   8.631   8.783   7.567
20547SOL    HW161985   8.532   8.772   7.569
20547SOL    HW261986   8.665   8.798   7.660
20548SOL     OW61987   8.531   8.432   7.535
20548SOL    HW161988   8.508   8.485   7.453
20548SOL    HW261989   8.612   8.376   7.516
20549SOL     OW61990   8.800   7.500   7.616
20549SOL    HW161991   8.835   7.459   7.532
20549SOL    HW261992   8.710   7.462   7.636
20550SOL     OW61993   7.487   8.525   7.748
20550SOL    HW161994   7.586   8.514   7.739
20550SOL    HW261995   7.447   8.439   7.780
20551SOL     OW61996   8.323   9.094   7.785
20551SOL    HW161997   8.246   9.059   7.731
20551SOL    HW261998   8.291   9.165   7.847
20552NA      NA61999   0.865   0.348   0.195
20553NA      NA62000   0.072   0.166   0.318
20554NA      NA62001   0.351   1.801   2.715
20555NA      NA62002   0.770   1.330   4.025
20556NA      NA62003   0.614   0.122   7.565
20557NA      NA62004   0.339   2.371   1.006
20558NA      NA62005   0.335   3.297   2.923
20559NA      NA62006   1.138   2.242   7.264
20560NA      NA62007   0.916   2.772   5.877
20561NA      NA62008   1.493   3.629   6.545
20562NA      NA62009   1.111   5.500   0.237
20563NA      NA62010   1.632   5.101   0.081
20564NA      NA62011   1.083   4.708   1.949
20565NA      NA62012   1.424   5.800   1.112
20566NA      NA62013   1.594   5.700   5.204
20567NA      NA62014   1.458   6.321   4.452
20568NA      NA62015   1.504   7.193   5.630
20569NA      NA62016   1.281   7.793   0.944
20570NA      NA62017   0.539   7.512   0.512
20571NA      NA62018   1.795   8.514   4.597
20572NA      NA62019   3.723   3.431   0.851
20573NA      NA62020   2.802   3.560   4.628
20574NA      NA62021   2.721   2.818   4.585
20575NA      NA62022   3.704   3.629   5.945
20576NA      NA62023   1.926   5.288   1.331
20577NA      NA62024   2.926   5.071   5.064
20578NA      NA62025   3.022   3.931   5.201
20579NA      NA62026   1.967   4.737   5.450
20580NA      NA62027   2.567   4.774   5.954
20581NA      NA62028   2.335   6.086   0.191
20582NA      NA62029   1.937   7.793   1.895
20583NA      NA62030   3.567   8.935   2.966
20584NA      NA62031   3.465   7.895   6.323
20585NA      NA62032   4.162   0.392   1.499
20586NA      NA62033   4.078   1.510   6.915
20587NA      NA62034   4.185   3.128   1.727
20588NA      NA62035   5.338   3.154   1.289
20589NA      NA62036   3.788   3.426   5.055
20590NA      NA62037   4.918   3.474   3.755
20591NA      NA62038   5.316   5.353   1.625
20592NA      NA62039   3.799   4.069   1.895
20593NA      NA62040   3.800   8.259   2.651
20594NA      NA62041   5.318   7.562   7.066
20595NA      NA62042   5.816   0.628   1.975
20596NA      NA62043   7.180   3.838   1.480
20597NA      NA62044   5.674   5.525   0.927
20598NA      NA62045   5.976   5.465   7.146
20599NA      NA62046   5.835   7.371   1.241
20600NA      NA62047   5.996   6.399   6.837
20601NA      NA62048   6.721   8.151   0.717
20602NA      NA62049   6.946   8.310   2.907
20603NA      NA62050   9.115   1.714   6.158
20604NA      NA62051   8.021   2.732   2.891
20605NA      NA62052   8.512   3.209   5.064
20606NA      NA62053   8.061   5.089   0.726
20607NA      NA62054   8.061   5.089   6.312
20608NA      NA62055   7.485   6.896   1.282
20609NA      NA62056   8.263   6.158   4.049
20610CL      CL62057   1.824   0.192   3.089
20611CL      CL62058   1.064   3.209   1.340
20612CL      CL62059   0.590   3.349   0.491
20613CL      CL62060   1.709   2.247   3.243
20614CL      CL62061   1.252   3.593   4.852
20615CL      CL62062   0.390   5.465   3.422
20616CL      CL62063   0.980   4.840   5.443
20617CL      CL62064   0.504   3.774   5.464
20618CL      CL62065   0.263   4.050   6.306
20619CL      CL62066   1.664   6.866   2.519
20620CL      CL62067   0.716   6.151   5.432
20621CL      CL62068   0.809   5.590   6.088
20622CL      CL62069   1.274   5.972   6.848
20623CL      CL62070   1.293   8.676   1.423
20624CL      CL62071   0.350   8.346   1.804
20625CL      CL62072   1.400   7.555   4.150
20626CL      CL62073   0.875   9.094   7.785
20627CL      CL62074   1.984   0.643   0.563
20628CL      CL62075   2.671   0.004   0.502
20629CL      CL62076   2.021   1.137   1.466
20630CL      CL62077   3.142   0.927   6.258
20631CL      CL62078   2.125   0.326   6.306
20632CL      CL62079   2.183   2.805   3.966
20633CL      CL62080   2.093   5.437   0.483
20634CL      CL62081   3.567   5.211   2.966
20635CL      CL62082   1.941   4.964   6.239
20636CL      CL62083   3.256   6.055   3.536
20637CL      CL62084   3.089   7.136   3.368
20638CL      CL62085   2.665   6.988   4.648
20639CL      CL62086   2.102   8.539   0.886
20640CL      CL62087   2.423   7.670   1.147
20641CL      CL62088   2.632   8.778   5.887
20642CL      CL62089   2.290   7.872   7.968
20643CL      CL62090   5.316   1.629   1.625
20644CL      CL62091   4.741   1.901   2.615
20645CL      CL62092   5.346   2.229   4.098
20646CL      CL62093   4.859   2.565   6.303
20647CL      CL62094   4.704   4.840   3.581
20648CL      CL62095   4.314   5.211   4.215
20649CL      CL62096   5.158   6.774   5.627
20650CL      CL62097   4.976   8.796   2.250
20651CL      CL62098   4.835   8.643   6.686
20652CL      CL62099   7.178   1.629   5.349
20653CL      CL62100   7.243   0.604   6.792
20654CL      CL62101   6.937   2.452   5.157
20655CL      CL62102   7.243   4.328   3.068
20656CL      CL62103   7.312   3.859   4.247
20657CL      CL62104   5.708   8.091   2.425
20658CL      CL62105   7.224   8.547   4.803
20659CL      CL62106   6.599   7.553   7.356
20660CL      CL62107   8.673   0.325   2.311
20661CL      CL62108   8.751   0.838   3.766
20662CL      CL62109   8.700   3.210   4.112
20663CL      CL62110   8.838   2.437   5.664
20664CL      CL62111   8.164   2.427   7.294
20665CL      CL62112   8.298   4.522   1.823
20666CL      CL62113   8.799   4.314   1.433
20667CL      CL62114   9.157   4.109   6.967
20668CL      CL62115   9.040   7.215   1.625
20669CL      CL62116   7.799   7.387   2.715
20670CL      CL62117   8.480   6.135   5.602
20671CL      CL62118   8.751   6.424   7.490
20672CL      CL62119   9.167   8.033   3.693
   9.43508   8.89547   7.70371   0.00000   0.00000   3.14503   0.00000  -3.14503   4.44774
