;
;	File 'topol.top' was generated
;	By user: williamrios (1012)
;	On host: buteo
;	At date: Mon May  5 16:55:36 2025
;
;	This is a standalone topology file
;
;	Created by:
;	                    :-) GROMACS - gmx pdb2gmx, 2024.5 (-:
;	
;	Executable:   /usr/local/gromacs/bin/gmx_gpu
;	Data prefix:  /usr/local/gromacs
;	Working dir:  /home/williamrios/hst5-least-compact/c36m
;	Command line:
;	  gmx_gpu pdb2gmx -f hst5_least_compact.pdb -o hst5.gro -ter -ignh
;	Force field was read from current directory or a relative path - path added.
;

; Include forcefield parameters
#include "./charmm36-jul2022.ff/forcefield.itp"

[ moleculetype ]
; Name            nrexcl
Protein_chain_A     3

[ atoms ]
;   nr       type  resnr residue  atom   cgnr     charge       mass  typeB    chargeB      massB
; residue   1 ASP rtp ASP  q  0.0
     1        NH3      1    ASP      N      1       -0.3     14.007
     2         HC      1    ASP     H1      2       0.33      1.008
     3         HC      1    ASP     H2      3       0.33      1.008
     4         HC      1    ASP     H3      4       0.33      1.008
     5        CT1      1    ASP     CA      5       0.21     12.011
     6        HB1      1    ASP     HA      5        0.1      1.008
     7       CT2A      1    ASP     CB      6      -0.28     12.011
     8        HA2      1    ASP    HB1      6       0.09      1.008
     9        HA2      1    ASP    HB2      6       0.09      1.008
    10         CC      1    ASP     CG      6       0.62     12.011
    11         OC      1    ASP    OD1      6      -0.76    15.9994
    12         OC      1    ASP    OD2      6      -0.76    15.9994
    13          C      1    ASP      C      7       0.51     12.011
    14          O      1    ASP      O      7      -0.51    15.9994   ; qtot 0
; residue   2 SER rtp SER  q  0.0
    15        NH1      2    SER      N      8      -0.47     14.007
    16          H      2    SER     HN      8       0.31      1.008
    17        CT1      2    SER     CA      8       0.07     12.011
    18        HB1      2    SER     HA      8       0.09      1.008
    19        CT2      2    SER     CB      9       0.05     12.011
    20        HA2      2    SER    HB1      9       0.09      1.008
    21        HA2      2    SER    HB2      9       0.09      1.008
    22        OH1      2    SER     OG      9      -0.66    15.9994
    23          H      2    SER    HG1      9       0.43      1.008
    24          C      2    SER      C     10       0.51     12.011
    25          O      2    SER      O     10      -0.51    15.9994   ; qtot 0
; residue   3 HIS rtp HSE  q  0.0
    26        NH1      3    HIS      N     11      -0.47     14.007
    27          H      3    HIS     HN     11       0.31      1.008
    28        CT1      3    HIS     CA     11       0.07     12.011
    29        HB1      3    HIS     HA     11       0.09      1.008
    30        CT2      3    HIS     CB     12      -0.08     12.011
    31        HA2      3    HIS    HB1     12       0.09      1.008
    32        HA2      3    HIS    HB2     12       0.09      1.008
    33        NR2      3    HIS    ND1     12       -0.7     14.007
    34       CPH1      3    HIS     CG     12       0.22     12.011
    35       CPH2      3    HIS    CE1     12       0.25     12.011
    36        HR1      3    HIS    HE1     12       0.13      1.008
    37        NR1      3    HIS    NE2     13      -0.36     14.007
    38          H      3    HIS    HE2     13       0.32      1.008
    39       CPH1      3    HIS    CD2     13      -0.05     12.011
    40        HR3      3    HIS    HD2     13       0.09      1.008
    41          C      3    HIS      C     14       0.51     12.011
    42          O      3    HIS      O     14      -0.51    15.9994   ; qtot 0
; residue   4 ALA rtp ALA  q  0.0
    43        NH1      4    ALA      N     15      -0.47     14.007
    44          H      4    ALA     HN     15       0.31      1.008
    45        CT1      4    ALA     CA     15       0.07     12.011
    46        HB1      4    ALA     HA     15       0.09      1.008
    47        CT3      4    ALA     CB     16      -0.27     12.011
    48        HA3      4    ALA    HB1     16       0.09      1.008
    49        HA3      4    ALA    HB2     16       0.09      1.008
    50        HA3      4    ALA    HB3     16       0.09      1.008
    51          C      4    ALA      C     17       0.51     12.011
    52          O      4    ALA      O     17      -0.51    15.9994   ; qtot 0
; residue   5 LYS rtp LYS  q +1.0
    53        NH1      5    LYS      N     18      -0.47     14.007
    54          H      5    LYS     HN     18       0.31      1.008
    55        CT1      5    LYS     CA     18       0.07     12.011
    56        HB1      5    LYS     HA     18       0.09      1.008
    57        CT2      5    LYS     CB     19      -0.18     12.011
    58        HA2      5    LYS    HB1     19       0.09      1.008
    59        HA2      5    LYS    HB2     19       0.09      1.008
    60        CT2      5    LYS     CG     20      -0.18     12.011
    61        HA2      5    LYS    HG1     20       0.09      1.008
    62        HA2      5    LYS    HG2     20       0.09      1.008
    63        CT2      5    LYS     CD     21      -0.18     12.011
    64        HA2      5    LYS    HD1     21       0.09      1.008
    65        HA2      5    LYS    HD2     21       0.09      1.008
    66        CT2      5    LYS     CE     22       0.21     12.011
    67        HA2      5    LYS    HE1     22       0.05      1.008
    68        HA2      5    LYS    HE2     22       0.05      1.008
    69        NH3      5    LYS     NZ     22       -0.3     14.007
    70         HC      5    LYS    HZ1     22       0.33      1.008
    71         HC      5    LYS    HZ2     22       0.33      1.008
    72         HC      5    LYS    HZ3     22       0.33      1.008
    73          C      5    LYS      C     23       0.51     12.011
    74          O      5    LYS      O     23      -0.51    15.9994   ; qtot 1
; residue   6 ARG rtp ARG  q +1.0
    75        NH1      6    ARG      N     24      -0.47     14.007
    76          H      6    ARG     HN     24       0.31      1.008
    77        CT1      6    ARG     CA     24       0.07     12.011
    78        HB1      6    ARG     HA     24       0.09      1.008
    79        CT2      6    ARG     CB     25      -0.18     12.011
    80        HA2      6    ARG    HB1     25       0.09      1.008
    81        HA2      6    ARG    HB2     25       0.09      1.008
    82        CT2      6    ARG     CG     26      -0.18     12.011
    83        HA2      6    ARG    HG1     26       0.09      1.008
    84        HA2      6    ARG    HG2     26       0.09      1.008
    85        CT2      6    ARG     CD     27        0.2     12.011
    86        HA2      6    ARG    HD1     27       0.09      1.008
    87        HA2      6    ARG    HD2     27       0.09      1.008
    88        NC2      6    ARG     NE     27       -0.7     14.007
    89         HC      6    ARG     HE     27       0.44      1.008
    90          C      6    ARG     CZ     27       0.64     12.011
    91        NC2      6    ARG    NH1     27       -0.8     14.007
    92         HC      6    ARG   HH11     27       0.46      1.008
    93         HC      6    ARG   HH12     27       0.46      1.008
    94        NC2      6    ARG    NH2     27       -0.8     14.007
    95         HC      6    ARG   HH21     27       0.46      1.008
    96         HC      6    ARG   HH22     27       0.46      1.008
    97          C      6    ARG      C     28       0.51     12.011
    98          O      6    ARG      O     28      -0.51    15.9994   ; qtot 2
; residue   7 HIS rtp HSE  q  0.0
    99        NH1      7    HIS      N     29      -0.47     14.007
   100          H      7    HIS     HN     29       0.31      1.008
   101        CT1      7    HIS     CA     29       0.07     12.011
   102        HB1      7    HIS     HA     29       0.09      1.008
   103        CT2      7    HIS     CB     30      -0.08     12.011
   104        HA2      7    HIS    HB1     30       0.09      1.008
   105        HA2      7    HIS    HB2     30       0.09      1.008
   106        NR2      7    HIS    ND1     30       -0.7     14.007
   107       CPH1      7    HIS     CG     30       0.22     12.011
   108       CPH2      7    HIS    CE1     30       0.25     12.011
   109        HR1      7    HIS    HE1     30       0.13      1.008
   110        NR1      7    HIS    NE2     31      -0.36     14.007
   111          H      7    HIS    HE2     31       0.32      1.008
   112       CPH1      7    HIS    CD2     31      -0.05     12.011
   113        HR3      7    HIS    HD2     31       0.09      1.008
   114          C      7    HIS      C     32       0.51     12.011
   115          O      7    HIS      O     32      -0.51    15.9994   ; qtot 2
; residue   8 HIS rtp HSE  q  0.0
   116        NH1      8    HIS      N     33      -0.47     14.007
   117          H      8    HIS     HN     33       0.31      1.008
   118        CT1      8    HIS     CA     33       0.07     12.011
   119        HB1      8    HIS     HA     33       0.09      1.008
   120        CT2      8    HIS     CB     34      -0.08     12.011
   121        HA2      8    HIS    HB1     34       0.09      1.008
   122        HA2      8    HIS    HB2     34       0.09      1.008
   123        NR2      8    HIS    ND1     34       -0.7     14.007
   124       CPH1      8    HIS     CG     34       0.22     12.011
   125       CPH2      8    HIS    CE1     34       0.25     12.011
   126        HR1      8    HIS    HE1     34       0.13      1.008
   127        NR1      8    HIS    NE2     35      -0.36     14.007
   128          H      8    HIS    HE2     35       0.32      1.008
   129       CPH1      8    HIS    CD2     35      -0.05     12.011
   130        HR3      8    HIS    HD2     35       0.09      1.008
   131          C      8    HIS      C     36       0.51     12.011
   132          O      8    HIS      O     36      -0.51    15.9994   ; qtot 2
; residue   9 GLY rtp GLY  q  0.0
   133        NH1      9    GLY      N     37      -0.47     14.007
   134          H      9    GLY     HN     37       0.31      1.008
   135        CT2      9    GLY     CA     37      -0.02     12.011
   136        HB2      9    GLY    HA1     37       0.09      1.008
   137        HB2      9    GLY    HA2     37       0.09      1.008
   138          C      9    GLY      C     38       0.51     12.011
   139          O      9    GLY      O     38      -0.51    15.9994   ; qtot 2
; residue  10 TYR rtp TYR  q  0.0
   140        NH1     10    TYR      N     39      -0.47     14.007
   141          H     10    TYR     HN     39       0.31      1.008
   142        CT1     10    TYR     CA     39       0.07     12.011
   143        HB1     10    TYR     HA     39       0.09      1.008
   144        CT2     10    TYR     CB     40      -0.18     12.011
   145        HA2     10    TYR    HB1     40       0.09      1.008
   146        HA2     10    TYR    HB2     40       0.09      1.008
   147         CA     10    TYR     CG     41          0     12.011
   148         CA     10    TYR    CD1     42     -0.115     12.011
   149         HP     10    TYR    HD1     42      0.115      1.008
   150         CA     10    TYR    CE1     43     -0.115     12.011
   151         HP     10    TYR    HE1     43      0.115      1.008
   152         CA     10    TYR     CZ     44       0.11     12.011
   153        OH1     10    TYR     OH     44      -0.54    15.9994
   154          H     10    TYR     HH     44       0.43      1.008
   155         CA     10    TYR    CD2     45     -0.115     12.011
   156         HP     10    TYR    HD2     45      0.115      1.008
   157         CA     10    TYR    CE2     46     -0.115     12.011
   158         HP     10    TYR    HE2     46      0.115      1.008
   159          C     10    TYR      C     47       0.51     12.011
   160          O     10    TYR      O     47      -0.51    15.9994   ; qtot 2
; residue  11 LYS rtp LYS  q +1.0
   161        NH1     11    LYS      N     48      -0.47     14.007
   162          H     11    LYS     HN     48       0.31      1.008
   163        CT1     11    LYS     CA     48       0.07     12.011
   164        HB1     11    LYS     HA     48       0.09      1.008
   165        CT2     11    LYS     CB     49      -0.18     12.011
   166        HA2     11    LYS    HB1     49       0.09      1.008
   167        HA2     11    LYS    HB2     49       0.09      1.008
   168        CT2     11    LYS     CG     50      -0.18     12.011
   169        HA2     11    LYS    HG1     50       0.09      1.008
   170        HA2     11    LYS    HG2     50       0.09      1.008
   171        CT2     11    LYS     CD     51      -0.18     12.011
   172        HA2     11    LYS    HD1     51       0.09      1.008
   173        HA2     11    LYS    HD2     51       0.09      1.008
   174        CT2     11    LYS     CE     52       0.21     12.011
   175        HA2     11    LYS    HE1     52       0.05      1.008
   176        HA2     11    LYS    HE2     52       0.05      1.008
   177        NH3     11    LYS     NZ     52       -0.3     14.007
   178         HC     11    LYS    HZ1     52       0.33      1.008
   179         HC     11    LYS    HZ2     52       0.33      1.008
   180         HC     11    LYS    HZ3     52       0.33      1.008
   181          C     11    LYS      C     53       0.51     12.011
   182          O     11    LYS      O     53      -0.51    15.9994   ; qtot 3
; residue  12 ARG rtp ARG  q +1.0
   183        NH1     12    ARG      N     54      -0.47     14.007
   184          H     12    ARG     HN     54       0.31      1.008
   185        CT1     12    ARG     CA     54       0.07     12.011
   186        HB1     12    ARG     HA     54       0.09      1.008
   187        CT2     12    ARG     CB     55      -0.18     12.011
   188        HA2     12    ARG    HB1     55       0.09      1.008
   189        HA2     12    ARG    HB2     55       0.09      1.008
   190        CT2     12    ARG     CG     56      -0.18     12.011
   191        HA2     12    ARG    HG1     56       0.09      1.008
   192        HA2     12    ARG    HG2     56       0.09      1.008
   193        CT2     12    ARG     CD     57        0.2     12.011
   194        HA2     12    ARG    HD1     57       0.09      1.008
   195        HA2     12    ARG    HD2     57       0.09      1.008
   196        NC2     12    ARG     NE     57       -0.7     14.007
   197         HC     12    ARG     HE     57       0.44      1.008
   198          C     12    ARG     CZ     57       0.64     12.011
   199        NC2     12    ARG    NH1     57       -0.8     14.007
   200         HC     12    ARG   HH11     57       0.46      1.008
   201         HC     12    ARG   HH12     57       0.46      1.008
   202        NC2     12    ARG    NH2     57       -0.8     14.007
   203         HC     12    ARG   HH21     57       0.46      1.008
   204         HC     12    ARG   HH22     57       0.46      1.008
   205          C     12    ARG      C     58       0.51     12.011
   206          O     12    ARG      O     58      -0.51    15.9994   ; qtot 4
; residue  13 LYS rtp LYS  q +1.0
   207        NH1     13    LYS      N     59      -0.47     14.007
   208          H     13    LYS     HN     59       0.31      1.008
   209        CT1     13    LYS     CA     59       0.07     12.011
   210        HB1     13    LYS     HA     59       0.09      1.008
   211        CT2     13    LYS     CB     60      -0.18     12.011
   212        HA2     13    LYS    HB1     60       0.09      1.008
   213        HA2     13    LYS    HB2     60       0.09      1.008
   214        CT2     13    LYS     CG     61      -0.18     12.011
   215        HA2     13    LYS    HG1     61       0.09      1.008
   216        HA2     13    LYS    HG2     61       0.09      1.008
   217        CT2     13    LYS     CD     62      -0.18     12.011
   218        HA2     13    LYS    HD1     62       0.09      1.008
   219        HA2     13    LYS    HD2     62       0.09      1.008
   220        CT2     13    LYS     CE     63       0.21     12.011
   221        HA2     13    LYS    HE1     63       0.05      1.008
   222        HA2     13    LYS    HE2     63       0.05      1.008
   223        NH3     13    LYS     NZ     63       -0.3     14.007
   224         HC     13    LYS    HZ1     63       0.33      1.008
   225         HC     13    LYS    HZ2     63       0.33      1.008
   226         HC     13    LYS    HZ3     63       0.33      1.008
   227          C     13    LYS      C     64       0.51     12.011
   228          O     13    LYS      O     64      -0.51    15.9994   ; qtot 5
; residue  14 PHE rtp PHE  q  0.0
   229        NH1     14    PHE      N     65      -0.47     14.007
   230          H     14    PHE     HN     65       0.31      1.008
   231        CT1     14    PHE     CA     65       0.07     12.011
   232        HB1     14    PHE     HA     65       0.09      1.008
   233        CT2     14    PHE     CB     66      -0.18     12.011
   234        HA2     14    PHE    HB1     66       0.09      1.008
   235        HA2     14    PHE    HB2     66       0.09      1.008
   236         CA     14    PHE     CG     67          0     12.011
   237         CA     14    PHE    CD1     68     -0.115     12.011
   238         HP     14    PHE    HD1     68      0.115      1.008
   239         CA     14    PHE    CE1     69     -0.115     12.011
   240         HP     14    PHE    HE1     69      0.115      1.008
   241         CA     14    PHE     CZ     70     -0.115     12.011
   242         HP     14    PHE     HZ     70      0.115      1.008
   243         CA     14    PHE    CD2     71     -0.115     12.011
   244         HP     14    PHE    HD2     71      0.115      1.008
   245         CA     14    PHE    CE2     72     -0.115     12.011
   246         HP     14    PHE    HE2     72      0.115      1.008
   247          C     14    PHE      C     73       0.51     12.011
   248          O     14    PHE      O     73      -0.51    15.9994   ; qtot 5
; residue  15 HIS rtp HSE  q  0.0
   249        NH1     15    HIS      N     74      -0.47     14.007
   250          H     15    HIS     HN     74       0.31      1.008
   251        CT1     15    HIS     CA     74       0.07     12.011
   252        HB1     15    HIS     HA     74       0.09      1.008
   253        CT2     15    HIS     CB     75      -0.08     12.011
   254        HA2     15    HIS    HB1     75       0.09      1.008
   255        HA2     15    HIS    HB2     75       0.09      1.008
   256        NR2     15    HIS    ND1     75       -0.7     14.007
   257       CPH1     15    HIS     CG     75       0.22     12.011
   258       CPH2     15    HIS    CE1     75       0.25     12.011
   259        HR1     15    HIS    HE1     75       0.13      1.008
   260        NR1     15    HIS    NE2     76      -0.36     14.007
   261          H     15    HIS    HE2     76       0.32      1.008
   262       CPH1     15    HIS    CD2     76      -0.05     12.011
   263        HR3     15    HIS    HD2     76       0.09      1.008
   264          C     15    HIS      C     77       0.51     12.011
   265          O     15    HIS      O     77      -0.51    15.9994   ; qtot 5
; residue  16 GLU rtp GLU  q -1.0
   266        NH1     16    GLU      N     78      -0.47     14.007
   267          H     16    GLU     HN     78       0.31      1.008
   268        CT1     16    GLU     CA     78       0.07     12.011
   269        HB1     16    GLU     HA     78       0.09      1.008
   270       CT2A     16    GLU     CB     79      -0.18     12.011
   271        HA2     16    GLU    HB1     79       0.09      1.008
   272        HA2     16    GLU    HB2     79       0.09      1.008
   273        CT2     16    GLU     CG     80      -0.28     12.011
   274        HA2     16    GLU    HG1     80       0.09      1.008
   275        HA2     16    GLU    HG2     80       0.09      1.008
   276         CC     16    GLU     CD     80       0.62     12.011
   277         OC     16    GLU    OE1     80      -0.76    15.9994
   278         OC     16    GLU    OE2     80      -0.76    15.9994
   279          C     16    GLU      C     81       0.51     12.011
   280          O     16    GLU      O     81      -0.51    15.9994   ; qtot 4
; residue  17 LYS rtp LYS  q +1.0
   281        NH1     17    LYS      N     82      -0.47     14.007
   282          H     17    LYS     HN     82       0.31      1.008
   283        CT1     17    LYS     CA     82       0.07     12.011
   284        HB1     17    LYS     HA     82       0.09      1.008
   285        CT2     17    LYS     CB     83      -0.18     12.011
   286        HA2     17    LYS    HB1     83       0.09      1.008
   287        HA2     17    LYS    HB2     83       0.09      1.008
   288        CT2     17    LYS     CG     84      -0.18     12.011
   289        HA2     17    LYS    HG1     84       0.09      1.008
   290        HA2     17    LYS    HG2     84       0.09      1.008
   291        CT2     17    LYS     CD     85      -0.18     12.011
   292        HA2     17    LYS    HD1     85       0.09      1.008
   293        HA2     17    LYS    HD2     85       0.09      1.008
   294        CT2     17    LYS     CE     86       0.21     12.011
   295        HA2     17    LYS    HE1     86       0.05      1.008
   296        HA2     17    LYS    HE2     86       0.05      1.008
   297        NH3     17    LYS     NZ     86       -0.3     14.007
   298         HC     17    LYS    HZ1     86       0.33      1.008
   299         HC     17    LYS    HZ2     86       0.33      1.008
   300         HC     17    LYS    HZ3     86       0.33      1.008
   301          C     17    LYS      C     87       0.51     12.011
   302          O     17    LYS      O     87      -0.51    15.9994   ; qtot 5
; residue  18 HIS rtp HSE  q  0.0
   303        NH1     18    HIS      N     88      -0.47     14.007
   304          H     18    HIS     HN     88       0.31      1.008
   305        CT1     18    HIS     CA     88       0.07     12.011
   306        HB1     18    HIS     HA     88       0.09      1.008
   307        CT2     18    HIS     CB     89      -0.08     12.011
   308        HA2     18    HIS    HB1     89       0.09      1.008
   309        HA2     18    HIS    HB2     89       0.09      1.008
   310        NR2     18    HIS    ND1     89       -0.7     14.007
   311       CPH1     18    HIS     CG     89       0.22     12.011
   312       CPH2     18    HIS    CE1     89       0.25     12.011
   313        HR1     18    HIS    HE1     89       0.13      1.008
   314        NR1     18    HIS    NE2     90      -0.36     14.007
   315          H     18    HIS    HE2     90       0.32      1.008
   316       CPH1     18    HIS    CD2     90      -0.05     12.011
   317        HR3     18    HIS    HD2     90       0.09      1.008
   318          C     18    HIS      C     91       0.51     12.011
   319          O     18    HIS      O     91      -0.51    15.9994   ; qtot 5
; residue  19 HIS rtp HSE  q  0.0
   320        NH1     19    HIS      N     92      -0.47     14.007
   321          H     19    HIS     HN     92       0.31      1.008
   322        CT1     19    HIS     CA     92       0.07     12.011
   323        HB1     19    HIS     HA     92       0.09      1.008
   324        CT2     19    HIS     CB     93      -0.08     12.011
   325        HA2     19    HIS    HB1     93       0.09      1.008
   326        HA2     19    HIS    HB2     93       0.09      1.008
   327        NR2     19    HIS    ND1     93       -0.7     14.007
   328       CPH1     19    HIS     CG     93       0.22     12.011
   329       CPH2     19    HIS    CE1     93       0.25     12.011
   330        HR1     19    HIS    HE1     93       0.13      1.008
   331        NR1     19    HIS    NE2     94      -0.36     14.007
   332          H     19    HIS    HE2     94       0.32      1.008
   333       CPH1     19    HIS    CD2     94      -0.05     12.011
   334        HR3     19    HIS    HD2     94       0.09      1.008
   335          C     19    HIS      C     95       0.51     12.011
   336          O     19    HIS      O     95      -0.51    15.9994   ; qtot 5
; residue  20 SER rtp SER  q  0.0
   337        NH1     20    SER      N     96      -0.47     14.007
   338          H     20    SER     HN     96       0.31      1.008
   339        CT1     20    SER     CA     96       0.07     12.011
   340        HB1     20    SER     HA     96       0.09      1.008
   341        CT2     20    SER     CB     97       0.05     12.011
   342        HA2     20    SER    HB1     97       0.09      1.008
   343        HA2     20    SER    HB2     97       0.09      1.008
   344        OH1     20    SER     OG     97      -0.66    15.9994
   345          H     20    SER    HG1     97       0.43      1.008
   346          C     20    SER      C     98       0.51     12.011
   347          O     20    SER      O     98      -0.51    15.9994   ; qtot 5
; residue  21 HIS rtp HSE  q  0.0
   348        NH1     21    HIS      N     99      -0.47     14.007
   349          H     21    HIS     HN     99       0.31      1.008
   350        CT1     21    HIS     CA     99       0.07     12.011
   351        HB1     21    HIS     HA     99       0.09      1.008
   352        CT2     21    HIS     CB    100      -0.08     12.011
   353        HA2     21    HIS    HB1    100       0.09      1.008
   354        HA2     21    HIS    HB2    100       0.09      1.008
   355        NR2     21    HIS    ND1    100       -0.7     14.007
   356       CPH1     21    HIS     CG    100       0.22     12.011
   357       CPH2     21    HIS    CE1    100       0.25     12.011
   358        HR1     21    HIS    HE1    100       0.13      1.008
   359        NR1     21    HIS    NE2    101      -0.36     14.007
   360          H     21    HIS    HE2    101       0.32      1.008
   361       CPH1     21    HIS    CD2    101      -0.05     12.011
   362        HR3     21    HIS    HD2    101       0.09      1.008
   363          C     21    HIS      C    102       0.51     12.011
   364          O     21    HIS      O    102      -0.51    15.9994   ; qtot 5
; residue  22 ARG rtp ARG  q +1.0
   365        NH1     22    ARG      N    103      -0.47     14.007
   366          H     22    ARG     HN    103       0.31      1.008
   367        CT1     22    ARG     CA    103       0.07     12.011
   368        HB1     22    ARG     HA    103       0.09      1.008
   369        CT2     22    ARG     CB    104      -0.18     12.011
   370        HA2     22    ARG    HB1    104       0.09      1.008
   371        HA2     22    ARG    HB2    104       0.09      1.008
   372        CT2     22    ARG     CG    105      -0.18     12.011
   373        HA2     22    ARG    HG1    105       0.09      1.008
   374        HA2     22    ARG    HG2    105       0.09      1.008
   375        CT2     22    ARG     CD    106        0.2     12.011
   376        HA2     22    ARG    HD1    106       0.09      1.008
   377        HA2     22    ARG    HD2    106       0.09      1.008
   378        NC2     22    ARG     NE    106       -0.7     14.007
   379         HC     22    ARG     HE    106       0.44      1.008
   380          C     22    ARG     CZ    106       0.64     12.011
   381        NC2     22    ARG    NH1    106       -0.8     14.007
   382         HC     22    ARG   HH11    106       0.46      1.008
   383         HC     22    ARG   HH12    106       0.46      1.008
   384        NC2     22    ARG    NH2    106       -0.8     14.007
   385         HC     22    ARG   HH21    106       0.46      1.008
   386         HC     22    ARG   HH22    106       0.46      1.008
   387          C     22    ARG      C    107       0.51     12.011
   388          O     22    ARG      O    107      -0.51    15.9994   ; qtot 6
; residue  23 GLY rtp GLY  q  0.0
   389        NH1     23    GLY      N    108      -0.47     14.007
   390          H     23    GLY     HN    108       0.31      1.008
   391        CT2     23    GLY     CA    108      -0.02     12.011
   392        HB2     23    GLY    HA1    108       0.09      1.008
   393        HB2     23    GLY    HA2    108       0.09      1.008
   394          C     23    GLY      C    109       0.51     12.011
   395          O     23    GLY      O    109      -0.51    15.9994   ; qtot 6
; residue  24 TYR rtp TYR  q -1.0
   396        NH1     24    TYR      N    110      -0.47     14.007
   397          H     24    TYR     HN    110       0.31      1.008
   398        CT1     24    TYR     CA    110       0.07     12.011
   399        HB1     24    TYR     HA    110       0.09      1.008
   400        CT2     24    TYR     CB    111      -0.18     12.011
   401        HA2     24    TYR    HB1    111       0.09      1.008
   402        HA2     24    TYR    HB2    111       0.09      1.008
   403         CA     24    TYR     CG    112          0     12.011
   404         CA     24    TYR    CD1    113     -0.115     12.011
   405         HP     24    TYR    HD1    113      0.115      1.008
   406         CA     24    TYR    CE1    114     -0.115     12.011
   407         HP     24    TYR    HE1    114      0.115      1.008
   408         CA     24    TYR     CZ    115       0.11     12.011
   409        OH1     24    TYR     OH    115      -0.54    15.9994
   410          H     24    TYR     HH    115       0.43      1.008
   411         CA     24    TYR    CD2    116     -0.115     12.011
   412         HP     24    TYR    HD2    116      0.115      1.008
   413         CA     24    TYR    CE2    117     -0.115     12.011
   414         HP     24    TYR    HE2    117      0.115      1.008
   415         CC     24    TYR      C    118       0.34     12.011
   416         OC     24    TYR    OT1    119      -0.67    15.9994
   417         OC     24    TYR    OT2    120      -0.67    15.9994   ; qtot 5

[ bonds ]
;  ai    aj funct            c0            c1            c2            c3
    1     2     1 
    1     3     1 
    1     4     1 
    1     5     1 
    5     6     1 
    5     7     1 
    5    13     1 
    7     8     1 
    7     9     1 
    7    10     1 
   10    11     1 
   10    12     1 
   13    14     1 
   13    15     1 
   15    16     1 
   15    17     1 
   17    18     1 
   17    19     1 
   17    24     1 
   19    20     1 
   19    21     1 
   19    22     1 
   22    23     1 
   24    25     1 
   24    26     1 
   26    27     1 
   26    28     1 
   28    29     1 
   28    30     1 
   28    41     1 
   30    31     1 
   30    32     1 
   30    34     1 
   33    34     1 
   33    35     1 
   34    39     1 
   35    36     1 
   35    37     1 
   37    38     1 
   37    39     1 
   39    40     1 
   41    42     1 
   41    43     1 
   43    44     1 
   43    45     1 
   45    46     1 
   45    47     1 
   45    51     1 
   47    48     1 
   47    49     1 
   47    50     1 
   51    52     1 
   51    53     1 
   53    54     1 
   53    55     1 
   55    56     1 
   55    57     1 
   55    73     1 
   57    58     1 
   57    59     1 
   57    60     1 
   60    61     1 
   60    62     1 
   60    63     1 
   63    64     1 
   63    65     1 
   63    66     1 
   66    67     1 
   66    68     1 
   66    69     1 
   69    70     1 
   69    71     1 
   69    72     1 
   73    74     1 
   73    75     1 
   75    76     1 
   75    77     1 
   77    78     1 
   77    79     1 
   77    97     1 
   79    80     1 
   79    81     1 
   79    82     1 
   82    83     1 
   82    84     1 
   82    85     1 
   85    86     1 
   85    87     1 
   85    88     1 
   88    89     1 
   88    90     1 
   90    91     1 
   90    94     1 
   91    92     1 
   91    93     1 
   94    95     1 
   94    96     1 
   97    98     1 
   97    99     1 
   99   100     1 
   99   101     1 
  101   102     1 
  101   103     1 
  101   114     1 
  103   104     1 
  103   105     1 
  103   107     1 
  106   107     1 
  106   108     1 
  107   112     1 
  108   109     1 
  108   110     1 
  110   111     1 
  110   112     1 
  112   113     1 
  114   115     1 
  114   116     1 
  116   117     1 
  116   118     1 
  118   119     1 
  118   120     1 
  118   131     1 
  120   121     1 
  120   122     1 
  120   124     1 
  123   124     1 
  123   125     1 
  124   129     1 
  125   126     1 
  125   127     1 
  127   128     1 
  127   129     1 
  129   130     1 
  131   132     1 
  131   133     1 
  133   134     1 
  133   135     1 
  135   136     1 
  135   137     1 
  135   138     1 
  138   139     1 
  138   140     1 
  140   141     1 
  140   142     1 
  142   143     1 
  142   144     1 
  142   159     1 
  144   145     1 
  144   146     1 
  144   147     1 
  147   148     1 
  147   155     1 
  148   149     1 
  148   150     1 
  150   151     1 
  150   152     1 
  152   153     1 
  152   157     1 
  153   154     1 
  155   156     1 
  155   157     1 
  157   158     1 
  159   160     1 
  159   161     1 
  161   162     1 
  161   163     1 
  163   164     1 
  163   165     1 
  163   181     1 
  165   166     1 
  165   167     1 
  165   168     1 
  168   169     1 
  168   170     1 
  168   171     1 
  171   172     1 
  171   173     1 
  171   174     1 
  174   175     1 
  174   176     1 
  174   177     1 
  177   178     1 
  177   179     1 
  177   180     1 
  181   182     1 
  181   183     1 
  183   184     1 
  183   185     1 
  185   186     1 
  185   187     1 
  185   205     1 
  187   188     1 
  187   189     1 
  187   190     1 
  190   191     1 
  190   192     1 
  190   193     1 
  193   194     1 
  193   195     1 
  193   196     1 
  196   197     1 
  196   198     1 
  198   199     1 
  198   202     1 
  199   200     1 
  199   201     1 
  202   203     1 
  202   204     1 
  205   206     1 
  205   207     1 
  207   208     1 
  207   209     1 
  209   210     1 
  209   211     1 
  209   227     1 
  211   212     1 
  211   213     1 
  211   214     1 
  214   215     1 
  214   216     1 
  214   217     1 
  217   218     1 
  217   219     1 
  217   220     1 
  220   221     1 
  220   222     1 
  220   223     1 
  223   224     1 
  223   225     1 
  223   226     1 
  227   228     1 
  227   229     1 
  229   230     1 
  229   231     1 
  231   232     1 
  231   233     1 
  231   247     1 
  233   234     1 
  233   235     1 
  233   236     1 
  236   237     1 
  236   243     1 
  237   238     1 
  237   239     1 
  239   240     1 
  239   241     1 
  241   242     1 
  241   245     1 
  243   244     1 
  243   245     1 
  245   246     1 
  247   248     1 
  247   249     1 
  249   250     1 
  249   251     1 
  251   252     1 
  251   253     1 
  251   264     1 
  253   254     1 
  253   255     1 
  253   257     1 
  256   257     1 
  256   258     1 
  257   262     1 
  258   259     1 
  258   260     1 
  260   261     1 
  260   262     1 
  262   263     1 
  264   265     1 
  264   266     1 
  266   267     1 
  266   268     1 
  268   269     1 
  268   270     1 
  268   279     1 
  270   271     1 
  270   272     1 
  270   273     1 
  273   274     1 
  273   275     1 
  273   276     1 
  276   277     1 
  276   278     1 
  279   280     1 
  279   281     1 
  281   282     1 
  281   283     1 
  283   284     1 
  283   285     1 
  283   301     1 
  285   286     1 
  285   287     1 
  285   288     1 
  288   289     1 
  288   290     1 
  288   291     1 
  291   292     1 
  291   293     1 
  291   294     1 
  294   295     1 
  294   296     1 
  294   297     1 
  297   298     1 
  297   299     1 
  297   300     1 
  301   302     1 
  301   303     1 
  303   304     1 
  303   305     1 
  305   306     1 
  305   307     1 
  305   318     1 
  307   308     1 
  307   309     1 
  307   311     1 
  310   311     1 
  310   312     1 
  311   316     1 
  312   313     1 
  312   314     1 
  314   315     1 
  314   316     1 
  316   317     1 
  318   319     1 
  318   320     1 
  320   321     1 
  320   322     1 
  322   323     1 
  322   324     1 
  322   335     1 
  324   325     1 
  324   326     1 
  324   328     1 
  327   328     1 
  327   329     1 
  328   333     1 
  329   330     1 
  329   331     1 
  331   332     1 
  331   333     1 
  333   334     1 
  335   336     1 
  335   337     1 
  337   338     1 
  337   339     1 
  339   340     1 
  339   341     1 
  339   346     1 
  341   342     1 
  341   343     1 
  341   344     1 
  344   345     1 
  346   347     1 
  346   348     1 
  348   349     1 
  348   350     1 
  350   351     1 
  350   352     1 
  350   363     1 
  352   353     1 
  352   354     1 
  352   356     1 
  355   356     1 
  355   357     1 
  356   361     1 
  357   358     1 
  357   359     1 
  359   360     1 
  359   361     1 
  361   362     1 
  363   364     1 
  363   365     1 
  365   366     1 
  365   367     1 
  367   368     1 
  367   369     1 
  367   387     1 
  369   370     1 
  369   371     1 
  369   372     1 
  372   373     1 
  372   374     1 
  372   375     1 
  375   376     1 
  375   377     1 
  375   378     1 
  378   379     1 
  378   380     1 
  380   381     1 
  380   384     1 
  381   382     1 
  381   383     1 
  384   385     1 
  384   386     1 
  387   388     1 
  387   389     1 
  389   390     1 
  389   391     1 
  391   392     1 
  391   393     1 
  391   394     1 
  394   395     1 
  394   396     1 
  396   397     1 
  396   398     1 
  398   399     1 
  398   400     1 
  398   415     1 
  400   401     1 
  400   402     1 
  400   403     1 
  403   404     1 
  403   411     1 
  404   405     1 
  404   406     1 
  406   407     1 
  406   408     1 
  408   409     1 
  408   413     1 
  409   410     1 
  411   412     1 
  411   413     1 
  413   414     1 
  415   416     1 
  415   417     1 

[ pairs ]
;  ai    aj funct            c0            c1            c2            c3
    1     8     1 
    1     9     1 
    1    10     1 
    1    14     1 
    1    15     1 
    2     6     1 
    2     7     1 
    2    13     1 
    3     6     1 
    3     7     1 
    3    13     1 
    4     6     1 
    4     7     1 
    4    13     1 
    5    11     1 
    5    12     1 
    5    16     1 
    5    17     1 
    6     8     1 
    6     9     1 
    6    10     1 
    6    14     1 
    6    15     1 
    7    14     1 
    7    15     1 
    8    11     1 
    8    12     1 
    8    13     1 
    9    11     1 
    9    12     1 
    9    13     1 
   10    13     1 
   13    18     1 
   13    19     1 
   13    24     1 
   14    16     1 
   14    17     1 
   15    20     1 
   15    21     1 
   15    22     1 
   15    25     1 
   15    26     1 
   16    18     1 
   16    19     1 
   16    24     1 
   17    23     1 
   17    27     1 
   17    28     1 
   18    20     1 
   18    21     1 
   18    22     1 
   18    25     1 
   18    26     1 
   19    25     1 
   19    26     1 
   20    23     1 
   20    24     1 
   21    23     1 
   21    24     1 
   22    24     1 
   24    29     1 
   24    30     1 
   24    41     1 
   25    27     1 
   25    28     1 
   26    31     1 
   26    32     1 
   26    34     1 
   26    42     1 
   26    43     1 
   27    29     1 
   27    30     1 
   27    41     1 
   28    33     1 
   28    39     1 
   28    44     1 
   28    45     1 
   29    31     1 
   29    32     1 
   29    34     1 
   29    42     1 
   29    43     1 
   30    35     1 
   30    37     1 
   30    40     1 
   30    42     1 
   30    43     1 
   31    33     1 
   31    39     1 
   31    41     1 
   32    33     1 
   32    39     1 
   32    41     1 
   33    38     1 
   33    40     1 
   34    36     1 
   34    38     1 
   34    41     1 
   35    40     1 
   36    38     1 
   36    39     1 
   38    40     1 
   41    46     1 
   41    47     1 
   41    51     1 
   42    44     1 
   42    45     1 
   43    48     1 
   43    49     1 
   43    50     1 
   43    52     1 
   43    53     1 
   44    46     1 
   44    47     1 
   44    51     1 
   45    54     1 
   45    55     1 
   46    48     1 
   46    49     1 
   46    50     1 
   46    52     1 
   46    53     1 
   47    52     1 
   47    53     1 
   48    51     1 
   49    51     1 
   50    51     1 
   51    56     1 
   51    57     1 
   51    73     1 
   52    54     1 
   52    55     1 
   53    58     1 
   53    59     1 
   53    60     1 
   53    74     1 
   53    75     1 
   54    56     1 
   54    57     1 
   54    73     1 
   55    61     1 
   55    62     1 
   55    63     1 
   55    76     1 
   55    77     1 
   56    58     1 
   56    59     1 
   56    60     1 
   56    74     1 
   56    75     1 
   57    64     1 
   57    65     1 
   57    66     1 
   57    74     1 
   57    75     1 
   58    61     1 
   58    62     1 
   58    63     1 
   58    73     1 
   59    61     1 
   59    62     1 
   59    63     1 
   59    73     1 
   60    67     1 
   60    68     1 
   60    69     1 
   60    73     1 
   61    64     1 
   61    65     1 
   61    66     1 
   62    64     1 
   62    65     1 
   62    66     1 
   63    70     1 
   63    71     1 
   63    72     1 
   64    67     1 
   64    68     1 
   64    69     1 
   65    67     1 
   65    68     1 
   65    69     1 
   67    70     1 
   67    71     1 
   67    72     1 
   68    70     1 
   68    71     1 
   68    72     1 
   73    78     1 
   73    79     1 
   73    97     1 
   74    76     1 
   74    77     1 
   75    80     1 
   75    81     1 
   75    82     1 
   75    98     1 
   75    99     1 
   76    78     1 
   76    79     1 
   76    97     1 
   77    83     1 
   77    84     1 
   77    85     1 
   77   100     1 
   77   101     1 
   78    80     1 
   78    81     1 
   78    82     1 
   78    98     1 
   78    99     1 
   79    86     1 
   79    87     1 
   79    88     1 
   79    98     1 
   79    99     1 
   80    83     1 
   80    84     1 
   80    85     1 
   80    97     1 
   81    83     1 
   81    84     1 
   81    85     1 
   81    97     1 
   82    89     1 
   82    90     1 
   82    97     1 
   83    86     1 
   83    87     1 
   83    88     1 
   84    86     1 
   84    87     1 
   84    88     1 
   85    91     1 
   85    94     1 
   86    89     1 
   86    90     1 
   87    89     1 
   87    90     1 
   88    92     1 
   88    93     1 
   88    95     1 
   88    96     1 
   89    91     1 
   89    94     1 
   91    95     1 
   91    96     1 
   92    94     1 
   93    94     1 
   97   102     1 
   97   103     1 
   97   114     1 
   98   100     1 
   98   101     1 
   99   104     1 
   99   105     1 
   99   107     1 
   99   115     1 
   99   116     1 
  100   102     1 
  100   103     1 
  100   114     1 
  101   106     1 
  101   112     1 
  101   117     1 
  101   118     1 
  102   104     1 
  102   105     1 
  102   107     1 
  102   115     1 
  102   116     1 
  103   108     1 
  103   110     1 
  103   113     1 
  103   115     1 
  103   116     1 
  104   106     1 
  104   112     1 
  104   114     1 
  105   106     1 
  105   112     1 
  105   114     1 
  106   111     1 
  106   113     1 
  107   109     1 
  107   111     1 
  107   114     1 
  108   113     1 
  109   111     1 
  109   112     1 
  111   113     1 
  114   119     1 
  114   120     1 
  114   131     1 
  115   117     1 
  115   118     1 
  116   121     1 
  116   122     1 
  116   124     1 
  116   132     1 
  116   133     1 
  117   119     1 
  117   120     1 
  117   131     1 
  118   123     1 
  118   129     1 
  118   134     1 
  118   135     1 
  119   121     1 
  119   122     1 
  119   124     1 
  119   132     1 
  119   133     1 
  120   125     1 
  120   127     1 
  120   130     1 
  120   132     1 
  120   133     1 
  121   123     1 
  121   129     1 
  121   131     1 
  122   123     1 
  122   129     1 
  122   131     1 
  123   128     1 
  123   130     1 
  124   126     1 
  124   128     1 
  124   131     1 
  125   130     1 
  126   128     1 
  126   129     1 
  128   130     1 
  131   136     1 
  131   137     1 
  131   138     1 
  132   134     1 
  132   135     1 
  133   139     1 
  133   140     1 
  134   136     1 
  134   137     1 
  134   138     1 
  135   141     1 
  135   142     1 
  136   139     1 
  136   140     1 
  137   139     1 
  137   140     1 
  138   143     1 
  138   144     1 
  138   159     1 
  139   141     1 
  139   142     1 
  140   145     1 
  140   146     1 
  140   147     1 
  140   160     1 
  140   161     1 
  141   143     1 
  141   144     1 
  141   159     1 
  142   148     1 
  142   155     1 
  142   162     1 
  142   163     1 
  143   145     1 
  143   146     1 
  143   147     1 
  143   160     1 
  143   161     1 
  144   149     1 
  144   150     1 
  144   156     1 
  144   157     1 
  144   160     1 
  144   161     1 
  145   148     1 
  145   155     1 
  145   159     1 
  146   148     1 
  146   155     1 
  146   159     1 
  147   151     1 
  147   152     1 
  147   158     1 
  147   159     1 
  148   153     1 
  148   156     1 
  148   157     1 
  149   151     1 
  149   152     1 
  149   155     1 
  150   154     1 
  150   155     1 
  150   158     1 
  151   153     1 
  151   157     1 
  152   156     1 
  153   155     1 
  153   158     1 
  154   157     1 
  156   158     1 
  159   164     1 
  159   165     1 
  159   181     1 
  160   162     1 
  160   163     1 
  161   166     1 
  161   167     1 
  161   168     1 
  161   182     1 
  161   183     1 
  162   164     1 
  162   165     1 
  162   181     1 
  163   169     1 
  163   170     1 
  163   171     1 
  163   184     1 
  163   185     1 
  164   166     1 
  164   167     1 
  164   168     1 
  164   182     1 
  164   183     1 
  165   172     1 
  165   173     1 
  165   174     1 
  165   182     1 
  165   183     1 
  166   169     1 
  166   170     1 
  166   171     1 
  166   181     1 
  167   169     1 
  167   170     1 
  167   171     1 
  167   181     1 
  168   175     1 
  168   176     1 
  168   177     1 
  168   181     1 
  169   172     1 
  169   173     1 
  169   174     1 
  170   172     1 
  170   173     1 
  170   174     1 
  171   178     1 
  171   179     1 
  171   180     1 
  172   175     1 
  172   176     1 
  172   177     1 
  173   175     1 
  173   176     1 
  173   177     1 
  175   178     1 
  175   179     1 
  175   180     1 
  176   178     1 
  176   179     1 
  176   180     1 
  181   186     1 
  181   187     1 
  181   205     1 
  182   184     1 
  182   185     1 
  183   188     1 
  183   189     1 
  183   190     1 
  183   206     1 
  183   207     1 
  184   186     1 
  184   187     1 
  184   205     1 
  185   191     1 
  185   192     1 
  185   193     1 
  185   208     1 
  185   209     1 
  186   188     1 
  186   189     1 
  186   190     1 
  186   206     1 
  186   207     1 
  187   194     1 
  187   195     1 
  187   196     1 
  187   206     1 
  187   207     1 
  188   191     1 
  188   192     1 
  188   193     1 
  188   205     1 
  189   191     1 
  189   192     1 
  189   193     1 
  189   205     1 
  190   197     1 
  190   198     1 
  190   205     1 
  191   194     1 
  191   195     1 
  191   196     1 
  192   194     1 
  192   195     1 
  192   196     1 
  193   199     1 
  193   202     1 
  194   197     1 
  194   198     1 
  195   197     1 
  195   198     1 
  196   200     1 
  196   201     1 
  196   203     1 
  196   204     1 
  197   199     1 
  197   202     1 
  199   203     1 
  199   204     1 
  200   202     1 
  201   202     1 
  205   210     1 
  205   211     1 
  205   227     1 
  206   208     1 
  206   209     1 
  207   212     1 
  207   213     1 
  207   214     1 
  207   228     1 
  207   229     1 
  208   210     1 
  208   211     1 
  208   227     1 
  209   215     1 
  209   216     1 
  209   217     1 
  209   230     1 
  209   231     1 
  210   212     1 
  210   213     1 
  210   214     1 
  210   228     1 
  210   229     1 
  211   218     1 
  211   219     1 
  211   220     1 
  211   228     1 
  211   229     1 
  212   215     1 
  212   216     1 
  212   217     1 
  212   227     1 
  213   215     1 
  213   216     1 
  213   217     1 
  213   227     1 
  214   221     1 
  214   222     1 
  214   223     1 
  214   227     1 
  215   218     1 
  215   219     1 
  215   220     1 
  216   218     1 
  216   219     1 
  216   220     1 
  217   224     1 
  217   225     1 
  217   226     1 
  218   221     1 
  218   222     1 
  218   223     1 
  219   221     1 
  219   222     1 
  219   223     1 
  221   224     1 
  221   225     1 
  221   226     1 
  222   224     1 
  222   225     1 
  222   226     1 
  227   232     1 
  227   233     1 
  227   247     1 
  228   230     1 
  228   231     1 
  229   234     1 
  229   235     1 
  229   236     1 
  229   248     1 
  229   249     1 
  230   232     1 
  230   233     1 
  230   247     1 
  231   237     1 
  231   243     1 
  231   250     1 
  231   251     1 
  232   234     1 
  232   235     1 
  232   236     1 
  232   248     1 
  232   249     1 
  233   238     1 
  233   239     1 
  233   244     1 
  233   245     1 
  233   248     1 
  233   249     1 
  234   237     1 
  234   243     1 
  234   247     1 
  235   237     1 
  235   243     1 
  235   247     1 
  236   240     1 
  236   241     1 
  236   246     1 
  236   247     1 
  237   242     1 
  237   244     1 
  237   245     1 
  238   240     1 
  238   241     1 
  238   243     1 
  239   243     1 
  239   246     1 
  240   242     1 
  240   245     1 
  241   244     1 
  242   243     1 
  242   246     1 
  244   246     1 
  247   252     1 
  247   253     1 
  247   264     1 
  248   250     1 
  248   251     1 
  249   254     1 
  249   255     1 
  249   257     1 
  249   265     1 
  249   266     1 
  250   252     1 
  250   253     1 
  250   264     1 
  251   256     1 
  251   262     1 
  251   267     1 
  251   268     1 
  252   254     1 
  252   255     1 
  252   257     1 
  252   265     1 
  252   266     1 
  253   258     1 
  253   260     1 
  253   263     1 
  253   265     1 
  253   266     1 
  254   256     1 
  254   262     1 
  254   264     1 
  255   256     1 
  255   262     1 
  255   264     1 
  256   261     1 
  256   263     1 
  257   259     1 
  257   261     1 
  257   264     1 
  258   263     1 
  259   261     1 
  259   262     1 
  261   263     1 
  264   269     1 
  264   270     1 
  264   279     1 
  265   267     1 
  265   268     1 
  266   271     1 
  266   272     1 
  266   273     1 
  266   280     1 
  266   281     1 
  267   269     1 
  267   270     1 
  267   279     1 
  268   274     1 
  268   275     1 
  268   276     1 
  268   282     1 
  268   283     1 
  269   271     1 
  269   272     1 
  269   273     1 
  269   280     1 
  269   281     1 
  270   277     1 
  270   278     1 
  270   280     1 
  270   281     1 
  271   274     1 
  271   275     1 
  271   276     1 
  271   279     1 
  272   274     1 
  272   275     1 
  272   276     1 
  272   279     1 
  273   279     1 
  274   277     1 
  274   278     1 
  275   277     1 
  275   278     1 
  279   284     1 
  279   285     1 
  279   301     1 
  280   282     1 
  280   283     1 
  281   286     1 
  281   287     1 
  281   288     1 
  281   302     1 
  281   303     1 
  282   284     1 
  282   285     1 
  282   301     1 
  283   289     1 
  283   290     1 
  283   291     1 
  283   304     1 
  283   305     1 
  284   286     1 
  284   287     1 
  284   288     1 
  284   302     1 
  284   303     1 
  285   292     1 
  285   293     1 
  285   294     1 
  285   302     1 
  285   303     1 
  286   289     1 
  286   290     1 
  286   291     1 
  286   301     1 
  287   289     1 
  287   290     1 
  287   291     1 
  287   301     1 
  288   295     1 
  288   296     1 
  288   297     1 
  288   301     1 
  289   292     1 
  289   293     1 
  289   294     1 
  290   292     1 
  290   293     1 
  290   294     1 
  291   298     1 
  291   299     1 
  291   300     1 
  292   295     1 
  292   296     1 
  292   297     1 
  293   295     1 
  293   296     1 
  293   297     1 
  295   298     1 
  295   299     1 
  295   300     1 
  296   298     1 
  296   299     1 
  296   300     1 
  301   306     1 
  301   307     1 
  301   318     1 
  302   304     1 
  302   305     1 
  303   308     1 
  303   309     1 
  303   311     1 
  303   319     1 
  303   320     1 
  304   306     1 
  304   307     1 
  304   318     1 
  305   310     1 
  305   316     1 
  305   321     1 
  305   322     1 
  306   308     1 
  306   309     1 
  306   311     1 
  306   319     1 
  306   320     1 
  307   312     1 
  307   314     1 
  307   317     1 
  307   319     1 
  307   320     1 
  308   310     1 
  308   316     1 
  308   318     1 
  309   310     1 
  309   316     1 
  309   318     1 
  310   315     1 
  310   317     1 
  311   313     1 
  311   315     1 
  311   318     1 
  312   317     1 
  313   315     1 
  313   316     1 
  315   317     1 
  318   323     1 
  318   324     1 
  318   335     1 
  319   321     1 
  319   322     1 
  320   325     1 
  320   326     1 
  320   328     1 
  320   336     1 
  320   337     1 
  321   323     1 
  321   324     1 
  321   335     1 
  322   327     1 
  322   333     1 
  322   338     1 
  322   339     1 
  323   325     1 
  323   326     1 
  323   328     1 
  323   336     1 
  323   337     1 
  324   329     1 
  324   331     1 
  324   334     1 
  324   336     1 
  324   337     1 
  325   327     1 
  325   333     1 
  325   335     1 
  326   327     1 
  326   333     1 
  326   335     1 
  327   332     1 
  327   334     1 
  328   330     1 
  328   332     1 
  328   335     1 
  329   334     1 
  330   332     1 
  330   333     1 
  332   334     1 
  335   340     1 
  335   341     1 
  335   346     1 
  336   338     1 
  336   339     1 
  337   342     1 
  337   343     1 
  337   344     1 
  337   347     1 
  337   348     1 
  338   340     1 
  338   341     1 
  338   346     1 
  339   345     1 
  339   349     1 
  339   350     1 
  340   342     1 
  340   343     1 
  340   344     1 
  340   347     1 
  340   348     1 
  341   347     1 
  341   348     1 
  342   345     1 
  342   346     1 
  343   345     1 
  343   346     1 
  344   346     1 
  346   351     1 
  346   352     1 
  346   363     1 
  347   349     1 
  347   350     1 
  348   353     1 
  348   354     1 
  348   356     1 
  348   364     1 
  348   365     1 
  349   351     1 
  349   352     1 
  349   363     1 
  350   355     1 
  350   361     1 
  350   366     1 
  350   367     1 
  351   353     1 
  351   354     1 
  351   356     1 
  351   364     1 
  351   365     1 
  352   357     1 
  352   359     1 
  352   362     1 
  352   364     1 
  352   365     1 
  353   355     1 
  353   361     1 
  353   363     1 
  354   355     1 
  354   361     1 
  354   363     1 
  355   360     1 
  355   362     1 
  356   358     1 
  356   360     1 
  356   363     1 
  357   362     1 
  358   360     1 
  358   361     1 
  360   362     1 
  363   368     1 
  363   369     1 
  363   387     1 
  364   366     1 
  364   367     1 
  365   370     1 
  365   371     1 
  365   372     1 
  365   388     1 
  365   389     1 
  366   368     1 
  366   369     1 
  366   387     1 
  367   373     1 
  367   374     1 
  367   375     1 
  367   390     1 
  367   391     1 
  368   370     1 
  368   371     1 
  368   372     1 
  368   388     1 
  368   389     1 
  369   376     1 
  369   377     1 
  369   378     1 
  369   388     1 
  369   389     1 
  370   373     1 
  370   374     1 
  370   375     1 
  370   387     1 
  371   373     1 
  371   374     1 
  371   375     1 
  371   387     1 
  372   379     1 
  372   380     1 
  372   387     1 
  373   376     1 
  373   377     1 
  373   378     1 
  374   376     1 
  374   377     1 
  374   378     1 
  375   381     1 
  375   384     1 
  376   379     1 
  376   380     1 
  377   379     1 
  377   380     1 
  378   382     1 
  378   383     1 
  378   385     1 
  378   386     1 
  379   381     1 
  379   384     1 
  381   385     1 
  381   386     1 
  382   384     1 
  383   384     1 
  387   392     1 
  387   393     1 
  387   394     1 
  388   390     1 
  388   391     1 
  389   395     1 
  389   396     1 
  390   392     1 
  390   393     1 
  390   394     1 
  391   397     1 
  391   398     1 
  392   395     1 
  392   396     1 
  393   395     1 
  393   396     1 
  394   399     1 
  394   400     1 
  394   415     1 
  395   397     1 
  395   398     1 
  396   401     1 
  396   402     1 
  396   403     1 
  396   416     1 
  396   417     1 
  397   399     1 
  397   400     1 
  397   415     1 
  398   404     1 
  398   411     1 
  399   401     1 
  399   402     1 
  399   403     1 
  399   416     1 
  399   417     1 
  400   405     1 
  400   406     1 
  400   412     1 
  400   413     1 
  400   416     1 
  400   417     1 
  401   404     1 
  401   411     1 
  401   415     1 
  402   404     1 
  402   411     1 
  402   415     1 
  403   407     1 
  403   408     1 
  403   414     1 
  403   415     1 
  404   409     1 
  404   412     1 
  404   413     1 
  405   407     1 
  405   408     1 
  405   411     1 
  406   410     1 
  406   411     1 
  406   414     1 
  407   409     1 
  407   413     1 
  408   412     1 
  409   411     1 
  409   414     1 
  410   413     1 
  412   414     1 

[ angles ]
;  ai    aj    ak funct            c0            c1            c2            c3
    2     1     3     5 
    2     1     4     5 
    2     1     5     5 
    3     1     4     5 
    3     1     5     5 
    4     1     5     5 
    1     5     6     5 
    1     5     7     5 
    1     5    13     5 
    6     5     7     5 
    6     5    13     5 
    7     5    13     5 
    5     7     8     5 
    5     7     9     5 
    5     7    10     5 
    8     7     9     5 
    8     7    10     5 
    9     7    10     5 
    7    10    11     5 
    7    10    12     5 
   11    10    12     5 
    5    13    14     5 
    5    13    15     5 
   14    13    15     5 
   13    15    16     5 
   13    15    17     5 
   16    15    17     5 
   15    17    18     5 
   15    17    19     5 
   15    17    24     5 
   18    17    19     5 
   18    17    24     5 
   19    17    24     5 
   17    19    20     5 
   17    19    21     5 
   17    19    22     5 
   20    19    21     5 
   20    19    22     5 
   21    19    22     5 
   19    22    23     5 
   17    24    25     5 
   17    24    26     5 
   25    24    26     5 
   24    26    27     5 
   24    26    28     5 
   27    26    28     5 
   26    28    29     5 
   26    28    30     5 
   26    28    41     5 
   29    28    30     5 
   29    28    41     5 
   30    28    41     5 
   28    30    31     5 
   28    30    32     5 
   28    30    34     5 
   31    30    32     5 
   31    30    34     5 
   32    30    34     5 
   34    33    35     5 
   30    34    33     5 
   30    34    39     5 
   33    34    39     5 
   33    35    36     5 
   33    35    37     5 
   36    35    37     5 
   35    37    38     5 
   35    37    39     5 
   38    37    39     5 
   34    39    37     5 
   34    39    40     5 
   37    39    40     5 
   28    41    42     5 
   28    41    43     5 
   42    41    43     5 
   41    43    44     5 
   41    43    45     5 
   44    43    45     5 
   43    45    46     5 
   43    45    47     5 
   43    45    51     5 
   46    45    47     5 
   46    45    51     5 
   47    45    51     5 
   45    47    48     5 
   45    47    49     5 
   45    47    50     5 
   48    47    49     5 
   48    47    50     5 
   49    47    50     5 
   45    51    52     5 
   45    51    53     5 
   52    51    53     5 
   51    53    54     5 
   51    53    55     5 
   54    53    55     5 
   53    55    56     5 
   53    55    57     5 
   53    55    73     5 
   56    55    57     5 
   56    55    73     5 
   57    55    73     5 
   55    57    58     5 
   55    57    59     5 
   55    57    60     5 
   58    57    59     5 
   58    57    60     5 
   59    57    60     5 
   57    60    61     5 
   57    60    62     5 
   57    60    63     5 
   61    60    62     5 
   61    60    63     5 
   62    60    63     5 
   60    63    64     5 
   60    63    65     5 
   60    63    66     5 
   64    63    65     5 
   64    63    66     5 
   65    63    66     5 
   63    66    67     5 
   63    66    68     5 
   63    66    69     5 
   67    66    68     5 
   67    66    69     5 
   68    66    69     5 
   66    69    70     5 
   66    69    71     5 
   66    69    72     5 
   70    69    71     5 
   70    69    72     5 
   71    69    72     5 
   55    73    74     5 
   55    73    75     5 
   74    73    75     5 
   73    75    76     5 
   73    75    77     5 
   76    75    77     5 
   75    77    78     5 
   75    77    79     5 
   75    77    97     5 
   78    77    79     5 
   78    77    97     5 
   79    77    97     5 
   77    79    80     5 
   77    79    81     5 
   77    79    82     5 
   80    79    81     5 
   80    79    82     5 
   81    79    82     5 
   79    82    83     5 
   79    82    84     5 
   79    82    85     5 
   83    82    84     5 
   83    82    85     5 
   84    82    85     5 
   82    85    86     5 
   82    85    87     5 
   82    85    88     5 
   86    85    87     5 
   86    85    88     5 
   87    85    88     5 
   85    88    89     5 
   85    88    90     5 
   89    88    90     5 
   88    90    91     5 
   88    90    94     5 
   91    90    94     5 
   90    91    92     5 
   90    91    93     5 
   92    91    93     5 
   90    94    95     5 
   90    94    96     5 
   95    94    96     5 
   77    97    98     5 
   77    97    99     5 
   98    97    99     5 
   97    99   100     5 
   97    99   101     5 
  100    99   101     5 
   99   101   102     5 
   99   101   103     5 
   99   101   114     5 
  102   101   103     5 
  102   101   114     5 
  103   101   114     5 
  101   103   104     5 
  101   103   105     5 
  101   103   107     5 
  104   103   105     5 
  104   103   107     5 
  105   103   107     5 
  107   106   108     5 
  103   107   106     5 
  103   107   112     5 
  106   107   112     5 
  106   108   109     5 
  106   108   110     5 
  109   108   110     5 
  108   110   111     5 
  108   110   112     5 
  111   110   112     5 
  107   112   110     5 
  107   112   113     5 
  110   112   113     5 
  101   114   115     5 
  101   114   116     5 
  115   114   116     5 
  114   116   117     5 
  114   116   118     5 
  117   116   118     5 
  116   118   119     5 
  116   118   120     5 
  116   118   131     5 
  119   118   120     5 
  119   118   131     5 
  120   118   131     5 
  118   120   121     5 
  118   120   122     5 
  118   120   124     5 
  121   120   122     5 
  121   120   124     5 
  122   120   124     5 
  124   123   125     5 
  120   124   123     5 
  120   124   129     5 
  123   124   129     5 
  123   125   126     5 
  123   125   127     5 
  126   125   127     5 
  125   127   128     5 
  125   127   129     5 
  128   127   129     5 
  124   129   127     5 
  124   129   130     5 
  127   129   130     5 
  118   131   132     5 
  118   131   133     5 
  132   131   133     5 
  131   133   134     5 
  131   133   135     5 
  134   133   135     5 
  133   135   136     5 
  133   135   137     5 
  133   135   138     5 
  136   135   137     5 
  136   135   138     5 
  137   135   138     5 
  135   138   139     5 
  135   138   140     5 
  139   138   140     5 
  138   140   141     5 
  138   140   142     5 
  141   140   142     5 
  140   142   143     5 
  140   142   144     5 
  140   142   159     5 
  143   142   144     5 
  143   142   159     5 
  144   142   159     5 
  142   144   145     5 
  142   144   146     5 
  142   144   147     5 
  145   144   146     5 
  145   144   147     5 
  146   144   147     5 
  144   147   148     5 
  144   147   155     5 
  148   147   155     5 
  147   148   149     5 
  147   148   150     5 
  149   148   150     5 
  148   150   151     5 
  148   150   152     5 
  151   150   152     5 
  150   152   153     5 
  150   152   157     5 
  153   152   157     5 
  152   153   154     5 
  147   155   156     5 
  147   155   157     5 
  156   155   157     5 
  152   157   155     5 
  152   157   158     5 
  155   157   158     5 
  142   159   160     5 
  142   159   161     5 
  160   159   161     5 
  159   161   162     5 
  159   161   163     5 
  162   161   163     5 
  161   163   164     5 
  161   163   165     5 
  161   163   181     5 
  164   163   165     5 
  164   163   181     5 
  165   163   181     5 
  163   165   166     5 
  163   165   167     5 
  163   165   168     5 
  166   165   167     5 
  166   165   168     5 
  167   165   168     5 
  165   168   169     5 
  165   168   170     5 
  165   168   171     5 
  169   168   170     5 
  169   168   171     5 
  170   168   171     5 
  168   171   172     5 
  168   171   173     5 
  168   171   174     5 
  172   171   173     5 
  172   171   174     5 
  173   171   174     5 
  171   174   175     5 
  171   174   176     5 
  171   174   177     5 
  175   174   176     5 
  175   174   177     5 
  176   174   177     5 
  174   177   178     5 
  174   177   179     5 
  174   177   180     5 
  178   177   179     5 
  178   177   180     5 
  179   177   180     5 
  163   181   182     5 
  163   181   183     5 
  182   181   183     5 
  181   183   184     5 
  181   183   185     5 
  184   183   185     5 
  183   185   186     5 
  183   185   187     5 
  183   185   205     5 
  186   185   187     5 
  186   185   205     5 
  187   185   205     5 
  185   187   188     5 
  185   187   189     5 
  185   187   190     5 
  188   187   189     5 
  188   187   190     5 
  189   187   190     5 
  187   190   191     5 
  187   190   192     5 
  187   190   193     5 
  191   190   192     5 
  191   190   193     5 
  192   190   193     5 
  190   193   194     5 
  190   193   195     5 
  190   193   196     5 
  194   193   195     5 
  194   193   196     5 
  195   193   196     5 
  193   196   197     5 
  193   196   198     5 
  197   196   198     5 
  196   198   199     5 
  196   198   202     5 
  199   198   202     5 
  198   199   200     5 
  198   199   201     5 
  200   199   201     5 
  198   202   203     5 
  198   202   204     5 
  203   202   204     5 
  185   205   206     5 
  185   205   207     5 
  206   205   207     5 
  205   207   208     5 
  205   207   209     5 
  208   207   209     5 
  207   209   210     5 
  207   209   211     5 
  207   209   227     5 
  210   209   211     5 
  210   209   227     5 
  211   209   227     5 
  209   211   212     5 
  209   211   213     5 
  209   211   214     5 
  212   211   213     5 
  212   211   214     5 
  213   211   214     5 
  211   214   215     5 
  211   214   216     5 
  211   214   217     5 
  215   214   216     5 
  215   214   217     5 
  216   214   217     5 
  214   217   218     5 
  214   217   219     5 
  214   217   220     5 
  218   217   219     5 
  218   217   220     5 
  219   217   220     5 
  217   220   221     5 
  217   220   222     5 
  217   220   223     5 
  221   220   222     5 
  221   220   223     5 
  222   220   223     5 
  220   223   224     5 
  220   223   225     5 
  220   223   226     5 
  224   223   225     5 
  224   223   226     5 
  225   223   226     5 
  209   227   228     5 
  209   227   229     5 
  228   227   229     5 
  227   229   230     5 
  227   229   231     5 
  230   229   231     5 
  229   231   232     5 
  229   231   233     5 
  229   231   247     5 
  232   231   233     5 
  232   231   247     5 
  233   231   247     5 
  231   233   234     5 
  231   233   235     5 
  231   233   236     5 
  234   233   235     5 
  234   233   236     5 
  235   233   236     5 
  233   236   237     5 
  233   236   243     5 
  237   236   243     5 
  236   237   238     5 
  236   237   239     5 
  238   237   239     5 
  237   239   240     5 
  237   239   241     5 
  240   239   241     5 
  239   241   242     5 
  239   241   245     5 
  242   241   245     5 
  236   243   244     5 
  236   243   245     5 
  244   243   245     5 
  241   245   243     5 
  241   245   246     5 
  243   245   246     5 
  231   247   248     5 
  231   247   249     5 
  248   247   249     5 
  247   249   250     5 
  247   249   251     5 
  250   249   251     5 
  249   251   252     5 
  249   251   253     5 
  249   251   264     5 
  252   251   253     5 
  252   251   264     5 
  253   251   264     5 
  251   253   254     5 
  251   253   255     5 
  251   253   257     5 
  254   253   255     5 
  254   253   257     5 
  255   253   257     5 
  257   256   258     5 
  253   257   256     5 
  253   257   262     5 
  256   257   262     5 
  256   258   259     5 
  256   258   260     5 
  259   258   260     5 
  258   260   261     5 
  258   260   262     5 
  261   260   262     5 
  257   262   260     5 
  257   262   263     5 
  260   262   263     5 
  251   264   265     5 
  251   264   266     5 
  265   264   266     5 
  264   266   267     5 
  264   266   268     5 
  267   266   268     5 
  266   268   269     5 
  266   268   270     5 
  266   268   279     5 
  269   268   270     5 
  269   268   279     5 
  270   268   279     5 
  268   270   271     5 
  268   270   272     5 
  268   270   273     5 
  271   270   272     5 
  271   270   273     5 
  272   270   273     5 
  270   273   274     5 
  270   273   275     5 
  270   273   276     5 
  274   273   275     5 
  274   273   276     5 
  275   273   276     5 
  273   276   277     5 
  273   276   278     5 
  277   276   278     5 
  268   279   280     5 
  268   279   281     5 
  280   279   281     5 
  279   281   282     5 
  279   281   283     5 
  282   281   283     5 
  281   283   284     5 
  281   283   285     5 
  281   283   301     5 
  284   283   285     5 
  284   283   301     5 
  285   283   301     5 
  283   285   286     5 
  283   285   287     5 
  283   285   288     5 
  286   285   287     5 
  286   285   288     5 
  287   285   288     5 
  285   288   289     5 
  285   288   290     5 
  285   288   291     5 
  289   288   290     5 
  289   288   291     5 
  290   288   291     5 
  288   291   292     5 
  288   291   293     5 
  288   291   294     5 
  292   291   293     5 
  292   291   294     5 
  293   291   294     5 
  291   294   295     5 
  291   294   296     5 
  291   294   297     5 
  295   294   296     5 
  295   294   297     5 
  296   294   297     5 
  294   297   298     5 
  294   297   299     5 
  294   297   300     5 
  298   297   299     5 
  298   297   300     5 
  299   297   300     5 
  283   301   302     5 
  283   301   303     5 
  302   301   303     5 
  301   303   304     5 
  301   303   305     5 
  304   303   305     5 
  303   305   306     5 
  303   305   307     5 
  303   305   318     5 
  306   305   307     5 
  306   305   318     5 
  307   305   318     5 
  305   307   308     5 
  305   307   309     5 
  305   307   311     5 
  308   307   309     5 
  308   307   311     5 
  309   307   311     5 
  311   310   312     5 
  307   311   310     5 
  307   311   316     5 
  310   311   316     5 
  310   312   313     5 
  310   312   314     5 
  313   312   314     5 
  312   314   315     5 
  312   314   316     5 
  315   314   316     5 
  311   316   314     5 
  311   316   317     5 
  314   316   317     5 
  305   318   319     5 
  305   318   320     5 
  319   318   320     5 
  318   320   321     5 
  318   320   322     5 
  321   320   322     5 
  320   322   323     5 
  320   322   324     5 
  320   322   335     5 
  323   322   324     5 
  323   322   335     5 
  324   322   335     5 
  322   324   325     5 
  322   324   326     5 
  322   324   328     5 
  325   324   326     5 
  325   324   328     5 
  326   324   328     5 
  328   327   329     5 
  324   328   327     5 
  324   328   333     5 
  327   328   333     5 
  327   329   330     5 
  327   329   331     5 
  330   329   331     5 
  329   331   332     5 
  329   331   333     5 
  332   331   333     5 
  328   333   331     5 
  328   333   334     5 
  331   333   334     5 
  322   335   336     5 
  322   335   337     5 
  336   335   337     5 
  335   337   338     5 
  335   337   339     5 
  338   337   339     5 
  337   339   340     5 
  337   339   341     5 
  337   339   346     5 
  340   339   341     5 
  340   339   346     5 
  341   339   346     5 
  339   341   342     5 
  339   341   343     5 
  339   341   344     5 
  342   341   343     5 
  342   341   344     5 
  343   341   344     5 
  341   344   345     5 
  339   346   347     5 
  339   346   348     5 
  347   346   348     5 
  346   348   349     5 
  346   348   350     5 
  349   348   350     5 
  348   350   351     5 
  348   350   352     5 
  348   350   363     5 
  351   350   352     5 
  351   350   363     5 
  352   350   363     5 
  350   352   353     5 
  350   352   354     5 
  350   352   356     5 
  353   352   354     5 
  353   352   356     5 
  354   352   356     5 
  356   355   357     5 
  352   356   355     5 
  352   356   361     5 
  355   356   361     5 
  355   357   358     5 
  355   357   359     5 
  358   357   359     5 
  357   359   360     5 
  357   359   361     5 
  360   359   361     5 
  356   361   359     5 
  356   361   362     5 
  359   361   362     5 
  350   363   364     5 
  350   363   365     5 
  364   363   365     5 
  363   365   366     5 
  363   365   367     5 
  366   365   367     5 
  365   367   368     5 
  365   367   369     5 
  365   367   387     5 
  368   367   369     5 
  368   367   387     5 
  369   367   387     5 
  367   369   370     5 
  367   369   371     5 
  367   369   372     5 
  370   369   371     5 
  370   369   372     5 
  371   369   372     5 
  369   372   373     5 
  369   372   374     5 
  369   372   375     5 
  373   372   374     5 
  373   372   375     5 
  374   372   375     5 
  372   375   376     5 
  372   375   377     5 
  372   375   378     5 
  376   375   377     5 
  376   375   378     5 
  377   375   378     5 
  375   378   379     5 
  375   378   380     5 
  379   378   380     5 
  378   380   381     5 
  378   380   384     5 
  381   380   384     5 
  380   381   382     5 
  380   381   383     5 
  382   381   383     5 
  380   384   385     5 
  380   384   386     5 
  385   384   386     5 
  367   387   388     5 
  367   387   389     5 
  388   387   389     5 
  387   389   390     5 
  387   389   391     5 
  390   389   391     5 
  389   391   392     5 
  389   391   393     5 
  389   391   394     5 
  392   391   393     5 
  392   391   394     5 
  393   391   394     5 
  391   394   395     5 
  391   394   396     5 
  395   394   396     5 
  394   396   397     5 
  394   396   398     5 
  397   396   398     5 
  396   398   399     5 
  396   398   400     5 
  396   398   415     5 
  399   398   400     5 
  399   398   415     5 
  400   398   415     5 
  398   400   401     5 
  398   400   402     5 
  398   400   403     5 
  401   400   402     5 
  401   400   403     5 
  402   400   403     5 
  400   403   404     5 
  400   403   411     5 
  404   403   411     5 
  403   404   405     5 
  403   404   406     5 
  405   404   406     5 
  404   406   407     5 
  404   406   408     5 
  407   406   408     5 
  406   408   409     5 
  406   408   413     5 
  409   408   413     5 
  408   409   410     5 
  403   411   412     5 
  403   411   413     5 
  412   411   413     5 
  408   413   411     5 
  408   413   414     5 
  411   413   414     5 
  398   415   416     5 
  398   415   417     5 
  416   415   417     5 

[ dihedrals ]
;  ai    aj    ak    al funct            c0            c1            c2            c3            c4            c5
    2     1     5     6     9 
    2     1     5     7     9 
    2     1     5    13     9 
    3     1     5     6     9 
    3     1     5     7     9 
    3     1     5    13     9 
    4     1     5     6     9 
    4     1     5     7     9 
    4     1     5    13     9 
    1     5     7     8     9 
    1     5     7     9     9 
    1     5     7    10     9 
    6     5     7     8     9 
    6     5     7     9     9 
    6     5     7    10     9 
   13     5     7     8     9 
   13     5     7     9     9 
   13     5     7    10     9 
    1     5    13    14     9 
    1     5    13    15     9 
    6     5    13    14     9 
    6     5    13    15     9 
    7     5    13    14     9 
    7     5    13    15     9 
    5     7    10    11     9 
    5     7    10    12     9 
    8     7    10    11     9 
    8     7    10    12     9 
    9     7    10    11     9 
    9     7    10    12     9 
    5    13    15    16     9 
    5    13    15    17     9 
   14    13    15    16     9 
   14    13    15    17     9 
   13    15    17    18     9 
   13    15    17    19     9 
   13    15    17    24     9 
   16    15    17    18     9 
   16    15    17    19     9 
   16    15    17    24     9 
   15    17    19    20     9 
   15    17    19    21     9 
   15    17    19    22     9 
   18    17    19    20     9 
   18    17    19    21     9 
   18    17    19    22     9 
   24    17    19    20     9 
   24    17    19    21     9 
   24    17    19    22     9 
   15    17    24    25     9 
   15    17    24    26     9 
   18    17    24    25     9 
   18    17    24    26     9 
   19    17    24    25     9 
   19    17    24    26     9 
   17    19    22    23     9 
   20    19    22    23     9 
   21    19    22    23     9 
   17    24    26    27     9 
   17    24    26    28     9 
   25    24    26    27     9 
   25    24    26    28     9 
   24    26    28    29     9 
   24    26    28    30     9 
   24    26    28    41     9 
   27    26    28    29     9 
   27    26    28    30     9 
   27    26    28    41     9 
   26    28    30    31     9 
   26    28    30    32     9 
   26    28    30    34     9 
   29    28    30    31     9 
   29    28    30    32     9 
   29    28    30    34     9 
   41    28    30    31     9 
   41    28    30    32     9 
   41    28    30    34     9 
   26    28    41    42     9 
   26    28    41    43     9 
   29    28    41    42     9 
   29    28    41    43     9 
   30    28    41    42     9 
   30    28    41    43     9 
   28    30    34    33     9 
   28    30    34    39     9 
   31    30    34    33     9 
   31    30    34    39     9 
   32    30    34    33     9 
   32    30    34    39     9 
   35    33    34    30     9 
   35    33    34    39     9 
   34    33    35    36     9 
   34    33    35    37     9 
   30    34    39    37     9 
   30    34    39    40     9 
   33    34    39    37     9 
   33    34    39    40     9 
   33    35    37    38     9 
   33    35    37    39     9 
   36    35    37    38     9 
   36    35    37    39     9 
   35    37    39    34     9 
   35    37    39    40     9 
   38    37    39    34     9 
   38    37    39    40     9 
   28    41    43    44     9 
   28    41    43    45     9 
   42    41    43    44     9 
   42    41    43    45     9 
   41    43    45    46     9 
   41    43    45    47     9 
   41    43    45    51     9 
   44    43    45    46     9 
   44    43    45    47     9 
   44    43    45    51     9 
   43    45    47    48     9 
   43    45    47    49     9 
   43    45    47    50     9 
   46    45    47    48     9 
   46    45    47    49     9 
   46    45    47    50     9 
   51    45    47    48     9 
   51    45    47    49     9 
   51    45    47    50     9 
   43    45    51    52     9 
   43    45    51    53     9 
   46    45    51    52     9 
   46    45    51    53     9 
   47    45    51    52     9 
   47    45    51    53     9 
   45    51    53    54     9 
   45    51    53    55     9 
   52    51    53    54     9 
   52    51    53    55     9 
   51    53    55    56     9 
   51    53    55    57     9 
   51    53    55    73     9 
   54    53    55    56     9 
   54    53    55    57     9 
   54    53    55    73     9 
   53    55    57    58     9 
   53    55    57    59     9 
   53    55    57    60     9 
   56    55    57    58     9 
   56    55    57    59     9 
   56    55    57    60     9 
   73    55    57    58     9 
   73    55    57    59     9 
   73    55    57    60     9 
   53    55    73    74     9 
   53    55    73    75     9 
   56    55    73    74     9 
   56    55    73    75     9 
   57    55    73    74     9 
   57    55    73    75     9 
   55    57    60    61     9 
   55    57    60    62     9 
   55    57    60    63     9 
   58    57    60    61     9 
   58    57    60    62     9 
   58    57    60    63     9 
   59    57    60    61     9 
   59    57    60    62     9 
   59    57    60    63     9 
   57    60    63    64     9 
   57    60    63    65     9 
   57    60    63    66     9 
   61    60    63    64     9 
   61    60    63    65     9 
   61    60    63    66     9 
   62    60    63    64     9 
   62    60    63    65     9 
   62    60    63    66     9 
   60    63    66    67     9 
   60    63    66    68     9 
   60    63    66    69     9 
   64    63    66    67     9 
   64    63    66    68     9 
   64    63    66    69     9 
   65    63    66    67     9 
   65    63    66    68     9 
   65    63    66    69     9 
   63    66    69    70     9 
   63    66    69    71     9 
   63    66    69    72     9 
   67    66    69    70     9 
   67    66    69    71     9 
   67    66    69    72     9 
   68    66    69    70     9 
   68    66    69    71     9 
   68    66    69    72     9 
   55    73    75    76     9 
   55    73    75    77     9 
   74    73    75    76     9 
   74    73    75    77     9 
   73    75    77    78     9 
   73    75    77    79     9 
   73    75    77    97     9 
   76    75    77    78     9 
   76    75    77    79     9 
   76    75    77    97     9 
   75    77    79    80     9 
   75    77    79    81     9 
   75    77    79    82     9 
   78    77    79    80     9 
   78    77    79    81     9 
   78    77    79    82     9 
   97    77    79    80     9 
   97    77    79    81     9 
   97    77    79    82     9 
   75    77    97    98     9 
   75    77    97    99     9 
   78    77    97    98     9 
   78    77    97    99     9 
   79    77    97    98     9 
   79    77    97    99     9 
   77    79    82    83     9 
   77    79    82    84     9 
   77    79    82    85     9 
   80    79    82    83     9 
   80    79    82    84     9 
   80    79    82    85     9 
   81    79    82    83     9 
   81    79    82    84     9 
   81    79    82    85     9 
   79    82    85    86     9 
   79    82    85    87     9 
   79    82    85    88     9 
   83    82    85    86     9 
   83    82    85    87     9 
   83    82    85    88     9 
   84    82    85    86     9 
   84    82    85    87     9 
   84    82    85    88     9 
   82    85    88    89     9 
   82    85    88    90     9 
   86    85    88    89     9 
   86    85    88    90     9 
   87    85    88    89     9 
   87    85    88    90     9 
   85    88    90    91     9 
   85    88    90    94     9 
   89    88    90    91     9 
   89    88    90    94     9 
   88    90    91    92     9 
   88    90    91    93     9 
   94    90    91    92     9 
   94    90    91    93     9 
   88    90    94    95     9 
   88    90    94    96     9 
   91    90    94    95     9 
   91    90    94    96     9 
   77    97    99   100     9 
   77    97    99   101     9 
   98    97    99   100     9 
   98    97    99   101     9 
   97    99   101   102     9 
   97    99   101   103     9 
   97    99   101   114     9 
  100    99   101   102     9 
  100    99   101   103     9 
  100    99   101   114     9 
   99   101   103   104     9 
   99   101   103   105     9 
   99   101   103   107     9 
  102   101   103   104     9 
  102   101   103   105     9 
  102   101   103   107     9 
  114   101   103   104     9 
  114   101   103   105     9 
  114   101   103   107     9 
   99   101   114   115     9 
   99   101   114   116     9 
  102   101   114   115     9 
  102   101   114   116     9 
  103   101   114   115     9 
  103   101   114   116     9 
  101   103   107   106     9 
  101   103   107   112     9 
  104   103   107   106     9 
  104   103   107   112     9 
  105   103   107   106     9 
  105   103   107   112     9 
  108   106   107   103     9 
  108   106   107   112     9 
  107   106   108   109     9 
  107   106   108   110     9 
  103   107   112   110     9 
  103   107   112   113     9 
  106   107   112   110     9 
  106   107   112   113     9 
  106   108   110   111     9 
  106   108   110   112     9 
  109   108   110   111     9 
  109   108   110   112     9 
  108   110   112   107     9 
  108   110   112   113     9 
  111   110   112   107     9 
  111   110   112   113     9 
  101   114   116   117     9 
  101   114   116   118     9 
  115   114   116   117     9 
  115   114   116   118     9 
  114   116   118   119     9 
  114   116   118   120     9 
  114   116   118   131     9 
  117   116   118   119     9 
  117   116   118   120     9 
  117   116   118   131     9 
  116   118   120   121     9 
  116   118   120   122     9 
  116   118   120   124     9 
  119   118   120   121     9 
  119   118   120   122     9 
  119   118   120   124     9 
  131   118   120   121     9 
  131   118   120   122     9 
  131   118   120   124     9 
  116   118   131   132     9 
  116   118   131   133     9 
  119   118   131   132     9 
  119   118   131   133     9 
  120   118   131   132     9 
  120   118   131   133     9 
  118   120   124   123     9 
  118   120   124   129     9 
  121   120   124   123     9 
  121   120   124   129     9 
  122   120   124   123     9 
  122   120   124   129     9 
  125   123   124   120     9 
  125   123   124   129     9 
  124   123   125   126     9 
  124   123   125   127     9 
  120   124   129   127     9 
  120   124   129   130     9 
  123   124   129   127     9 
  123   124   129   130     9 
  123   125   127   128     9 
  123   125   127   129     9 
  126   125   127   128     9 
  126   125   127   129     9 
  125   127   129   124     9 
  125   127   129   130     9 
  128   127   129   124     9 
  128   127   129   130     9 
  118   131   133   134     9 
  118   131   133   135     9 
  132   131   133   134     9 
  132   131   133   135     9 
  131   133   135   136     9 
  131   133   135   137     9 
  131   133   135   138     9 
  134   133   135   136     9 
  134   133   135   137     9 
  134   133   135   138     9 
  133   135   138   139     9 
  133   135   138   140     9 
  136   135   138   139     9 
  136   135   138   140     9 
  137   135   138   139     9 
  137   135   138   140     9 
  135   138   140   141     9 
  135   138   140   142     9 
  139   138   140   141     9 
  139   138   140   142     9 
  138   140   142   143     9 
  138   140   142   144     9 
  138   140   142   159     9 
  141   140   142   143     9 
  141   140   142   144     9 
  141   140   142   159     9 
  140   142   144   145     9 
  140   142   144   146     9 
  140   142   144   147     9 
  143   142   144   145     9 
  143   142   144   146     9 
  143   142   144   147     9 
  159   142   144   145     9 
  159   142   144   146     9 
  159   142   144   147     9 
  140   142   159   160     9 
  140   142   159   161     9 
  143   142   159   160     9 
  143   142   159   161     9 
  144   142   159   160     9 
  144   142   159   161     9 
  142   144   147   148     9 
  142   144   147   155     9 
  145   144   147   148     9 
  145   144   147   155     9 
  146   144   147   148     9 
  146   144   147   155     9 
  144   147   148   149     9 
  144   147   148   150     9 
  155   147   148   149     9 
  155   147   148   150     9 
  144   147   155   156     9 
  144   147   155   157     9 
  148   147   155   156     9 
  148   147   155   157     9 
  147   148   150   151     9 
  147   148   150   152     9 
  149   148   150   151     9 
  149   148   150   152     9 
  148   150   152   153     9 
  148   150   152   157     9 
  151   150   152   153     9 
  151   150   152   157     9 
  150   152   153   154     9 
  157   152   153   154     9 
  150   152   157   155     9 
  150   152   157   158     9 
  153   152   157   155     9 
  153   152   157   158     9 
  147   155   157   152     9 
  147   155   157   158     9 
  156   155   157   152     9 
  156   155   157   158     9 
  142   159   161   162     9 
  142   159   161   163     9 
  160   159   161   162     9 
  160   159   161   163     9 
  159   161   163   164     9 
  159   161   163   165     9 
  159   161   163   181     9 
  162   161   163   164     9 
  162   161   163   165     9 
  162   161   163   181     9 
  161   163   165   166     9 
  161   163   165   167     9 
  161   163   165   168     9 
  164   163   165   166     9 
  164   163   165   167     9 
  164   163   165   168     9 
  181   163   165   166     9 
  181   163   165   167     9 
  181   163   165   168     9 
  161   163   181   182     9 
  161   163   181   183     9 
  164   163   181   182     9 
  164   163   181   183     9 
  165   163   181   182     9 
  165   163   181   183     9 
  163   165   168   169     9 
  163   165   168   170     9 
  163   165   168   171     9 
  166   165   168   169     9 
  166   165   168   170     9 
  166   165   168   171     9 
  167   165   168   169     9 
  167   165   168   170     9 
  167   165   168   171     9 
  165   168   171   172     9 
  165   168   171   173     9 
  165   168   171   174     9 
  169   168   171   172     9 
  169   168   171   173     9 
  169   168   171   174     9 
  170   168   171   172     9 
  170   168   171   173     9 
  170   168   171   174     9 
  168   171   174   175     9 
  168   171   174   176     9 
  168   171   174   177     9 
  172   171   174   175     9 
  172   171   174   176     9 
  172   171   174   177     9 
  173   171   174   175     9 
  173   171   174   176     9 
  173   171   174   177     9 
  171   174   177   178     9 
  171   174   177   179     9 
  171   174   177   180     9 
  175   174   177   178     9 
  175   174   177   179     9 
  175   174   177   180     9 
  176   174   177   178     9 
  176   174   177   179     9 
  176   174   177   180     9 
  163   181   183   184     9 
  163   181   183   185     9 
  182   181   183   184     9 
  182   181   183   185     9 
  181   183   185   186     9 
  181   183   185   187     9 
  181   183   185   205     9 
  184   183   185   186     9 
  184   183   185   187     9 
  184   183   185   205     9 
  183   185   187   188     9 
  183   185   187   189     9 
  183   185   187   190     9 
  186   185   187   188     9 
  186   185   187   189     9 
  186   185   187   190     9 
  205   185   187   188     9 
  205   185   187   189     9 
  205   185   187   190     9 
  183   185   205   206     9 
  183   185   205   207     9 
  186   185   205   206     9 
  186   185   205   207     9 
  187   185   205   206     9 
  187   185   205   207     9 
  185   187   190   191     9 
  185   187   190   192     9 
  185   187   190   193     9 
  188   187   190   191     9 
  188   187   190   192     9 
  188   187   190   193     9 
  189   187   190   191     9 
  189   187   190   192     9 
  189   187   190   193     9 
  187   190   193   194     9 
  187   190   193   195     9 
  187   190   193   196     9 
  191   190   193   194     9 
  191   190   193   195     9 
  191   190   193   196     9 
  192   190   193   194     9 
  192   190   193   195     9 
  192   190   193   196     9 
  190   193   196   197     9 
  190   193   196   198     9 
  194   193   196   197     9 
  194   193   196   198     9 
  195   193   196   197     9 
  195   193   196   198     9 
  193   196   198   199     9 
  193   196   198   202     9 
  197   196   198   199     9 
  197   196   198   202     9 
  196   198   199   200     9 
  196   198   199   201     9 
  202   198   199   200     9 
  202   198   199   201     9 
  196   198   202   203     9 
  196   198   202   204     9 
  199   198   202   203     9 
  199   198   202   204     9 
  185   205   207   208     9 
  185   205   207   209     9 
  206   205   207   208     9 
  206   205   207   209     9 
  205   207   209   210     9 
  205   207   209   211     9 
  205   207   209   227     9 
  208   207   209   210     9 
  208   207   209   211     9 
  208   207   209   227     9 
  207   209   211   212     9 
  207   209   211   213     9 
  207   209   211   214     9 
  210   209   211   212     9 
  210   209   211   213     9 
  210   209   211   214     9 
  227   209   211   212     9 
  227   209   211   213     9 
  227   209   211   214     9 
  207   209   227   228     9 
  207   209   227   229     9 
  210   209   227   228     9 
  210   209   227   229     9 
  211   209   227   228     9 
  211   209   227   229     9 
  209   211   214   215     9 
  209   211   214   216     9 
  209   211   214   217     9 
  212   211   214   215     9 
  212   211   214   216     9 
  212   211   214   217     9 
  213   211   214   215     9 
  213   211   214   216     9 
  213   211   214   217     9 
  211   214   217   218     9 
  211   214   217   219     9 
  211   214   217   220     9 
  215   214   217   218     9 
  215   214   217   219     9 
  215   214   217   220     9 
  216   214   217   218     9 
  216   214   217   219     9 
  216   214   217   220     9 
  214   217   220   221     9 
  214   217   220   222     9 
  214   217   220   223     9 
  218   217   220   221     9 
  218   217   220   222     9 
  218   217   220   223     9 
  219   217   220   221     9 
  219   217   220   222     9 
  219   217   220   223     9 
  217   220   223   224     9 
  217   220   223   225     9 
  217   220   223   226     9 
  221   220   223   224     9 
  221   220   223   225     9 
  221   220   223   226     9 
  222   220   223   224     9 
  222   220   223   225     9 
  222   220   223   226     9 
  209   227   229   230     9 
  209   227   229   231     9 
  228   227   229   230     9 
  228   227   229   231     9 
  227   229   231   232     9 
  227   229   231   233     9 
  227   229   231   247     9 
  230   229   231   232     9 
  230   229   231   233     9 
  230   229   231   247     9 
  229   231   233   234     9 
  229   231   233   235     9 
  229   231   233   236     9 
  232   231   233   234     9 
  232   231   233   235     9 
  232   231   233   236     9 
  247   231   233   234     9 
  247   231   233   235     9 
  247   231   233   236     9 
  229   231   247   248     9 
  229   231   247   249     9 
  232   231   247   248     9 
  232   231   247   249     9 
  233   231   247   248     9 
  233   231   247   249     9 
  231   233   236   237     9 
  231   233   236   243     9 
  234   233   236   237     9 
  234   233   236   243     9 
  235   233   236   237     9 
  235   233   236   243     9 
  233   236   237   238     9 
  233   236   237   239     9 
  243   236   237   238     9 
  243   236   237   239     9 
  233   236   243   244     9 
  233   236   243   245     9 
  237   236   243   244     9 
  237   236   243   245     9 
  236   237   239   240     9 
  236   237   239   241     9 
  238   237   239   240     9 
  238   237   239   241     9 
  237   239   241   242     9 
  237   239   241   245     9 
  240   239   241   242     9 
  240   239   241   245     9 
  239   241   245   243     9 
  239   241   245   246     9 
  242   241   245   243     9 
  242   241   245   246     9 
  236   243   245   241     9 
  236   243   245   246     9 
  244   243   245   241     9 
  244   243   245   246     9 
  231   247   249   250     9 
  231   247   249   251     9 
  248   247   249   250     9 
  248   247   249   251     9 
  247   249   251   252     9 
  247   249   251   253     9 
  247   249   251   264     9 
  250   249   251   252     9 
  250   249   251   253     9 
  250   249   251   264     9 
  249   251   253   254     9 
  249   251   253   255     9 
  249   251   253   257     9 
  252   251   253   254     9 
  252   251   253   255     9 
  252   251   253   257     9 
  264   251   253   254     9 
  264   251   253   255     9 
  264   251   253   257     9 
  249   251   264   265     9 
  249   251   264   266     9 
  252   251   264   265     9 
  252   251   264   266     9 
  253   251   264   265     9 
  253   251   264   266     9 
  251   253   257   256     9 
  251   253   257   262     9 
  254   253   257   256     9 
  254   253   257   262     9 
  255   253   257   256     9 
  255   253   257   262     9 
  258   256   257   253     9 
  258   256   257   262     9 
  257   256   258   259     9 
  257   256   258   260     9 
  253   257   262   260     9 
  253   257   262   263     9 
  256   257   262   260     9 
  256   257   262   263     9 
  256   258   260   261     9 
  256   258   260   262     9 
  259   258   260   261     9 
  259   258   260   262     9 
  258   260   262   257     9 
  258   260   262   263     9 
  261   260   262   257     9 
  261   260   262   263     9 
  251   264   266   267     9 
  251   264   266   268     9 
  265   264   266   267     9 
  265   264   266   268     9 
  264   266   268   269     9 
  264   266   268   270     9 
  264   266   268   279     9 
  267   266   268   269     9 
  267   266   268   270     9 
  267   266   268   279     9 
  266   268   270   271     9 
  266   268   270   272     9 
  266   268   270   273     9 
  269   268   270   271     9 
  269   268   270   272     9 
  269   268   270   273     9 
  279   268   270   271     9 
  279   268   270   272     9 
  279   268   270   273     9 
  266   268   279   280     9 
  266   268   279   281     9 
  269   268   279   280     9 
  269   268   279   281     9 
  270   268   279   280     9 
  270   268   279   281     9 
  268   270   273   274     9 
  268   270   273   275     9 
  268   270   273   276     9 
  271   270   273   274     9 
  271   270   273   275     9 
  271   270   273   276     9 
  272   270   273   274     9 
  272   270   273   275     9 
  272   270   273   276     9 
  270   273   276   277     9 
  270   273   276   278     9 
  274   273   276   277     9 
  274   273   276   278     9 
  275   273   276   277     9 
  275   273   276   278     9 
  268   279   281   282     9 
  268   279   281   283     9 
  280   279   281   282     9 
  280   279   281   283     9 
  279   281   283   284     9 
  279   281   283   285     9 
  279   281   283   301     9 
  282   281   283   284     9 
  282   281   283   285     9 
  282   281   283   301     9 
  281   283   285   286     9 
  281   283   285   287     9 
  281   283   285   288     9 
  284   283   285   286     9 
  284   283   285   287     9 
  284   283   285   288     9 
  301   283   285   286     9 
  301   283   285   287     9 
  301   283   285   288     9 
  281   283   301   302     9 
  281   283   301   303     9 
  284   283   301   302     9 
  284   283   301   303     9 
  285   283   301   302     9 
  285   283   301   303     9 
  283   285   288   289     9 
  283   285   288   290     9 
  283   285   288   291     9 
  286   285   288   289     9 
  286   285   288   290     9 
  286   285   288   291     9 
  287   285   288   289     9 
  287   285   288   290     9 
  287   285   288   291     9 
  285   288   291   292     9 
  285   288   291   293     9 
  285   288   291   294     9 
  289   288   291   292     9 
  289   288   291   293     9 
  289   288   291   294     9 
  290   288   291   292     9 
  290   288   291   293     9 
  290   288   291   294     9 
  288   291   294   295     9 
  288   291   294   296     9 
  288   291   294   297     9 
  292   291   294   295     9 
  292   291   294   296     9 
  292   291   294   297     9 
  293   291   294   295     9 
  293   291   294   296     9 
  293   291   294   297     9 
  291   294   297   298     9 
  291   294   297   299     9 
  291   294   297   300     9 
  295   294   297   298     9 
  295   294   297   299     9 
  295   294   297   300     9 
  296   294   297   298     9 
  296   294   297   299     9 
  296   294   297   300     9 
  283   301   303   304     9 
  283   301   303   305     9 
  302   301   303   304     9 
  302   301   303   305     9 
  301   303   305   306     9 
  301   303   305   307     9 
  301   303   305   318     9 
  304   303   305   306     9 
  304   303   305   307     9 
  304   303   305   318     9 
  303   305   307   308     9 
  303   305   307   309     9 
  303   305   307   311     9 
  306   305   307   308     9 
  306   305   307   309     9 
  306   305   307   311     9 
  318   305   307   308     9 
  318   305   307   309     9 
  318   305   307   311     9 
  303   305   318   319     9 
  303   305   318   320     9 
  306   305   318   319     9 
  306   305   318   320     9 
  307   305   318   319     9 
  307   305   318   320     9 
  305   307   311   310     9 
  305   307   311   316     9 
  308   307   311   310     9 
  308   307   311   316     9 
  309   307   311   310     9 
  309   307   311   316     9 
  312   310   311   307     9 
  312   310   311   316     9 
  311   310   312   313     9 
  311   310   312   314     9 
  307   311   316   314     9 
  307   311   316   317     9 
  310   311   316   314     9 
  310   311   316   317     9 
  310   312   314   315     9 
  310   312   314   316     9 
  313   312   314   315     9 
  313   312   314   316     9 
  312   314   316   311     9 
  312   314   316   317     9 
  315   314   316   311     9 
  315   314   316   317     9 
  305   318   320   321     9 
  305   318   320   322     9 
  319   318   320   321     9 
  319   318   320   322     9 
  318   320   322   323     9 
  318   320   322   324     9 
  318   320   322   335     9 
  321   320   322   323     9 
  321   320   322   324     9 
  321   320   322   335     9 
  320   322   324   325     9 
  320   322   324   326     9 
  320   322   324   328     9 
  323   322   324   325     9 
  323   322   324   326     9 
  323   322   324   328     9 
  335   322   324   325     9 
  335   322   324   326     9 
  335   322   324   328     9 
  320   322   335   336     9 
  320   322   335   337     9 
  323   322   335   336     9 
  323   322   335   337     9 
  324   322   335   336     9 
  324   322   335   337     9 
  322   324   328   327     9 
  322   324   328   333     9 
  325   324   328   327     9 
  325   324   328   333     9 
  326   324   328   327     9 
  326   324   328   333     9 
  329   327   328   324     9 
  329   327   328   333     9 
  328   327   329   330     9 
  328   327   329   331     9 
  324   328   333   331     9 
  324   328   333   334     9 
  327   328   333   331     9 
  327   328   333   334     9 
  327   329   331   332     9 
  327   329   331   333     9 
  330   329   331   332     9 
  330   329   331   333     9 
  329   331   333   328     9 
  329   331   333   334     9 
  332   331   333   328     9 
  332   331   333   334     9 
  322   335   337   338     9 
  322   335   337   339     9 
  336   335   337   338     9 
  336   335   337   339     9 
  335   337   339   340     9 
  335   337   339   341     9 
  335   337   339   346     9 
  338   337   339   340     9 
  338   337   339   341     9 
  338   337   339   346     9 
  337   339   341   342     9 
  337   339   341   343     9 
  337   339   341   344     9 
  340   339   341   342     9 
  340   339   341   343     9 
  340   339   341   344     9 
  346   339   341   342     9 
  346   339   341   343     9 
  346   339   341   344     9 
  337   339   346   347     9 
  337   339   346   348     9 
  340   339   346   347     9 
  340   339   346   348     9 
  341   339   346   347     9 
  341   339   346   348     9 
  339   341   344   345     9 
  342   341   344   345     9 
  343   341   344   345     9 
  339   346   348   349     9 
  339   346   348   350     9 
  347   346   348   349     9 
  347   346   348   350     9 
  346   348   350   351     9 
  346   348   350   352     9 
  346   348   350   363     9 
  349   348   350   351     9 
  349   348   350   352     9 
  349   348   350   363     9 
  348   350   352   353     9 
  348   350   352   354     9 
  348   350   352   356     9 
  351   350   352   353     9 
  351   350   352   354     9 
  351   350   352   356     9 
  363   350   352   353     9 
  363   350   352   354     9 
  363   350   352   356     9 
  348   350   363   364     9 
  348   350   363   365     9 
  351   350   363   364     9 
  351   350   363   365     9 
  352   350   363   364     9 
  352   350   363   365     9 
  350   352   356   355     9 
  350   352   356   361     9 
  353   352   356   355     9 
  353   352   356   361     9 
  354   352   356   355     9 
  354   352   356   361     9 
  357   355   356   352     9 
  357   355   356   361     9 
  356   355   357   358     9 
  356   355   357   359     9 
  352   356   361   359     9 
  352   356   361   362     9 
  355   356   361   359     9 
  355   356   361   362     9 
  355   357   359   360     9 
  355   357   359   361     9 
  358   357   359   360     9 
  358   357   359   361     9 
  357   359   361   356     9 
  357   359   361   362     9 
  360   359   361   356     9 
  360   359   361   362     9 
  350   363   365   366     9 
  350   363   365   367     9 
  364   363   365   366     9 
  364   363   365   367     9 
  363   365   367   368     9 
  363   365   367   369     9 
  363   365   367   387     9 
  366   365   367   368     9 
  366   365   367   369     9 
  366   365   367   387     9 
  365   367   369   370     9 
  365   367   369   371     9 
  365   367   369   372     9 
  368   367   369   370     9 
  368   367   369   371     9 
  368   367   369   372     9 
  387   367   369   370     9 
  387   367   369   371     9 
  387   367   369   372     9 
  365   367   387   388     9 
  365   367   387   389     9 
  368   367   387   388     9 
  368   367   387   389     9 
  369   367   387   388     9 
  369   367   387   389     9 
  367   369   372   373     9 
  367   369   372   374     9 
  367   369   372   375     9 
  370   369   372   373     9 
  370   369   372   374     9 
  370   369   372   375     9 
  371   369   372   373     9 
  371   369   372   374     9 
  371   369   372   375     9 
  369   372   375   376     9 
  369   372   375   377     9 
  369   372   375   378     9 
  373   372   375   376     9 
  373   372   375   377     9 
  373   372   375   378     9 
  374   372   375   376     9 
  374   372   375   377     9 
  374   372   375   378     9 
  372   375   378   379     9 
  372   375   378   380     9 
  376   375   378   379     9 
  376   375   378   380     9 
  377   375   378   379     9 
  377   375   378   380     9 
  375   378   380   381     9 
  375   378   380   384     9 
  379   378   380   381     9 
  379   378   380   384     9 
  378   380   381   382     9 
  378   380   381   383     9 
  384   380   381   382     9 
  384   380   381   383     9 
  378   380   384   385     9 
  378   380   384   386     9 
  381   380   384   385     9 
  381   380   384   386     9 
  367   387   389   390     9 
  367   387   389   391     9 
  388   387   389   390     9 
  388   387   389   391     9 
  387   389   391   392     9 
  387   389   391   393     9 
  387   389   391   394     9 
  390   389   391   392     9 
  390   389   391   393     9 
  390   389   391   394     9 
  389   391   394   395     9 
  389   391   394   396     9 
  392   391   394   395     9 
  392   391   394   396     9 
  393   391   394   395     9 
  393   391   394   396     9 
  391   394   396   397     9 
  391   394   396   398     9 
  395   394   396   397     9 
  395   394   396   398     9 
  394   396   398   399     9 
  394   396   398   400     9 
  394   396   398   415     9 
  397   396   398   399     9 
  397   396   398   400     9 
  397   396   398   415     9 
  396   398   400   401     9 
  396   398   400   402     9 
  396   398   400   403     9 
  399   398   400   401     9 
  399   398   400   402     9 
  399   398   400   403     9 
  415   398   400   401     9 
  415   398   400   402     9 
  415   398   400   403     9 
  396   398   415   416     9 
  396   398   415   417     9 
  399   398   415   416     9 
  399   398   415   417     9 
  400   398   415   416     9 
  400   398   415   417     9 
  398   400   403   404     9 
  398   400   403   411     9 
  401   400   403   404     9 
  401   400   403   411     9 
  402   400   403   404     9 
  402   400   403   411     9 
  400   403   404   405     9 
  400   403   404   406     9 
  411   403   404   405     9 
  411   403   404   406     9 
  400   403   411   412     9 
  400   403   411   413     9 
  404   403   411   412     9 
  404   403   411   413     9 
  403   404   406   407     9 
  403   404   406   408     9 
  405   404   406   407     9 
  405   404   406   408     9 
  404   406   408   409     9 
  404   406   408   413     9 
  407   406   408   409     9 
  407   406   408   413     9 
  406   408   409   410     9 
  413   408   409   410     9 
  406   408   413   411     9 
  406   408   413   414     9 
  409   408   413   411     9 
  409   408   413   414     9 
  403   411   413   408     9 
  403   411   413   414     9 
  412   411   413   408     9 
  412   411   413   414     9 

[ dihedrals ]
;  ai    aj    ak    al funct            c0            c1            c2            c3
   10     7    12    11     2 
   13     5    15    14     2 
   15    13    17    16     2 
   24    17    26    25     2 
   26    24    28    27     2 
   35    33    37    36     2 
   35    37    33    36     2 
   37    35    39    38     2 
   37    39    35    38     2 
   39    34    37    40     2 
   39    37    34    40     2 
   41    28    43    42     2 
   43    41    45    44     2 
   51    45    53    52     2 
   53    51    55    54     2 
   73    55    75    74     2 
   75    73    77    76     2 
   88    94    91    90     2 
   90    93    92    91     2 
   90    96    95    94     2 
   97    77    99    98     2 
   99    97   101   100     2 
  108   106   110   109     2 
  108   110   106   109     2 
  110   108   112   111     2 
  110   112   108   111     2 
  112   107   110   113     2 
  112   110   107   113     2 
  114   101   116   115     2 
  116   114   118   117     2 
  125   123   127   126     2 
  125   127   123   126     2 
  127   125   129   128     2 
  127   129   125   128     2 
  129   124   127   130     2 
  129   127   124   130     2 
  131   118   133   132     2 
  133   131   135   134     2 
  138   135   140   139     2 
  140   138   142   141     2 
  159   142   161   160     2 
  161   159   163   162     2 
  181   163   183   182     2 
  183   181   185   184     2 
  196   202   199   198     2 
  198   201   200   199     2 
  198   204   203   202     2 
  205   185   207   206     2 
  207   205   209   208     2 
  227   209   229   228     2 
  229   227   231   230     2 
  247   231   249   248     2 
  249   247   251   250     2 
  258   256   260   259     2 
  258   260   256   259     2 
  260   258   262   261     2 
  260   262   258   261     2 
  262   257   260   263     2 
  262   260   257   263     2 
  264   251   266   265     2 
  266   264   268   267     2 
  276   273   278   277     2 
  279   268   281   280     2 
  281   279   283   282     2 
  301   283   303   302     2 
  303   301   305   304     2 
  312   310   314   313     2 
  312   314   310   313     2 
  314   312   316   315     2 
  314   316   312   315     2 
  316   311   314   317     2 
  316   314   311   317     2 
  318   305   320   319     2 
  320   318   322   321     2 
  329   327   331   330     2 
  329   331   327   330     2 
  331   329   333   332     2 
  331   333   329   332     2 
  333   328   331   334     2 
  333   331   328   334     2 
  335   322   337   336     2 
  337   335   339   338     2 
  346   339   348   347     2 
  348   346   350   349     2 
  357   355   359   358     2 
  357   359   355   358     2 
  359   357   361   360     2 
  359   361   357   360     2 
  361   356   359   362     2 
  361   359   356   362     2 
  363   350   365   364     2 
  365   363   367   366     2 
  378   384   381   380     2 
  380   383   382   381     2 
  380   386   385   384     2 
  387   367   389   388     2 
  389   387   391   390     2 
  394   391   396   395     2 
  396   394   398   397     2 
  415   398   417   416     2 

[ cmap ]
;  ai    aj    ak    al    am funct
   13    15    17    24    26     1 
   24    26    28    41    43     1 
   41    43    45    51    53     1 
   51    53    55    73    75     1 
   73    75    77    97    99     1 
   97    99   101   114   116     1 
  114   116   118   131   133     1 
  131   133   135   138   140     1 
  138   140   142   159   161     1 
  159   161   163   181   183     1 
  181   183   185   205   207     1 
  205   207   209   227   229     1 
  227   229   231   247   249     1 
  247   249   251   264   266     1 
  264   266   268   279   281     1 
  279   281   283   301   303     1 
  301   303   305   318   320     1 
  318   320   322   335   337     1 
  335   337   339   346   348     1 
  346   348   350   363   365     1 
  363   365   367   387   389     1 
  387   389   391   394   396     1 

; Include Position restraint file
#ifdef POSRES
#include "posre.itp"
#endif

; Include water topology
#include "./charmm36-jul2022.ff/tip3p.itp"

#ifdef POSRES_WATER
; Position restraint for each water oxygen
[ position_restraints ]
;  i funct       fcx        fcy        fcz
   1    1       1000       1000       1000
#endif

; Include topology for ions
#include "./charmm36-jul2022.ff/ions.itp"

[ system ]
; Name
Protein in water

[ molecules ]
; Compound        #mols
Protein_chain_A     1
SOL         20527
NA               58
CL               63
