GROningen Mixture of Alchemy and Childrens' Stories
32628
    1ASP      N    1   4.927   5.164   1.351
    1ASP     H1    2   4.961   5.211   1.269
    1ASP     H2    3   4.986   5.188   1.429
    1ASP     H3    4   4.929   5.065   1.336
    1ASP     CA    5   4.788   5.207   1.379
    1ASP     HA    6   4.797   5.304   1.402
    1ASP     CB    7   4.704   5.188   1.253
    1ASP    HB1    8   4.670   5.095   1.249
    1ASP    HB2    9   4.760   5.207   1.172
    1ASP     CG   10   4.586   5.285   1.257
    1ASP    OD1   11   4.611   5.397   1.305
    1ASP    OD2   12   4.475   5.241   1.222
    1ASP      C   13   4.723   5.143   1.504
    1ASP      O   14   4.633   5.199   1.563
    2SER      N   15   4.771   5.028   1.552
    2SER     HN   16   4.855   4.991   1.513
    2SER     CA   17   4.705   4.953   1.662
    2SER     HA   18   4.608   4.973   1.646
    2SER     CB   19   4.738   4.804   1.647
    2SER    HB1   20   4.673   4.748   1.697
    2SER    HB2   21   4.831   4.784   1.680
    2SER     OG   22   4.732   4.767   1.511
    2SER    HG1   23   4.754   4.670   1.501
    2SER      C   24   4.734   5.002   1.805
    2SER      O   25   4.680   4.945   1.900
    3HIS      N   26   4.816   5.106   1.824
    3HIS     HN   27   4.855   5.151   1.745
    3HIS     CA   28   4.851   5.156   1.959
    3HIS     HA   29   4.848   5.075   2.018
    3HIS     CB   30   4.994   5.212   1.958
    3HIS    HB1   31   4.991   5.306   1.922
    3HIS    HB2   32   5.051   5.156   1.899
    3HIS    ND1   33   5.065   5.111   2.184
    3HIS     CG   34   5.056   5.216   2.095
    3HIS    CE1   35   5.129   5.153   2.294
    3HIS    HE1   36   5.149   5.097   2.374
    3HIS    NE2   37   5.162   5.282   2.281
    3HIS    HE2   38   5.209   5.338   2.349
    3HIS    CD2   39   5.118   5.323   2.155
    3HIS    HD2   40   5.130   5.414   2.115
    3HIS      C   41   4.746   5.254   2.015
    3HIS      O   42   4.714   5.249   2.133
    4ALA      N   43   4.682   5.335   1.929
    4ALA     HN   44   4.708   5.330   1.832
    4ALA     CA   45   4.578   5.430   1.969
    4ALA     HA   46   4.613   5.478   2.049
    4ALA     CB   47   4.555   5.527   1.851
    4ALA    HB1   48   4.642   5.569   1.826
    4ALA    HB2   49   4.519   5.476   1.773
    4ALA    HB3   50   4.490   5.597   1.879
    4ALA      C   51   4.447   5.361   2.012
    4ALA      O   52   4.382   5.402   2.108
    5LYS      N   53   4.411   5.248   1.948
    5LYS     HN   54   4.470   5.215   1.874
    5LYS     CA   55   4.290   5.170   1.982
    5LYS     HA   56   4.216   5.237   1.984
    5LYS     CB   57   4.263   5.066   1.872
    5LYS    HB1   58   4.193   5.002   1.905
    5LYS    HB2   59   4.347   5.015   1.854
    5LYS     CG   60   4.215   5.132   1.742
    5LYS    HG1   61   4.285   5.196   1.711
    5LYS    HG2   62   4.130   5.182   1.761
    5LYS     CD   63   4.187   5.030   1.630
    5LYS    HD1   64   4.271   4.980   1.610
    5LYS    HD2   65   4.116   4.966   1.660
    5LYS     CE   66   4.140   5.105   1.505
    5LYS    HE1   67   4.205   5.178   1.483
    5LYS    HE2   68   4.050   5.146   1.523
    5LYS     NZ   69   4.127   5.018   1.386
    5LYS    HZ1   70   4.096   5.072   1.308
    5LYS    HZ2   71   4.216   4.977   1.365
    5LYS    HZ3   72   4.061   4.945   1.404
    5LYS      C   73   4.298   5.106   2.120
    5LYS      O   74   4.200   5.106   2.194
    6ARG      N   75   4.417   5.059   2.160
    6ARG     HN   76   4.493   5.060   2.095
    6ARG     CA   77   4.440   5.007   2.295
    6ARG     HA   78   4.365   4.943   2.316
    6ARG     CB   79   4.573   4.929   2.297
    6ARG    HB1   80   4.648   4.995   2.292
    6ARG    HB2   81   4.576   4.870   2.217
    6ARG     CG   82   4.591   4.843   2.423
    6ARG    HG1   83   4.507   4.793   2.442
    6ARG    HG2   84   4.613   4.902   2.501
    6ARG     CD   85   4.706   4.743   2.402
    6ARG    HD1   86   4.787   4.791   2.370
    6ARG    HD2   87   4.679   4.675   2.334
    6ARG     NE   88   4.740   4.671   2.527
    6ARG     HE   89   4.728   4.722   2.612
    6ARG     CZ   90   4.786   4.547   2.538
    6ARG    NH1   91   4.796   4.467   2.436
    6ARG   HH11   92   4.770   4.498   2.345
    6ARG   HH12   93   4.831   4.374   2.449
    6ARG    NH2   94   4.822   4.501   2.654
    6ARG   HH21   95   4.816   4.559   2.735
    6ARG   HH22   96   4.856   4.407   2.663
    6ARG      C   97   4.432   5.117   2.401
    6ARG      O   98   4.402   5.086   2.516
    7HIS      N   99   4.452   5.243   2.362
    7HIS     HN  100   4.467   5.260   2.265
    7HIS     CA  101   4.451   5.357   2.452
    7HIS     HA  102   4.486   5.320   2.539
    7HIS     CB  103   4.550   5.465   2.401
    7HIS    HB1  104   4.498   5.535   2.352
    7HIS    HB2  105   4.615   5.421   2.339
    7HIS    ND1  106   4.719   5.476   2.598
    7HIS     CG  107   4.630   5.535   2.509
    7HIS    CE1  108   4.768   5.572   2.679
    7HIS    HE1  109   4.837   5.557   2.749
    7HIS    NE2  110   4.710   5.690   2.650
    7HIS    HE2  111   4.724   5.776   2.699
    7HIS    CD2  112   4.627   5.668   2.540
    7HIS    HD2  113   4.575   5.738   2.491
    7HIS      C  114   4.309   5.411   2.484
    7HIS      O  115   4.283   5.466   2.591
    8HIS      N  116   4.211   5.391   2.396
    8HIS     HN  117   4.232   5.347   2.308
    8HIS     CA  118   4.072   5.430   2.425
    8HIS     HA  119   4.080   5.511   2.483
    8HIS     CB  120   4.001   5.468   2.295
    8HIS    HB1  121   3.902   5.460   2.308
    8HIS    HB2  122   4.030   5.405   2.222
    8HIS    ND1  123   3.984   5.723   2.311
    8HIS     CG  124   4.035   5.609   2.254
    8HIS    CE1  125   4.040   5.829   2.250
    8HIS    HE1  126   4.019   5.924   2.271
    8HIS    NE2  127   4.127   5.788   2.157
    8HIS    HE2  128   4.183   5.846   2.098
    8HIS    CD2  129   4.124   5.648   2.158
    8HIS    HD2  130   4.178   5.588   2.099
    8HIS      C  131   3.995   5.327   2.509
    8HIS      O  132   3.909   5.364   2.588
    9GLY      N  133   4.030   5.198   2.499
    9GLY     HN  134   4.105   5.173   2.438
    9GLY     CA  135   3.962   5.091   2.574
    9GLY    HA1  136   3.864   5.101   2.557
    9GLY    HA2  137   3.993   5.004   2.537
    9GLY      C  138   3.987   5.095   2.725
    9GLY      O  139   3.895   5.073   2.804
   10TYR      N  140   4.110   5.126   2.768
   10TYR     HN  141   4.180   5.149   2.701
   10TYR     CA  142   4.145   5.128   2.911
   10TYR     HA  143   4.095   5.051   2.950
   10TYR     CB  144   4.296   5.105   2.931
   10TYR    HB1  145   4.328   5.039   2.862
   10TYR    HB2  146   4.311   5.068   3.022
   10TYR     CG  147   4.379   5.230   2.917
   10TYR    CD1  148   4.415   5.276   2.790
   10TYR    HD1  149   4.394   5.222   2.708
   10TYR    CE1  150   4.481   5.399   2.778
   10TYR    HE1  151   4.505   5.433   2.687
   10TYR     CZ  152   4.515   5.476   2.889
   10TYR     OH  153   4.570   5.599   2.873
   10TYR     HH  154   4.588   5.639   2.963
   10TYR    CD2  155   4.411   5.308   3.030
   10TYR    HD2  156   4.384   5.276   3.121
   10TYR    CE2  157   4.479   5.430   3.016
   10TYR    HE2  158   4.502   5.484   3.097
   10TYR      C  159   4.096   5.255   2.983
   10TYR      O  160   4.050   5.246   3.097
   11LYS      N  161   4.098   5.371   2.916
   11LYS     HN  162   4.139   5.373   2.824
   11LYS     CA  163   4.044   5.497   2.970
   11LYS     HA  164   4.087   5.507   3.060
   11LYS     CB  165   4.080   5.616   2.880
   11LYS    HB1  166   4.013   5.689   2.893
   11LYS    HB2  167   4.078   5.587   2.784
   11LYS     CG  168   4.220   5.670   2.913
   11LYS    HG1  169   4.286   5.597   2.899
   11LYS    HG2  170   4.221   5.699   3.009
   11LYS     CD  171   4.260   5.790   2.826
   11LYS    HD1  172   4.281   5.758   2.734
   11LYS    HD2  173   4.185   5.856   2.822
   11LYS     CE  174   4.384   5.859   2.885
   11LYS    HE1  175   4.457   5.791   2.898
   11LYS    HE2  176   4.361   5.899   2.974
   11LYS     NZ  177   4.437   5.968   2.799
   11LYS    HZ1  178   4.517   6.009   2.842
   11LYS    HZ2  179   4.463   5.930   2.710
   11LYS    HZ3  180   4.367   6.037   2.786
   11LYS      C  181   3.893   5.489   2.992
   11LYS      O  182   3.845   5.539   3.093
   12ARG      N  183   3.820   5.421   2.903
   12ARG     HN  184   3.866   5.383   2.823
   12ARG     CA  185   3.675   5.400   2.916
   12ARG     HA  186   3.635   5.490   2.934
   12ARG     CB  187   3.617   5.343   2.785
   12ARG    HB1  188   3.643   5.247   2.777
   12ARG    HB2  189   3.654   5.395   2.708
   12ARG     CG  190   3.464   5.354   2.784
   12ARG    HG1  191   3.439   5.450   2.801
   12ARG    HG2  192   3.427   5.297   2.857
   12ARG     CD  193   3.402   5.310   2.651
   12ARG    HD1  194   3.454   5.350   2.575
   12ARG    HD2  195   3.307   5.340   2.646
   12ARG     NE  196   3.404   5.163   2.635
   12ARG     HE  197   3.478   5.113   2.681
   12ARG     CZ  198   3.317   5.092   2.566
   12ARG    NH1  199   3.223   5.147   2.495
   12ARG   HH11  200   3.215   5.246   2.491
   12ARG   HH12  201   3.159   5.089   2.444
   12ARG    NH2  202   3.322   4.961   2.568
   12ARG   HH21  203   3.392   4.915   2.622
   12ARG   HH22  204   3.256   4.908   2.515
   12ARG      C  205   3.641   5.312   3.037
   12ARG      O  206   3.557   5.351   3.117
   13LYS      N  207   3.713   5.201   3.056
   13LYS     HN  208   3.783   5.177   2.988
   13LYS     CA  209   3.695   5.112   3.173
   13LYS     HA  210   3.598   5.092   3.178
   13LYS     CB  211   3.776   4.984   3.151
   13LYS    HB1  212   3.874   5.005   3.159
   13LYS    HB2  213   3.757   4.949   3.059
   13LYS     CG  214   3.740   4.875   3.253
   13LYS    HG1  215   3.641   4.860   3.250
   13LYS    HG2  216   3.766   4.906   3.344
   13LYS     CD  217   3.811   4.742   3.223
   13LYS    HD1  218   3.789   4.713   3.130
   13LYS    HD2  219   3.909   4.754   3.231
   13LYS     CE  220   3.763   4.636   3.323
   13LYS    HE1  221   3.664   4.626   3.316
   13LYS    HE2  222   3.788   4.664   3.415
   13LYS     NZ  223   3.825   4.503   3.297
   13LYS    HZ1  224   3.791   4.437   3.364
   13LYS    HZ2  225   3.800   4.472   3.205
   13LYS    HZ3  226   3.924   4.510   3.305
   13LYS      C  227   3.732   5.181   3.305
   13LYS      O  228   3.671   5.152   3.408
   14PHE      N  229   3.830   5.272   3.304
   14PHE     HN  230   3.881   5.285   3.219
   14PHE     CA  231   3.865   5.353   3.420
   14PHE     HA  232   3.872   5.290   3.498
   14PHE     CB  233   4.002   5.418   3.397
   14PHE    HB1  234   3.994   5.481   3.320
   14PHE    HB2  235   4.068   5.347   3.375
   14PHE     CG  236   4.055   5.496   3.516
   14PHE    CD1  237   4.048   5.637   3.517
   14PHE    HD1  238   4.008   5.685   3.440
   14PHE    CE1  239   4.097   5.709   3.627
   14PHE    HE1  240   4.092   5.809   3.628
   14PHE     CZ  241   4.154   5.641   3.736
   14PHE     HZ  242   4.189   5.692   3.815
   14PHE    CD2  243   4.111   5.428   3.625
   14PHE    HD2  244   4.116   5.328   3.625
   14PHE    CE2  245   4.161   5.500   3.735
   14PHE    HE2  246   4.202   5.452   3.813
   14PHE      C  247   3.754   5.454   3.453
   14PHE      O  248   3.704   5.451   3.565
   15HIS      N  249   3.708   5.535   3.357
   15HIS     HN  250   3.749   5.529   3.266
   15HIS     CA  251   3.600   5.631   3.380
   15HIS     HA  252   3.632   5.689   3.455
   15HIS     CB  253   3.577   5.716   3.254
   15HIS    HB1  254   3.481   5.709   3.226
   15HIS    HB2  255   3.635   5.681   3.180
   15HIS    ND1  256   3.734   5.915   3.294
   15HIS     CG  257   3.609   5.862   3.273
   15HIS    CE1  258   3.720   6.048   3.309
   15HIS    HE1  259   3.796   6.112   3.326
   15HIS    NE2  260   3.592   6.083   3.297
   15HIS    HE2  261   3.555   6.176   3.303
   15HIS    CD2  262   3.520   5.965   3.276
   15HIS    HD2  263   3.421   5.958   3.265
   15HIS      C  264   3.469   5.564   3.426
   15HIS      O  265   3.405   5.611   3.520
   16GLU      N  266   3.432   5.451   3.366
   16GLU     HN  267   3.491   5.414   3.294
   16GLU     CA  268   3.310   5.376   3.400
   16GLU     HA  269   3.233   5.440   3.393
   16GLU     CB  270   3.297   5.263   3.296
   16GLU    HB1  271   3.367   5.194   3.317
   16GLU    HB2  272   3.315   5.302   3.206
   16GLU     CG  273   3.161   5.193   3.292
   16GLU    HG1  274   3.089   5.261   3.285
   16GLU    HG2  275   3.149   5.140   3.376
   16GLU     CD  276   3.158   5.100   3.170
   16GLU    OE1  277   3.195   4.981   3.186
   16GLU    OE2  278   3.133   5.150   3.058
   16GLU      C  279   3.310   5.324   3.545
   16GLU      O  280   3.208   5.333   3.613
   17LYS      N  281   3.426   5.282   3.597
   17LYS     HN  282   3.506   5.280   3.538
   17LYS     CA  283   3.442   5.237   3.737
   17LYS     HA  284   3.365   5.176   3.755
   17LYS     CB  285   3.576   5.163   3.749
   17LYS    HB1  286   3.650   5.229   3.736
   17LYS    HB2  287   3.581   5.093   3.678
   17LYS     CG  288   3.594   5.095   3.886
   17LYS    HG1  289   3.517   5.033   3.901
   17LYS    HG2  290   3.595   5.165   3.957
   17LYS     CD  291   3.724   5.014   3.895
   17LYS    HD1  292   3.724   4.942   3.826
   17LYS    HD2  293   3.802   5.074   3.880
   17LYS     CE  294   3.732   4.952   4.035
   17LYS    HE1  295   3.656   4.888   4.047
   17LYS    HE2  296   3.724   5.025   4.104
   17LYS     NZ  297   3.859   4.879   4.058
   17LYS    HZ1  298   3.859   4.841   4.151
   17LYS    HZ2  299   3.867   4.805   3.992
   17LYS    HZ3  300   3.936   4.942   4.048
   17LYS      C  301   3.429   5.351   3.839
   17LYS      O  302   3.398   5.325   3.955
   18HIS      N  303   3.453   5.476   3.799
   18HIS     HN  304   3.474   5.491   3.703
   18HIS     CA  305   3.451   5.592   3.889
   18HIS     HA  306   3.462   5.554   3.981
   18HIS     CB  307   3.569   5.684   3.855
   18HIS    HB1  308   3.554   5.774   3.897
   18HIS    HB2  309   3.576   5.695   3.756
   18HIS    ND1  310   3.741   5.627   4.037
   18HIS     CG  311   3.700   5.629   3.906
   18HIS    CE1  312   3.862   5.569   4.043
   18HIS    HE1  313   3.914   5.555   4.127
   18HIS    NE2  314   3.902   5.531   3.921
   18HIS    HE2  315   3.986   5.483   3.898
   18HIS    CD2  316   3.802   5.573   3.833
   18HIS    HD2  317   3.804   5.563   3.733
   18HIS      C  318   3.316   5.666   3.891
   18HIS      O  319   3.292   5.745   3.983
   19HIS      N  320   3.226   5.640   3.796
   19HIS     HN  321   3.252   5.577   3.722
   19HIS     CA  322   3.092   5.698   3.795
   19HIS     HA  323   3.101   5.784   3.845
   19HIS     CB  324   3.049   5.725   3.650
   19HIS    HB1  325   2.951   5.744   3.648
   19HIS    HB2  326   3.069   5.645   3.594
   19HIS    ND1  327   3.112   5.974   3.634
   19HIS     CG  328   3.122   5.843   3.591
   19HIS    CE1  329   3.193   6.049   3.557
   19HIS    HE1  330   3.205   6.148   3.567
   19HIS    NE2  331   3.253   5.973   3.465
   19HIS    HE2  332   3.318   6.004   3.395
   19HIS    CD2  333   3.208   5.842   3.485
   19HIS    HD2  334   3.235   5.762   3.432
   19HIS      C  335   2.987   5.616   3.872
   19HIS      O  336   2.883   5.670   3.909
   20SER      N  337   3.015   5.489   3.903
   20SER     HN  338   3.104   5.453   3.877
   20SER     CA  339   2.922   5.400   3.973
   20SER     HA  340   2.831   5.429   3.941
   20SER     CB  341   2.951   5.255   3.933
   20SER    HB1  342   2.943   5.243   3.834
   20SER    HB2  343   2.888   5.192   3.979
   20SER     OG  344   3.083   5.219   3.970
   20SER    HG1  345   3.100   5.124   3.943
   20SER      C  346   2.918   5.417   4.126
   20SER      O  347   2.864   5.332   4.195
   21HIS      N  348   2.977   5.524   4.181
   21HIS     HN  349   3.016   5.594   4.120
   21HIS     CA  350   2.989   5.543   4.326
   21HIS     HA  351   2.923   5.480   4.366
   21HIS     CB  352   3.132   5.507   4.372
   21HIS    HB1  353   3.188   5.590   4.373
   21HIS    HB2  354   3.171   5.441   4.308
   21HIS    ND1  355   3.065   5.334   4.550
   21HIS     CG  356   3.135   5.446   4.510
   21HIS    CE1  357   3.095   5.310   4.678
   21HIS    HE1  358   3.057   5.236   4.733
   21HIS    NE2  359   3.184   5.400   4.723
   21HIS    HE2  360   3.225   5.404   4.814
   21HIS    CD2  361   3.208   5.489   4.618
   21HIS    HD2  362   3.267   5.569   4.621
   21HIS      C  363   2.944   5.682   4.375
   21HIS      O  364   2.985   5.726   4.482
   22ARG      N  365   2.861   5.753   4.297
   22ARG     HN  366   2.830   5.712   4.211
   22ARG     CA  367   2.815   5.889   4.331
   22ARG     HA  368   2.851   5.908   4.422
   22ARG     CB  369   2.877   5.990   4.232
   22ARG    HB1  370   2.814   6.002   4.155
   22ARG    HB2  371   2.964   5.955   4.200
   22ARG     CG  372   2.899   6.126   4.300
   22ARG    HG1  373   2.956   6.113   4.382
   22ARG    HG2  374   2.810   6.164   4.327
   22ARG     CD  375   2.969   6.223   4.205
   22ARG    HD1  376   2.919   6.227   4.118
   22ARG    HD2  377   3.063   6.193   4.189
   22ARG     NE  378   2.973   6.358   4.263
   22ARG     HE  379   2.929   6.370   4.352
   22ARG     CZ  380   3.029   6.465   4.209
   22ARG    NH1  381   3.095   6.459   4.097
   22ARG   HH11  382   3.104   6.372   4.049
   22ARG   HH12  383   3.136   6.542   4.058
   22ARG    NH2  384   3.019   6.581   4.268
   22ARG   HH21  385   2.969   6.589   4.354
   22ARG   HH22  386   3.062   6.662   4.227
   22ARG      C  387   2.664   5.901   4.349
   22ARG      O  388   2.607   6.006   4.324
   23GLY      N  389   2.600   5.793   4.394
   23GLY     HN  390   2.652   5.709   4.409
   23GLY     CA  391   2.456   5.792   4.423
   23GLY    HA1  392   2.431   5.884   4.456
   23GLY    HA2  393   2.408   5.773   4.338
   23GLY      C  394   2.420   5.689   4.528
   23GLY      O  395   2.363   5.587   4.491
   24TYR      N  396   2.458   5.714   4.653
   24TYR     HN  397   2.543   5.766   4.664
   24TYR     CA  398   2.391   5.675   4.778
   24TYR     HA  399   2.293   5.685   4.760
   24TYR     CB  400   2.414   5.528   4.817
   24TYR    HB1  401   2.411   5.520   4.917
   24TYR    HB2  402   2.504   5.500   4.784
   24TYR     CG  403   2.311   5.434   4.758
   24TYR    CD1  404   2.180   5.431   4.811
   24TYR    HD1  405   2.158   5.487   4.891
   24TYR    CE1  406   2.082   5.349   4.752
   24TYR    HE1  407   1.989   5.347   4.790
   24TYR     CZ  408   2.114   5.271   4.639
   24TYR     OH  409   2.019   5.195   4.579
   24TYR     HH  410   2.059   5.147   4.501
   24TYR    CD2  411   2.343   5.352   4.648
   24TYR    HD2  412   2.437   5.352   4.613
   24TYR    CE2  413   2.245   5.273   4.587
   24TYR    HE2  414   2.268   5.217   4.507
   24TYR      C  415   2.438   5.769   4.889
   24TYR    OT1  416   2.528   5.865   4.854
   24TYR    OT2  417   2.386   5.750   5.013
   25SOL     OW  418   0.230   0.628   0.113
   25SOL    HW1  419   0.137   0.626   0.150
   25SOL    HW2  420   0.231   0.589   0.021
   26SOL     OW  421   0.225   0.275   0.996
   26SOL    HW1  422   0.260   0.258   1.088
   26SOL    HW2  423   0.137   0.230   0.984
   27SOL     OW  424   0.019   0.368   0.647
   27SOL    HW1  425  -0.063   0.411   0.686
   27SOL    HW2  426  -0.009   0.295   0.584
   28SOL     OW  427   0.569   1.275   1.165
   28SOL    HW1  428   0.476   1.268   1.128
   28SOL    HW2  429   0.580   1.364   1.209
   29SOL     OW  430   1.555   1.511   0.703
   29SOL    HW1  431   1.498   1.495   0.784
   29SOL    HW2  432   1.496   1.521   0.623
   30SOL     OW  433   1.135   0.703   0.717
   30SOL    HW1  434   1.192   0.781   0.692
   30SOL    HW2  435   1.075   0.729   0.793
   31SOL     OW  436   1.755   0.607   0.231
   31SOL    HW1  437   1.743   0.594   0.132
   31SOL    HW2  438   1.725   0.526   0.280
   32SOL     OW  439   0.768   1.144   1.023
   32SOL    HW1  440   0.690   1.161   1.083
   32SOL    HW2  441   0.802   1.231   0.987
   33SOL     OW  442   0.850   0.798   1.823
   33SOL    HW1  443   0.846   0.874   1.888
   33SOL    HW2  444   0.872   0.834   1.732
   34SOL     OW  445   0.685   1.012   0.665
   34SOL    HW1  446   0.754   0.996   0.735
   34SOL    HW2  447   0.612   1.069   0.703
   35SOL     OW  448   0.686   1.161   1.803
   35SOL    HW1  449   0.746   1.240   1.817
   35SOL    HW2  450   0.600   1.192   1.762
   36SOL     OW  451   0.335   1.435   1.061
   36SOL    HW1  452   0.257   1.404   1.008
   36SOL    HW2  453   0.393   1.493   1.004
   37SOL     OW  454   1.460   1.505   1.339
   37SOL    HW1  455   1.484   1.599   1.365
   37SOL    HW2  456   1.444   1.451   1.421
   38SOL     OW  457   0.438   0.392   1.499
   38SOL    HW1  458   0.520   0.336   1.508
   38SOL    HW2  459   0.357   0.334   1.503
   39SOL     OW  460   1.603   0.447   0.737
   39SOL    HW1  461   1.529   0.493   0.687
   39SOL    HW2  462   1.654   0.515   0.790
   40SOL     OW  463   0.231   1.713   0.483
   40SOL    HW1  464   0.265   1.790   0.537
   40SOL    HW2  465   0.275   1.713   0.393
   41SOL     OW  466   1.127   1.341   1.690
   41SOL    HW1  467   1.174   1.341   1.778
   41SOL    HW2  468   1.079   1.254   1.679
   42SOL     OW  469   0.230   1.434   0.538
   42SOL    HW1  470   0.204   1.530   0.538
   42SOL    HW2  471   0.159   1.380   0.583
   43SOL     OW  472   0.240   1.091   0.886
   43SOL    HW1  473   0.254   1.007   0.938
   43SOL    HW2  474   0.185   1.155   0.941
   44SOL     OW  475   0.620   1.786   1.439
   44SOL    HW1  476   0.528   1.769   1.474
   44SOL    HW2  477   0.648   1.878   1.465
   45SOL     OW  478   0.606   0.964   0.123
   45SOL    HW1  479   0.613   1.048   0.069
   45SOL    HW2  480   0.652   0.977   0.211
   46SOL     OW  481   1.594   0.114   1.480
   46SOL    HW1  482   1.576   0.181   1.408
   46SOL    HW2  483   1.591   0.160   1.569
   47SOL     OW  484   0.122   0.643   0.563
   47SOL    HW1  485   0.077   0.555   0.580
   47SOL    HW2  486   0.121   0.697   0.647
   48SOL     OW  487   1.842   1.767   0.359
   48SOL    HW1  488   1.896   1.738   0.439
   48SOL    HW2  489   1.872   1.857   0.330
   49SOL     OW  490   0.027   1.596   0.117
   49SOL    HW1  491   0.008   1.500   0.138
   49SOL    HW2  492  -0.006   1.654   0.192
   50SOL     OW  493   1.689   0.922   0.612
   50SOL    HW1  494   1.784   0.893   0.620
   50SOL    HW2  495   1.681   0.987   0.537
   51SOL     OW  496   1.641   1.108   0.432
   51SOL    HW1  497   1.727   1.110   0.380
   51SOL    HW2  498   1.655   1.155   0.520
   52SOL     OW  499   0.113   0.737   1.597
   52SOL    HW1  500   0.201   0.724   1.642
   52SOL    HW2  501   0.100   0.834   1.575
   53SOL     OW  502   0.613   1.365   0.726
   53SOL    HW1  503   0.564   1.278   0.735
   53SOL    HW2  504   0.590   1.408   0.639
   54SOL     OW  505   1.293   1.228   1.423
   54SOL    HW1  506   1.330   1.155   1.365
   54SOL    HW2  507   1.345   1.233   1.508
   55SOL     OW  508   0.809   0.004   0.502
   55SOL    HW1  509   0.849   0.095   0.493
   55SOL    HW2  510   0.709   0.012   0.508
   56SOL     OW  511   0.197   0.976   1.264
   56SOL    HW1  512   0.286   0.931   1.250
   56SOL    HW2  513   0.124   0.911   1.245
   57SOL     OW  514   1.525   0.999   0.190
   57SOL    HW1  515   1.462   0.923   0.203
   57SOL    HW2  516   1.573   1.017   0.276
   58SOL     OW  517   1.187   1.792   1.616
   58SOL    HW1  518   1.211   1.852   1.540
   58SOL    HW2  519   1.194   1.697   1.586
   59SOL     OW  520   0.317   0.251   1.801
   59SOL    HW1  521   0.388   0.322   1.807
   59SOL    HW2  522   0.229   0.290   1.829
   60SOL     OW  523   1.466   1.417   0.953
   60SOL    HW1  524   1.407   1.423   1.033
   60SOL    HW2  525   1.451   1.329   0.907
   61SOL     OW  526   1.667   1.714   0.572
   61SOL    HW1  527   1.626   1.691   0.484
   61SOL    HW2  528   1.649   1.640   0.637
   62SOL     OW  529   0.598   0.729   0.270
   62SOL    HW1  530   0.622   0.798   0.202
   62SOL    HW2  531   0.520   0.762   0.324
   63SOL     OW  532   1.281   0.345   0.944
   63SOL    HW1  533   1.195   0.295   0.931
   63SOL    HW2  534   1.343   0.291   1.000
   64SOL     OW  535   1.576   1.662   0.307
   64SOL    HW1  536   1.665   1.708   0.310
   64SOL    HW2  537   1.555   1.638   0.212
   65SOL     OW  538   0.807   0.605   1.465
   65SOL    HW1  539   0.760   0.602   1.554
   65SOL    HW2  540   0.756   0.550   1.399
   66SOL     OW  541   1.394   0.469   1.674
   66SOL    HW1  542   1.374   0.512   1.762
   66SOL    HW2  543   1.472   0.407   1.683
   67SOL     OW  544   0.973   0.890   1.572
   67SOL    HW1  545   1.019   0.806   1.543
   67SOL    HW2  546   0.917   0.924   1.497
   68SOL     OW  547   0.991   0.410   1.242
   68SOL    HW1  548   0.914   0.444   1.296
   68SOL    HW2  549   0.957   0.359   1.163
   69SOL     OW  550   1.041   0.701   0.429
   69SOL    HW1  551   1.067   0.697   0.525
   69SOL    HW2  552   0.956   0.650   0.415
   70SOL     OW  553   0.076   0.811   0.789
   70SOL    HW1  554   0.175   0.799   0.798
   70SOL    HW2  555   0.052   0.906   0.810
   71SOL     OW  556   0.130   1.821   1.571
   71SOL    HW1  557   0.120   1.806   1.670
   71SOL    HW2  558   0.044   1.857   1.535
   72SOL     OW  559   0.865   0.348   0.195
   72SOL    HW1  560   0.924   0.411   0.146
   72SOL    HW2  561   0.884   0.254   0.166
   73SOL     OW  562   1.719   0.585   1.831
   73SOL    HW1  563   1.693   0.674   1.795
   73SOL    HW2  564   1.717   0.517   1.758
   74SOL     OW  565   1.362   1.144   0.545
   74SOL    HW1  566   1.445   1.115   0.497
   74SOL    HW2  567   1.313   1.211   0.489
   75SOL     OW  568   0.550   0.196   0.885
   75SOL    HW1  569   0.545   0.191   0.985
   75SOL    HW2  570   0.552   0.292   0.856
   76SOL     OW  571   1.008   1.456   0.477
   76SOL    HW1  572   0.962   1.528   0.425
   76SOL    HW2  573   1.004   1.476   0.575
   77SOL     OW  574   0.351   1.801   0.853
   77SOL    HW1  575   0.401   1.715   0.859
   77SOL    HW2  576   0.416   1.878   0.850
   78SOL     OW  577   1.795   1.066   0.873
   78SOL    HW1  578   1.733   1.051   0.797
   78SOL    HW2  579   1.743   1.077   0.958
   79SOL     OW  580   1.227   1.550   1.506
   79SOL    HW1  581   1.233   1.473   1.570
   79SOL    HW2  582   1.175   1.524   1.426
   80SOL     OW  583   0.321   0.943   0.242
   80SOL    HW1  584   0.403   0.982   0.200
   80SOL    HW2  585   0.294   0.861   0.193
   81SOL     OW  586   1.458   0.735   0.728
   81SOL    HW1  587   1.453   0.670   0.803
   81SOL    HW2  588   1.538   0.794   0.741
   82SOL     OW  589   0.461   1.266   1.727
   82SOL    HW1  590   0.411   1.267   1.641
   82SOL    HW2  591   0.398   1.248   1.803
   83SOL     OW  592   1.111   1.776   0.237
   83SOL    HW1  593   1.051   1.714   0.287
   83SOL    HW2  594   1.142   1.732   0.152
   84SOL     OW  595   0.202   0.285   1.498
   84SOL    HW1  596   0.122   0.345   1.485
   84SOL    HW2  597   0.192   0.236   1.584
   85SOL     OW  598   1.632   1.377   0.081
   85SOL    HW1  599   1.600   1.471   0.071
   85SOL    HW2  600   1.556   1.314   0.069
   86SOL     OW  601   0.464   1.743   0.323
   86SOL    HW1  602   0.497   1.782   0.409
   86SOL    HW2  603   0.540   1.736   0.258
   87SOL     OW  604   1.400   0.107   0.426
   87SOL    HW1  605   1.376   0.070   0.336
   87SOL    HW2  606   1.499   0.123   0.430
   88SOL     OW  607   0.249   1.785   1.241
   88SOL    HW1  608   0.306   1.720   1.291
   88SOL    HW2  609   0.233   1.752   1.148
   89SOL     OW  610   0.940   1.698   0.904
   89SOL    HW1  611   1.020   1.641   0.925
   89SOL    HW2  612   0.891   1.658   0.827
   90SOL     OW  613   0.382   0.700   0.480
   90SOL    HW1  614   0.427   0.610   0.477
   90SOL    HW2  615   0.288   0.689   0.513
   91SOL     OW  616   1.547   0.222   1.729
   91SOL    HW1  617   1.542   0.259   1.821
   91SOL    HW2  618   1.475   0.153   1.717
   92SOL     OW  619   0.614   0.122   0.117
   92SOL    HW1  620   0.712   0.100   0.124
   92SOL    HW2  621   0.583   0.105   0.024
   93SOL     OW  622   0.781   0.264   1.749
   93SOL    HW1  623   0.848   0.203   1.792
   93SOL    HW2  624   0.708   0.283   1.814
   94SOL     OW  625   0.888   1.514   1.195
   94SOL    HW1  626   0.865   1.489   1.101
   94SOL    HW2  627   0.949   1.445   1.234
   95SOL     OW  628   1.351   0.590   1.433
   95SOL    HW1  629   1.379   0.547   1.518
   95SOL    HW2  630   1.376   0.686   1.434
   96SOL     OW  631   0.803   1.402   0.924
   96SOL    HW1  632   0.893   1.416   0.882
   96SOL    HW2  633   0.732   1.404   0.853
   97SOL     OW  634   0.922   0.503   0.899
   97SOL    HW1  635   0.897   0.494   0.803
   97SOL    HW2  636   0.970   0.421   0.930
   98SOL     OW  637   0.539   0.064   0.512
   98SOL    HW1  638   0.458   0.065   0.570
   98SOL    HW2  639   0.542   0.147   0.457
   99SOL     OW  640   1.434   1.188   0.041
   99SOL    HW1  641   1.466   1.112   0.098
   99SOL    HW2  642   1.342   1.215   0.071
  100SOL     OW  643   0.297   0.035   0.171
  100SOL    HW1  644   0.346   0.119   0.150
  100SOL    HW2  645   0.359  -0.030   0.216
  101SOL     OW  646   0.935   0.236   0.480
  101SOL    HW1  647   0.887   0.277   0.402
  101SOL    HW2  648   1.034   0.234   0.461
  102SOL     OW  649   1.076   0.683   1.464
  102SOL    HW1  650   0.996   0.622   1.467
  102SOL    HW2  651   1.157   0.630   1.440
  103SOL     OW  652   1.227   1.570   0.793
  103SOL    HW1  653   1.248   1.644   0.728
  103SOL    HW2  654   1.295   1.570   0.866
  104SOL     OW  655   0.459   1.152   0.741
  104SOL    HW1  656   0.388   1.125   0.806
  104SOL    HW2  657   0.433   1.124   0.648
  105SOL     OW  658   1.271   1.797   0.591
  105SOL    HW1  659   1.315   1.861   0.527
  105SOL    HW2  660   1.221   1.849   0.661
  106SOL     OW  661   1.032   0.549   0.016
  106SOL    HW1  662   0.991   0.631  -0.023
  106SOL    HW2  663   1.096   0.575   0.089
  107SOL     OW  664   0.078   0.556   1.386
  107SOL    HW1  665   0.170   0.555   1.345
  107SOL    HW2  666   0.072   0.630   1.453
  108SOL     OW  667   0.561   0.222   1.147
  108SOL    HW1  668   0.599   0.138   1.184
  108SOL    HW2  669   0.473   0.241   1.191
  109SOL     OW  670   0.866   0.454   0.642
  109SOL    HW1  671   0.834   0.526   0.580
  109SOL    HW2  672   0.890   0.373   0.589
  110SOL     OW  673   1.017   0.039   0.753
  110SOL    HW1  674   0.945   0.044   0.684
  110SOL    HW2  675   0.993  -0.030   0.822
  111SOL     OW  676   1.429   1.173   0.867
  111SOL    HW1  677   1.374   1.089   0.860
  111SOL    HW2  678   1.455   1.202   0.775
  112SOL     OW  679   1.466   0.590   0.992
  112SOL    HW1  680   1.436   0.495   0.999
  112SOL    HW2  681   1.539   0.606   1.058
  113SOL     OW  682   1.857   0.833   0.377
  113SOL    HW1  683   1.899   0.769   0.441
  113SOL    HW2  684   1.819   0.782   0.299
  114SOL     OW  685   0.488   1.385   0.174
  114SOL    HW1  686   0.401   1.370   0.221
  114SOL    HW2  687   0.471   1.411   0.079
  115SOL     OW  688   1.664   1.280   0.657
  115SOL    HW1  689   1.763   1.288   0.671
  115SOL    HW2  690   1.619   1.364   0.688
  116SOL     OW  691   1.390   0.575   0.078
  116SOL    HW1  692   1.336   0.554   0.159
  116SOL    HW2  693   1.481   0.534   0.087
  117SOL     OW  694   0.527   0.256   0.328
  117SOL    HW1  695   0.554   0.197   0.253
  117SOL    HW2  696   0.527   0.351   0.297
  118SOL     OW  697   1.754   1.223   1.588
  118SOL    HW1  698   1.845   1.184   1.575
  118SOL    HW2  699   1.762   1.319   1.612
  119SOL     OW  700   1.064   1.347   1.340
  119SOL    HW1  701   0.984   1.324   1.395
  119SOL    HW2  702   1.147   1.321   1.389
  120SOL     OW  703   1.592   1.629   1.625
  120SOL    HW1  704   1.619   1.663   1.535
  120SOL    HW2  705   1.671   1.591   1.671
  121SOL     OW  706   1.111   1.195   1.100
  121SOL    HW1  707   1.071   1.239   1.181
  121SOL    HW2  708   1.070   1.232   1.017
  122SOL     OW  709   1.638   1.099   1.079
  122SOL    HW1  710   1.643   1.180   1.138
  122SOL    HW2  711   1.552   1.101   1.028
  123SOL     OW  712   0.915   0.089   1.402
  123SOL    HW1  713   0.940   0.069   1.307
  123SOL    HW2  714   0.987   0.145   1.444
  124SOL     OW  715   0.980   1.116   1.719
  124SOL    HW1  716   0.881   1.122   1.729
  124SOL    HW2  717   1.003   1.036   1.663
  125SOL     OW  718   0.705   1.050   0.368
  125SOL    HW1  719   0.691   1.057   0.467
  125SOL    HW2  720   0.789   0.999   0.350
  126SOL     OW  721   0.410   0.813   1.251
  126SOL    HW1  722   0.496   0.825   1.301
  126SOL    HW2  723   0.368   0.726   1.278
  127SOL     OW  724   1.274   0.386   1.262
  127SOL    HW1  725   1.295   0.460   1.326
  127SOL    HW2  726   1.185   0.403   1.219
  128SOL     OW  727   0.064   1.564   1.331
  128SOL    HW1  728   0.018   1.646   1.297
  128SOL    HW2  729   0.162   1.583   1.340
  129SOL     OW  730   0.367   1.100   0.501
  129SOL    HW1  731   0.360   1.183   0.445
  129SOL    HW2  732   0.371   1.020   0.441
  130SOL     OW  733   0.566   0.537   0.865
  130SOL    HW1  734   0.578   0.603   0.791
  130SOL    HW2  735   0.612   0.571   0.948
  131SOL     OW  736   1.252   1.348   0.388
  131SOL    HW1  737   1.302   1.425   0.428
  131SOL    HW2  738   1.157   1.350   0.420
  132SOL     OW  739   1.272   1.445   1.142
  132SOL    HW1  740   1.319   1.458   1.229
  132SOL    HW2  741   1.206   1.371   1.151
  133SOL     OW  742   1.582   0.639   0.472
  133SOL    HW1  743   1.551   0.700   0.545
  133SOL    HW2  744   1.632   0.691   0.403
  134SOL     OW  745   0.354   1.510   1.329
  134SOL    HW1  746   0.333   1.466   1.242
  134SOL    HW2  747   0.451   1.536   1.332
  135SOL     OW  748   0.402   0.751   1.598
  135SOL    HW1  749   0.470   0.806   1.551
  135SOL    HW2  750   0.442   0.663   1.625
  136SOL     OW  751   1.587   0.779   1.670
  136SOL    HW1  752   1.495   0.817   1.665
  136SOL    HW2  753   1.647   0.826   1.605
  137SOL     OW  754   1.013   0.105   1.770
  137SOL    HW1  755   1.019   0.190   1.718
  137SOL    HW2  756   1.045   0.029   1.713
  138SOL     OW  757   0.504   0.050   1.740
  138SOL    HW1  758   0.462  -0.007   1.670
  138SOL    HW2  759   0.438   0.119   1.772
  139SOL     OW  760   0.573   0.870   1.029
  139SOL    HW1  761   0.617   0.959   1.020
  139SOL    HW2  762   0.510   0.870   1.106
  140SOL     OW  763   1.360   0.862   1.045
  140SOL    HW1  764   1.285   0.862   0.979
  140SOL    HW2  765   1.397   0.770   1.054
  141SOL     OW  766   1.209   0.525   0.275
  141SOL    HW1  767   1.222   0.441   0.329
  141SOL    HW2  768   1.180   0.599   0.335
  142SOL     OW  769   0.307   0.213   1.231
  142SOL    HW1  770   0.284   0.250   1.321
  142SOL    HW2  771   0.277   0.118   1.225
  143SOL     OW  772   0.037   1.310   1.282
  143SOL    HW1  773   0.090   1.261   1.350
  143SOL    HW2  774   0.059   1.408   1.287
  144SOL     OW  775   0.732   0.634   1.064
  144SOL    HW1  776   0.791   0.608   0.988
  144SOL    HW2  777   0.704   0.730   1.053
  145SOL     OW  778   1.728   0.935   1.854
  145SOL    HW1  779   1.682   0.928   1.765
  145SOL    HW2  780   1.666   0.979   1.920
  146SOL     OW  781   0.307   0.063   0.618
  146SOL    HW1  782   0.296   0.157   0.651
  146SOL    HW2  783   0.302   0.000   0.695
  147SOL     OW  784   1.622   0.367   0.374
  147SOL    HW1  785   1.624   0.291   0.438
  147SOL    HW2  786   1.574   0.444   0.414
  148SOL     OW  787   1.023   0.766   0.966
  148SOL    HW1  788   1.038   0.787   1.062
  148SOL    HW2  789   0.993   0.671   0.957
  149SOL     OW  790   0.980   1.573   1.700
  149SOL    HW1  791   0.960   1.617   1.612
  149SOL    HW2  792   1.019   1.482   1.684
  150SOL     OW  793   1.859   1.518   1.605
  150SOL    HW1  794   1.873   1.545   1.510
  150SOL    HW2  795   1.942   1.540   1.658
  151SOL     OW  796   0.350   0.898   1.804
  151SOL    HW1  797   0.426   0.942   1.852
  151SOL    HW2  798   0.385   0.851   1.722
  152SOL     OW  799   1.540   0.274   0.125
  152SOL    HW1  800   1.479   0.199   0.148
  152SOL    HW2  801   1.562   0.326   0.208
  153SOL     OW  802   1.303   0.838   0.042
  153SOL    HW1  803   1.337   0.745   0.057
  153SOL    HW2  804   1.321   0.865  -0.053
  154SOL     OW  805   1.068   1.333   0.849
  154SOL    HW1  806   1.075   1.249   0.794
  154SOL    HW2  807   1.130   1.402   0.813
  155SOL     OW  808   0.319   0.810   0.949
  155SOL    HW1  809   0.412   0.846   0.954
  155SOL    HW2  810   0.313   0.725   1.001
  156SOL     OW  811   0.339   0.509   1.006
  156SOL    HW1  812   0.287   0.426   0.989
  156SOL    HW2  813   0.416   0.514   0.942
  157SOL     OW  814   1.138   0.380   1.678
  157SOL    HW1  815   1.093   0.443   1.742
  157SOL    HW2  816   1.231   0.411   1.661
  158SOL     OW  817   1.160   0.207   1.477
  158SOL    HW1  818   1.160   0.271   1.554
  158SOL    HW2  819   1.188   0.255   1.394
  159SOL     OW  820   0.008   1.326   0.200
  159SOL    HW1  821  -0.085   1.347   0.169
  159SOL    HW2  822   0.018   1.227   0.213
  160SOL     OW  823   0.088   1.801   0.927
  160SOL    HW1  824   0.046   1.715   0.900
  160SOL    HW2  825   0.182   1.804   0.893
  161SOL     OW  826   0.504   1.568   0.910
  161SOL    HW1  827   0.570   1.642   0.919
  161SOL    HW2  828   0.548   1.489   0.868
  162SOL     OW  829   1.002   0.796   1.238
  162SOL    HW1  830   1.043   0.764   1.324
  162SOL    HW2  831   0.906   0.769   1.235
  163SOL     OW  832   0.040   0.544   1.114
  163SOL    HW1  833   0.125   0.511   1.073
  163SOL    HW2  834   0.053   0.559   1.212
  164SOL     OW  835   0.189   0.520   1.722
  164SOL    HW1  836   0.248   0.480   1.652
  164SOL    HW2  837   0.131   0.591   1.681
  165SOL     OW  838   1.369   0.950   1.660
  165SOL    HW1  839   1.408   1.039   1.680
  165SOL    HW2  840   1.379   0.930   1.563
  166SOL     OW  841   0.815   0.572   0.325
  166SOL    HW1  842   0.822   0.483   0.279
  166SOL    HW2  843   0.721   0.606   0.317
  167SOL     OW  844   1.657   0.604   1.206
  167SOL    HW1  845   1.619   0.535   1.268
  167SOL    HW2  846   1.739   0.568   1.162
  168SOL     OW  847   0.252   1.564   1.744
  168SOL    HW1  848   0.222   1.621   1.820
  168SOL    HW2  849   0.245   1.467   1.770
  169SOL     OW  850   0.671   0.464   1.269
  169SOL    HW1  851   0.637   0.375   1.239
  169SOL    HW2  852   0.697   0.518   1.189
  170SOL     OW  853   0.930   1.678   1.465
  170SOL    HW1  854   0.906   1.660   1.370
  170SOL    HW2  855   0.960   1.772   1.475
  171SOL     OW  856   0.473   0.500   0.191
  171SOL    HW1  857   0.534   0.580   0.195
  171SOL    HW2  858   0.378   0.531   0.198
  172SOL     OW  859   0.159   1.137   1.466
  172SOL    HW1  860   0.181   1.076   1.542
  172SOL    HW2  861   0.169   1.088   1.380
  173SOL     OW  862   1.347   1.059   1.234
  173SOL    HW1  863   1.371   0.996   1.160
  173SOL    HW2  864   1.257   1.099   1.216
  174SOL     OW  865   1.302   0.855   0.309
  174SOL    HW1  866   1.216   0.824   0.351
  174SOL    HW2  867   1.298   0.841   0.210
  175SOL     OW  868   1.759   1.747   1.154
  175SOL    HW1  869   1.820   1.777   1.081
  175SOL    HW2  870   1.721   1.658   1.132
  176SOL     OW  871   1.252   1.731   1.128
  176SOL    HW1  872   1.336   1.736   1.074
  176SOL    HW2  873   1.229   1.635   1.146
  177SOL     OW  874   0.083   1.258   1.022
  177SOL    HW1  875   0.078   1.257   1.122
  177SOL    HW2  876   0.000   1.217   0.984
  178SOL     OW  877   0.688   1.662   1.716
  178SOL    HW1  878   0.632   1.743   1.725
  178SOL    HW2  879   0.740   1.666   1.630
  179SOL     OW  880   0.903   0.086   0.133
  179SOL    HW1  881   0.954   0.087   0.047
  179SOL    HW2  882   0.959   0.044   0.204
  180SOL     OW  883   1.726   0.135   0.523
  180SOL    HW1  884   1.799   0.118   0.456
  180SOL    HW2  885   1.695   0.048   0.561
  181SOL     OW  886   1.388   1.573   0.477
  181SOL    HW1  887   1.455   1.585   0.403
  181SOL    HW2  888   1.348   1.662   0.500
  182SOL     OW  889   0.130   1.794   1.851
  182SOL    HW1  890   0.089   1.720   1.904
  182SOL    HW2  891   0.194   1.845   1.909
  183SOL     OW  892   1.280   0.927   0.672
  183SOL    HW1  893   1.340   0.846   0.674
  183SOL    HW2  894   1.320   0.996   0.612
  184SOL     OW  895   0.830   1.273   1.422
  184SOL    HW1  896   0.825   1.306   1.517
  184SOL    HW2  897   0.744   1.292   1.376
  185SOL     OW  898   0.672   1.616   0.154
  185SOL    HW1  899   0.681   1.626   0.055
  185SOL    HW2  900   0.632   1.527   0.175
  186SOL     OW  901   1.650   1.720   1.394
  186SOL    HW1  902   1.703   1.730   1.310
  186SOL    HW2  903   1.623   1.810   1.428
  187SOL     OW  904   1.841   0.175   0.963
  187SOL    HW1  905   1.880   0.090   0.927
  187SOL    HW2  906   1.743   0.177   0.944
  188SOL     OW  907   0.263   0.326   0.720
  188SOL    HW1  908   0.184   0.377   0.686
  188SOL    HW2  909   0.254   0.311   0.818
  189SOL     OW  910   1.194   1.612   0.031
  189SOL    HW1  911   1.200   1.519   0.068
  189SOL    HW2  912   1.135   1.612  -0.049
  190SOL     OW  913   0.822   1.002   1.372
  190SOL    HW1  914   0.862   1.001   1.280
  190SOL    HW2  915   0.832   1.094   1.412
  191SOL     OW  916   0.916   0.910   0.291
  191SOL    HW1  917   0.979   0.948   0.223
  191SOL    HW2  918   0.956   0.827   0.330
  192SOL     OW  919   1.504   1.607   0.044
  192SOL    HW1  920   1.412   1.644   0.051
  192SOL    HW2  921   1.542   1.627  -0.046
  193SOL     OW  922   0.372   1.288   1.490
  193SOL    HW1  923   0.359   1.381   1.456
  193SOL    HW2  924   0.288   1.236   1.477
  194SOL     OW  925   1.614   1.292   1.289
  194SOL    HW1  926   1.674   1.295   1.369
  194SOL    HW2  927   1.539   1.356   1.302
  195SOL     OW  928   1.039   1.098   0.696
  195SOL    HW1  929   0.969   1.051   0.750
  195SOL    HW2  930   1.098   1.030   0.653
  196SOL     OW  931   1.014   0.236   0.971
  196SOL    HW1  932   1.006   0.200   0.878
  196SOL    HW2  933   1.012   0.160   1.036
  197SOL     OW  934   0.590   1.487   0.491
  197SOL    HW1  935   0.632   1.429   0.421
  197SOL    HW2  936   0.546   1.566   0.447
  198SOL     OW  937   1.709   0.385   1.381
  198SOL    HW1  938   1.782   0.454   1.385
  198SOL    HW2  939   1.737   0.310   1.322
  199SOL     OW  940   0.255   1.348   0.290
  199SOL    HW1  941   0.159   1.349   0.263
  199SOL    HW2  942   0.267   1.401   0.374
  200SOL     OW  943   0.105   1.013   1.726
  200SOL    HW1  944   0.028   0.980   1.780
  200SOL    HW2  945   0.190   0.983   1.768
  201SOL     OW  946   0.672   0.203   1.489
  201SOL    HW1  947   0.762   0.187   1.449
  201SOL    HW2  948   0.680   0.208   1.588
  202SOL     OW  949   0.075   0.345   0.033
  202SOL    HW1  950  -0.017   0.317   0.004
  202SOL    HW2  951   0.106   0.422  -0.023
  203SOL     OW  952   1.440   0.856   1.398
  203SOL    HW1  953   1.383   0.908   1.335
  203SOL    HW2  954   1.536   0.868   1.374
  204SOL     OW  955   0.072   0.166   0.318
  204SOL    HW1  956   0.055   0.249   0.264
  204SOL    HW2  957   0.162   0.129   0.296
  205SOL     OW  958   1.183   1.335   0.119
  205SOL    HW1  959   1.084   1.324   0.121
  205SOL    HW2  960   1.217   1.350   0.212
  206SOL     OW  961   0.613   0.842   1.431
  206SOL    HW1  962   0.669   0.923   1.414
  206SOL    HW2  963   0.672   0.762   1.434
  207SOL     OW  964   1.493   1.767   0.959
  207SOL    HW1  965   1.526   1.831   0.890
  207SOL    HW2  966   1.559   1.761   1.034
  208SOL     OW  967   0.716   0.565   1.708
  208SOL    HW1  968   0.735   0.630   1.782
  208SOL    HW2  969   0.776   0.485   1.717
  209SOL     OW  970   1.450   1.220   1.633
  209SOL    HW1  971   1.441   1.210   1.732
  209SOL    HW2  972   1.546   1.213   1.607
  210SOL     OW  973   0.390   1.741   1.560
  210SOL    HW1  974   0.299   1.782   1.558
  210SOL    HW2  975   0.383   1.647   1.592
  211SOL     OW  976   1.674   0.883   1.254
  211SOL    HW1  977   1.647   0.794   1.217
  211SOL    HW2  978   1.675   0.951   1.181
  212SOL     OW  979   1.225   0.325   0.449
  212SOL    HW1  980   1.290   0.251   0.438
  212SOL    HW2  981   1.245   0.375   0.533
  213SOL     OW  982   0.594   0.745   0.652
  213SOL    HW1  983   0.644   0.830   0.633
  213SOL    HW2  984   0.506   0.747   0.604
  214SOL     OW  985   1.777   0.342   1.642
  214SOL    HW1  986   1.760   0.373   1.548
  214SOL    HW2  987   1.693   0.305   1.680
  215SOL     OW  988   1.730   0.934   1.517
  215SOL    HW1  989   1.768   1.025   1.532
  215SOL    HW2  990   1.722   0.917   1.418
  216SOL     OW  991   0.859   1.374   0.016
  216SOL    HW1  992   0.813   1.389   0.104
  216SOL    HW2  993   0.903   1.459  -0.014
  217SOL     OW  994   0.661   1.790   0.953
  217SOL    HW1  995   0.615   1.878   0.940
  217SOL    HW2  996   0.760   1.802   0.946
  218SOL     OW  997   0.859   0.956   0.861
  218SOL    HW1  998   0.913   0.887   0.909
  218SOL    HW2  999   0.827   1.025   0.927
  219SOL     OW 1000   1.083   0.984   0.087
  219SOL    HW1 1001   1.060   1.037   0.005
  219SOL    HW2 1002   1.164   0.928   0.068
  220SOL     OW 1003   1.861   1.569   0.851
  220SOL    HW1 1004   1.790   1.557   0.781
  220SOL    HW2 1005   1.862   1.490   0.911
  221SOL     OW 1006   0.221   1.314   1.844
  221SOL    HW1 1007   0.156   1.241   1.823
  221SOL    HW2 1008   0.225   1.328   1.942
  222SOL     OW 1009   0.079   1.240   0.653
  222SOL    HW1 1010   0.078   1.193   0.741
  222SOL    HW2 1011   0.161   1.212   0.602
  223SOL     OW 1012   0.672   1.391   1.624
  223SOL    HW1 1013   0.594   1.341   1.662
  223SOL    HW2 1014   0.669   1.486   1.655
  224SOL     OW 1015   1.824   0.192   1.227
  224SOL    HW1 1016   1.820   0.102   1.271
  224SOL    HW2 1017   1.827   0.181   1.128
  225SOL     OW 1018   0.428   0.424   0.520
  225SOL    HW1 1019   0.458   0.352   0.458
  225SOL    HW2 1020   0.389   0.384   0.603
  226SOL     OW 1021   1.705   1.487   1.104
  226SOL    HW1 1022   1.612   1.462   1.077
  226SOL    HW2 1023   1.731   1.437   1.186
  227SOL     OW 1024   0.317   0.547   1.280
  227SOL    HW1 1025   0.355   0.488   1.352
  227SOL    HW2 1026   0.357   0.521   1.192
  228SOL     OW 1027   0.812   1.586   0.687
  228SOL    HW1 1028   0.844   1.596   0.593
  228SOL    HW2 1029   0.733   1.524   0.689
  229SOL     OW 1030   1.424   0.214   1.112
  229SOL    HW1 1031   1.476   0.149   1.167
  229SOL    HW2 1032   1.375   0.277   1.173
  230SOL     OW 1033   1.001   0.034   1.154
  230SOL    HW1 1034   0.938  -0.038   1.123
  230SOL    HW2 1035   1.094  -0.002   1.154
  231SOL     OW 1036   0.770   1.330   0.301
  231SOL    HW1 1037   0.724   1.243   0.318
  231SOL    HW2 1038   0.861   1.327   0.342
  232SOL     OW 1039   0.618   1.567   1.284
  232SOL    HW1 1040   0.613   1.649   1.341
  232SOL    HW2 1041   0.707   1.564   1.239
  233SOL     OW 1042   1.352   0.052   0.168
  233SOL    HW1 1043   1.387   0.011   0.084
  233SOL    HW2 1044   1.262   0.014   0.188
  234SOL     OW 1045   1.300   0.453   0.691
  234SOL    HW1 1046   1.241   0.533   0.695
  234SOL    HW2 1047   1.315   0.418   0.784
  235SOL     OW 1048   1.593   0.221   0.882
  235SOL    HW1 1049   1.509   0.220   0.936
  235SOL    HW2 1050   1.595   0.304   0.826
  236SOL     OW 1051   0.039   1.077   0.300
  236SOL    HW1 1052   0.138   1.066   0.291
  236SOL    HW2 1053  -0.001   0.991   0.332
  237SOL     OW 1054   0.875   1.646   0.337
  237SOL    HW1 1055   0.798   1.611   0.283
  237SOL    HW2 1056   0.843   1.717   0.399
  238SOL     OW 1057   0.230   0.628   1.975
  238SOL    HW1 1058   0.137   0.626   2.012
  238SOL    HW2 1059   0.231   0.589   1.883
  239SOL     OW 1060   0.225   0.275   2.858
  239SOL    HW1 1061   0.260   0.258   2.950
  239SOL    HW2 1062   0.137   0.230   2.846
  240SOL     OW 1063   0.019   0.368   2.509
  240SOL    HW1 1064  -0.063   0.411   2.548
  240SOL    HW2 1065  -0.009   0.295   2.446
  241SOL     OW 1066   0.569   1.275   3.027
  241SOL    HW1 1067   0.476   1.268   2.990
  241SOL    HW2 1068   0.580   1.364   3.071
  242SOL     OW 1069   1.555   1.511   2.565
  242SOL    HW1 1070   1.498   1.495   2.646
  242SOL    HW2 1071   1.496   1.521   2.485
  243SOL     OW 1072   1.135   0.703   2.579
  243SOL    HW1 1073   1.192   0.781   2.554
  243SOL    HW2 1074   1.075   0.729   2.655
  244SOL     OW 1075   1.755   0.607   2.093
  244SOL    HW1 1076   1.743   0.594   1.994
  244SOL    HW2 1077   1.725   0.526   2.142
  245SOL     OW 1078   0.768   1.144   2.885
  245SOL    HW1 1079   0.690   1.161   2.945
  245SOL    HW2 1080   0.802   1.231   2.849
  246SOL     OW 1081   0.850   0.798   3.685
  246SOL    HW1 1082   0.846   0.874   3.750
  246SOL    HW2 1083   0.872   0.834   3.594
  247SOL     OW 1084   0.685   1.012   2.527
  247SOL    HW1 1085   0.754   0.996   2.597
  247SOL    HW2 1086   0.612   1.069   2.565
  248SOL     OW 1087   0.686   1.161   3.665
  248SOL    HW1 1088   0.746   1.240   3.679
  248SOL    HW2 1089   0.600   1.192   3.624
  249SOL     OW 1090   0.335   1.435   2.923
  249SOL    HW1 1091   0.257   1.404   2.870
  249SOL    HW2 1092   0.393   1.493   2.866
  250SOL     OW 1093   1.460   1.505   3.201
  250SOL    HW1 1094   1.484   1.599   3.227
  250SOL    HW2 1095   1.444   1.451   3.283
  251SOL     OW 1096   0.438   0.392   3.361
  251SOL    HW1 1097   0.520   0.336   3.370
  251SOL    HW2 1098   0.357   0.334   3.365
  252SOL     OW 1099   1.603   0.447   2.599
  252SOL    HW1 1100   1.529   0.493   2.549
  252SOL    HW2 1101   1.654   0.515   2.652
  253SOL     OW 1102   0.231   1.713   2.345
  253SOL    HW1 1103   0.265   1.790   2.399
  253SOL    HW2 1104   0.275   1.713   2.255
  254SOL     OW 1105   1.127   1.341   3.552
  254SOL    HW1 1106   1.174   1.341   3.640
  254SOL    HW2 1107   1.079   1.254   3.541
  255SOL     OW 1108   0.230   1.434   2.400
  255SOL    HW1 1109   0.204   1.530   2.400
  255SOL    HW2 1110   0.159   1.380   2.445
  256SOL     OW 1111   0.240   1.091   2.748
  256SOL    HW1 1112   0.254   1.007   2.800
  256SOL    HW2 1113   0.185   1.155   2.803
  257SOL     OW 1114   0.620   1.786   3.301
  257SOL    HW1 1115   0.528   1.769   3.336
  257SOL    HW2 1116   0.648   1.878   3.327
  258SOL     OW 1117   0.606   0.964   1.985
  258SOL    HW1 1118   0.613   1.048   1.931
  258SOL    HW2 1119   0.652   0.977   2.073
  259SOL     OW 1120   1.594   0.114   3.342
  259SOL    HW1 1121   1.576   0.181   3.270
  259SOL    HW2 1122   1.591   0.160   3.431
  260SOL     OW 1123   0.122   0.643   2.425
  260SOL    HW1 1124   0.077   0.555   2.442
  260SOL    HW2 1125   0.121   0.697   2.509
  261SOL     OW 1126   1.842   1.767   2.221
  261SOL    HW1 1127   1.896   1.738   2.301
  261SOL    HW2 1128   1.872   1.857   2.192
  262SOL     OW 1129   0.027   1.596   1.979
  262SOL    HW1 1130   0.008   1.500   2.000
  262SOL    HW2 1131  -0.006   1.654   2.054
  263SOL     OW 1132   1.689   0.922   2.474
  263SOL    HW1 1133   1.784   0.893   2.482
  263SOL    HW2 1134   1.681   0.987   2.399
  264SOL     OW 1135   1.641   1.108   2.294
  264SOL    HW1 1136   1.727   1.110   2.242
  264SOL    HW2 1137   1.655   1.155   2.382
  265SOL     OW 1138   0.113   0.737   3.459
  265SOL    HW1 1139   0.201   0.724   3.504
  265SOL    HW2 1140   0.100   0.834   3.437
  266SOL     OW 1141   0.613   1.365   2.588
  266SOL    HW1 1142   0.564   1.278   2.597
  266SOL    HW2 1143   0.590   1.408   2.501
  267SOL     OW 1144   1.293   1.228   3.285
  267SOL    HW1 1145   1.330   1.155   3.227
  267SOL    HW2 1146   1.345   1.233   3.370
  268SOL     OW 1147   0.809   0.004   2.364
  268SOL    HW1 1148   0.849   0.095   2.355
  268SOL    HW2 1149   0.709   0.012   2.370
  269SOL     OW 1150   0.197   0.976   3.126
  269SOL    HW1 1151   0.286   0.931   3.112
  269SOL    HW2 1152   0.124   0.911   3.107
  270SOL     OW 1153   1.525   0.999   2.052
  270SOL    HW1 1154   1.462   0.923   2.065
  270SOL    HW2 1155   1.573   1.017   2.138
  271SOL     OW 1156   1.187   1.792   3.478
  271SOL    HW1 1157   1.211   1.852   3.402
  271SOL    HW2 1158   1.194   1.697   3.448
  272SOL     OW 1159   0.317   0.251   3.663
  272SOL    HW1 1160   0.388   0.322   3.669
  272SOL    HW2 1161   0.229   0.290   3.691
  273SOL     OW 1162   1.466   1.417   2.815
  273SOL    HW1 1163   1.407   1.423   2.895
  273SOL    HW2 1164   1.451   1.329   2.769
  274SOL     OW 1165   1.667   1.714   2.434
  274SOL    HW1 1166   1.626   1.691   2.346
  274SOL    HW2 1167   1.649   1.640   2.499
  275SOL     OW 1168   0.598   0.729   2.132
  275SOL    HW1 1169   0.622   0.798   2.064
  275SOL    HW2 1170   0.520   0.762   2.186
  276SOL     OW 1171   1.281   0.345   2.806
  276SOL    HW1 1172   1.195   0.295   2.793
  276SOL    HW2 1173   1.343   0.291   2.862
  277SOL     OW 1174   1.576   1.662   2.169
  277SOL    HW1 1175   1.665   1.708   2.172
  277SOL    HW2 1176   1.555   1.638   2.074
  278SOL     OW 1177   0.807   0.605   3.327
  278SOL    HW1 1178   0.760   0.602   3.416
  278SOL    HW2 1179   0.756   0.550   3.261
  279SOL     OW 1180   1.394   0.469   3.536
  279SOL    HW1 1181   1.374   0.512   3.624
  279SOL    HW2 1182   1.472   0.407   3.545
  280SOL     OW 1183   0.973   0.890   3.434
  280SOL    HW1 1184   1.019   0.806   3.405
  280SOL    HW2 1185   0.917   0.924   3.359
  281SOL     OW 1186   0.991   0.410   3.104
  281SOL    HW1 1187   0.914   0.444   3.158
  281SOL    HW2 1188   0.957   0.359   3.025
  282SOL     OW 1189   1.041   0.701   2.291
  282SOL    HW1 1190   1.067   0.697   2.387
  282SOL    HW2 1191   0.956   0.650   2.277
  283SOL     OW 1192   0.076   0.811   2.651
  283SOL    HW1 1193   0.175   0.799   2.660
  283SOL    HW2 1194   0.052   0.906   2.672
  284SOL     OW 1195   0.130   1.821   3.433
  284SOL    HW1 1196   0.120   1.806   3.532
  284SOL    HW2 1197   0.044   1.857   3.397
  285SOL     OW 1198   0.865   0.348   2.057
  285SOL    HW1 1199   0.924   0.411   2.008
  285SOL    HW2 1200   0.884   0.254   2.028
  286SOL     OW 1201   1.719   0.585   3.693
  286SOL    HW1 1202   1.693   0.674   3.657
  286SOL    HW2 1203   1.717   0.517   3.620
  287SOL     OW 1204   1.362   1.144   2.407
  287SOL    HW1 1205   1.445   1.115   2.359
  287SOL    HW2 1206   1.313   1.211   2.351
  288SOL     OW 1207   0.550   0.196   2.747
  288SOL    HW1 1208   0.545   0.191   2.847
  288SOL    HW2 1209   0.552   0.292   2.718
  289SOL     OW 1210   1.008   1.456   2.339
  289SOL    HW1 1211   0.962   1.528   2.287
  289SOL    HW2 1212   1.004   1.476   2.437
  290SOL     OW 1213   0.351   1.801   2.715
  290SOL    HW1 1214   0.401   1.715   2.721
  290SOL    HW2 1215   0.416   1.878   2.712
  291SOL     OW 1216   1.795   1.066   2.735
  291SOL    HW1 1217   1.733   1.051   2.659
  291SOL    HW2 1218   1.743   1.077   2.820
  292SOL     OW 1219   1.227   1.550   3.368
  292SOL    HW1 1220   1.233   1.473   3.432
  292SOL    HW2 1221   1.175   1.524   3.288
  293SOL     OW 1222   0.321   0.943   2.104
  293SOL    HW1 1223   0.403   0.982   2.062
  293SOL    HW2 1224   0.294   0.861   2.055
  294SOL     OW 1225   1.458   0.735   2.590
  294SOL    HW1 1226   1.453   0.670   2.665
  294SOL    HW2 1227   1.538   0.794   2.603
  295SOL     OW 1228   0.461   1.266   3.589
  295SOL    HW1 1229   0.411   1.267   3.503
  295SOL    HW2 1230   0.398   1.248   3.665
  296SOL     OW 1231   1.111   1.776   2.099
  296SOL    HW1 1232   1.051   1.714   2.149
  296SOL    HW2 1233   1.142   1.732   2.014
  297SOL     OW 1234   0.202   0.285   3.360
  297SOL    HW1 1235   0.122   0.345   3.347
  297SOL    HW2 1236   0.192   0.236   3.446
  298SOL     OW 1237   1.632   1.377   1.943
  298SOL    HW1 1238   1.600   1.471   1.933
  298SOL    HW2 1239   1.556   1.314   1.931
  299SOL     OW 1240   0.464   1.743   2.185
  299SOL    HW1 1241   0.497   1.782   2.271
  299SOL    HW2 1242   0.540   1.736   2.120
  300SOL     OW 1243   1.400   0.107   2.288
  300SOL    HW1 1244   1.376   0.070   2.198
  300SOL    HW2 1245   1.499   0.123   2.292
  301SOL     OW 1246   0.249   1.785   3.103
  301SOL    HW1 1247   0.306   1.720   3.153
  301SOL    HW2 1248   0.233   1.752   3.010
  302SOL     OW 1249   0.940   1.698   2.766
  302SOL    HW1 1250   1.020   1.641   2.787
  302SOL    HW2 1251   0.891   1.658   2.689
  303SOL     OW 1252   0.382   0.700   2.342
  303SOL    HW1 1253   0.427   0.610   2.339
  303SOL    HW2 1254   0.288   0.689   2.375
  304SOL     OW 1255   1.547   0.222   3.591
  304SOL    HW1 1256   1.542   0.259   3.683
  304SOL    HW2 1257   1.475   0.153   3.579
  305SOL     OW 1258   0.614   0.122   1.979
  305SOL    HW1 1259   0.712   0.100   1.986
  305SOL    HW2 1260   0.583   0.105   1.886
  306SOL     OW 1261   0.781   0.264   3.611
  306SOL    HW1 1262   0.848   0.203   3.654
  306SOL    HW2 1263   0.708   0.283   3.676
  307SOL     OW 1264   0.888   1.514   3.057
  307SOL    HW1 1265   0.865   1.489   2.963
  307SOL    HW2 1266   0.949   1.445   3.096
  308SOL     OW 1267   1.351   0.590   3.295
  308SOL    HW1 1268   1.379   0.547   3.380
  308SOL    HW2 1269   1.376   0.686   3.296
  309SOL     OW 1270   0.803   1.402   2.786
  309SOL    HW1 1271   0.893   1.416   2.744
  309SOL    HW2 1272   0.732   1.404   2.715
  310SOL     OW 1273   0.922   0.503   2.761
  310SOL    HW1 1274   0.897   0.494   2.665
  310SOL    HW2 1275   0.970   0.421   2.792
  311SOL     OW 1276   0.539   0.064   2.374
  311SOL    HW1 1277   0.458   0.065   2.432
  311SOL    HW2 1278   0.542   0.147   2.319
  312SOL     OW 1279   1.434   1.188   1.903
  312SOL    HW1 1280   1.466   1.112   1.960
  312SOL    HW2 1281   1.342   1.215   1.933
  313SOL     OW 1282   0.297   0.035   2.033
  313SOL    HW1 1283   0.346   0.119   2.012
  313SOL    HW2 1284   0.359  -0.030   2.078
  314SOL     OW 1285   0.935   0.236   2.342
  314SOL    HW1 1286   0.887   0.277   2.264
  314SOL    HW2 1287   1.034   0.234   2.323
  315SOL     OW 1288   1.076   0.683   3.326
  315SOL    HW1 1289   0.996   0.622   3.329
  315SOL    HW2 1290   1.157   0.630   3.302
  316SOL     OW 1291   1.227   1.570   2.655
  316SOL    HW1 1292   1.248   1.644   2.590
  316SOL    HW2 1293   1.295   1.570   2.728
  317SOL     OW 1294   0.459   1.152   2.603
  317SOL    HW1 1295   0.388   1.125   2.668
  317SOL    HW2 1296   0.433   1.124   2.510
  318SOL     OW 1297   1.271   1.797   2.453
  318SOL    HW1 1298   1.315   1.861   2.389
  318SOL    HW2 1299   1.221   1.849   2.523
  319SOL     OW 1300   1.032   0.549   1.878
  319SOL    HW1 1301   0.991   0.631   1.839
  319SOL    HW2 1302   1.096   0.575   1.951
  320SOL     OW 1303   0.078   0.556   3.248
  320SOL    HW1 1304   0.170   0.555   3.207
  320SOL    HW2 1305   0.072   0.630   3.315
  321SOL     OW 1306   0.561   0.222   3.009
  321SOL    HW1 1307   0.599   0.138   3.046
  321SOL    HW2 1308   0.473   0.241   3.053
  322SOL     OW 1309   0.866   0.454   2.504
  322SOL    HW1 1310   0.834   0.526   2.442
  322SOL    HW2 1311   0.890   0.373   2.451
  323SOL     OW 1312   1.017   0.039   2.615
  323SOL    HW1 1313   0.945   0.044   2.546
  323SOL    HW2 1314   0.993  -0.030   2.684
  324SOL     OW 1315   1.429   1.173   2.729
  324SOL    HW1 1316   1.374   1.089   2.722
  324SOL    HW2 1317   1.455   1.202   2.637
  325SOL     OW 1318   1.466   0.590   2.854
  325SOL    HW1 1319   1.436   0.495   2.861
  325SOL    HW2 1320   1.539   0.606   2.920
  326SOL     OW 1321   1.857   0.833   2.239
  326SOL    HW1 1322   1.899   0.769   2.303
  326SOL    HW2 1323   1.819   0.782   2.161
  327SOL     OW 1324   0.488   1.385   2.036
  327SOL    HW1 1325   0.401   1.370   2.083
  327SOL    HW2 1326   0.471   1.411   1.941
  328SOL     OW 1327   1.664   1.280   2.519
  328SOL    HW1 1328   1.763   1.288   2.533
  328SOL    HW2 1329   1.619   1.364   2.550
  329SOL     OW 1330   1.390   0.575   1.940
  329SOL    HW1 1331   1.336   0.554   2.021
  329SOL    HW2 1332   1.481   0.534   1.949
  330SOL     OW 1333   0.527   0.256   2.190
  330SOL    HW1 1334   0.554   0.197   2.115
  330SOL    HW2 1335   0.527   0.351   2.159
  331SOL     OW 1336   1.754   1.223   3.450
  331SOL    HW1 1337   1.845   1.184   3.437
  331SOL    HW2 1338   1.762   1.319   3.474
  332SOL     OW 1339   1.064   1.347   3.202
  332SOL    HW1 1340   0.984   1.324   3.257
  332SOL    HW2 1341   1.147   1.321   3.251
  333SOL     OW 1342   1.592   1.629   3.487
  333SOL    HW1 1343   1.619   1.663   3.397
  333SOL    HW2 1344   1.671   1.591   3.533
  334SOL     OW 1345   1.111   1.195   2.962
  334SOL    HW1 1346   1.071   1.239   3.043
  334SOL    HW2 1347   1.070   1.232   2.879
  335SOL     OW 1348   1.638   1.099   2.941
  335SOL    HW1 1349   1.643   1.180   3.000
  335SOL    HW2 1350   1.552   1.101   2.890
  336SOL     OW 1351   0.915   0.089   3.264
  336SOL    HW1 1352   0.940   0.069   3.169
  336SOL    HW2 1353   0.987   0.145   3.306
  337SOL     OW 1354   0.980   1.116   3.581
  337SOL    HW1 1355   0.881   1.122   3.591
  337SOL    HW2 1356   1.003   1.036   3.525
  338SOL     OW 1357   0.705   1.050   2.230
  338SOL    HW1 1358   0.691   1.057   2.329
  338SOL    HW2 1359   0.789   0.999   2.212
  339SOL     OW 1360   0.410   0.813   3.113
  339SOL    HW1 1361   0.496   0.825   3.163
  339SOL    HW2 1362   0.368   0.726   3.140
  340SOL     OW 1363   1.274   0.386   3.124
  340SOL    HW1 1364   1.295   0.460   3.188
  340SOL    HW2 1365   1.185   0.403   3.081
  341SOL     OW 1366   0.064   1.564   3.193
  341SOL    HW1 1367   0.018   1.646   3.159
  341SOL    HW2 1368   0.162   1.583   3.202
  342SOL     OW 1369   0.367   1.100   2.363
  342SOL    HW1 1370   0.360   1.183   2.307
  342SOL    HW2 1371   0.371   1.020   2.303
  343SOL     OW 1372   0.566   0.537   2.727
  343SOL    HW1 1373   0.578   0.603   2.653
  343SOL    HW2 1374   0.612   0.571   2.810
  344SOL     OW 1375   1.252   1.348   2.250
  344SOL    HW1 1376   1.302   1.425   2.290
  344SOL    HW2 1377   1.157   1.350   2.282
  345SOL     OW 1378   1.272   1.445   3.004
  345SOL    HW1 1379   1.319   1.458   3.091
  345SOL    HW2 1380   1.206   1.371   3.013
  346SOL     OW 1381   1.582   0.639   2.334
  346SOL    HW1 1382   1.551   0.700   2.407
  346SOL    HW2 1383   1.632   0.691   2.265
  347SOL     OW 1384   0.354   1.510   3.191
  347SOL    HW1 1385   0.333   1.466   3.104
  347SOL    HW2 1386   0.451   1.536   3.194
  348SOL     OW 1387   0.402   0.751   3.460
  348SOL    HW1 1388   0.470   0.806   3.413
  348SOL    HW2 1389   0.442   0.663   3.487
  349SOL     OW 1390   1.587   0.779   3.532
  349SOL    HW1 1391   1.495   0.817   3.527
  349SOL    HW2 1392   1.647   0.826   3.467
  350SOL     OW 1393   1.013   0.105   3.632
  350SOL    HW1 1394   1.019   0.190   3.580
  350SOL    HW2 1395   1.045   0.029   3.575
  351SOL     OW 1396   0.504   0.050   3.602
  351SOL    HW1 1397   0.462  -0.007   3.532
  351SOL    HW2 1398   0.438   0.119   3.634
  352SOL     OW 1399   0.573   0.870   2.891
  352SOL    HW1 1400   0.617   0.959   2.882
  352SOL    HW2 1401   0.510   0.870   2.968
  353SOL     OW 1402   1.360   0.862   2.907
  353SOL    HW1 1403   1.285   0.862   2.841
  353SOL    HW2 1404   1.397   0.770   2.916
  354SOL     OW 1405   1.209   0.525   2.137
  354SOL    HW1 1406   1.222   0.441   2.191
  354SOL    HW2 1407   1.180   0.599   2.197
  355SOL     OW 1408   0.307   0.213   3.093
  355SOL    HW1 1409   0.284   0.250   3.183
  355SOL    HW2 1410   0.277   0.118   3.087
  356SOL     OW 1411   0.037   1.310   3.144
  356SOL    HW1 1412   0.090   1.261   3.212
  356SOL    HW2 1413   0.059   1.408   3.149
  357SOL     OW 1414   0.732   0.634   2.926
  357SOL    HW1 1415   0.791   0.608   2.850
  357SOL    HW2 1416   0.704   0.730   2.915
  358SOL     OW 1417   1.728   0.935   3.716
  358SOL    HW1 1418   1.682   0.928   3.627
  358SOL    HW2 1419   1.666   0.979   3.782
  359SOL     OW 1420   0.307   0.063   2.480
  359SOL    HW1 1421   0.296   0.157   2.513
  359SOL    HW2 1422   0.302   0.000   2.557
  360SOL     OW 1423   1.622   0.367   2.236
  360SOL    HW1 1424   1.624   0.291   2.300
  360SOL    HW2 1425   1.574   0.444   2.276
  361SOL     OW 1426   1.023   0.766   2.828
  361SOL    HW1 1427   1.038   0.787   2.924
  361SOL    HW2 1428   0.993   0.671   2.819
  362SOL     OW 1429   0.980   1.573   3.562
  362SOL    HW1 1430   0.960   1.617   3.474
  362SOL    HW2 1431   1.019   1.482   3.546
  363SOL     OW 1432   1.859   1.518   3.467
  363SOL    HW1 1433   1.873   1.545   3.372
  363SOL    HW2 1434   1.942   1.540   3.520
  364SOL     OW 1435   0.350   0.898   3.666
  364SOL    HW1 1436   0.426   0.942   3.714
  364SOL    HW2 1437   0.385   0.851   3.584
  365SOL     OW 1438   1.540   0.274   1.987
  365SOL    HW1 1439   1.479   0.199   2.010
  365SOL    HW2 1440   1.562   0.326   2.070
  366SOL     OW 1441   1.303   0.838   1.904
  366SOL    HW1 1442   1.337   0.745   1.919
  366SOL    HW2 1443   1.321   0.865   1.809
  367SOL     OW 1444   1.068   1.333   2.711
  367SOL    HW1 1445   1.075   1.249   2.656
  367SOL    HW2 1446   1.130   1.402   2.675
  368SOL     OW 1447   0.319   0.810   2.811
  368SOL    HW1 1448   0.412   0.846   2.816
  368SOL    HW2 1449   0.313   0.725   2.863
  369SOL     OW 1450   0.339   0.509   2.868
  369SOL    HW1 1451   0.287   0.426   2.851
  369SOL    HW2 1452   0.416   0.514   2.804
  370SOL     OW 1453   1.138   0.380   3.540
  370SOL    HW1 1454   1.093   0.443   3.604
  370SOL    HW2 1455   1.231   0.411   3.523
  371SOL     OW 1456   1.160   0.207   3.339
  371SOL    HW1 1457   1.160   0.271   3.416
  371SOL    HW2 1458   1.188   0.255   3.256
  372SOL     OW 1459   0.008   1.326   2.062
  372SOL    HW1 1460  -0.085   1.347   2.031
  372SOL    HW2 1461   0.018   1.227   2.075
  373SOL     OW 1462   0.088   1.801   2.789
  373SOL    HW1 1463   0.046   1.715   2.762
  373SOL    HW2 1464   0.182   1.804   2.755
  374SOL     OW 1465   0.504   1.568   2.772
  374SOL    HW1 1466   0.570   1.642   2.781
  374SOL    HW2 1467   0.548   1.489   2.730
  375SOL     OW 1468   1.002   0.796   3.100
  375SOL    HW1 1469   1.043   0.764   3.186
  375SOL    HW2 1470   0.906   0.769   3.097
  376SOL     OW 1471   0.040   0.544   2.976
  376SOL    HW1 1472   0.125   0.511   2.935
  376SOL    HW2 1473   0.053   0.559   3.074
  377SOL     OW 1474   0.189   0.520   3.584
  377SOL    HW1 1475   0.248   0.480   3.514
  377SOL    HW2 1476   0.131   0.591   3.543
  378SOL     OW 1477   1.369   0.950   3.522
  378SOL    HW1 1478   1.408   1.039   3.542
  378SOL    HW2 1479   1.379   0.930   3.425
  379SOL     OW 1480   0.815   0.572   2.187
  379SOL    HW1 1481   0.822   0.483   2.141
  379SOL    HW2 1482   0.721   0.606   2.179
  380SOL     OW 1483   1.657   0.604   3.068
  380SOL    HW1 1484   1.619   0.535   3.130
  380SOL    HW2 1485   1.739   0.568   3.024
  381SOL     OW 1486   0.252   1.564   3.606
  381SOL    HW1 1487   0.222   1.621   3.682
  381SOL    HW2 1488   0.245   1.467   3.632
  382SOL     OW 1489   0.671   0.464   3.131
  382SOL    HW1 1490   0.637   0.375   3.101
  382SOL    HW2 1491   0.697   0.518   3.051
  383SOL     OW 1492   0.930   1.678   3.327
  383SOL    HW1 1493   0.906   1.660   3.232
  383SOL    HW2 1494   0.960   1.772   3.337
  384SOL     OW 1495   0.473   0.500   2.053
  384SOL    HW1 1496   0.534   0.580   2.057
  384SOL    HW2 1497   0.378   0.531   2.060
  385SOL     OW 1498   0.159   1.137   3.328
  385SOL    HW1 1499   0.181   1.076   3.404
  385SOL    HW2 1500   0.169   1.088   3.242
  386SOL     OW 1501   1.347   1.059   3.096
  386SOL    HW1 1502   1.371   0.996   3.022
  386SOL    HW2 1503   1.257   1.099   3.078
  387SOL     OW 1504   1.302   0.855   2.171
  387SOL    HW1 1505   1.216   0.824   2.213
  387SOL    HW2 1506   1.298   0.841   2.072
  388SOL     OW 1507   1.759   1.747   3.016
  388SOL    HW1 1508   1.820   1.777   2.943
  388SOL    HW2 1509   1.721   1.658   2.994
  389SOL     OW 1510   1.252   1.731   2.990
  389SOL    HW1 1511   1.336   1.736   2.936
  389SOL    HW2 1512   1.229   1.635   3.008
  390SOL     OW 1513   0.083   1.258   2.884
  390SOL    HW1 1514   0.078   1.257   2.984
  390SOL    HW2 1515   0.000   1.217   2.846
  391SOL     OW 1516   0.688   1.662   3.578
  391SOL    HW1 1517   0.632   1.743   3.587
  391SOL    HW2 1518   0.740   1.666   3.492
  392SOL     OW 1519   1.726   0.135   2.385
  392SOL    HW1 1520   1.799   0.118   2.318
  392SOL    HW2 1521   1.695   0.048   2.423
  393SOL     OW 1522   1.388   1.573   2.339
  393SOL    HW1 1523   1.455   1.585   2.265
  393SOL    HW2 1524   1.348   1.662   2.362
  394SOL     OW 1525   0.130   1.794   3.713
  394SOL    HW1 1526   0.089   1.720   3.766
  394SOL    HW2 1527   0.194   1.845   3.771
  395SOL     OW 1528   1.280   0.927   2.534
  395SOL    HW1 1529   1.340   0.846   2.536
  395SOL    HW2 1530   1.320   0.996   2.474
  396SOL     OW 1531   0.830   1.273   3.284
  396SOL    HW1 1532   0.825   1.306   3.379
  396SOL    HW2 1533   0.744   1.292   3.238
  397SOL     OW 1534   0.672   1.616   2.016
  397SOL    HW1 1535   0.681   1.626   1.917
  397SOL    HW2 1536   0.632   1.527   2.037
  398SOL     OW 1537   1.650   1.720   3.256
  398SOL    HW1 1538   1.703   1.730   3.172
  398SOL    HW2 1539   1.623   1.810   3.290
  399SOL     OW 1540   1.841   0.175   2.825
  399SOL    HW1 1541   1.880   0.090   2.789
  399SOL    HW2 1542   1.743   0.177   2.806
  400SOL     OW 1543   0.263   0.326   2.582
  400SOL    HW1 1544   0.184   0.377   2.548
  400SOL    HW2 1545   0.254   0.311   2.680
  401SOL     OW 1546   1.194   1.612   1.893
  401SOL    HW1 1547   1.200   1.519   1.930
  401SOL    HW2 1548   1.135   1.612   1.813
  402SOL     OW 1549   0.822   1.002   3.234
  402SOL    HW1 1550   0.862   1.001   3.142
  402SOL    HW2 1551   0.832   1.094   3.274
  403SOL     OW 1552   0.916   0.910   2.153
  403SOL    HW1 1553   0.979   0.948   2.085
  403SOL    HW2 1554   0.956   0.827   2.192
  404SOL     OW 1555   1.504   1.607   1.906
  404SOL    HW1 1556   1.412   1.644   1.913
  404SOL    HW2 1557   1.542   1.627   1.816
  405SOL     OW 1558   0.372   1.288   3.352
  405SOL    HW1 1559   0.359   1.381   3.318
  405SOL    HW2 1560   0.288   1.236   3.339
  406SOL     OW 1561   1.614   1.292   3.151
  406SOL    HW1 1562   1.674   1.295   3.231
  406SOL    HW2 1563   1.539   1.356   3.164
  407SOL     OW 1564   1.039   1.098   2.558
  407SOL    HW1 1565   0.969   1.051   2.612
  407SOL    HW2 1566   1.098   1.030   2.515
  408SOL     OW 1567   1.014   0.236   2.833
  408SOL    HW1 1568   1.006   0.200   2.740
  408SOL    HW2 1569   1.012   0.160   2.898
  409SOL     OW 1570   0.590   1.487   2.353
  409SOL    HW1 1571   0.632   1.429   2.283
  409SOL    HW2 1572   0.546   1.566   2.309
  410SOL     OW 1573   1.709   0.385   3.243
  410SOL    HW1 1574   1.782   0.454   3.247
  410SOL    HW2 1575   1.737   0.310   3.184
  411SOL     OW 1576   0.255   1.348   2.152
  411SOL    HW1 1577   0.159   1.349   2.125
  411SOL    HW2 1578   0.267   1.401   2.236
  412SOL     OW 1579   0.105   1.013   3.588
  412SOL    HW1 1580   0.028   0.980   3.642
  412SOL    HW2 1581   0.190   0.983   3.630
  413SOL     OW 1582   0.672   0.203   3.351
  413SOL    HW1 1583   0.762   0.187   3.311
  413SOL    HW2 1584   0.680   0.208   3.450
  414SOL     OW 1585   0.075   0.345   1.895
  414SOL    HW1 1586  -0.017   0.317   1.866
  414SOL    HW2 1587   0.106   0.422   1.839
  415SOL     OW 1588   1.440   0.856   3.260
  415SOL    HW1 1589   1.383   0.908   3.197
  415SOL    HW2 1590   1.536   0.868   3.236
  416SOL     OW 1591   0.072   0.166   2.180
  416SOL    HW1 1592   0.055   0.249   2.126
  416SOL    HW2 1593   0.162   0.129   2.158
  417SOL     OW 1594   1.183   1.335   1.981
  417SOL    HW1 1595   1.084   1.324   1.983
  417SOL    HW2 1596   1.217   1.350   2.074
  418SOL     OW 1597   0.613   0.842   3.293
  418SOL    HW1 1598   0.669   0.923   3.276
  418SOL    HW2 1599   0.672   0.762   3.296
  419SOL     OW 1600   1.493   1.767   2.821
  419SOL    HW1 1601   1.526   1.831   2.752
  419SOL    HW2 1602   1.559   1.761   2.896
  420SOL     OW 1603   0.716   0.565   3.570
  420SOL    HW1 1604   0.735   0.630   3.644
  420SOL    HW2 1605   0.776   0.485   3.579
  421SOL     OW 1606   1.450   1.220   3.495
  421SOL    HW1 1607   1.441   1.210   3.594
  421SOL    HW2 1608   1.546   1.213   3.469
  422SOL     OW 1609   0.390   1.741   3.422
  422SOL    HW1 1610   0.299   1.782   3.420
  422SOL    HW2 1611   0.383   1.647   3.454
  423SOL     OW 1612   1.674   0.883   3.116
  423SOL    HW1 1613   1.647   0.794   3.079
  423SOL    HW2 1614   1.675   0.951   3.043
  424SOL     OW 1615   1.225   0.325   2.311
  424SOL    HW1 1616   1.290   0.251   2.300
  424SOL    HW2 1617   1.245   0.375   2.395
  425SOL     OW 1618   0.594   0.745   2.514
  425SOL    HW1 1619   0.644   0.830   2.495
  425SOL    HW2 1620   0.506   0.747   2.466
  426SOL     OW 1621   1.777   0.342   3.504
  426SOL    HW1 1622   1.760   0.373   3.410
  426SOL    HW2 1623   1.693   0.305   3.542
  427SOL     OW 1624   1.730   0.934   3.379
  427SOL    HW1 1625   1.768   1.025   3.394
  427SOL    HW2 1626   1.722   0.917   3.280
  428SOL     OW 1627   0.859   1.374   1.878
  428SOL    HW1 1628   0.813   1.389   1.966
  428SOL    HW2 1629   0.903   1.459   1.848
  429SOL     OW 1630   0.661   1.790   2.815
  429SOL    HW1 1631   0.615   1.878   2.802
  429SOL    HW2 1632   0.760   1.802   2.808
  430SOL     OW 1633   0.859   0.956   2.723
  430SOL    HW1 1634   0.913   0.887   2.771
  430SOL    HW2 1635   0.827   1.025   2.789
  431SOL     OW 1636   1.083   0.984   1.949
  431SOL    HW1 1637   1.060   1.037   1.867
  431SOL    HW2 1638   1.164   0.928   1.930
  432SOL     OW 1639   1.861   1.569   2.713
  432SOL    HW1 1640   1.790   1.557   2.643
  432SOL    HW2 1641   1.862   1.490   2.773
  433SOL     OW 1642   0.221   1.314   3.706
  433SOL    HW1 1643   0.156   1.241   3.685
  433SOL    HW2 1644   0.225   1.328   3.804
  434SOL     OW 1645   0.079   1.240   2.515
  434SOL    HW1 1646   0.078   1.193   2.603
  434SOL    HW2 1647   0.161   1.212   2.464
  435SOL     OW 1648   0.672   1.391   3.486
  435SOL    HW1 1649   0.594   1.341   3.524
  435SOL    HW2 1650   0.669   1.486   3.517
  436SOL     OW 1651   1.824   0.192   3.089
  436SOL    HW1 1652   1.820   0.102   3.133
  436SOL    HW2 1653   1.827   0.181   2.990
  437SOL     OW 1654   0.428   0.424   2.382
  437SOL    HW1 1655   0.458   0.352   2.320
  437SOL    HW2 1656   0.389   0.384   2.465
  438SOL     OW 1657   1.705   1.487   2.966
  438SOL    HW1 1658   1.612   1.462   2.939
  438SOL    HW2 1659   1.731   1.437   3.048
  439SOL     OW 1660   0.317   0.547   3.142
  439SOL    HW1 1661   0.355   0.488   3.214
  439SOL    HW2 1662   0.357   0.521   3.054
  440SOL     OW 1663   0.812   1.586   2.549
  440SOL    HW1 1664   0.844   1.596   2.455
  440SOL    HW2 1665   0.733   1.524   2.551
  441SOL     OW 1666   1.424   0.214   2.974
  441SOL    HW1 1667   1.476   0.149   3.029
  441SOL    HW2 1668   1.375   0.277   3.035
  442SOL     OW 1669   1.001   0.034   3.016
  442SOL    HW1 1670   0.938  -0.038   2.985
  442SOL    HW2 1671   1.094  -0.002   3.016
  443SOL     OW 1672   0.770   1.330   2.163
  443SOL    HW1 1673   0.724   1.243   2.180
  443SOL    HW2 1674   0.861   1.327   2.204
  444SOL     OW 1675   0.618   1.567   3.146
  444SOL    HW1 1676   0.613   1.649   3.203
  444SOL    HW2 1677   0.707   1.564   3.101
  445SOL     OW 1678   1.352   0.052   2.030
  445SOL    HW1 1679   1.387   0.011   1.946
  445SOL    HW2 1680   1.262   0.014   2.050
  446SOL     OW 1681   1.300   0.453   2.553
  446SOL    HW1 1682   1.241   0.533   2.557
  446SOL    HW2 1683   1.315   0.418   2.646
  447SOL     OW 1684   1.593   0.221   2.744
  447SOL    HW1 1685   1.509   0.220   2.798
  447SOL    HW2 1686   1.595   0.304   2.688
  448SOL     OW 1687   0.039   1.077   2.162
  448SOL    HW1 1688   0.138   1.066   2.153
  448SOL    HW2 1689  -0.001   0.991   2.194
  449SOL     OW 1690   0.875   1.646   2.199
  449SOL    HW1 1691   0.798   1.611   2.145
  449SOL    HW2 1692   0.843   1.717   2.261
  450SOL     OW 1693   0.230   0.628   3.837
  450SOL    HW1 1694   0.137   0.626   3.874
  450SOL    HW2 1695   0.231   0.589   3.745
  451SOL     OW 1696   0.225   0.275   4.720
  451SOL    HW1 1697   0.260   0.258   4.812
  451SOL    HW2 1698   0.137   0.230   4.708
  452SOL     OW 1699   0.019   0.368   4.371
  452SOL    HW1 1700  -0.063   0.411   4.410
  452SOL    HW2 1701  -0.009   0.295   4.308
  453SOL     OW 1702   0.569   1.275   4.889
  453SOL    HW1 1703   0.476   1.268   4.852
  453SOL    HW2 1704   0.580   1.364   4.933
  454SOL     OW 1705   1.555   1.511   4.427
  454SOL    HW1 1706   1.498   1.495   4.508
  454SOL    HW2 1707   1.496   1.521   4.347
  455SOL     OW 1708   1.135   0.703   4.441
  455SOL    HW1 1709   1.192   0.781   4.416
  455SOL    HW2 1710   1.075   0.729   4.517
  456SOL     OW 1711   1.755   0.607   3.955
  456SOL    HW1 1712   1.743   0.594   3.856
  456SOL    HW2 1713   1.725   0.526   4.004
  457SOL     OW 1714   0.768   1.144   4.747
  457SOL    HW1 1715   0.690   1.161   4.807
  457SOL    HW2 1716   0.802   1.231   4.711
  458SOL     OW 1717   0.850   0.798   5.547
  458SOL    HW1 1718   0.846   0.874   5.612
  458SOL    HW2 1719   0.872   0.834   5.456
  459SOL     OW 1720   0.685   1.012   4.389
  459SOL    HW1 1721   0.754   0.996   4.459
  459SOL    HW2 1722   0.612   1.069   4.427
  460SOL     OW 1723   0.686   1.161   5.527
  460SOL    HW1 1724   0.746   1.240   5.541
  460SOL    HW2 1725   0.600   1.192   5.486
  461SOL     OW 1726   0.335   1.435   4.785
  461SOL    HW1 1727   0.257   1.404   4.732
  461SOL    HW2 1728   0.393   1.493   4.728
  462SOL     OW 1729   1.460   1.505   5.063
  462SOL    HW1 1730   1.484   1.599   5.089
  462SOL    HW2 1731   1.444   1.451   5.145
  463SOL     OW 1732   0.438   0.392   5.223
  463SOL    HW1 1733   0.520   0.336   5.232
  463SOL    HW2 1734   0.357   0.334   5.227
  464SOL     OW 1735   1.603   0.447   4.461
  464SOL    HW1 1736   1.529   0.493   4.411
  464SOL    HW2 1737   1.654   0.515   4.514
  465SOL     OW 1738   0.231   1.713   4.207
  465SOL    HW1 1739   0.265   1.790   4.261
  465SOL    HW2 1740   0.275   1.713   4.117
  466SOL     OW 1741   1.127   1.341   5.414
  466SOL    HW1 1742   1.174   1.341   5.502
  466SOL    HW2 1743   1.079   1.254   5.403
  467SOL     OW 1744   0.230   1.434   4.262
  467SOL    HW1 1745   0.204   1.530   4.262
  467SOL    HW2 1746   0.159   1.380   4.307
  468SOL     OW 1747   0.240   1.091   4.610
  468SOL    HW1 1748   0.254   1.007   4.662
  468SOL    HW2 1749   0.185   1.155   4.665
  469SOL     OW 1750   0.620   1.786   5.163
  469SOL    HW1 1751   0.528   1.769   5.198
  469SOL    HW2 1752   0.648   1.878   5.189
  470SOL     OW 1753   0.606   0.964   3.847
  470SOL    HW1 1754   0.613   1.048   3.793
  470SOL    HW2 1755   0.652   0.977   3.935
  471SOL     OW 1756   1.594   0.114   5.204
  471SOL    HW1 1757   1.576   0.181   5.132
  471SOL    HW2 1758   1.591   0.160   5.293
  472SOL     OW 1759   0.122   0.643   4.287
  472SOL    HW1 1760   0.077   0.555   4.304
  472SOL    HW2 1761   0.121   0.697   4.371
  473SOL     OW 1762   1.842   1.767   4.083
  473SOL    HW1 1763   1.896   1.738   4.163
  473SOL    HW2 1764   1.872   1.857   4.054
  474SOL     OW 1765   0.027   1.596   3.841
  474SOL    HW1 1766   0.008   1.500   3.862
  474SOL    HW2 1767  -0.006   1.654   3.916
  475SOL     OW 1768   1.689   0.922   4.336
  475SOL    HW1 1769   1.784   0.893   4.344
  475SOL    HW2 1770   1.681   0.987   4.261
  476SOL     OW 1771   1.641   1.108   4.156
  476SOL    HW1 1772   1.727   1.110   4.104
  476SOL    HW2 1773   1.655   1.155   4.244
  477SOL     OW 1774   0.113   0.737   5.321
  477SOL    HW1 1775   0.201   0.724   5.366
  477SOL    HW2 1776   0.100   0.834   5.299
  478SOL     OW 1777   0.613   1.365   4.450
  478SOL    HW1 1778   0.564   1.278   4.459
  478SOL    HW2 1779   0.590   1.408   4.363
  479SOL     OW 1780   1.293   1.228   5.147
  479SOL    HW1 1781   1.330   1.155   5.089
  479SOL    HW2 1782   1.345   1.233   5.232
  480SOL     OW 1783   0.809   0.004   4.226
  480SOL    HW1 1784   0.849   0.095   4.217
  480SOL    HW2 1785   0.709   0.012   4.232
  481SOL     OW 1786   0.197   0.976   4.988
  481SOL    HW1 1787   0.286   0.931   4.974
  481SOL    HW2 1788   0.124   0.911   4.969
  482SOL     OW 1789   1.525   0.999   3.914
  482SOL    HW1 1790   1.462   0.923   3.927
  482SOL    HW2 1791   1.573   1.017   4.000
  483SOL     OW 1792   1.187   1.792   5.340
  483SOL    HW1 1793   1.211   1.852   5.264
  483SOL    HW2 1794   1.194   1.697   5.310
  484SOL     OW 1795   0.317   0.251   5.525
  484SOL    HW1 1796   0.388   0.322   5.531
  484SOL    HW2 1797   0.229   0.290   5.553
  485SOL     OW 1798   1.466   1.417   4.677
  485SOL    HW1 1799   1.407   1.423   4.757
  485SOL    HW2 1800   1.451   1.329   4.631
  486SOL     OW 1801   1.667   1.714   4.296
  486SOL    HW1 1802   1.626   1.691   4.208
  486SOL    HW2 1803   1.649   1.640   4.361
  487SOL     OW 1804   0.598   0.729   3.994
  487SOL    HW1 1805   0.622   0.798   3.926
  487SOL    HW2 1806   0.520   0.762   4.048
  488SOL     OW 1807   1.281   0.345   4.668
  488SOL    HW1 1808   1.195   0.295   4.655
  488SOL    HW2 1809   1.343   0.291   4.724
  489SOL     OW 1810   1.576   1.662   4.031
  489SOL    HW1 1811   1.665   1.708   4.034
  489SOL    HW2 1812   1.555   1.638   3.936
  490SOL     OW 1813   0.807   0.605   5.189
  490SOL    HW1 1814   0.760   0.602   5.278
  490SOL    HW2 1815   0.756   0.550   5.123
  491SOL     OW 1816   1.394   0.469   5.398
  491SOL    HW1 1817   1.374   0.512   5.486
  491SOL    HW2 1818   1.472   0.407   5.407
  492SOL     OW 1819   0.973   0.890   5.296
  492SOL    HW1 1820   1.019   0.806   5.267
  492SOL    HW2 1821   0.917   0.924   5.221
  493SOL     OW 1822   0.991   0.410   4.966
  493SOL    HW1 1823   0.914   0.444   5.020
  493SOL    HW2 1824   0.957   0.359   4.887
  494SOL     OW 1825   1.041   0.701   4.153
  494SOL    HW1 1826   1.067   0.697   4.249
  494SOL    HW2 1827   0.956   0.650   4.139
  495SOL     OW 1828   0.076   0.811   4.513
  495SOL    HW1 1829   0.175   0.799   4.522
  495SOL    HW2 1830   0.052   0.906   4.534
  496SOL     OW 1831   0.130   1.821   5.295
  496SOL    HW1 1832   0.120   1.806   5.394
  496SOL    HW2 1833   0.044   1.857   5.259
  497SOL     OW 1834   0.865   0.348   3.919
  497SOL    HW1 1835   0.924   0.411   3.870
  497SOL    HW2 1836   0.884   0.254   3.890
  498SOL     OW 1837   1.719   0.585   5.555
  498SOL    HW1 1838   1.693   0.674   5.519
  498SOL    HW2 1839   1.717   0.517   5.482
  499SOL     OW 1840   1.362   1.144   4.269
  499SOL    HW1 1841   1.445   1.115   4.221
  499SOL    HW2 1842   1.313   1.211   4.213
  500SOL     OW 1843   0.550   0.196   4.609
  500SOL    HW1 1844   0.545   0.191   4.709
  500SOL    HW2 1845   0.552   0.292   4.580
  501SOL     OW 1846   1.008   1.456   4.201
  501SOL    HW1 1847   0.962   1.528   4.149
  501SOL    HW2 1848   1.004   1.476   4.299
  502SOL     OW 1849   0.351   1.801   4.577
  502SOL    HW1 1850   0.401   1.715   4.583
  502SOL    HW2 1851   0.416   1.878   4.574
  503SOL     OW 1852   1.795   1.066   4.597
  503SOL    HW1 1853   1.733   1.051   4.521
  503SOL    HW2 1854   1.743   1.077   4.682
  504SOL     OW 1855   1.227   1.550   5.230
  504SOL    HW1 1856   1.233   1.473   5.294
  504SOL    HW2 1857   1.175   1.524   5.150
  505SOL     OW 1858   0.321   0.943   3.966
  505SOL    HW1 1859   0.403   0.982   3.924
  505SOL    HW2 1860   0.294   0.861   3.917
  506SOL     OW 1861   1.458   0.735   4.452
  506SOL    HW1 1862   1.453   0.670   4.527
  506SOL    HW2 1863   1.538   0.794   4.465
  507SOL     OW 1864   0.461   1.266   5.451
  507SOL    HW1 1865   0.411   1.267   5.365
  507SOL    HW2 1866   0.398   1.248   5.527
  508SOL     OW 1867   1.111   1.776   3.961
  508SOL    HW1 1868   1.051   1.714   4.011
  508SOL    HW2 1869   1.142   1.732   3.876
  509SOL     OW 1870   0.202   0.285   5.222
  509SOL    HW1 1871   0.122   0.345   5.209
  509SOL    HW2 1872   0.192   0.236   5.308
  510SOL     OW 1873   1.632   1.377   3.805
  510SOL    HW1 1874   1.600   1.471   3.795
  510SOL    HW2 1875   1.556   1.314   3.793
  511SOL     OW 1876   0.464   1.743   4.047
  511SOL    HW1 1877   0.497   1.782   4.133
  511SOL    HW2 1878   0.540   1.736   3.982
  512SOL     OW 1879   1.400   0.107   4.150
  512SOL    HW1 1880   1.376   0.070   4.060
  512SOL    HW2 1881   1.499   0.123   4.154
  513SOL     OW 1882   0.249   1.785   4.965
  513SOL    HW1 1883   0.306   1.720   5.015
  513SOL    HW2 1884   0.233   1.752   4.872
  514SOL     OW 1885   0.940   1.698   4.628
  514SOL    HW1 1886   1.020   1.641   4.649
  514SOL    HW2 1887   0.891   1.658   4.551
  515SOL     OW 1888   0.382   0.700   4.204
  515SOL    HW1 1889   0.427   0.610   4.201
  515SOL    HW2 1890   0.288   0.689   4.237
  516SOL     OW 1891   1.547   0.222   5.453
  516SOL    HW1 1892   1.542   0.259   5.545
  516SOL    HW2 1893   1.475   0.153   5.441
  517SOL     OW 1894   0.614   0.122   3.841
  517SOL    HW1 1895   0.712   0.100   3.848
  517SOL    HW2 1896   0.583   0.105   3.748
  518SOL     OW 1897   0.781   0.264   5.473
  518SOL    HW1 1898   0.848   0.203   5.516
  518SOL    HW2 1899   0.708   0.283   5.538
  519SOL     OW 1900   0.888   1.514   4.919
  519SOL    HW1 1901   0.865   1.489   4.825
  519SOL    HW2 1902   0.949   1.445   4.958
  520SOL     OW 1903   1.351   0.590   5.157
  520SOL    HW1 1904   1.379   0.547   5.242
  520SOL    HW2 1905   1.376   0.686   5.158
  521SOL     OW 1906   0.803   1.402   4.648
  521SOL    HW1 1907   0.893   1.416   4.606
  521SOL    HW2 1908   0.732   1.404   4.577
  522SOL     OW 1909   0.922   0.503   4.623
  522SOL    HW1 1910   0.897   0.494   4.527
  522SOL    HW2 1911   0.970   0.421   4.654
  523SOL     OW 1912   0.539   0.064   4.236
  523SOL    HW1 1913   0.458   0.065   4.294
  523SOL    HW2 1914   0.542   0.147   4.181
  524SOL     OW 1915   1.434   1.188   3.765
  524SOL    HW1 1916   1.466   1.112   3.822
  524SOL    HW2 1917   1.342   1.215   3.795
  525SOL     OW 1918   0.297   0.035   3.895
  525SOL    HW1 1919   0.346   0.119   3.874
  525SOL    HW2 1920   0.359  -0.030   3.940
  526SOL     OW 1921   0.935   0.236   4.204
  526SOL    HW1 1922   0.887   0.277   4.126
  526SOL    HW2 1923   1.034   0.234   4.185
  527SOL     OW 1924   1.076   0.683   5.188
  527SOL    HW1 1925   0.996   0.622   5.191
  527SOL    HW2 1926   1.157   0.630   5.164
  528SOL     OW 1927   1.227   1.570   4.517
  528SOL    HW1 1928   1.248   1.644   4.452
  528SOL    HW2 1929   1.295   1.570   4.590
  529SOL     OW 1930   0.459   1.152   4.465
  529SOL    HW1 1931   0.388   1.125   4.530
  529SOL    HW2 1932   0.433   1.124   4.372
  530SOL     OW 1933   1.271   1.797   4.315
  530SOL    HW1 1934   1.315   1.861   4.251
  530SOL    HW2 1935   1.221   1.849   4.385
  531SOL     OW 1936   1.032   0.549   3.740
  531SOL    HW1 1937   0.991   0.631   3.701
  531SOL    HW2 1938   1.096   0.575   3.813
  532SOL     OW 1939   0.078   0.556   5.110
  532SOL    HW1 1940   0.170   0.555   5.069
  532SOL    HW2 1941   0.072   0.630   5.177
  533SOL     OW 1942   0.561   0.222   4.871
  533SOL    HW1 1943   0.599   0.138   4.908
  533SOL    HW2 1944   0.473   0.241   4.915
  534SOL     OW 1945   0.866   0.454   4.366
  534SOL    HW1 1946   0.834   0.526   4.304
  534SOL    HW2 1947   0.890   0.373   4.313
  535SOL     OW 1948   1.017   0.039   4.477
  535SOL    HW1 1949   0.945   0.044   4.408
  535SOL    HW2 1950   0.993  -0.030   4.546
  536SOL     OW 1951   1.429   1.173   4.591
  536SOL    HW1 1952   1.374   1.089   4.584
  536SOL    HW2 1953   1.455   1.202   4.499
  537SOL     OW 1954   1.466   0.590   4.716
  537SOL    HW1 1955   1.436   0.495   4.723
  537SOL    HW2 1956   1.539   0.606   4.782
  538SOL     OW 1957   1.857   0.833   4.101
  538SOL    HW1 1958   1.899   0.769   4.165
  538SOL    HW2 1959   1.819   0.782   4.023
  539SOL     OW 1960   0.488   1.385   3.898
  539SOL    HW1 1961   0.401   1.370   3.945
  539SOL    HW2 1962   0.471   1.411   3.803
  540SOL     OW 1963   1.664   1.280   4.381
  540SOL    HW1 1964   1.763   1.288   4.395
  540SOL    HW2 1965   1.619   1.364   4.412
  541SOL     OW 1966   1.390   0.575   3.802
  541SOL    HW1 1967   1.336   0.554   3.883
  541SOL    HW2 1968   1.481   0.534   3.811
  542SOL     OW 1969   0.527   0.256   4.052
  542SOL    HW1 1970   0.554   0.197   3.977
  542SOL    HW2 1971   0.527   0.351   4.021
  543SOL     OW 1972   1.754   1.223   5.312
  543SOL    HW1 1973   1.845   1.184   5.299
  543SOL    HW2 1974   1.762   1.319   5.336
  544SOL     OW 1975   1.064   1.347   5.064
  544SOL    HW1 1976   0.984   1.324   5.119
  544SOL    HW2 1977   1.147   1.321   5.113
  545SOL     OW 1978   1.592   1.629   5.349
  545SOL    HW1 1979   1.619   1.663   5.259
  545SOL    HW2 1980   1.671   1.591   5.395
  546SOL     OW 1981   1.111   1.195   4.824
  546SOL    HW1 1982   1.071   1.239   4.905
  546SOL    HW2 1983   1.070   1.232   4.741
  547SOL     OW 1984   1.638   1.099   4.803
  547SOL    HW1 1985   1.643   1.180   4.862
  547SOL    HW2 1986   1.552   1.101   4.752
  548SOL     OW 1987   0.915   0.089   5.126
  548SOL    HW1 1988   0.940   0.069   5.031
  548SOL    HW2 1989   0.987   0.145   5.168
  549SOL     OW 1990   0.980   1.116   5.443
  549SOL    HW1 1991   0.881   1.122   5.453
  549SOL    HW2 1992   1.003   1.036   5.387
  550SOL     OW 1993   0.705   1.050   4.092
  550SOL    HW1 1994   0.691   1.057   4.191
  550SOL    HW2 1995   0.789   0.999   4.074
  551SOL     OW 1996   0.410   0.813   4.975
  551SOL    HW1 1997   0.496   0.825   5.025
  551SOL    HW2 1998   0.368   0.726   5.002
  552SOL     OW 1999   1.274   0.386   4.986
  552SOL    HW1 2000   1.295   0.460   5.050
  552SOL    HW2 2001   1.185   0.403   4.943
  553SOL     OW 2002   0.064   1.564   5.055
  553SOL    HW1 2003   0.018   1.646   5.021
  553SOL    HW2 2004   0.162   1.583   5.064
  554SOL     OW 2005   0.367   1.100   4.225
  554SOL    HW1 2006   0.360   1.183   4.169
  554SOL    HW2 2007   0.371   1.020   4.165
  555SOL     OW 2008   0.566   0.537   4.589
  555SOL    HW1 2009   0.578   0.603   4.515
  555SOL    HW2 2010   0.612   0.571   4.672
  556SOL     OW 2011   1.252   1.348   4.112
  556SOL    HW1 2012   1.302   1.425   4.152
  556SOL    HW2 2013   1.157   1.350   4.144
  557SOL     OW 2014   1.272   1.445   4.866
  557SOL    HW1 2015   1.319   1.458   4.953
  557SOL    HW2 2016   1.206   1.371   4.875
  558SOL     OW 2017   1.582   0.639   4.196
  558SOL    HW1 2018   1.551   0.700   4.269
  558SOL    HW2 2019   1.632   0.691   4.127
  559SOL     OW 2020   0.354   1.510   5.053
  559SOL    HW1 2021   0.333   1.466   4.966
  559SOL    HW2 2022   0.451   1.536   5.056
  560SOL     OW 2023   0.402   0.751   5.322
  560SOL    HW1 2024   0.470   0.806   5.275
  560SOL    HW2 2025   0.442   0.663   5.349
  561SOL     OW 2026   1.587   0.779   5.394
  561SOL    HW1 2027   1.495   0.817   5.389
  561SOL    HW2 2028   1.647   0.826   5.329
  562SOL     OW 2029   1.013   0.105   5.494
  562SOL    HW1 2030   1.019   0.190   5.442
  562SOL    HW2 2031   1.045   0.029   5.437
  563SOL     OW 2032   0.504   0.050   5.464
  563SOL    HW1 2033   0.462  -0.007   5.394
  563SOL    HW2 2034   0.438   0.119   5.496
  564SOL     OW 2035   0.573   0.870   4.753
  564SOL    HW1 2036   0.617   0.959   4.744
  564SOL    HW2 2037   0.510   0.870   4.830
  565SOL     OW 2038   1.360   0.862   4.769
  565SOL    HW1 2039   1.285   0.862   4.703
  565SOL    HW2 2040   1.397   0.770   4.778
  566SOL     OW 2041   1.209   0.525   3.999
  566SOL    HW1 2042   1.222   0.441   4.053
  566SOL    HW2 2043   1.180   0.599   4.059
  567SOL     OW 2044   0.307   0.213   4.955
  567SOL    HW1 2045   0.284   0.250   5.045
  567SOL    HW2 2046   0.277   0.118   4.949
  568SOL     OW 2047   0.037   1.310   5.006
  568SOL    HW1 2048   0.090   1.261   5.074
  568SOL    HW2 2049   0.059   1.408   5.011
  569SOL     OW 2050   0.732   0.634   4.788
  569SOL    HW1 2051   0.791   0.608   4.712
  569SOL    HW2 2052   0.704   0.730   4.777
  570SOL     OW 2053   1.728   0.935   5.578
  570SOL    HW1 2054   1.682   0.928   5.489
  570SOL    HW2 2055   1.666   0.979   5.644
  571SOL     OW 2056   0.307   0.063   4.342
  571SOL    HW1 2057   0.296   0.157   4.375
  571SOL    HW2 2058   0.302   0.000   4.419
  572SOL     OW 2059   1.622   0.367   4.098
  572SOL    HW1 2060   1.624   0.291   4.162
  572SOL    HW2 2061   1.574   0.444   4.138
  573SOL     OW 2062   1.023   0.766   4.690
  573SOL    HW1 2063   1.038   0.787   4.786
  573SOL    HW2 2064   0.993   0.671   4.681
  574SOL     OW 2065   0.980   1.573   5.424
  574SOL    HW1 2066   0.960   1.617   5.336
  574SOL    HW2 2067   1.019   1.482   5.408
  575SOL     OW 2068   1.859   1.518   5.329
  575SOL    HW1 2069   1.873   1.545   5.234
  575SOL    HW2 2070   1.942   1.540   5.382
  576SOL     OW 2071   0.350   0.898   5.528
  576SOL    HW1 2072   0.426   0.942   5.576
  576SOL    HW2 2073   0.385   0.851   5.446
  577SOL     OW 2074   1.540   0.274   3.849
  577SOL    HW1 2075   1.479   0.199   3.872
  577SOL    HW2 2076   1.562   0.326   3.932
  578SOL     OW 2077   1.303   0.838   3.766
  578SOL    HW1 2078   1.337   0.745   3.781
  578SOL    HW2 2079   1.321   0.865   3.671
  579SOL     OW 2080   1.068   1.333   4.573
  579SOL    HW1 2081   1.075   1.249   4.518
  579SOL    HW2 2082   1.130   1.402   4.537
  580SOL     OW 2083   0.319   0.810   4.673
  580SOL    HW1 2084   0.412   0.846   4.678
  580SOL    HW2 2085   0.313   0.725   4.725
  581SOL     OW 2086   0.339   0.509   4.730
  581SOL    HW1 2087   0.287   0.426   4.713
  581SOL    HW2 2088   0.416   0.514   4.666
  582SOL     OW 2089   1.138   0.380   5.402
  582SOL    HW1 2090   1.093   0.443   5.466
  582SOL    HW2 2091   1.231   0.411   5.385
  583SOL     OW 2092   1.160   0.207   5.201
  583SOL    HW1 2093   1.160   0.271   5.278
  583SOL    HW2 2094   1.188   0.255   5.118
  584SOL     OW 2095   0.008   1.326   3.924
  584SOL    HW1 2096  -0.085   1.347   3.893
  584SOL    HW2 2097   0.018   1.227   3.937
  585SOL     OW 2098   0.088   1.801   4.651
  585SOL    HW1 2099   0.046   1.715   4.624
  585SOL    HW2 2100   0.182   1.804   4.617
  586SOL     OW 2101   0.504   1.568   4.634
  586SOL    HW1 2102   0.570   1.642   4.643
  586SOL    HW2 2103   0.548   1.489   4.592
  587SOL     OW 2104   1.002   0.796   4.962
  587SOL    HW1 2105   1.043   0.764   5.048
  587SOL    HW2 2106   0.906   0.769   4.959
  588SOL     OW 2107   0.040   0.544   4.838
  588SOL    HW1 2108   0.125   0.511   4.797
  588SOL    HW2 2109   0.053   0.559   4.936
  589SOL     OW 2110   0.189   0.520   5.446
  589SOL    HW1 2111   0.248   0.480   5.376
  589SOL    HW2 2112   0.131   0.591   5.405
  590SOL     OW 2113   1.369   0.950   5.384
  590SOL    HW1 2114   1.408   1.039   5.404
  590SOL    HW2 2115   1.379   0.930   5.287
  591SOL     OW 2116   0.815   0.572   4.049
  591SOL    HW1 2117   0.822   0.483   4.003
  591SOL    HW2 2118   0.721   0.606   4.041
  592SOL     OW 2119   1.657   0.604   4.930
  592SOL    HW1 2120   1.619   0.535   4.992
  592SOL    HW2 2121   1.739   0.568   4.886
  593SOL     OW 2122   0.252   1.564   5.468
  593SOL    HW1 2123   0.222   1.621   5.544
  593SOL    HW2 2124   0.245   1.467   5.494
  594SOL     OW 2125   0.671   0.464   4.993
  594SOL    HW1 2126   0.637   0.375   4.963
  594SOL    HW2 2127   0.697   0.518   4.913
  595SOL     OW 2128   0.930   1.678   5.189
  595SOL    HW1 2129   0.906   1.660   5.094
  595SOL    HW2 2130   0.960   1.772   5.199
  596SOL     OW 2131   0.473   0.500   3.915
  596SOL    HW1 2132   0.534   0.580   3.919
  596SOL    HW2 2133   0.378   0.531   3.922
  597SOL     OW 2134   0.159   1.137   5.190
  597SOL    HW1 2135   0.181   1.076   5.266
  597SOL    HW2 2136   0.169   1.088   5.104
  598SOL     OW 2137   1.347   1.059   4.958
  598SOL    HW1 2138   1.371   0.996   4.884
  598SOL    HW2 2139   1.257   1.099   4.940
  599SOL     OW 2140   1.302   0.855   4.033
  599SOL    HW1 2141   1.216   0.824   4.075
  599SOL    HW2 2142   1.298   0.841   3.934
  600SOL     OW 2143   1.759   1.747   4.878
  600SOL    HW1 2144   1.820   1.777   4.805
  600SOL    HW2 2145   1.721   1.658   4.856
  601SOL     OW 2146   1.252   1.731   4.852
  601SOL    HW1 2147   1.336   1.736   4.798
  601SOL    HW2 2148   1.229   1.635   4.870
  602SOL     OW 2149   0.083   1.258   4.746
  602SOL    HW1 2150   0.078   1.257   4.846
  602SOL    HW2 2151   0.000   1.217   4.708
  603SOL     OW 2152   0.688   1.662   5.440
  603SOL    HW1 2153   0.632   1.743   5.449
  603SOL    HW2 2154   0.740   1.666   5.354
  604SOL     OW 2155   1.726   0.135   4.247
  604SOL    HW1 2156   1.799   0.118   4.180
  604SOL    HW2 2157   1.695   0.048   4.285
  605SOL     OW 2158   1.388   1.573   4.201
  605SOL    HW1 2159   1.455   1.585   4.127
  605SOL    HW2 2160   1.348   1.662   4.224
  606SOL     OW 2161   0.130   1.794   5.575
  606SOL    HW1 2162   0.089   1.720   5.628
  606SOL    HW2 2163   0.194   1.845   5.633
  607SOL     OW 2164   1.280   0.927   4.396
  607SOL    HW1 2165   1.340   0.846   4.398
  607SOL    HW2 2166   1.320   0.996   4.336
  608SOL     OW 2167   0.830   1.273   5.146
  608SOL    HW1 2168   0.825   1.306   5.241
  608SOL    HW2 2169   0.744   1.292   5.100
  609SOL     OW 2170   0.672   1.616   3.878
  609SOL    HW1 2171   0.681   1.626   3.779
  609SOL    HW2 2172   0.632   1.527   3.899
  610SOL     OW 2173   1.650   1.720   5.118
  610SOL    HW1 2174   1.703   1.730   5.034
  610SOL    HW2 2175   1.623   1.810   5.152
  611SOL     OW 2176   1.841   0.175   4.687
  611SOL    HW1 2177   1.880   0.090   4.651
  611SOL    HW2 2178   1.743   0.177   4.668
  612SOL     OW 2179   0.263   0.326   4.444
  612SOL    HW1 2180   0.184   0.377   4.410
  612SOL    HW2 2181   0.254   0.311   4.542
  613SOL     OW 2182   1.194   1.612   3.755
  613SOL    HW1 2183   1.200   1.519   3.792
  613SOL    HW2 2184   1.135   1.612   3.675
  614SOL     OW 2185   0.822   1.002   5.096
  614SOL    HW1 2186   0.862   1.001   5.004
  614SOL    HW2 2187   0.832   1.094   5.136
  615SOL     OW 2188   0.916   0.910   4.015
  615SOL    HW1 2189   0.979   0.948   3.947
  615SOL    HW2 2190   0.956   0.827   4.054
  616SOL     OW 2191   1.504   1.607   3.768
  616SOL    HW1 2192   1.412   1.644   3.775
  616SOL    HW2 2193   1.542   1.627   3.678
  617SOL     OW 2194   0.372   1.288   5.214
  617SOL    HW1 2195   0.359   1.381   5.180
  617SOL    HW2 2196   0.288   1.236   5.201
  618SOL     OW 2197   1.614   1.292   5.013
  618SOL    HW1 2198   1.674   1.295   5.093
  618SOL    HW2 2199   1.539   1.356   5.026
  619SOL     OW 2200   1.039   1.098   4.420
  619SOL    HW1 2201   0.969   1.051   4.474
  619SOL    HW2 2202   1.098   1.030   4.377
  620SOL     OW 2203   1.014   0.236   4.695
  620SOL    HW1 2204   1.006   0.200   4.602
  620SOL    HW2 2205   1.012   0.160   4.760
  621SOL     OW 2206   0.590   1.487   4.215
  621SOL    HW1 2207   0.632   1.429   4.145
  621SOL    HW2 2208   0.546   1.566   4.171
  622SOL     OW 2209   1.709   0.385   5.105
  622SOL    HW1 2210   1.782   0.454   5.109
  622SOL    HW2 2211   1.737   0.310   5.046
  623SOL     OW 2212   0.255   1.348   4.014
  623SOL    HW1 2213   0.159   1.349   3.987
  623SOL    HW2 2214   0.267   1.401   4.098
  624SOL     OW 2215   0.105   1.013   5.450
  624SOL    HW1 2216   0.028   0.980   5.504
  624SOL    HW2 2217   0.190   0.983   5.492
  625SOL     OW 2218   0.672   0.203   5.213
  625SOL    HW1 2219   0.762   0.187   5.173
  625SOL    HW2 2220   0.680   0.208   5.312
  626SOL     OW 2221   0.075   0.345   3.757
  626SOL    HW1 2222  -0.017   0.317   3.728
  626SOL    HW2 2223   0.106   0.422   3.701
  627SOL     OW 2224   1.440   0.856   5.122
  627SOL    HW1 2225   1.383   0.908   5.059
  627SOL    HW2 2226   1.536   0.868   5.098
  628SOL     OW 2227   0.072   0.166   4.042
  628SOL    HW1 2228   0.055   0.249   3.988
  628SOL    HW2 2229   0.162   0.129   4.020
  629SOL     OW 2230   1.183   1.335   3.843
  629SOL    HW1 2231   1.084   1.324   3.845
  629SOL    HW2 2232   1.217   1.350   3.936
  630SOL     OW 2233   0.613   0.842   5.155
  630SOL    HW1 2234   0.669   0.923   5.138
  630SOL    HW2 2235   0.672   0.762   5.158
  631SOL     OW 2236   1.493   1.767   4.683
  631SOL    HW1 2237   1.526   1.831   4.614
  631SOL    HW2 2238   1.559   1.761   4.758
  632SOL     OW 2239   0.716   0.565   5.432
  632SOL    HW1 2240   0.735   0.630   5.506
  632SOL    HW2 2241   0.776   0.485   5.441
  633SOL     OW 2242   1.450   1.220   5.357
  633SOL    HW1 2243   1.441   1.210   5.456
  633SOL    HW2 2244   1.546   1.213   5.331
  634SOL     OW 2245   0.390   1.741   5.284
  634SOL    HW1 2246   0.299   1.782   5.282
  634SOL    HW2 2247   0.383   1.647   5.316
  635SOL     OW 2248   1.674   0.883   4.978
  635SOL    HW1 2249   1.647   0.794   4.941
  635SOL    HW2 2250   1.675   0.951   4.905
  636SOL     OW 2251   1.225   0.325   4.173
  636SOL    HW1 2252   1.290   0.251   4.162
  636SOL    HW2 2253   1.245   0.375   4.257
  637SOL     OW 2254   0.594   0.745   4.376
  637SOL    HW1 2255   0.644   0.830   4.357
  637SOL    HW2 2256   0.506   0.747   4.328
  638SOL     OW 2257   1.777   0.342   5.366
  638SOL    HW1 2258   1.760   0.373   5.272
  638SOL    HW2 2259   1.693   0.305   5.404
  639SOL     OW 2260   1.730   0.934   5.241
  639SOL    HW1 2261   1.768   1.025   5.256
  639SOL    HW2 2262   1.722   0.917   5.142
  640SOL     OW 2263   0.859   1.374   3.740
  640SOL    HW1 2264   0.813   1.389   3.828
  640SOL    HW2 2265   0.903   1.459   3.710
  641SOL     OW 2266   0.661   1.790   4.677
  641SOL    HW1 2267   0.615   1.878   4.664
  641SOL    HW2 2268   0.760   1.802   4.670
  642SOL     OW 2269   0.859   0.956   4.585
  642SOL    HW1 2270   0.913   0.887   4.633
  642SOL    HW2 2271   0.827   1.025   4.651
  643SOL     OW 2272   1.083   0.984   3.811
  643SOL    HW1 2273   1.060   1.037   3.729
  643SOL    HW2 2274   1.164   0.928   3.792
  644SOL     OW 2275   1.861   1.569   4.575
  644SOL    HW1 2276   1.790   1.557   4.505
  644SOL    HW2 2277   1.862   1.490   4.635
  645SOL     OW 2278   0.221   1.314   5.568
  645SOL    HW1 2279   0.156   1.241   5.547
  645SOL    HW2 2280   0.225   1.328   5.666
  646SOL     OW 2281   0.079   1.240   4.377
  646SOL    HW1 2282   0.078   1.193   4.465
  646SOL    HW2 2283   0.161   1.212   4.326
  647SOL     OW 2284   0.672   1.391   5.348
  647SOL    HW1 2285   0.594   1.341   5.386
  647SOL    HW2 2286   0.669   1.486   5.379
  648SOL     OW 2287   1.824   0.192   4.951
  648SOL    HW1 2288   1.820   0.102   4.995
  648SOL    HW2 2289   1.827   0.181   4.852
  649SOL     OW 2290   0.428   0.424   4.244
  649SOL    HW1 2291   0.458   0.352   4.182
  649SOL    HW2 2292   0.389   0.384   4.327
  650SOL     OW 2293   1.705   1.487   4.828
  650SOL    HW1 2294   1.612   1.462   4.801
  650SOL    HW2 2295   1.731   1.437   4.910
  651SOL     OW 2296   0.317   0.547   5.004
  651SOL    HW1 2297   0.355   0.488   5.076
  651SOL    HW2 2298   0.357   0.521   4.916
  652SOL     OW 2299   0.812   1.586   4.411
  652SOL    HW1 2300   0.844   1.596   4.317
  652SOL    HW2 2301   0.733   1.524   4.413
  653SOL     OW 2302   1.424   0.214   4.836
  653SOL    HW1 2303   1.476   0.149   4.891
  653SOL    HW2 2304   1.375   0.277   4.897
  654SOL     OW 2305   1.001   0.034   4.878
  654SOL    HW1 2306   0.938  -0.038   4.847
  654SOL    HW2 2307   1.094  -0.002   4.878
  655SOL     OW 2308   0.770   1.330   4.025
  655SOL    HW1 2309   0.724   1.243   4.042
  655SOL    HW2 2310   0.861   1.327   4.066
  656SOL     OW 2311   0.618   1.567   5.008
  656SOL    HW1 2312   0.613   1.649   5.065
  656SOL    HW2 2313   0.707   1.564   4.963
  657SOL     OW 2314   1.352   0.052   3.892
  657SOL    HW1 2315   1.387   0.011   3.808
  657SOL    HW2 2316   1.262   0.014   3.912
  658SOL     OW 2317   1.300   0.453   4.415
  658SOL    HW1 2318   1.241   0.533   4.419
  658SOL    HW2 2319   1.315   0.418   4.508
  659SOL     OW 2320   1.593   0.221   4.606
  659SOL    HW1 2321   1.509   0.220   4.660
  659SOL    HW2 2322   1.595   0.304   4.550
  660SOL     OW 2323   0.039   1.077   4.024
  660SOL    HW1 2324   0.138   1.066   4.015
  660SOL    HW2 2325  -0.001   0.991   4.056
  661SOL     OW 2326   0.875   1.646   4.061
  661SOL    HW1 2327   0.798   1.611   4.007
  661SOL    HW2 2328   0.843   1.717   4.123
  662SOL     OW 2329   0.230   0.628   5.699
  662SOL    HW1 2330   0.137   0.626   5.736
  662SOL    HW2 2331   0.231   0.589   5.607
  663SOL     OW 2332   0.019   0.368   6.233
  663SOL    HW1 2333  -0.063   0.411   6.272
  663SOL    HW2 2334  -0.009   0.295   6.170
  664SOL     OW 2335   1.555   1.511   6.289
  664SOL    HW1 2336   1.498   1.495   6.370
  664SOL    HW2 2337   1.496   1.521   6.209
  665SOL     OW 2338   1.135   0.703   6.303
  665SOL    HW1 2339   1.192   0.781   6.278
  665SOL    HW2 2340   1.075   0.729   6.379
  666SOL     OW 2341   1.755   0.607   5.817
  666SOL    HW1 2342   1.743   0.594   5.718
  666SOL    HW2 2343   1.725   0.526   5.866
  667SOL     OW 2344   0.685   1.012   6.251
  667SOL    HW1 2345   0.754   0.996   6.321
  667SOL    HW2 2346   0.612   1.069   6.289
  668SOL     OW 2347   1.603   0.447   6.323
  668SOL    HW1 2348   1.529   0.493   6.273
  668SOL    HW2 2349   1.654   0.515   6.376
  669SOL     OW 2350   0.231   1.713   6.069
  669SOL    HW1 2351   0.265   1.790   6.123
  669SOL    HW2 2352   0.275   1.713   5.979
  670SOL     OW 2353   0.230   1.434   6.124
  670SOL    HW1 2354   0.204   1.530   6.124
  670SOL    HW2 2355   0.159   1.380   6.169
  671SOL     OW 2356   0.240   1.091   6.472
  671SOL    HW1 2357   0.254   1.007   6.524
  671SOL    HW2 2358   0.185   1.155   6.527
  672SOL     OW 2359   0.606   0.964   5.709
  672SOL    HW1 2360   0.613   1.048   5.655
  672SOL    HW2 2361   0.652   0.977   5.797
  673SOL     OW 2362   0.122   0.643   6.149
  673SOL    HW1 2363   0.077   0.555   6.166
  673SOL    HW2 2364   0.121   0.697   6.233
  674SOL     OW 2365   1.842   1.767   5.945
  674SOL    HW1 2366   1.896   1.738   6.025
  674SOL    HW2 2367   1.872   1.857   5.916
  675SOL     OW 2368   0.027   1.596   5.703
  675SOL    HW1 2369   0.008   1.500   5.724
  675SOL    HW2 2370  -0.006   1.654   5.778
  676SOL     OW 2371   1.689   0.922   6.198
  676SOL    HW1 2372   1.784   0.893   6.206
  676SOL    HW2 2373   1.681   0.987   6.123
  677SOL     OW 2374   1.641   1.108   6.018
  677SOL    HW1 2375   1.727   1.110   5.966
  677SOL    HW2 2376   1.655   1.155   6.106
  678SOL     OW 2377   0.613   1.365   6.312
  678SOL    HW1 2378   0.564   1.278   6.321
  678SOL    HW2 2379   0.590   1.408   6.225
  679SOL     OW 2380   0.809   0.004   6.088
  679SOL    HW1 2381   0.849   0.095   6.079
  679SOL    HW2 2382   0.709   0.012   6.094
  680SOL     OW 2383   1.525   0.999   5.776
  680SOL    HW1 2384   1.462   0.923   5.789
  680SOL    HW2 2385   1.573   1.017   5.862
  681SOL     OW 2386   1.667   1.714   6.158
  681SOL    HW1 2387   1.626   1.691   6.070
  681SOL    HW2 2388   1.649   1.640   6.223
  682SOL     OW 2389   0.598   0.729   5.856
  682SOL    HW1 2390   0.622   0.798   5.788
  682SOL    HW2 2391   0.520   0.762   5.910
  683SOL     OW 2392   1.576   1.662   5.893
  683SOL    HW1 2393   1.665   1.708   5.896
  683SOL    HW2 2394   1.555   1.638   5.798
  684SOL     OW 2395   1.041   0.701   6.015
  684SOL    HW1 2396   1.067   0.697   6.111
  684SOL    HW2 2397   0.956   0.650   6.001
  685SOL     OW 2398   0.076   0.811   6.375
  685SOL    HW1 2399   0.175   0.799   6.384
  685SOL    HW2 2400   0.052   0.906   6.396
  686SOL     OW 2401   0.865   0.348   5.781
  686SOL    HW1 2402   0.924   0.411   5.732
  686SOL    HW2 2403   0.884   0.254   5.752
  687SOL     OW 2404   1.362   1.144   6.131
  687SOL    HW1 2405   1.445   1.115   6.083
  687SOL    HW2 2406   1.313   1.211   6.075
  688SOL     OW 2407   0.550   0.196   6.471
  688SOL    HW1 2408   0.545   0.191   6.571
  688SOL    HW2 2409   0.552   0.292   6.442
  689SOL     OW 2410   1.008   1.456   6.063
  689SOL    HW1 2411   0.962   1.528   6.011
  689SOL    HW2 2412   1.004   1.476   6.161
  690SOL     OW 2413   0.351   1.801   6.439
  690SOL    HW1 2414   0.401   1.715   6.445
  690SOL    HW2 2415   0.416   1.878   6.436
  691SOL     OW 2416   1.795   1.066   6.459
  691SOL    HW1 2417   1.733   1.051   6.383
  691SOL    HW2 2418   1.743   1.077   6.544
  692SOL     OW 2419   0.321   0.943   5.828
  692SOL    HW1 2420   0.403   0.982   5.786
  692SOL    HW2 2421   0.294   0.861   5.779
  693SOL     OW 2422   1.458   0.735   6.314
  693SOL    HW1 2423   1.453   0.670   6.389
  693SOL    HW2 2424   1.538   0.794   6.327
  694SOL     OW 2425   1.111   1.776   5.823
  694SOL    HW1 2426   1.051   1.714   5.873
  694SOL    HW2 2427   1.142   1.732   5.738
  695SOL     OW 2428   1.632   1.377   5.667
  695SOL    HW1 2429   1.600   1.471   5.657
  695SOL    HW2 2430   1.556   1.314   5.655
  696SOL     OW 2431   0.464   1.743   5.909
  696SOL    HW1 2432   0.497   1.782   5.995
  696SOL    HW2 2433   0.540   1.736   5.844
  697SOL     OW 2434   1.400   0.107   6.012
  697SOL    HW1 2435   1.376   0.070   5.922
  697SOL    HW2 2436   1.499   0.123   6.016
  698SOL     OW 2437   0.940   1.698   6.490
  698SOL    HW1 2438   1.020   1.641   6.511
  698SOL    HW2 2439   0.891   1.658   6.413
  699SOL     OW 2440   0.382   0.700   6.066
  699SOL    HW1 2441   0.427   0.610   6.063
  699SOL    HW2 2442   0.288   0.689   6.099
  700SOL     OW 2443   0.614   0.122   5.703
  700SOL    HW1 2444   0.712   0.100   5.710
  700SOL    HW2 2445   0.583   0.105   5.610
  701SOL     OW 2446   0.803   1.402   6.510
  701SOL    HW1 2447   0.893   1.416   6.468
  701SOL    HW2 2448   0.732   1.404   6.439
  702SOL     OW 2449   0.922   0.503   6.485
  702SOL    HW1 2450   0.897   0.494   6.389
  702SOL    HW2 2451   0.970   0.421   6.516
  703SOL     OW 2452   0.539   0.064   6.098
  703SOL    HW1 2453   0.458   0.065   6.156
  703SOL    HW2 2454   0.542   0.147   6.043
  704SOL     OW 2455   1.434   1.188   5.627
  704SOL    HW1 2456   1.466   1.112   5.684
  704SOL    HW2 2457   1.342   1.215   5.657
  705SOL     OW 2458   0.297   0.035   5.757
  705SOL    HW1 2459   0.346   0.119   5.736
  705SOL    HW2 2460   0.359  -0.030   5.802
  706SOL     OW 2461   0.935   0.236   6.066
  706SOL    HW1 2462   0.887   0.277   5.988
  706SOL    HW2 2463   1.034   0.234   6.047
  707SOL     OW 2464   1.227   1.570   6.379
  707SOL    HW1 2465   1.248   1.644   6.314
  707SOL    HW2 2466   1.295   1.570   6.452
  708SOL     OW 2467   0.459   1.152   6.327
  708SOL    HW1 2468   0.388   1.125   6.392
  708SOL    HW2 2469   0.433   1.124   6.234
  709SOL     OW 2470   1.271   1.797   6.177
  709SOL    HW1 2471   1.315   1.861   6.113
  709SOL    HW2 2472   1.221   1.849   6.247
  710SOL     OW 2473   1.032   0.549   5.602
  710SOL    HW1 2474   0.991   0.631   5.563
  710SOL    HW2 2475   1.096   0.575   5.675
  711SOL     OW 2476   0.866   0.454   6.228
  711SOL    HW1 2477   0.834   0.526   6.166
  711SOL    HW2 2478   0.890   0.373   6.175
  712SOL     OW 2479   1.017   0.039   6.339
  712SOL    HW1 2480   0.945   0.044   6.270
  712SOL    HW2 2481   0.993  -0.030   6.408
  713SOL     OW 2482   1.429   1.173   6.453
  713SOL    HW1 2483   1.374   1.089   6.446
  713SOL    HW2 2484   1.455   1.202   6.361
  714SOL     OW 2485   1.857   0.833   5.963
  714SOL    HW1 2486   1.899   0.769   6.027
  714SOL    HW2 2487   1.819   0.782   5.885
  715SOL     OW 2488   0.488   1.385   5.760
  715SOL    HW1 2489   0.401   1.370   5.807
  715SOL    HW2 2490   0.471   1.411   5.665
  716SOL     OW 2491   1.664   1.280   6.243
  716SOL    HW1 2492   1.763   1.288   6.257
  716SOL    HW2 2493   1.619   1.364   6.274
  717SOL     OW 2494   1.390   0.575   5.664
  717SOL    HW1 2495   1.336   0.554   5.745
  717SOL    HW2 2496   1.481   0.534   5.673
  718SOL     OW 2497   0.527   0.256   5.914
  718SOL    HW1 2498   0.554   0.197   5.839
  718SOL    HW2 2499   0.527   0.351   5.883
  719SOL     OW 2500   0.705   1.050   5.954
  719SOL    HW1 2501   0.691   1.057   6.053
  719SOL    HW2 2502   0.789   0.999   5.936
  720SOL     OW 2503   0.367   1.100   6.087
  720SOL    HW1 2504   0.360   1.183   6.031
  720SOL    HW2 2505   0.371   1.020   6.027
  721SOL     OW 2506   0.566   0.537   6.451
  721SOL    HW1 2507   0.578   0.603   6.377
  721SOL    HW2 2508   0.612   0.571   6.534
  722SOL     OW 2509   1.252   1.348   5.974
  722SOL    HW1 2510   1.302   1.425   6.014
  722SOL    HW2 2511   1.157   1.350   6.006
  723SOL     OW 2512   1.582   0.639   6.058
  723SOL    HW1 2513   1.551   0.700   6.131
  723SOL    HW2 2514   1.632   0.691   5.989
  724SOL     OW 2515   1.209   0.525   5.861
  724SOL    HW1 2516   1.222   0.441   5.915
  724SOL    HW2 2517   1.180   0.599   5.921
  725SOL     OW 2518   0.307   0.063   6.204
  725SOL    HW1 2519   0.296   0.157   6.237
  725SOL    HW2 2520   0.302   0.000   6.281
  726SOL     OW 2521   1.622   0.367   5.960
  726SOL    HW1 2522   1.624   0.291   6.024
  726SOL    HW2 2523   1.574   0.444   6.000
  727SOL     OW 2524   1.540   0.274   5.711
  727SOL    HW1 2525   1.479   0.199   5.734
  727SOL    HW2 2526   1.562   0.326   5.794
  728SOL     OW 2527   1.303   0.838   5.628
  728SOL    HW1 2528   1.337   0.745   5.643
  728SOL    HW2 2529   1.321   0.865   5.533
  729SOL     OW 2530   1.068   1.333   6.435
  729SOL    HW1 2531   1.075   1.249   6.380
  729SOL    HW2 2532   1.130   1.402   6.399
  730SOL     OW 2533   0.008   1.326   5.786
  730SOL    HW1 2534  -0.085   1.347   5.755
  730SOL    HW2 2535   0.018   1.227   5.799
  731SOL     OW 2536   0.504   1.568   6.496
  731SOL    HW1 2537   0.570   1.642   6.505
  731SOL    HW2 2538   0.548   1.489   6.454
  732SOL     OW 2539   0.815   0.572   5.911
  732SOL    HW1 2540   0.822   0.483   5.865
  732SOL    HW2 2541   0.721   0.606   5.903
  733SOL     OW 2542   0.473   0.500   5.777
  733SOL    HW1 2543   0.534   0.580   5.781
  733SOL    HW2 2544   0.378   0.531   5.784
  734SOL     OW 2545   1.302   0.855   5.895
  734SOL    HW1 2546   1.216   0.824   5.937
  734SOL    HW2 2547   1.298   0.841   5.796
  735SOL     OW 2548   1.726   0.135   6.109
  735SOL    HW1 2549   1.799   0.118   6.042
  735SOL    HW2 2550   1.695   0.048   6.147
  736SOL     OW 2551   1.388   1.573   6.063
  736SOL    HW1 2552   1.455   1.585   5.989
  736SOL    HW2 2553   1.348   1.662   6.086
  737SOL     OW 2554   1.280   0.927   6.258
  737SOL    HW1 2555   1.340   0.846   6.260
  737SOL    HW2 2556   1.320   0.996   6.198
  738SOL     OW 2557   0.672   1.616   5.740
  738SOL    HW1 2558   0.681   1.626   5.641
  738SOL    HW2 2559   0.632   1.527   5.761
  739SOL     OW 2560   0.263   0.326   6.306
  739SOL    HW1 2561   0.184   0.377   6.272
  739SOL    HW2 2562   0.254   0.311   6.404
  740SOL     OW 2563   1.194   1.612   5.617
  740SOL    HW1 2564   1.200   1.519   5.654
  740SOL    HW2 2565   1.135   1.612   5.537
  741SOL     OW 2566   0.916   0.910   5.877
  741SOL    HW1 2567   0.979   0.948   5.809
  741SOL    HW2 2568   0.956   0.827   5.916
  742SOL     OW 2569   1.504   1.607   5.630
  742SOL    HW1 2570   1.412   1.644   5.637
  742SOL    HW2 2571   1.542   1.627   5.540
  743SOL     OW 2572   1.039   1.098   6.282
  743SOL    HW1 2573   0.969   1.051   6.336
  743SOL    HW2 2574   1.098   1.030   6.239
  744SOL     OW 2575   1.014   0.236   6.557
  744SOL    HW1 2576   1.006   0.200   6.464
  744SOL    HW2 2577   1.012   0.160   6.622
  745SOL     OW 2578   0.590   1.487   6.077
  745SOL    HW1 2579   0.632   1.429   6.007
  745SOL    HW2 2580   0.546   1.566   6.033
  746SOL     OW 2581   0.255   1.348   5.876
  746SOL    HW1 2582   0.159   1.349   5.849
  746SOL    HW2 2583   0.267   1.401   5.960
  747SOL     OW 2584   0.075   0.345   5.619
  747SOL    HW1 2585  -0.017   0.317   5.590
  747SOL    HW2 2586   0.106   0.422   5.563
  748SOL     OW 2587   0.072   0.166   5.904
  748SOL    HW1 2588   0.055   0.249   5.850
  748SOL    HW2 2589   0.162   0.129   5.882
  749SOL     OW 2590   1.183   1.335   5.705
  749SOL    HW1 2591   1.084   1.324   5.707
  749SOL    HW2 2592   1.217   1.350   5.798
  750SOL     OW 2593   1.225   0.325   6.035
  750SOL    HW1 2594   1.290   0.251   6.024
  750SOL    HW2 2595   1.245   0.375   6.119
  751SOL     OW 2596   0.594   0.745   6.238
  751SOL    HW1 2597   0.644   0.830   6.219
  751SOL    HW2 2598   0.506   0.747   6.190
  752SOL     OW 2599   0.859   1.374   5.602
  752SOL    HW1 2600   0.813   1.389   5.690
  752SOL    HW2 2601   0.903   1.459   5.572
  753SOL     OW 2602   0.859   0.956   6.447
  753SOL    HW1 2603   0.913   0.887   6.495
  753SOL    HW2 2604   0.827   1.025   6.513
  754SOL     OW 2605   1.083   0.984   5.673
  754SOL    HW1 2606   1.060   1.037   5.591
  754SOL    HW2 2607   1.164   0.928   5.654
  755SOL     OW 2608   1.861   1.569   6.437
  755SOL    HW1 2609   1.790   1.557   6.367
  755SOL    HW2 2610   1.862   1.490   6.497
  756SOL     OW 2611   0.079   1.240   6.239
  756SOL    HW1 2612   0.078   1.193   6.327
  756SOL    HW2 2613   0.161   1.212   6.188
  757SOL     OW 2614   0.428   0.424   6.106
  757SOL    HW1 2615   0.458   0.352   6.044
  757SOL    HW2 2616   0.389   0.384   6.189
  758SOL     OW 2617   0.812   1.586   6.273
  758SOL    HW1 2618   0.844   1.596   6.179
  758SOL    HW2 2619   0.733   1.524   6.275
  759SOL     OW 2620   0.770   1.330   5.887
  759SOL    HW1 2621   0.724   1.243   5.904
  759SOL    HW2 2622   0.861   1.327   5.928
  760SOL     OW 2623   1.352   0.052   5.754
  760SOL    HW1 2624   1.387   0.011   5.670
  760SOL    HW2 2625   1.262   0.014   5.774
  761SOL     OW 2626   1.300   0.453   6.277
  761SOL    HW1 2627   1.241   0.533   6.281
  761SOL    HW2 2628   1.315   0.418   6.370
  762SOL     OW 2629   1.593   0.221   6.468
  762SOL    HW1 2630   1.509   0.220   6.522
  762SOL    HW2 2631   1.595   0.304   6.412
  763SOL     OW 2632   0.039   1.077   5.886
  763SOL    HW1 2633   0.138   1.066   5.877
  763SOL    HW2 2634  -0.001   0.991   5.918
  764SOL     OW 2635   0.875   1.646   5.923
  764SOL    HW1 2636   0.798   1.611   5.869
  764SOL    HW2 2637   0.843   1.717   5.985
  765SOL     OW 2638   0.230   2.490   0.113
  765SOL    HW1 2639   0.137   2.488   0.150
  765SOL    HW2 2640   0.231   2.451   0.021
  766SOL     OW 2641   0.225   2.137   0.996
  766SOL    HW1 2642   0.260   2.120   1.088
  766SOL    HW2 2643   0.137   2.092   0.984
  767SOL     OW 2644   0.019   2.230   0.647
  767SOL    HW1 2645  -0.063   2.273   0.686
  767SOL    HW2 2646  -0.009   2.157   0.584
  768SOL     OW 2647   0.569   3.137   1.165
  768SOL    HW1 2648   0.476   3.130   1.128
  768SOL    HW2 2649   0.580   3.226   1.209
  769SOL     OW 2650   1.555   3.373   0.703
  769SOL    HW1 2651   1.498   3.357   0.784
  769SOL    HW2 2652   1.496   3.383   0.623
  770SOL     OW 2653   1.135   2.565   0.717
  770SOL    HW1 2654   1.192   2.643   0.692
  770SOL    HW2 2655   1.075   2.591   0.793
  771SOL     OW 2656   1.755   2.469   0.231
  771SOL    HW1 2657   1.743   2.456   0.132
  771SOL    HW2 2658   1.725   2.388   0.280
  772SOL     OW 2659   0.768   3.006   1.023
  772SOL    HW1 2660   0.690   3.023   1.083
  772SOL    HW2 2661   0.802   3.093   0.987
  773SOL     OW 2662   0.850   2.660   1.823
  773SOL    HW1 2663   0.846   2.736   1.888
  773SOL    HW2 2664   0.872   2.696   1.732
  774SOL     OW 2665   0.685   2.874   0.665
  774SOL    HW1 2666   0.754   2.858   0.735
  774SOL    HW2 2667   0.612   2.931   0.703
  775SOL     OW 2668   0.686   3.023   1.803
  775SOL    HW1 2669   0.746   3.102   1.817
  775SOL    HW2 2670   0.600   3.054   1.762
  776SOL     OW 2671   0.335   3.297   1.061
  776SOL    HW1 2672   0.257   3.266   1.008
  776SOL    HW2 2673   0.393   3.355   1.004
  777SOL     OW 2674   1.460   3.367   1.339
  777SOL    HW1 2675   1.484   3.461   1.365
  777SOL    HW2 2676   1.444   3.313   1.421
  778SOL     OW 2677   0.438   2.254   1.499
  778SOL    HW1 2678   0.520   2.198   1.508
  778SOL    HW2 2679   0.357   2.196   1.503
  779SOL     OW 2680   1.603   2.309   0.737
  779SOL    HW1 2681   1.529   2.355   0.687
  779SOL    HW2 2682   1.654   2.377   0.790
  780SOL     OW 2683   0.231   3.575   0.483
  780SOL    HW1 2684   0.265   3.652   0.537
  780SOL    HW2 2685   0.275   3.575   0.393
  781SOL     OW 2686   1.127   3.203   1.690
  781SOL    HW1 2687   1.174   3.203   1.778
  781SOL    HW2 2688   1.079   3.116   1.679
  782SOL     OW 2689   0.230   3.296   0.538
  782SOL    HW1 2690   0.204   3.392   0.538
  782SOL    HW2 2691   0.159   3.242   0.583
  783SOL     OW 2692   0.240   2.953   0.886
  783SOL    HW1 2693   0.254   2.869   0.938
  783SOL    HW2 2694   0.185   3.017   0.941
  784SOL     OW 2695   0.620   3.648   1.439
  784SOL    HW1 2696   0.528   3.631   1.474
  784SOL    HW2 2697   0.648   3.740   1.465
  785SOL     OW 2698   0.606   2.826   0.123
  785SOL    HW1 2699   0.613   2.910   0.069
  785SOL    HW2 2700   0.652   2.839   0.211
  786SOL     OW 2701   1.594   1.976   1.480
  786SOL    HW1 2702   1.576   2.043   1.408
  786SOL    HW2 2703   1.591   2.022   1.569
  787SOL     OW 2704   0.122   2.505   0.563
  787SOL    HW1 2705   0.077   2.417   0.580
  787SOL    HW2 2706   0.121   2.559   0.647
  788SOL     OW 2707   1.842   3.629   0.359
  788SOL    HW1 2708   1.896   3.600   0.439
  788SOL    HW2 2709   1.872   3.719   0.330
  789SOL     OW 2710   0.027   3.458   0.117
  789SOL    HW1 2711   0.008   3.362   0.138
  789SOL    HW2 2712  -0.006   3.516   0.192
  790SOL     OW 2713   1.689   2.784   0.612
  790SOL    HW1 2714   1.784   2.755   0.620
  790SOL    HW2 2715   1.681   2.849   0.537
  791SOL     OW 2716   1.641   2.970   0.432
  791SOL    HW1 2717   1.727   2.972   0.380
  791SOL    HW2 2718   1.655   3.017   0.520
  792SOL     OW 2719   0.113   2.599   1.597
  792SOL    HW1 2720   0.201   2.586   1.642
  792SOL    HW2 2721   0.100   2.696   1.575
  793SOL     OW 2722   0.613   3.227   0.726
  793SOL    HW1 2723   0.564   3.140   0.735
  793SOL    HW2 2724   0.590   3.270   0.639
  794SOL     OW 2725   1.293   3.090   1.423
  794SOL    HW1 2726   1.330   3.017   1.365
  794SOL    HW2 2727   1.345   3.095   1.508
  795SOL     OW 2728   0.809   1.866   0.502
  795SOL    HW1 2729   0.849   1.957   0.493
  795SOL    HW2 2730   0.709   1.874   0.508
  796SOL     OW 2731   0.197   2.838   1.264
  796SOL    HW1 2732   0.286   2.793   1.250
  796SOL    HW2 2733   0.124   2.773   1.245
  797SOL     OW 2734   1.525   2.861   0.190
  797SOL    HW1 2735   1.462   2.785   0.203
  797SOL    HW2 2736   1.573   2.879   0.276
  798SOL     OW 2737   1.187   3.654   1.616
  798SOL    HW1 2738   1.211   3.714   1.540
  798SOL    HW2 2739   1.194   3.559   1.586
  799SOL     OW 2740   0.317   2.113   1.801
  799SOL    HW1 2741   0.388   2.184   1.807
  799SOL    HW2 2742   0.229   2.152   1.829
  800SOL     OW 2743   1.466   3.279   0.953
  800SOL    HW1 2744   1.407   3.285   1.033
  800SOL    HW2 2745   1.451   3.191   0.907
  801SOL     OW 2746   1.667   3.576   0.572
  801SOL    HW1 2747   1.626   3.553   0.484
  801SOL    HW2 2748   1.649   3.502   0.637
  802SOL     OW 2749   0.598   2.591   0.270
  802SOL    HW1 2750   0.622   2.660   0.202
  802SOL    HW2 2751   0.520   2.624   0.324
  803SOL     OW 2752   1.281   2.207   0.944
  803SOL    HW1 2753   1.195   2.157   0.931
  803SOL    HW2 2754   1.343   2.153   1.000
  804SOL     OW 2755   1.576   3.524   0.307
  804SOL    HW1 2756   1.665   3.570   0.310
  804SOL    HW2 2757   1.555   3.500   0.212
  805SOL     OW 2758   0.807   2.467   1.465
  805SOL    HW1 2759   0.760   2.464   1.554
  805SOL    HW2 2760   0.756   2.412   1.399
  806SOL     OW 2761   1.394   2.331   1.674
  806SOL    HW1 2762   1.374   2.374   1.762
  806SOL    HW2 2763   1.472   2.269   1.683
  807SOL     OW 2764   0.973   2.752   1.572
  807SOL    HW1 2765   1.019   2.668   1.543
  807SOL    HW2 2766   0.917   2.786   1.497
  808SOL     OW 2767   0.991   2.272   1.242
  808SOL    HW1 2768   0.914   2.306   1.296
  808SOL    HW2 2769   0.957   2.221   1.163
  809SOL     OW 2770   1.041   2.563   0.429
  809SOL    HW1 2771   1.067   2.559   0.525
  809SOL    HW2 2772   0.956   2.512   0.415
  810SOL     OW 2773   0.076   2.673   0.789
  810SOL    HW1 2774   0.175   2.661   0.798
  810SOL    HW2 2775   0.052   2.768   0.810
  811SOL     OW 2776   0.130   3.683   1.571
  811SOL    HW1 2777   0.120   3.668   1.670
  811SOL    HW2 2778   0.044   3.719   1.535
  812SOL     OW 2779   0.865   2.210   0.195
  812SOL    HW1 2780   0.924   2.273   0.146
  812SOL    HW2 2781   0.884   2.116   0.166
  813SOL     OW 2782   1.719   2.447   1.831
  813SOL    HW1 2783   1.693   2.536   1.795
  813SOL    HW2 2784   1.717   2.379   1.758
  814SOL     OW 2785   1.362   3.006   0.545
  814SOL    HW1 2786   1.445   2.977   0.497
  814SOL    HW2 2787   1.313   3.073   0.489
  815SOL     OW 2788   0.550   2.058   0.885
  815SOL    HW1 2789   0.545   2.053   0.985
  815SOL    HW2 2790   0.552   2.154   0.856
  816SOL     OW 2791   1.008   3.318   0.477
  816SOL    HW1 2792   0.962   3.390   0.425
  816SOL    HW2 2793   1.004   3.338   0.575
  817SOL     OW 2794   0.351   3.663   0.853
  817SOL    HW1 2795   0.401   3.577   0.859
  817SOL    HW2 2796   0.416   3.740   0.850
  818SOL     OW 2797   1.795   2.928   0.873
  818SOL    HW1 2798   1.733   2.913   0.797
  818SOL    HW2 2799   1.743   2.939   0.958
  819SOL     OW 2800   1.227   3.412   1.506
  819SOL    HW1 2801   1.233   3.335   1.570
  819SOL    HW2 2802   1.175   3.386   1.426
  820SOL     OW 2803   0.321   2.805   0.242
  820SOL    HW1 2804   0.403   2.844   0.200
  820SOL    HW2 2805   0.294   2.723   0.193
  821SOL     OW 2806   1.458   2.597   0.728
  821SOL    HW1 2807   1.453   2.532   0.803
  821SOL    HW2 2808   1.538   2.656   0.741
  822SOL     OW 2809   0.461   3.128   1.727
  822SOL    HW1 2810   0.411   3.129   1.641
  822SOL    HW2 2811   0.398   3.110   1.803
  823SOL     OW 2812   1.111   3.638   0.237
  823SOL    HW1 2813   1.051   3.576   0.287
  823SOL    HW2 2814   1.142   3.594   0.152
  824SOL     OW 2815   0.202   2.147   1.498
  824SOL    HW1 2816   0.122   2.207   1.485
  824SOL    HW2 2817   0.192   2.098   1.584
  825SOL     OW 2818   1.632   3.239   0.081
  825SOL    HW1 2819   1.600   3.333   0.071
  825SOL    HW2 2820   1.556   3.176   0.069
  826SOL     OW 2821   0.464   3.605   0.323
  826SOL    HW1 2822   0.497   3.644   0.409
  826SOL    HW2 2823   0.540   3.598   0.258
  827SOL     OW 2824   1.400   1.969   0.426
  827SOL    HW1 2825   1.376   1.932   0.336
  827SOL    HW2 2826   1.499   1.985   0.430
  828SOL     OW 2827   0.249   3.647   1.241
  828SOL    HW1 2828   0.306   3.582   1.291
  828SOL    HW2 2829   0.233   3.614   1.148
  829SOL     OW 2830   0.940   3.560   0.904
  829SOL    HW1 2831   1.020   3.503   0.925
  829SOL    HW2 2832   0.891   3.520   0.827
  830SOL     OW 2833   0.382   2.562   0.480
  830SOL    HW1 2834   0.427   2.472   0.477
  830SOL    HW2 2835   0.288   2.551   0.513
  831SOL     OW 2836   1.547   2.084   1.729
  831SOL    HW1 2837   1.542   2.121   1.821
  831SOL    HW2 2838   1.475   2.015   1.717
  832SOL     OW 2839   0.614   1.984   0.117
  832SOL    HW1 2840   0.712   1.962   0.124
  832SOL    HW2 2841   0.583   1.967   0.024
  833SOL     OW 2842   0.781   2.126   1.749
  833SOL    HW1 2843   0.848   2.065   1.792
  833SOL    HW2 2844   0.708   2.145   1.814
  834SOL     OW 2845   0.888   3.376   1.195
  834SOL    HW1 2846   0.865   3.351   1.101
  834SOL    HW2 2847   0.949   3.307   1.234
  835SOL     OW 2848   1.351   2.452   1.433
  835SOL    HW1 2849   1.379   2.409   1.518
  835SOL    HW2 2850   1.376   2.548   1.434
  836SOL     OW 2851   0.803   3.264   0.924
  836SOL    HW1 2852   0.893   3.278   0.882
  836SOL    HW2 2853   0.732   3.266   0.853
  837SOL     OW 2854   0.922   2.365   0.899
  837SOL    HW1 2855   0.897   2.356   0.803
  837SOL    HW2 2856   0.970   2.283   0.930
  838SOL     OW 2857   0.539   1.926   0.512
  838SOL    HW1 2858   0.458   1.927   0.570
  838SOL    HW2 2859   0.542   2.009   0.457
  839SOL     OW 2860   1.434   3.050   0.041
  839SOL    HW1 2861   1.466   2.974   0.098
  839SOL    HW2 2862   1.342   3.077   0.071
  840SOL     OW 2863   0.297   1.897   0.171
  840SOL    HW1 2864   0.346   1.981   0.150
  840SOL    HW2 2865   0.359   1.832   0.216
  841SOL     OW 2866   0.935   2.098   0.480
  841SOL    HW1 2867   0.887   2.139   0.402
  841SOL    HW2 2868   1.034   2.096   0.461
  842SOL     OW 2869   1.076   2.545   1.464
  842SOL    HW1 2870   0.996   2.484   1.467
  842SOL    HW2 2871   1.157   2.492   1.440
  843SOL     OW 2872   1.227   3.432   0.793
  843SOL    HW1 2873   1.248   3.506   0.728
  843SOL    HW2 2874   1.295   3.432   0.866
  844SOL     OW 2875   0.459   3.014   0.741
  844SOL    HW1 2876   0.388   2.987   0.806
  844SOL    HW2 2877   0.433   2.986   0.648
  845SOL     OW 2878   1.271   3.659   0.591
  845SOL    HW1 2879   1.315   3.723   0.527
  845SOL    HW2 2880   1.221   3.711   0.661
  846SOL     OW 2881   1.032   2.411   0.016
  846SOL    HW1 2882   0.991   2.493  -0.023
  846SOL    HW2 2883   1.096   2.437   0.089
  847SOL     OW 2884   0.078   2.418   1.386
  847SOL    HW1 2885   0.170   2.417   1.345
  847SOL    HW2 2886   0.072   2.492   1.453
  848SOL     OW 2887   0.561   2.084   1.147
  848SOL    HW1 2888   0.599   2.000   1.184
  848SOL    HW2 2889   0.473   2.103   1.191
  849SOL     OW 2890   0.866   2.316   0.642
  849SOL    HW1 2891   0.834   2.388   0.580
  849SOL    HW2 2892   0.890   2.235   0.589
  850SOL     OW 2893   1.017   1.901   0.753
  850SOL    HW1 2894   0.945   1.906   0.684
  850SOL    HW2 2895   0.993   1.832   0.822
  851SOL     OW 2896   1.429   3.035   0.867
  851SOL    HW1 2897   1.374   2.951   0.860
  851SOL    HW2 2898   1.455   3.064   0.775
  852SOL     OW 2899   1.466   2.452   0.992
  852SOL    HW1 2900   1.436   2.357   0.999
  852SOL    HW2 2901   1.539   2.468   1.058
  853SOL     OW 2902   1.857   2.695   0.377
  853SOL    HW1 2903   1.899   2.631   0.441
  853SOL    HW2 2904   1.819   2.644   0.299
  854SOL     OW 2905   0.488   3.247   0.174
  854SOL    HW1 2906   0.401   3.232   0.221
  854SOL    HW2 2907   0.471   3.273   0.079
  855SOL     OW 2908   1.664   3.142   0.657
  855SOL    HW1 2909   1.763   3.150   0.671
  855SOL    HW2 2910   1.619   3.226   0.688
  856SOL     OW 2911   1.390   2.437   0.078
  856SOL    HW1 2912   1.336   2.416   0.159
  856SOL    HW2 2913   1.481   2.396   0.087
  857SOL     OW 2914   0.527   2.118   0.328
  857SOL    HW1 2915   0.554   2.059   0.253
  857SOL    HW2 2916   0.527   2.213   0.297
  858SOL     OW 2917   1.754   3.085   1.588
  858SOL    HW1 2918   1.845   3.046   1.575
  858SOL    HW2 2919   1.762   3.181   1.612
  859SOL     OW 2920   1.064   3.209   1.340
  859SOL    HW1 2921   0.984   3.186   1.395
  859SOL    HW2 2922   1.147   3.183   1.389
  860SOL     OW 2923   1.592   3.491   1.625
  860SOL    HW1 2924   1.619   3.525   1.535
  860SOL    HW2 2925   1.671   3.453   1.671
  861SOL     OW 2926   1.111   3.057   1.100
  861SOL    HW1 2927   1.071   3.101   1.181
  861SOL    HW2 2928   1.070   3.094   1.017
  862SOL     OW 2929   1.638   2.961   1.079
  862SOL    HW1 2930   1.643   3.042   1.138
  862SOL    HW2 2931   1.552   2.963   1.028
  863SOL     OW 2932   0.915   1.951   1.402
  863SOL    HW1 2933   0.940   1.931   1.307
  863SOL    HW2 2934   0.987   2.007   1.444
  864SOL     OW 2935   0.980   2.978   1.719
  864SOL    HW1 2936   0.881   2.984   1.729
  864SOL    HW2 2937   1.003   2.898   1.663
  865SOL     OW 2938   0.705   2.912   0.368
  865SOL    HW1 2939   0.691   2.919   0.467
  865SOL    HW2 2940   0.789   2.861   0.350
  866SOL     OW 2941   0.410   2.675   1.251
  866SOL    HW1 2942   0.496   2.687   1.301
  866SOL    HW2 2943   0.368   2.588   1.278
  867SOL     OW 2944   1.274   2.248   1.262
  867SOL    HW1 2945   1.295   2.322   1.326
  867SOL    HW2 2946   1.185   2.265   1.219
  868SOL     OW 2947   0.064   3.426   1.331
  868SOL    HW1 2948   0.018   3.508   1.297
  868SOL    HW2 2949   0.162   3.445   1.340
  869SOL     OW 2950   0.367   2.962   0.501
  869SOL    HW1 2951   0.360   3.045   0.445
  869SOL    HW2 2952   0.371   2.882   0.441
  870SOL     OW 2953   0.566   2.399   0.865
  870SOL    HW1 2954   0.578   2.465   0.791
  870SOL    HW2 2955   0.612   2.433   0.948
  871SOL     OW 2956   1.252   3.210   0.388
  871SOL    HW1 2957   1.302   3.287   0.428
  871SOL    HW2 2958   1.157   3.212   0.420
  872SOL     OW 2959   1.272   3.307   1.142
  872SOL    HW1 2960   1.319   3.320   1.229
  872SOL    HW2 2961   1.206   3.233   1.151
  873SOL     OW 2962   1.582   2.501   0.472
  873SOL    HW1 2963   1.551   2.562   0.545
  873SOL    HW2 2964   1.632   2.553   0.403
  874SOL     OW 2965   0.354   3.372   1.329
  874SOL    HW1 2966   0.333   3.328   1.242
  874SOL    HW2 2967   0.451   3.398   1.332
  875SOL     OW 2968   0.402   2.613   1.598
  875SOL    HW1 2969   0.470   2.668   1.551
  875SOL    HW2 2970   0.442   2.525   1.625
  876SOL     OW 2971   1.587   2.641   1.670
  876SOL    HW1 2972   1.495   2.679   1.665
  876SOL    HW2 2973   1.647   2.688   1.605
  877SOL     OW 2974   1.013   1.967   1.770
  877SOL    HW1 2975   1.019   2.052   1.718
  877SOL    HW2 2976   1.045   1.891   1.713
  878SOL     OW 2977   0.504   1.912   1.740
  878SOL    HW1 2978   0.462   1.855   1.670
  878SOL    HW2 2979   0.438   1.981   1.772
  879SOL     OW 2980   0.573   2.732   1.029
  879SOL    HW1 2981   0.617   2.821   1.020
  879SOL    HW2 2982   0.510   2.732   1.106
  880SOL     OW 2983   1.360   2.724   1.045
  880SOL    HW1 2984   1.285   2.724   0.979
  880SOL    HW2 2985   1.397   2.632   1.054
  881SOL     OW 2986   1.209   2.387   0.275
  881SOL    HW1 2987   1.222   2.303   0.329
  881SOL    HW2 2988   1.180   2.461   0.335
  882SOL     OW 2989   0.307   2.075   1.231
  882SOL    HW1 2990   0.284   2.112   1.321
  882SOL    HW2 2991   0.277   1.980   1.225
  883SOL     OW 2992   0.037   3.172   1.282
  883SOL    HW1 2993   0.090   3.123   1.350
  883SOL    HW2 2994   0.059   3.270   1.287
  884SOL     OW 2995   0.732   2.496   1.064
  884SOL    HW1 2996   0.791   2.470   0.988
  884SOL    HW2 2997   0.704   2.592   1.053
  885SOL     OW 2998   1.728   2.797   1.854
  885SOL    HW1 2999   1.682   2.790   1.765
  885SOL    HW2 3000   1.666   2.841   1.920
  886SOL     OW 3001   0.307   1.925   0.618
  886SOL    HW1 3002   0.296   2.019   0.651
  886SOL    HW2 3003   0.302   1.862   0.695
  887SOL     OW 3004   1.622   2.229   0.374
  887SOL    HW1 3005   1.624   2.153   0.438
  887SOL    HW2 3006   1.574   2.306   0.414
  888SOL     OW 3007   1.023   2.628   0.966
  888SOL    HW1 3008   1.038   2.649   1.062
  888SOL    HW2 3009   0.993   2.533   0.957
  889SOL     OW 3010   0.980   3.435   1.700
  889SOL    HW1 3011   0.960   3.479   1.612
  889SOL    HW2 3012   1.019   3.344   1.684
  890SOL     OW 3013   1.859   3.380   1.605
  890SOL    HW1 3014   1.873   3.407   1.510
  890SOL    HW2 3015   1.942   3.402   1.658
  891SOL     OW 3016   0.350   2.760   1.804
  891SOL    HW1 3017   0.426   2.804   1.852
  891SOL    HW2 3018   0.385   2.713   1.722
  892SOL     OW 3019   1.540   2.136   0.125
  892SOL    HW1 3020   1.479   2.061   0.148
  892SOL    HW2 3021   1.562   2.188   0.208
  893SOL     OW 3022   1.303   2.700   0.042
  893SOL    HW1 3023   1.337   2.607   0.057
  893SOL    HW2 3024   1.321   2.727  -0.053
  894SOL     OW 3025   1.068   3.195   0.849
  894SOL    HW1 3026   1.075   3.111   0.794
  894SOL    HW2 3027   1.130   3.264   0.813
  895SOL     OW 3028   0.319   2.672   0.949
  895SOL    HW1 3029   0.412   2.708   0.954
  895SOL    HW2 3030   0.313   2.587   1.001
  896SOL     OW 3031   0.339   2.371   1.006
  896SOL    HW1 3032   0.287   2.288   0.989
  896SOL    HW2 3033   0.416   2.376   0.942
  897SOL     OW 3034   1.138   2.242   1.678
  897SOL    HW1 3035   1.093   2.305   1.742
  897SOL    HW2 3036   1.231   2.273   1.661
  898SOL     OW 3037   1.160   2.069   1.477
  898SOL    HW1 3038   1.160   2.133   1.554
  898SOL    HW2 3039   1.188   2.117   1.394
  899SOL     OW 3040   0.008   3.188   0.200
  899SOL    HW1 3041  -0.085   3.209   0.169
  899SOL    HW2 3042   0.018   3.089   0.213
  900SOL     OW 3043   0.088   3.663   0.927
  900SOL    HW1 3044   0.046   3.577   0.900
  900SOL    HW2 3045   0.182   3.666   0.893
  901SOL     OW 3046   0.504   3.430   0.910
  901SOL    HW1 3047   0.570   3.504   0.919
  901SOL    HW2 3048   0.548   3.351   0.868
  902SOL     OW 3049   1.002   2.658   1.238
  902SOL    HW1 3050   1.043   2.626   1.324
  902SOL    HW2 3051   0.906   2.631   1.235
  903SOL     OW 3052   0.040   2.406   1.114
  903SOL    HW1 3053   0.125   2.373   1.073
  903SOL    HW2 3054   0.053   2.421   1.212
  904SOL     OW 3055   0.189   2.382   1.722
  904SOL    HW1 3056   0.248   2.342   1.652
  904SOL    HW2 3057   0.131   2.453   1.681
  905SOL     OW 3058   1.369   2.812   1.660
  905SOL    HW1 3059   1.408   2.901   1.680
  905SOL    HW2 3060   1.379   2.792   1.563
  906SOL     OW 3061   0.815   2.434   0.325
  906SOL    HW1 3062   0.822   2.345   0.279
  906SOL    HW2 3063   0.721   2.468   0.317
  907SOL     OW 3064   1.657   2.466   1.206
  907SOL    HW1 3065   1.619   2.397   1.268
  907SOL    HW2 3066   1.739   2.430   1.162
  908SOL     OW 3067   0.252   3.426   1.744
  908SOL    HW1 3068   0.222   3.483   1.820
  908SOL    HW2 3069   0.245   3.329   1.770
  909SOL     OW 3070   0.671   2.326   1.269
  909SOL    HW1 3071   0.637   2.237   1.239
  909SOL    HW2 3072   0.697   2.380   1.189
  910SOL     OW 3073   0.930   3.540   1.465
  910SOL    HW1 3074   0.906   3.522   1.370
  910SOL    HW2 3075   0.960   3.634   1.475
  911SOL     OW 3076   0.473   2.362   0.191
  911SOL    HW1 3077   0.534   2.442   0.195
  911SOL    HW2 3078   0.378   2.393   0.198
  912SOL     OW 3079   0.159   2.999   1.466
  912SOL    HW1 3080   0.181   2.938   1.542
  912SOL    HW2 3081   0.169   2.950   1.380
  913SOL     OW 3082   1.347   2.921   1.234
  913SOL    HW1 3083   1.371   2.858   1.160
  913SOL    HW2 3084   1.257   2.961   1.216
  914SOL     OW 3085   1.302   2.717   0.309
  914SOL    HW1 3086   1.216   2.686   0.351
  914SOL    HW2 3087   1.298   2.703   0.210
  915SOL     OW 3088   1.759   3.609   1.154
  915SOL    HW1 3089   1.820   3.639   1.081
  915SOL    HW2 3090   1.721   3.520   1.132
  916SOL     OW 3091   1.252   3.593   1.128
  916SOL    HW1 3092   1.336   3.598   1.074
  916SOL    HW2 3093   1.229   3.497   1.146
  917SOL     OW 3094   0.083   3.120   1.022
  917SOL    HW1 3095   0.078   3.119   1.122
  917SOL    HW2 3096   0.000   3.079   0.984
  918SOL     OW 3097   0.688   3.524   1.716
  918SOL    HW1 3098   0.632   3.605   1.725
  918SOL    HW2 3099   0.740   3.528   1.630
  919SOL     OW 3100   0.903   1.948   0.133
  919SOL    HW1 3101   0.954   1.949   0.047
  919SOL    HW2 3102   0.959   1.906   0.204
  920SOL     OW 3103   1.726   1.997   0.523
  920SOL    HW1 3104   1.799   1.980   0.456
  920SOL    HW2 3105   1.695   1.910   0.561
  921SOL     OW 3106   1.388   3.435   0.477
  921SOL    HW1 3107   1.455   3.447   0.403
  921SOL    HW2 3108   1.348   3.524   0.500
  922SOL     OW 3109   0.130   3.656   1.851
  922SOL    HW1 3110   0.089   3.582   1.904
  922SOL    HW2 3111   0.194   3.707   1.909
  923SOL     OW 3112   1.280   2.789   0.672
  923SOL    HW1 3113   1.340   2.708   0.674
  923SOL    HW2 3114   1.320   2.858   0.612
  924SOL     OW 3115   0.830   3.135   1.422
  924SOL    HW1 3116   0.825   3.168   1.517
  924SOL    HW2 3117   0.744   3.154   1.376
  925SOL     OW 3118   0.672   3.478   0.154
  925SOL    HW1 3119   0.681   3.488   0.055
  925SOL    HW2 3120   0.632   3.389   0.175
  926SOL     OW 3121   1.650   3.582   1.394
  926SOL    HW1 3122   1.703   3.592   1.310
  926SOL    HW2 3123   1.623   3.672   1.428
  927SOL     OW 3124   1.841   2.037   0.963
  927SOL    HW1 3125   1.880   1.952   0.927
  927SOL    HW2 3126   1.743   2.039   0.944
  928SOL     OW 3127   0.263   2.188   0.720
  928SOL    HW1 3128   0.184   2.239   0.686
  928SOL    HW2 3129   0.254   2.173   0.818
  929SOL     OW 3130   1.194   3.474   0.031
  929SOL    HW1 3131   1.200   3.381   0.068
  929SOL    HW2 3132   1.135   3.474  -0.049
  930SOL     OW 3133   0.822   2.864   1.372
  930SOL    HW1 3134   0.862   2.863   1.280
  930SOL    HW2 3135   0.832   2.956   1.412
  931SOL     OW 3136   0.916   2.772   0.291
  931SOL    HW1 3137   0.979   2.810   0.223
  931SOL    HW2 3138   0.956   2.689   0.330
  932SOL     OW 3139   1.504   3.469   0.044
  932SOL    HW1 3140   1.412   3.506   0.051
  932SOL    HW2 3141   1.542   3.489  -0.046
  933SOL     OW 3142   0.372   3.150   1.490
  933SOL    HW1 3143   0.359   3.243   1.456
  933SOL    HW2 3144   0.288   3.098   1.477
  934SOL     OW 3145   1.614   3.154   1.289
  934SOL    HW1 3146   1.674   3.157   1.369
  934SOL    HW2 3147   1.539   3.218   1.302
  935SOL     OW 3148   1.039   2.960   0.696
  935SOL    HW1 3149   0.969   2.913   0.750
  935SOL    HW2 3150   1.098   2.892   0.653
  936SOL     OW 3151   1.014   2.098   0.971
  936SOL    HW1 3152   1.006   2.062   0.878
  936SOL    HW2 3153   1.012   2.022   1.036
  937SOL     OW 3154   0.590   3.349   0.491
  937SOL    HW1 3155   0.632   3.291   0.421
  937SOL    HW2 3156   0.546   3.428   0.447
  938SOL     OW 3157   1.709   2.247   1.381
  938SOL    HW1 3158   1.782   2.316   1.385
  938SOL    HW2 3159   1.737   2.172   1.322
  939SOL     OW 3160   0.255   3.210   0.290
  939SOL    HW1 3161   0.159   3.211   0.263
  939SOL    HW2 3162   0.267   3.263   0.374
  940SOL     OW 3163   0.105   2.875   1.726
  940SOL    HW1 3164   0.028   2.842   1.780
  940SOL    HW2 3165   0.190   2.845   1.768
  941SOL     OW 3166   0.672   2.065   1.489
  941SOL    HW1 3167   0.762   2.049   1.449
  941SOL    HW2 3168   0.680   2.070   1.588
  942SOL     OW 3169   0.075   2.207   0.033
  942SOL    HW1 3170  -0.017   2.179   0.004
  942SOL    HW2 3171   0.106   2.284  -0.023
  943SOL     OW 3172   1.440   2.718   1.398
  943SOL    HW1 3173   1.383   2.770   1.335
  943SOL    HW2 3174   1.536   2.730   1.374
  944SOL     OW 3175   0.072   2.028   0.318
  944SOL    HW1 3176   0.055   2.111   0.264
  944SOL    HW2 3177   0.162   1.991   0.296
  945SOL     OW 3178   1.183   3.197   0.119
  945SOL    HW1 3179   1.084   3.186   0.121
  945SOL    HW2 3180   1.217   3.212   0.212
  946SOL     OW 3181   0.613   2.704   1.431
  946SOL    HW1 3182   0.669   2.785   1.414
  946SOL    HW2 3183   0.672   2.624   1.434
  947SOL     OW 3184   1.493   3.629   0.959
  947SOL    HW1 3185   1.526   3.693   0.890
  947SOL    HW2 3186   1.559   3.623   1.034
  948SOL     OW 3187   0.716   2.427   1.708
  948SOL    HW1 3188   0.735   2.492   1.782
  948SOL    HW2 3189   0.776   2.347   1.717
  949SOL     OW 3190   1.450   3.082   1.633
  949SOL    HW1 3191   1.441   3.072   1.732
  949SOL    HW2 3192   1.546   3.075   1.607
  950SOL     OW 3193   0.390   3.603   1.560
  950SOL    HW1 3194   0.299   3.644   1.558
  950SOL    HW2 3195   0.383   3.509   1.592
  951SOL     OW 3196   1.674   2.745   1.254
  951SOL    HW1 3197   1.647   2.656   1.217
  951SOL    HW2 3198   1.675   2.813   1.181
  952SOL     OW 3199   1.225   2.187   0.449
  952SOL    HW1 3200   1.290   2.113   0.438
  952SOL    HW2 3201   1.245   2.237   0.533
  953SOL     OW 3202   0.594   2.607   0.652
  953SOL    HW1 3203   0.644   2.692   0.633
  953SOL    HW2 3204   0.506   2.609   0.604
  954SOL     OW 3205   1.777   2.204   1.642
  954SOL    HW1 3206   1.760   2.235   1.548
  954SOL    HW2 3207   1.693   2.167   1.680
  955SOL     OW 3208   1.730   2.796   1.517
  955SOL    HW1 3209   1.768   2.887   1.532
  955SOL    HW2 3210   1.722   2.779   1.418
  956SOL     OW 3211   0.859   3.236   0.016
  956SOL    HW1 3212   0.813   3.251   0.104
  956SOL    HW2 3213   0.903   3.321  -0.014
  957SOL     OW 3214   0.661   3.652   0.953
  957SOL    HW1 3215   0.615   3.740   0.940
  957SOL    HW2 3216   0.760   3.664   0.946
  958SOL     OW 3217   0.859   2.818   0.861
  958SOL    HW1 3218   0.913   2.749   0.909
  958SOL    HW2 3219   0.827   2.887   0.927
  959SOL     OW 3220   1.083   2.846   0.087
  959SOL    HW1 3221   1.060   2.899   0.005
  959SOL    HW2 3222   1.164   2.790   0.068
  960SOL     OW 3223   1.861   3.431   0.851
  960SOL    HW1 3224   1.790   3.419   0.781
  960SOL    HW2 3225   1.862   3.352   0.911
  961SOL     OW 3226   0.221   3.176   1.844
  961SOL    HW1 3227   0.156   3.103   1.823
  961SOL    HW2 3228   0.225   3.190   1.942
  962SOL     OW 3229   0.079   3.102   0.653
  962SOL    HW1 3230   0.078   3.055   0.741
  962SOL    HW2 3231   0.161   3.074   0.602
  963SOL     OW 3232   0.672   3.253   1.624
  963SOL    HW1 3233   0.594   3.203   1.662
  963SOL    HW2 3234   0.669   3.348   1.655
  964SOL     OW 3235   1.824   2.054   1.227
  964SOL    HW1 3236   1.820   1.964   1.271
  964SOL    HW2 3237   1.827   2.043   1.128
  965SOL     OW 3238   0.428   2.286   0.520
  965SOL    HW1 3239   0.458   2.214   0.458
  965SOL    HW2 3240   0.389   2.246   0.603
  966SOL     OW 3241   1.705   3.349   1.104
  966SOL    HW1 3242   1.612   3.324   1.077
  966SOL    HW2 3243   1.731   3.299   1.186
  967SOL     OW 3244   0.317   2.409   1.280
  967SOL    HW1 3245   0.355   2.350   1.352
  967SOL    HW2 3246   0.357   2.383   1.192
  968SOL     OW 3247   0.812   3.448   0.687
  968SOL    HW1 3248   0.844   3.458   0.593
  968SOL    HW2 3249   0.733   3.386   0.689
  969SOL     OW 3250   1.424   2.076   1.112
  969SOL    HW1 3251   1.476   2.011   1.167
  969SOL    HW2 3252   1.375   2.139   1.173
  970SOL     OW 3253   1.001   1.896   1.154
  970SOL    HW1 3254   0.938   1.824   1.123
  970SOL    HW2 3255   1.094   1.860   1.154
  971SOL     OW 3256   0.770   3.192   0.301
  971SOL    HW1 3257   0.724   3.105   0.318
  971SOL    HW2 3258   0.861   3.189   0.342
  972SOL     OW 3259   0.618   3.429   1.284
  972SOL    HW1 3260   0.613   3.511   1.341
  972SOL    HW2 3261   0.707   3.426   1.239
  973SOL     OW 3262   1.352   1.914   0.168
  973SOL    HW1 3263   1.387   1.873   0.084
  973SOL    HW2 3264   1.262   1.876   0.188
  974SOL     OW 3265   1.300   2.315   0.691
  974SOL    HW1 3266   1.241   2.395   0.695
  974SOL    HW2 3267   1.315   2.280   0.784
  975SOL     OW 3268   1.593   2.083   0.882
  975SOL    HW1 3269   1.509   2.082   0.936
  975SOL    HW2 3270   1.595   2.166   0.826
  976SOL     OW 3271   0.039   2.939   0.300
  976SOL    HW1 3272   0.138   2.928   0.291
  976SOL    HW2 3273  -0.001   2.853   0.332
  977SOL     OW 3274   0.875   3.508   0.337
  977SOL    HW1 3275   0.798   3.473   0.283
  977SOL    HW2 3276   0.843   3.579   0.399
  978SOL     OW 3277   0.230   2.490   1.975
  978SOL    HW1 3278   0.137   2.488   2.012
  978SOL    HW2 3279   0.231   2.451   1.883
  979SOL     OW 3280   0.225   2.137   2.858
  979SOL    HW1 3281   0.260   2.120   2.950
  979SOL    HW2 3282   0.137   2.092   2.846
  980SOL     OW 3283   0.019   2.230   2.509
  980SOL    HW1 3284  -0.063   2.273   2.548
  980SOL    HW2 3285  -0.009   2.157   2.446
  981SOL     OW 3286   0.569   3.137   3.027
  981SOL    HW1 3287   0.476   3.130   2.990
  981SOL    HW2 3288   0.580   3.226   3.071
  982SOL     OW 3289   1.555   3.373   2.565
  982SOL    HW1 3290   1.498   3.357   2.646
  982SOL    HW2 3291   1.496   3.383   2.485
  983SOL     OW 3292   1.135   2.565   2.579
  983SOL    HW1 3293   1.192   2.643   2.554
  983SOL    HW2 3294   1.075   2.591   2.655
  984SOL     OW 3295   1.755   2.469   2.093
  984SOL    HW1 3296   1.743   2.456   1.994
  984SOL    HW2 3297   1.725   2.388   2.142
  985SOL     OW 3298   0.768   3.006   2.885
  985SOL    HW1 3299   0.690   3.023   2.945
  985SOL    HW2 3300   0.802   3.093   2.849
  986SOL     OW 3301   0.850   2.660   3.685
  986SOL    HW1 3302   0.846   2.736   3.750
  986SOL    HW2 3303   0.872   2.696   3.594
  987SOL     OW 3304   0.685   2.874   2.527
  987SOL    HW1 3305   0.754   2.858   2.597
  987SOL    HW2 3306   0.612   2.931   2.565
  988SOL     OW 3307   0.686   3.023   3.665
  988SOL    HW1 3308   0.746   3.102   3.679
  988SOL    HW2 3309   0.600   3.054   3.624
  989SOL     OW 3310   0.335   3.297   2.923
  989SOL    HW1 3311   0.257   3.266   2.870
  989SOL    HW2 3312   0.393   3.355   2.866
  990SOL     OW 3313   1.460   3.367   3.201
  990SOL    HW1 3314   1.484   3.461   3.227
  990SOL    HW2 3315   1.444   3.313   3.283
  991SOL     OW 3316   0.438   2.254   3.361
  991SOL    HW1 3317   0.520   2.198   3.370
  991SOL    HW2 3318   0.357   2.196   3.365
  992SOL     OW 3319   1.603   2.309   2.599
  992SOL    HW1 3320   1.529   2.355   2.549
  992SOL    HW2 3321   1.654   2.377   2.652
  993SOL     OW 3322   0.231   3.575   2.345
  993SOL    HW1 3323   0.265   3.652   2.399
  993SOL    HW2 3324   0.275   3.575   2.255
  994SOL     OW 3325   1.127   3.203   3.552
  994SOL    HW1 3326   1.174   3.203   3.640
  994SOL    HW2 3327   1.079   3.116   3.541
  995SOL     OW 3328   0.230   3.296   2.400
  995SOL    HW1 3329   0.204   3.392   2.400
  995SOL    HW2 3330   0.159   3.242   2.445
  996SOL     OW 3331   0.240   2.953   2.748
  996SOL    HW1 3332   0.254   2.869   2.800
  996SOL    HW2 3333   0.185   3.017   2.803
  997SOL     OW 3334   0.620   3.648   3.301
  997SOL    HW1 3335   0.528   3.631   3.336
  997SOL    HW2 3336   0.648   3.740   3.327
  998SOL     OW 3337   0.606   2.826   1.985
  998SOL    HW1 3338   0.613   2.910   1.931
  998SOL    HW2 3339   0.652   2.839   2.073
  999SOL     OW 3340   1.594   1.976   3.342
  999SOL    HW1 3341   1.576   2.043   3.270
  999SOL    HW2 3342   1.591   2.022   3.431
 1000SOL     OW 3343   0.122   2.505   2.425
 1000SOL    HW1 3344   0.077   2.417   2.442
 1000SOL    HW2 3345   0.121   2.559   2.509
 1001SOL     OW 3346   1.842   3.629   2.221
 1001SOL    HW1 3347   1.896   3.600   2.301
 1001SOL    HW2 3348   1.872   3.719   2.192
 1002SOL     OW 3349   0.027   3.458   1.979
 1002SOL    HW1 3350   0.008   3.362   2.000
 1002SOL    HW2 3351  -0.006   3.516   2.054
 1003SOL     OW 3352   1.689   2.784   2.474
 1003SOL    HW1 3353   1.784   2.755   2.482
 1003SOL    HW2 3354   1.681   2.849   2.399
 1004SOL     OW 3355   1.641   2.970   2.294
 1004SOL    HW1 3356   1.727   2.972   2.242
 1004SOL    HW2 3357   1.655   3.017   2.382
 1005SOL     OW 3358   0.113   2.599   3.459
 1005SOL    HW1 3359   0.201   2.586   3.504
 1005SOL    HW2 3360   0.100   2.696   3.437
 1006SOL     OW 3361   0.613   3.227   2.588
 1006SOL    HW1 3362   0.564   3.140   2.597
 1006SOL    HW2 3363   0.590   3.270   2.501
 1007SOL     OW 3364   1.293   3.090   3.285
 1007SOL    HW1 3365   1.330   3.017   3.227
 1007SOL    HW2 3366   1.345   3.095   3.370
 1008SOL     OW 3367   0.809   1.866   2.364
 1008SOL    HW1 3368   0.849   1.957   2.355
 1008SOL    HW2 3369   0.709   1.874   2.370
 1009SOL     OW 3370   0.197   2.838   3.126
 1009SOL    HW1 3371   0.286   2.793   3.112
 1009SOL    HW2 3372   0.124   2.773   3.107
 1010SOL     OW 3373   1.525   2.861   2.052
 1010SOL    HW1 3374   1.462   2.785   2.065
 1010SOL    HW2 3375   1.573   2.879   2.138
 1011SOL     OW 3376   1.187   3.654   3.478
 1011SOL    HW1 3377   1.211   3.714   3.402
 1011SOL    HW2 3378   1.194   3.559   3.448
 1012SOL     OW 3379   0.317   2.113   3.663
 1012SOL    HW1 3380   0.388   2.184   3.669
 1012SOL    HW2 3381   0.229   2.152   3.691
 1013SOL     OW 3382   1.466   3.279   2.815
 1013SOL    HW1 3383   1.407   3.285   2.895
 1013SOL    HW2 3384   1.451   3.191   2.769
 1014SOL     OW 3385   1.667   3.576   2.434
 1014SOL    HW1 3386   1.626   3.553   2.346
 1014SOL    HW2 3387   1.649   3.502   2.499
 1015SOL     OW 3388   0.598   2.591   2.132
 1015SOL    HW1 3389   0.622   2.660   2.064
 1015SOL    HW2 3390   0.520   2.624   2.186
 1016SOL     OW 3391   1.281   2.207   2.806
 1016SOL    HW1 3392   1.195   2.157   2.793
 1016SOL    HW2 3393   1.343   2.153   2.862
 1017SOL     OW 3394   1.576   3.524   2.169
 1017SOL    HW1 3395   1.665   3.570   2.172
 1017SOL    HW2 3396   1.555   3.500   2.074
 1018SOL     OW 3397   0.807   2.467   3.327
 1018SOL    HW1 3398   0.760   2.464   3.416
 1018SOL    HW2 3399   0.756   2.412   3.261
 1019SOL     OW 3400   1.394   2.331   3.536
 1019SOL    HW1 3401   1.374   2.374   3.624
 1019SOL    HW2 3402   1.472   2.269   3.545
 1020SOL     OW 3403   0.973   2.752   3.434
 1020SOL    HW1 3404   1.019   2.668   3.405
 1020SOL    HW2 3405   0.917   2.786   3.359
 1021SOL     OW 3406   0.991   2.272   3.104
 1021SOL    HW1 3407   0.914   2.306   3.158
 1021SOL    HW2 3408   0.957   2.221   3.025
 1022SOL     OW 3409   1.041   2.563   2.291
 1022SOL    HW1 3410   1.067   2.559   2.387
 1022SOL    HW2 3411   0.956   2.512   2.277
 1023SOL     OW 3412   0.076   2.673   2.651
 1023SOL    HW1 3413   0.175   2.661   2.660
 1023SOL    HW2 3414   0.052   2.768   2.672
 1024SOL     OW 3415   0.130   3.683   3.433
 1024SOL    HW1 3416   0.120   3.668   3.532
 1024SOL    HW2 3417   0.044   3.719   3.397
 1025SOL     OW 3418   0.865   2.210   2.057
 1025SOL    HW1 3419   0.924   2.273   2.008
 1025SOL    HW2 3420   0.884   2.116   2.028
 1026SOL     OW 3421   1.719   2.447   3.693
 1026SOL    HW1 3422   1.693   2.536   3.657
 1026SOL    HW2 3423   1.717   2.379   3.620
 1027SOL     OW 3424   1.362   3.006   2.407
 1027SOL    HW1 3425   1.445   2.977   2.359
 1027SOL    HW2 3426   1.313   3.073   2.351
 1028SOL     OW 3427   0.550   2.058   2.747
 1028SOL    HW1 3428   0.545   2.053   2.847
 1028SOL    HW2 3429   0.552   2.154   2.718
 1029SOL     OW 3430   1.008   3.318   2.339
 1029SOL    HW1 3431   0.962   3.390   2.287
 1029SOL    HW2 3432   1.004   3.338   2.437
 1030SOL     OW 3433   0.351   3.663   2.715
 1030SOL    HW1 3434   0.401   3.577   2.721
 1030SOL    HW2 3435   0.416   3.740   2.712
 1031SOL     OW 3436   1.795   2.928   2.735
 1031SOL    HW1 3437   1.733   2.913   2.659
 1031SOL    HW2 3438   1.743   2.939   2.820
 1032SOL     OW 3439   1.227   3.412   3.368
 1032SOL    HW1 3440   1.233   3.335   3.432
 1032SOL    HW2 3441   1.175   3.386   3.288
 1033SOL     OW 3442   0.321   2.805   2.104
 1033SOL    HW1 3443   0.403   2.844   2.062
 1033SOL    HW2 3444   0.294   2.723   2.055
 1034SOL     OW 3445   1.458   2.597   2.590
 1034SOL    HW1 3446   1.453   2.532   2.665
 1034SOL    HW2 3447   1.538   2.656   2.603
 1035SOL     OW 3448   0.461   3.128   3.589
 1035SOL    HW1 3449   0.411   3.129   3.503
 1035SOL    HW2 3450   0.398   3.110   3.665
 1036SOL     OW 3451   1.111   3.638   2.099
 1036SOL    HW1 3452   1.051   3.576   2.149
 1036SOL    HW2 3453   1.142   3.594   2.014
 1037SOL     OW 3454   0.202   2.147   3.360
 1037SOL    HW1 3455   0.122   2.207   3.347
 1037SOL    HW2 3456   0.192   2.098   3.446
 1038SOL     OW 3457   1.632   3.239   1.943
 1038SOL    HW1 3458   1.600   3.333   1.933
 1038SOL    HW2 3459   1.556   3.176   1.931
 1039SOL     OW 3460   0.464   3.605   2.185
 1039SOL    HW1 3461   0.497   3.644   2.271
 1039SOL    HW2 3462   0.540   3.598   2.120
 1040SOL     OW 3463   1.400   1.969   2.288
 1040SOL    HW1 3464   1.376   1.932   2.198
 1040SOL    HW2 3465   1.499   1.985   2.292
 1041SOL     OW 3466   0.249   3.647   3.103
 1041SOL    HW1 3467   0.306   3.582   3.153
 1041SOL    HW2 3468   0.233   3.614   3.010
 1042SOL     OW 3469   0.940   3.560   2.766
 1042SOL    HW1 3470   1.020   3.503   2.787
 1042SOL    HW2 3471   0.891   3.520   2.689
 1043SOL     OW 3472   0.382   2.562   2.342
 1043SOL    HW1 3473   0.427   2.472   2.339
 1043SOL    HW2 3474   0.288   2.551   2.375
 1044SOL     OW 3475   1.547   2.084   3.591
 1044SOL    HW1 3476   1.542   2.121   3.683
 1044SOL    HW2 3477   1.475   2.015   3.579
 1045SOL     OW 3478   0.614   1.984   1.979
 1045SOL    HW1 3479   0.712   1.962   1.986
 1045SOL    HW2 3480   0.583   1.967   1.886
 1046SOL     OW 3481   0.781   2.126   3.611
 1046SOL    HW1 3482   0.848   2.065   3.654
 1046SOL    HW2 3483   0.708   2.145   3.676
 1047SOL     OW 3484   0.888   3.376   3.057
 1047SOL    HW1 3485   0.865   3.351   2.963
 1047SOL    HW2 3486   0.949   3.307   3.096
 1048SOL     OW 3487   1.351   2.452   3.295
 1048SOL    HW1 3488   1.379   2.409   3.380
 1048SOL    HW2 3489   1.376   2.548   3.296
 1049SOL     OW 3490   0.803   3.264   2.786
 1049SOL    HW1 3491   0.893   3.278   2.744
 1049SOL    HW2 3492   0.732   3.266   2.715
 1050SOL     OW 3493   0.922   2.365   2.761
 1050SOL    HW1 3494   0.897   2.356   2.665
 1050SOL    HW2 3495   0.970   2.283   2.792
 1051SOL     OW 3496   0.539   1.926   2.374
 1051SOL    HW1 3497   0.458   1.927   2.432
 1051SOL    HW2 3498   0.542   2.009   2.319
 1052SOL     OW 3499   1.434   3.050   1.903
 1052SOL    HW1 3500   1.466   2.974   1.960
 1052SOL    HW2 3501   1.342   3.077   1.933
 1053SOL     OW 3502   0.297   1.897   2.033
 1053SOL    HW1 3503   0.346   1.981   2.012
 1053SOL    HW2 3504   0.359   1.832   2.078
 1054SOL     OW 3505   0.935   2.098   2.342
 1054SOL    HW1 3506   0.887   2.139   2.264
 1054SOL    HW2 3507   1.034   2.096   2.323
 1055SOL     OW 3508   1.076   2.545   3.326
 1055SOL    HW1 3509   0.996   2.484   3.329
 1055SOL    HW2 3510   1.157   2.492   3.302
 1056SOL     OW 3511   1.227   3.432   2.655
 1056SOL    HW1 3512   1.248   3.506   2.590
 1056SOL    HW2 3513   1.295   3.432   2.728
 1057SOL     OW 3514   0.459   3.014   2.603
 1057SOL    HW1 3515   0.388   2.987   2.668
 1057SOL    HW2 3516   0.433   2.986   2.510
 1058SOL     OW 3517   1.271   3.659   2.453
 1058SOL    HW1 3518   1.315   3.723   2.389
 1058SOL    HW2 3519   1.221   3.711   2.523
 1059SOL     OW 3520   1.032   2.411   1.878
 1059SOL    HW1 3521   0.991   2.493   1.839
 1059SOL    HW2 3522   1.096   2.437   1.951
 1060SOL     OW 3523   0.078   2.418   3.248
 1060SOL    HW1 3524   0.170   2.417   3.207
 1060SOL    HW2 3525   0.072   2.492   3.315
 1061SOL     OW 3526   0.561   2.084   3.009
 1061SOL    HW1 3527   0.599   2.000   3.046
 1061SOL    HW2 3528   0.473   2.103   3.053
 1062SOL     OW 3529   0.866   2.316   2.504
 1062SOL    HW1 3530   0.834   2.388   2.442
 1062SOL    HW2 3531   0.890   2.235   2.451
 1063SOL     OW 3532   1.017   1.901   2.615
 1063SOL    HW1 3533   0.945   1.906   2.546
 1063SOL    HW2 3534   0.993   1.832   2.684
 1064SOL     OW 3535   1.429   3.035   2.729
 1064SOL    HW1 3536   1.374   2.951   2.722
 1064SOL    HW2 3537   1.455   3.064   2.637
 1065SOL     OW 3538   1.466   2.452   2.854
 1065SOL    HW1 3539   1.436   2.357   2.861
 1065SOL    HW2 3540   1.539   2.468   2.920
 1066SOL     OW 3541   1.857   2.695   2.239
 1066SOL    HW1 3542   1.899   2.631   2.303
 1066SOL    HW2 3543   1.819   2.644   2.161
 1067SOL     OW 3544   0.488   3.247   2.036
 1067SOL    HW1 3545   0.401   3.232   2.083
 1067SOL    HW2 3546   0.471   3.273   1.941
 1068SOL     OW 3547   1.664   3.142   2.519
 1068SOL    HW1 3548   1.763   3.150   2.533
 1068SOL    HW2 3549   1.619   3.226   2.550
 1069SOL     OW 3550   1.390   2.437   1.940
 1069SOL    HW1 3551   1.336   2.416   2.021
 1069SOL    HW2 3552   1.481   2.396   1.949
 1070SOL     OW 3553   0.527   2.118   2.190
 1070SOL    HW1 3554   0.554   2.059   2.115
 1070SOL    HW2 3555   0.527   2.213   2.159
 1071SOL     OW 3556   1.754   3.085   3.450
 1071SOL    HW1 3557   1.845   3.046   3.437
 1071SOL    HW2 3558   1.762   3.181   3.474
 1072SOL     OW 3559   1.064   3.209   3.202
 1072SOL    HW1 3560   0.984   3.186   3.257
 1072SOL    HW2 3561   1.147   3.183   3.251
 1073SOL     OW 3562   1.592   3.491   3.487
 1073SOL    HW1 3563   1.619   3.525   3.397
 1073SOL    HW2 3564   1.671   3.453   3.533
 1074SOL     OW 3565   1.111   3.057   2.962
 1074SOL    HW1 3566   1.071   3.101   3.043
 1074SOL    HW2 3567   1.070   3.094   2.879
 1075SOL     OW 3568   1.638   2.961   2.941
 1075SOL    HW1 3569   1.643   3.042   3.000
 1075SOL    HW2 3570   1.552   2.963   2.890
 1076SOL     OW 3571   0.915   1.951   3.264
 1076SOL    HW1 3572   0.940   1.931   3.169
 1076SOL    HW2 3573   0.987   2.007   3.306
 1077SOL     OW 3574   0.980   2.978   3.581
 1077SOL    HW1 3575   0.881   2.984   3.591
 1077SOL    HW2 3576   1.003   2.898   3.525
 1078SOL     OW 3577   0.705   2.912   2.230
 1078SOL    HW1 3578   0.691   2.919   2.329
 1078SOL    HW2 3579   0.789   2.861   2.212
 1079SOL     OW 3580   0.410   2.675   3.113
 1079SOL    HW1 3581   0.496   2.687   3.163
 1079SOL    HW2 3582   0.368   2.588   3.140
 1080SOL     OW 3583   1.274   2.248   3.124
 1080SOL    HW1 3584   1.295   2.322   3.188
 1080SOL    HW2 3585   1.185   2.265   3.081
 1081SOL     OW 3586   0.064   3.426   3.193
 1081SOL    HW1 3587   0.018   3.508   3.159
 1081SOL    HW2 3588   0.162   3.445   3.202
 1082SOL     OW 3589   0.367   2.962   2.363
 1082SOL    HW1 3590   0.360   3.045   2.307
 1082SOL    HW2 3591   0.371   2.882   2.303
 1083SOL     OW 3592   0.566   2.399   2.727
 1083SOL    HW1 3593   0.578   2.465   2.653
 1083SOL    HW2 3594   0.612   2.433   2.810
 1084SOL     OW 3595   1.252   3.210   2.250
 1084SOL    HW1 3596   1.302   3.287   2.290
 1084SOL    HW2 3597   1.157   3.212   2.282
 1085SOL     OW 3598   1.272   3.307   3.004
 1085SOL    HW1 3599   1.319   3.320   3.091
 1085SOL    HW2 3600   1.206   3.233   3.013
 1086SOL     OW 3601   1.582   2.501   2.334
 1086SOL    HW1 3602   1.551   2.562   2.407
 1086SOL    HW2 3603   1.632   2.553   2.265
 1087SOL     OW 3604   0.354   3.372   3.191
 1087SOL    HW1 3605   0.333   3.328   3.104
 1087SOL    HW2 3606   0.451   3.398   3.194
 1088SOL     OW 3607   0.402   2.613   3.460
 1088SOL    HW1 3608   0.470   2.668   3.413
 1088SOL    HW2 3609   0.442   2.525   3.487
 1089SOL     OW 3610   1.587   2.641   3.532
 1089SOL    HW1 3611   1.495   2.679   3.527
 1089SOL    HW2 3612   1.647   2.688   3.467
 1090SOL     OW 3613   1.013   1.967   3.632
 1090SOL    HW1 3614   1.019   2.052   3.580
 1090SOL    HW2 3615   1.045   1.891   3.575
 1091SOL     OW 3616   0.504   1.912   3.602
 1091SOL    HW1 3617   0.462   1.855   3.532
 1091SOL    HW2 3618   0.438   1.981   3.634
 1092SOL     OW 3619   0.573   2.732   2.891
 1092SOL    HW1 3620   0.617   2.821   2.882
 1092SOL    HW2 3621   0.510   2.732   2.968
 1093SOL     OW 3622   1.360   2.724   2.907
 1093SOL    HW1 3623   1.285   2.724   2.841
 1093SOL    HW2 3624   1.397   2.632   2.916
 1094SOL     OW 3625   1.209   2.387   2.137
 1094SOL    HW1 3626   1.222   2.303   2.191
 1094SOL    HW2 3627   1.180   2.461   2.197
 1095SOL     OW 3628   0.307   2.075   3.093
 1095SOL    HW1 3629   0.284   2.112   3.183
 1095SOL    HW2 3630   0.277   1.980   3.087
 1096SOL     OW 3631   0.037   3.172   3.144
 1096SOL    HW1 3632   0.090   3.123   3.212
 1096SOL    HW2 3633   0.059   3.270   3.149
 1097SOL     OW 3634   0.732   2.496   2.926
 1097SOL    HW1 3635   0.791   2.470   2.850
 1097SOL    HW2 3636   0.704   2.592   2.915
 1098SOL     OW 3637   1.728   2.797   3.716
 1098SOL    HW1 3638   1.682   2.790   3.627
 1098SOL    HW2 3639   1.666   2.841   3.782
 1099SOL     OW 3640   0.307   1.925   2.480
 1099SOL    HW1 3641   0.296   2.019   2.513
 1099SOL    HW2 3642   0.302   1.862   2.557
 1100SOL     OW 3643   1.622   2.229   2.236
 1100SOL    HW1 3644   1.624   2.153   2.300
 1100SOL    HW2 3645   1.574   2.306   2.276
 1101SOL     OW 3646   1.023   2.628   2.828
 1101SOL    HW1 3647   1.038   2.649   2.924
 1101SOL    HW2 3648   0.993   2.533   2.819
 1102SOL     OW 3649   0.980   3.435   3.562
 1102SOL    HW1 3650   0.960   3.479   3.474
 1102SOL    HW2 3651   1.019   3.344   3.546
 1103SOL     OW 3652   1.859   3.380   3.467
 1103SOL    HW1 3653   1.873   3.407   3.372
 1103SOL    HW2 3654   1.942   3.402   3.520
 1104SOL     OW 3655   0.350   2.760   3.666
 1104SOL    HW1 3656   0.426   2.804   3.714
 1104SOL    HW2 3657   0.385   2.713   3.584
 1105SOL     OW 3658   1.540   2.136   1.987
 1105SOL    HW1 3659   1.479   2.061   2.010
 1105SOL    HW2 3660   1.562   2.188   2.070
 1106SOL     OW 3661   1.303   2.700   1.904
 1106SOL    HW1 3662   1.337   2.607   1.919
 1106SOL    HW2 3663   1.321   2.727   1.809
 1107SOL     OW 3664   1.068   3.195   2.711
 1107SOL    HW1 3665   1.075   3.111   2.656
 1107SOL    HW2 3666   1.130   3.264   2.675
 1108SOL     OW 3667   0.319   2.672   2.811
 1108SOL    HW1 3668   0.412   2.708   2.816
 1108SOL    HW2 3669   0.313   2.587   2.863
 1109SOL     OW 3670   0.339   2.371   2.868
 1109SOL    HW1 3671   0.287   2.288   2.851
 1109SOL    HW2 3672   0.416   2.376   2.804
 1110SOL     OW 3673   1.138   2.242   3.540
 1110SOL    HW1 3674   1.093   2.305   3.604
 1110SOL    HW2 3675   1.231   2.273   3.523
 1111SOL     OW 3676   1.160   2.069   3.339
 1111SOL    HW1 3677   1.160   2.133   3.416
 1111SOL    HW2 3678   1.188   2.117   3.256
 1112SOL     OW 3679   0.008   3.188   2.062
 1112SOL    HW1 3680  -0.085   3.209   2.031
 1112SOL    HW2 3681   0.018   3.089   2.075
 1113SOL     OW 3682   0.088   3.663   2.789
 1113SOL    HW1 3683   0.046   3.577   2.762
 1113SOL    HW2 3684   0.182   3.666   2.755
 1114SOL     OW 3685   0.504   3.430   2.772
 1114SOL    HW1 3686   0.570   3.504   2.781
 1114SOL    HW2 3687   0.548   3.351   2.730
 1115SOL     OW 3688   1.002   2.658   3.100
 1115SOL    HW1 3689   1.043   2.626   3.186
 1115SOL    HW2 3690   0.906   2.631   3.097
 1116SOL     OW 3691   0.040   2.406   2.976
 1116SOL    HW1 3692   0.125   2.373   2.935
 1116SOL    HW2 3693   0.053   2.421   3.074
 1117SOL     OW 3694   0.189   2.382   3.584
 1117SOL    HW1 3695   0.248   2.342   3.514
 1117SOL    HW2 3696   0.131   2.453   3.543
 1118SOL     OW 3697   1.369   2.812   3.522
 1118SOL    HW1 3698   1.408   2.901   3.542
 1118SOL    HW2 3699   1.379   2.792   3.425
 1119SOL     OW 3700   0.815   2.434   2.187
 1119SOL    HW1 3701   0.822   2.345   2.141
 1119SOL    HW2 3702   0.721   2.468   2.179
 1120SOL     OW 3703   1.657   2.466   3.068
 1120SOL    HW1 3704   1.619   2.397   3.130
 1120SOL    HW2 3705   1.739   2.430   3.024
 1121SOL     OW 3706   0.252   3.426   3.606
 1121SOL    HW1 3707   0.222   3.483   3.682
 1121SOL    HW2 3708   0.245   3.329   3.632
 1122SOL     OW 3709   0.671   2.326   3.131
 1122SOL    HW1 3710   0.637   2.237   3.101
 1122SOL    HW2 3711   0.697   2.380   3.051
 1123SOL     OW 3712   0.930   3.540   3.327
 1123SOL    HW1 3713   0.906   3.522   3.232
 1123SOL    HW2 3714   0.960   3.634   3.337
 1124SOL     OW 3715   0.473   2.362   2.053
 1124SOL    HW1 3716   0.534   2.442   2.057
 1124SOL    HW2 3717   0.378   2.393   2.060
 1125SOL     OW 3718   0.159   2.999   3.328
 1125SOL    HW1 3719   0.181   2.938   3.404
 1125SOL    HW2 3720   0.169   2.950   3.242
 1126SOL     OW 3721   1.347   2.921   3.096
 1126SOL    HW1 3722   1.371   2.858   3.022
 1126SOL    HW2 3723   1.257   2.961   3.078
 1127SOL     OW 3724   1.302   2.717   2.171
 1127SOL    HW1 3725   1.216   2.686   2.213
 1127SOL    HW2 3726   1.298   2.703   2.072
 1128SOL     OW 3727   1.759   3.609   3.016
 1128SOL    HW1 3728   1.820   3.639   2.943
 1128SOL    HW2 3729   1.721   3.520   2.994
 1129SOL     OW 3730   1.252   3.593   2.990
 1129SOL    HW1 3731   1.336   3.598   2.936
 1129SOL    HW2 3732   1.229   3.497   3.008
 1130SOL     OW 3733   0.083   3.120   2.884
 1130SOL    HW1 3734   0.078   3.119   2.984
 1130SOL    HW2 3735   0.000   3.079   2.846
 1131SOL     OW 3736   0.688   3.524   3.578
 1131SOL    HW1 3737   0.632   3.605   3.587
 1131SOL    HW2 3738   0.740   3.528   3.492
 1132SOL     OW 3739   1.726   1.997   2.385
 1132SOL    HW1 3740   1.799   1.980   2.318
 1132SOL    HW2 3741   1.695   1.910   2.423
 1133SOL     OW 3742   1.388   3.435   2.339
 1133SOL    HW1 3743   1.455   3.447   2.265
 1133SOL    HW2 3744   1.348   3.524   2.362
 1134SOL     OW 3745   0.130   3.656   3.713
 1134SOL    HW1 3746   0.089   3.582   3.766
 1134SOL    HW2 3747   0.194   3.707   3.771
 1135SOL     OW 3748   1.280   2.789   2.534
 1135SOL    HW1 3749   1.340   2.708   2.536
 1135SOL    HW2 3750   1.320   2.858   2.474
 1136SOL     OW 3751   0.830   3.135   3.284
 1136SOL    HW1 3752   0.825   3.168   3.379
 1136SOL    HW2 3753   0.744   3.154   3.238
 1137SOL     OW 3754   0.672   3.478   2.016
 1137SOL    HW1 3755   0.681   3.488   1.917
 1137SOL    HW2 3756   0.632   3.389   2.037
 1138SOL     OW 3757   1.650   3.582   3.256
 1138SOL    HW1 3758   1.703   3.592   3.172
 1138SOL    HW2 3759   1.623   3.672   3.290
 1139SOL     OW 3760   1.841   2.037   2.825
 1139SOL    HW1 3761   1.880   1.952   2.789
 1139SOL    HW2 3762   1.743   2.039   2.806
 1140SOL     OW 3763   0.263   2.188   2.582
 1140SOL    HW1 3764   0.184   2.239   2.548
 1140SOL    HW2 3765   0.254   2.173   2.680
 1141SOL     OW 3766   1.194   3.474   1.893
 1141SOL    HW1 3767   1.200   3.381   1.930
 1141SOL    HW2 3768   1.135   3.474   1.813
 1142SOL     OW 3769   0.822   2.864   3.234
 1142SOL    HW1 3770   0.862   2.863   3.142
 1142SOL    HW2 3771   0.832   2.956   3.274
 1143SOL     OW 3772   0.916   2.772   2.153
 1143SOL    HW1 3773   0.979   2.810   2.085
 1143SOL    HW2 3774   0.956   2.689   2.192
 1144SOL     OW 3775   1.504   3.469   1.906
 1144SOL    HW1 3776   1.412   3.506   1.913
 1144SOL    HW2 3777   1.542   3.489   1.816
 1145SOL     OW 3778   0.372   3.150   3.352
 1145SOL    HW1 3779   0.359   3.243   3.318
 1145SOL    HW2 3780   0.288   3.098   3.339
 1146SOL     OW 3781   1.614   3.154   3.151
 1146SOL    HW1 3782   1.674   3.157   3.231
 1146SOL    HW2 3783   1.539   3.218   3.164
 1147SOL     OW 3784   1.039   2.960   2.558
 1147SOL    HW1 3785   0.969   2.913   2.612
 1147SOL    HW2 3786   1.098   2.892   2.515
 1148SOL     OW 3787   1.014   2.098   2.833
 1148SOL    HW1 3788   1.006   2.062   2.740
 1148SOL    HW2 3789   1.012   2.022   2.898
 1149SOL     OW 3790   0.590   3.349   2.353
 1149SOL    HW1 3791   0.632   3.291   2.283
 1149SOL    HW2 3792   0.546   3.428   2.309
 1150SOL     OW 3793   1.709   2.247   3.243
 1150SOL    HW1 3794   1.782   2.316   3.247
 1150SOL    HW2 3795   1.737   2.172   3.184
 1151SOL     OW 3796   0.255   3.210   2.152
 1151SOL    HW1 3797   0.159   3.211   2.125
 1151SOL    HW2 3798   0.267   3.263   2.236
 1152SOL     OW 3799   0.105   2.875   3.588
 1152SOL    HW1 3800   0.028   2.842   3.642
 1152SOL    HW2 3801   0.190   2.845   3.630
 1153SOL     OW 3802   0.672   2.065   3.351
 1153SOL    HW1 3803   0.762   2.049   3.311
 1153SOL    HW2 3804   0.680   2.070   3.450
 1154SOL     OW 3805   0.075   2.207   1.895
 1154SOL    HW1 3806  -0.017   2.179   1.866
 1154SOL    HW2 3807   0.106   2.284   1.839
 1155SOL     OW 3808   1.440   2.718   3.260
 1155SOL    HW1 3809   1.383   2.770   3.197
 1155SOL    HW2 3810   1.536   2.730   3.236
 1156SOL     OW 3811   0.072   2.028   2.180
 1156SOL    HW1 3812   0.055   2.111   2.126
 1156SOL    HW2 3813   0.162   1.991   2.158
 1157SOL     OW 3814   1.183   3.197   1.981
 1157SOL    HW1 3815   1.084   3.186   1.983
 1157SOL    HW2 3816   1.217   3.212   2.074
 1158SOL     OW 3817   0.613   2.704   3.293
 1158SOL    HW1 3818   0.669   2.785   3.276
 1158SOL    HW2 3819   0.672   2.624   3.296
 1159SOL     OW 3820   1.493   3.629   2.821
 1159SOL    HW1 3821   1.526   3.693   2.752
 1159SOL    HW2 3822   1.559   3.623   2.896
 1160SOL     OW 3823   0.716   2.427   3.570
 1160SOL    HW1 3824   0.735   2.492   3.644
 1160SOL    HW2 3825   0.776   2.347   3.579
 1161SOL     OW 3826   1.450   3.082   3.495
 1161SOL    HW1 3827   1.441   3.072   3.594
 1161SOL    HW2 3828   1.546   3.075   3.469
 1162SOL     OW 3829   0.390   3.603   3.422
 1162SOL    HW1 3830   0.299   3.644   3.420
 1162SOL    HW2 3831   0.383   3.509   3.454
 1163SOL     OW 3832   1.674   2.745   3.116
 1163SOL    HW1 3833   1.647   2.656   3.079
 1163SOL    HW2 3834   1.675   2.813   3.043
 1164SOL     OW 3835   1.225   2.187   2.311
 1164SOL    HW1 3836   1.290   2.113   2.300
 1164SOL    HW2 3837   1.245   2.237   2.395
 1165SOL     OW 3838   0.594   2.607   2.514
 1165SOL    HW1 3839   0.644   2.692   2.495
 1165SOL    HW2 3840   0.506   2.609   2.466
 1166SOL     OW 3841   1.777   2.204   3.504
 1166SOL    HW1 3842   1.760   2.235   3.410
 1166SOL    HW2 3843   1.693   2.167   3.542
 1167SOL     OW 3844   1.730   2.796   3.379
 1167SOL    HW1 3845   1.768   2.887   3.394
 1167SOL    HW2 3846   1.722   2.779   3.280
 1168SOL     OW 3847   0.859   3.236   1.878
 1168SOL    HW1 3848   0.813   3.251   1.966
 1168SOL    HW2 3849   0.903   3.321   1.848
 1169SOL     OW 3850   0.661   3.652   2.815
 1169SOL    HW1 3851   0.615   3.740   2.802
 1169SOL    HW2 3852   0.760   3.664   2.808
 1170SOL     OW 3853   0.859   2.818   2.723
 1170SOL    HW1 3854   0.913   2.749   2.771
 1170SOL    HW2 3855   0.827   2.887   2.789
 1171SOL     OW 3856   1.083   2.846   1.949
 1171SOL    HW1 3857   1.060   2.899   1.867
 1171SOL    HW2 3858   1.164   2.790   1.930
 1172SOL     OW 3859   1.861   3.431   2.713
 1172SOL    HW1 3860   1.790   3.419   2.643
 1172SOL    HW2 3861   1.862   3.352   2.773
 1173SOL     OW 3862   0.221   3.176   3.706
 1173SOL    HW1 3863   0.156   3.103   3.685
 1173SOL    HW2 3864   0.225   3.190   3.804
 1174SOL     OW 3865   0.079   3.102   2.515
 1174SOL    HW1 3866   0.078   3.055   2.603
 1174SOL    HW2 3867   0.161   3.074   2.464
 1175SOL     OW 3868   0.672   3.253   3.486
 1175SOL    HW1 3869   0.594   3.203   3.524
 1175SOL    HW2 3870   0.669   3.348   3.517
 1176SOL     OW 3871   1.824   2.054   3.089
 1176SOL    HW1 3872   1.820   1.964   3.133
 1176SOL    HW2 3873   1.827   2.043   2.990
 1177SOL     OW 3874   0.428   2.286   2.382
 1177SOL    HW1 3875   0.458   2.214   2.320
 1177SOL    HW2 3876   0.389   2.246   2.465
 1178SOL     OW 3877   1.705   3.349   2.966
 1178SOL    HW1 3878   1.612   3.324   2.939
 1178SOL    HW2 3879   1.731   3.299   3.048
 1179SOL     OW 3880   0.317   2.409   3.142
 1179SOL    HW1 3881   0.355   2.350   3.214
 1179SOL    HW2 3882   0.357   2.383   3.054
 1180SOL     OW 3883   0.812   3.448   2.549
 1180SOL    HW1 3884   0.844   3.458   2.455
 1180SOL    HW2 3885   0.733   3.386   2.551
 1181SOL     OW 3886   1.424   2.076   2.974
 1181SOL    HW1 3887   1.476   2.011   3.029
 1181SOL    HW2 3888   1.375   2.139   3.035
 1182SOL     OW 3889   1.001   1.896   3.016
 1182SOL    HW1 3890   0.938   1.824   2.985
 1182SOL    HW2 3891   1.094   1.860   3.016
 1183SOL     OW 3892   0.770   3.192   2.163
 1183SOL    HW1 3893   0.724   3.105   2.180
 1183SOL    HW2 3894   0.861   3.189   2.204
 1184SOL     OW 3895   0.618   3.429   3.146
 1184SOL    HW1 3896   0.613   3.511   3.203
 1184SOL    HW2 3897   0.707   3.426   3.101
 1185SOL     OW 3898   1.352   1.914   2.030
 1185SOL    HW1 3899   1.387   1.873   1.946
 1185SOL    HW2 3900   1.262   1.876   2.050
 1186SOL     OW 3901   1.300   2.315   2.553
 1186SOL    HW1 3902   1.241   2.395   2.557
 1186SOL    HW2 3903   1.315   2.280   2.646
 1187SOL     OW 3904   1.593   2.083   2.744
 1187SOL    HW1 3905   1.509   2.082   2.798
 1187SOL    HW2 3906   1.595   2.166   2.688
 1188SOL     OW 3907   0.039   2.939   2.162
 1188SOL    HW1 3908   0.138   2.928   2.153
 1188SOL    HW2 3909  -0.001   2.853   2.194
 1189SOL     OW 3910   0.875   3.508   2.199
 1189SOL    HW1 3911   0.798   3.473   2.145
 1189SOL    HW2 3912   0.843   3.579   2.261
 1190SOL     OW 3913   0.230   2.490   3.837
 1190SOL    HW1 3914   0.137   2.488   3.874
 1190SOL    HW2 3915   0.231   2.451   3.745
 1191SOL     OW 3916   0.225   2.137   4.720
 1191SOL    HW1 3917   0.260   2.120   4.812
 1191SOL    HW2 3918   0.137   2.092   4.708
 1192SOL     OW 3919   0.019   2.230   4.371
 1192SOL    HW1 3920  -0.063   2.273   4.410
 1192SOL    HW2 3921  -0.009   2.157   4.308
 1193SOL     OW 3922   0.569   3.137   4.889
 1193SOL    HW1 3923   0.476   3.130   4.852
 1193SOL    HW2 3924   0.580   3.226   4.933
 1194SOL     OW 3925   1.555   3.373   4.427
 1194SOL    HW1 3926   1.498   3.357   4.508
 1194SOL    HW2 3927   1.496   3.383   4.347
 1195SOL     OW 3928   1.135   2.565   4.441
 1195SOL    HW1 3929   1.192   2.643   4.416
 1195SOL    HW2 3930   1.075   2.591   4.517
 1196SOL     OW 3931   1.755   2.469   3.955
 1196SOL    HW1 3932   1.743   2.456   3.856
 1196SOL    HW2 3933   1.725   2.388   4.004
 1197SOL     OW 3934   0.768   3.006   4.747
 1197SOL    HW1 3935   0.690   3.023   4.807
 1197SOL    HW2 3936   0.802   3.093   4.711
 1198SOL     OW 3937   0.850   2.660   5.547
 1198SOL    HW1 3938   0.846   2.736   5.612
 1198SOL    HW2 3939   0.872   2.696   5.456
 1199SOL     OW 3940   0.685   2.874   4.389
 1199SOL    HW1 3941   0.754   2.858   4.459
 1199SOL    HW2 3942   0.612   2.931   4.427
 1200SOL     OW 3943   0.686   3.023   5.527
 1200SOL    HW1 3944   0.746   3.102   5.541
 1200SOL    HW2 3945   0.600   3.054   5.486
 1201SOL     OW 3946   0.335   3.297   4.785
 1201SOL    HW1 3947   0.257   3.266   4.732
 1201SOL    HW2 3948   0.393   3.355   4.728
 1202SOL     OW 3949   1.460   3.367   5.063
 1202SOL    HW1 3950   1.484   3.461   5.089
 1202SOL    HW2 3951   1.444   3.313   5.145
 1203SOL     OW 3952   0.438   2.254   5.223
 1203SOL    HW1 3953   0.520   2.198   5.232
 1203SOL    HW2 3954   0.357   2.196   5.227
 1204SOL     OW 3955   1.603   2.309   4.461
 1204SOL    HW1 3956   1.529   2.355   4.411
 1204SOL    HW2 3957   1.654   2.377   4.514
 1205SOL     OW 3958   0.231   3.575   4.207
 1205SOL    HW1 3959   0.265   3.652   4.261
 1205SOL    HW2 3960   0.275   3.575   4.117
 1206SOL     OW 3961   1.127   3.203   5.414
 1206SOL    HW1 3962   1.174   3.203   5.502
 1206SOL    HW2 3963   1.079   3.116   5.403
 1207SOL     OW 3964   0.230   3.296   4.262
 1207SOL    HW1 3965   0.204   3.392   4.262
 1207SOL    HW2 3966   0.159   3.242   4.307
 1208SOL     OW 3967   0.240   2.953   4.610
 1208SOL    HW1 3968   0.254   2.869   4.662
 1208SOL    HW2 3969   0.185   3.017   4.665
 1209SOL     OW 3970   0.620   3.648   5.163
 1209SOL    HW1 3971   0.528   3.631   5.198
 1209SOL    HW2 3972   0.648   3.740   5.189
 1210SOL     OW 3973   0.606   2.826   3.847
 1210SOL    HW1 3974   0.613   2.910   3.793
 1210SOL    HW2 3975   0.652   2.839   3.935
 1211SOL     OW 3976   1.594   1.976   5.204
 1211SOL    HW1 3977   1.576   2.043   5.132
 1211SOL    HW2 3978   1.591   2.022   5.293
 1212SOL     OW 3979   0.122   2.505   4.287
 1212SOL    HW1 3980   0.077   2.417   4.304
 1212SOL    HW2 3981   0.121   2.559   4.371
 1213SOL     OW 3982   1.842   3.629   4.083
 1213SOL    HW1 3983   1.896   3.600   4.163
 1213SOL    HW2 3984   1.872   3.719   4.054
 1214SOL     OW 3985   0.027   3.458   3.841
 1214SOL    HW1 3986   0.008   3.362   3.862
 1214SOL    HW2 3987  -0.006   3.516   3.916
 1215SOL     OW 3988   1.689   2.784   4.336
 1215SOL    HW1 3989   1.784   2.755   4.344
 1215SOL    HW2 3990   1.681   2.849   4.261
 1216SOL     OW 3991   1.641   2.970   4.156
 1216SOL    HW1 3992   1.727   2.972   4.104
 1216SOL    HW2 3993   1.655   3.017   4.244
 1217SOL     OW 3994   0.113   2.599   5.321
 1217SOL    HW1 3995   0.201   2.586   5.366
 1217SOL    HW2 3996   0.100   2.696   5.299
 1218SOL     OW 3997   0.613   3.227   4.450
 1218SOL    HW1 3998   0.564   3.140   4.459
 1218SOL    HW2 3999   0.590   3.270   4.363
 1219SOL     OW 4000   1.293   3.090   5.147
 1219SOL    HW1 4001   1.330   3.017   5.089
 1219SOL    HW2 4002   1.345   3.095   5.232
 1220SOL     OW 4003   0.809   1.866   4.226
 1220SOL    HW1 4004   0.849   1.957   4.217
 1220SOL    HW2 4005   0.709   1.874   4.232
 1221SOL     OW 4006   0.197   2.838   4.988
 1221SOL    HW1 4007   0.286   2.793   4.974
 1221SOL    HW2 4008   0.124   2.773   4.969
 1222SOL     OW 4009   1.525   2.861   3.914
 1222SOL    HW1 4010   1.462   2.785   3.927
 1222SOL    HW2 4011   1.573   2.879   4.000
 1223SOL     OW 4012   1.187   3.654   5.340
 1223SOL    HW1 4013   1.211   3.714   5.264
 1223SOL    HW2 4014   1.194   3.559   5.310
 1224SOL     OW 4015   0.317   2.113   5.525
 1224SOL    HW1 4016   0.388   2.184   5.531
 1224SOL    HW2 4017   0.229   2.152   5.553
 1225SOL     OW 4018   1.466   3.279   4.677
 1225SOL    HW1 4019   1.407   3.285   4.757
 1225SOL    HW2 4020   1.451   3.191   4.631
 1226SOL     OW 4021   1.667   3.576   4.296
 1226SOL    HW1 4022   1.626   3.553   4.208
 1226SOL    HW2 4023   1.649   3.502   4.361
 1227SOL     OW 4024   0.598   2.591   3.994
 1227SOL    HW1 4025   0.622   2.660   3.926
 1227SOL    HW2 4026   0.520   2.624   4.048
 1228SOL     OW 4027   1.281   2.207   4.668
 1228SOL    HW1 4028   1.195   2.157   4.655
 1228SOL    HW2 4029   1.343   2.153   4.724
 1229SOL     OW 4030   1.576   3.524   4.031
 1229SOL    HW1 4031   1.665   3.570   4.034
 1229SOL    HW2 4032   1.555   3.500   3.936
 1230SOL     OW 4033   0.807   2.467   5.189
 1230SOL    HW1 4034   0.760   2.464   5.278
 1230SOL    HW2 4035   0.756   2.412   5.123
 1231SOL     OW 4036   1.394   2.331   5.398
 1231SOL    HW1 4037   1.374   2.374   5.486
 1231SOL    HW2 4038   1.472   2.269   5.407
 1232SOL     OW 4039   0.973   2.752   5.296
 1232SOL    HW1 4040   1.019   2.668   5.267
 1232SOL    HW2 4041   0.917   2.786   5.221
 1233SOL     OW 4042   0.991   2.272   4.966
 1233SOL    HW1 4043   0.914   2.306   5.020
 1233SOL    HW2 4044   0.957   2.221   4.887
 1234SOL     OW 4045   1.041   2.563   4.153
 1234SOL    HW1 4046   1.067   2.559   4.249
 1234SOL    HW2 4047   0.956   2.512   4.139
 1235SOL     OW 4048   0.076   2.673   4.513
 1235SOL    HW1 4049   0.175   2.661   4.522
 1235SOL    HW2 4050   0.052   2.768   4.534
 1236SOL     OW 4051   0.130   3.683   5.295
 1236SOL    HW1 4052   0.120   3.668   5.394
 1236SOL    HW2 4053   0.044   3.719   5.259
 1237SOL     OW 4054   0.865   2.210   3.919
 1237SOL    HW1 4055   0.924   2.273   3.870
 1237SOL    HW2 4056   0.884   2.116   3.890
 1238SOL     OW 4057   1.719   2.447   5.555
 1238SOL    HW1 4058   1.693   2.536   5.519
 1238SOL    HW2 4059   1.717   2.379   5.482
 1239SOL     OW 4060   1.362   3.006   4.269
 1239SOL    HW1 4061   1.445   2.977   4.221
 1239SOL    HW2 4062   1.313   3.073   4.213
 1240SOL     OW 4063   0.550   2.058   4.609
 1240SOL    HW1 4064   0.545   2.053   4.709
 1240SOL    HW2 4065   0.552   2.154   4.580
 1241SOL     OW 4066   1.008   3.318   4.201
 1241SOL    HW1 4067   0.962   3.390   4.149
 1241SOL    HW2 4068   1.004   3.338   4.299
 1242SOL     OW 4069   0.351   3.663   4.577
 1242SOL    HW1 4070   0.401   3.577   4.583
 1242SOL    HW2 4071   0.416   3.740   4.574
 1243SOL     OW 4072   1.795   2.928   4.597
 1243SOL    HW1 4073   1.733   2.913   4.521
 1243SOL    HW2 4074   1.743   2.939   4.682
 1244SOL     OW 4075   1.227   3.412   5.230
 1244SOL    HW1 4076   1.233   3.335   5.294
 1244SOL    HW2 4077   1.175   3.386   5.150
 1245SOL     OW 4078   0.321   2.805   3.966
 1245SOL    HW1 4079   0.403   2.844   3.924
 1245SOL    HW2 4080   0.294   2.723   3.917
 1246SOL     OW 4081   1.458   2.597   4.452
 1246SOL    HW1 4082   1.453   2.532   4.527
 1246SOL    HW2 4083   1.538   2.656   4.465
 1247SOL     OW 4084   0.461   3.128   5.451
 1247SOL    HW1 4085   0.411   3.129   5.365
 1247SOL    HW2 4086   0.398   3.110   5.527
 1248SOL     OW 4087   1.111   3.638   3.961
 1248SOL    HW1 4088   1.051   3.576   4.011
 1248SOL    HW2 4089   1.142   3.594   3.876
 1249SOL     OW 4090   0.202   2.147   5.222
 1249SOL    HW1 4091   0.122   2.207   5.209
 1249SOL    HW2 4092   0.192   2.098   5.308
 1250SOL     OW 4093   1.632   3.239   3.805
 1250SOL    HW1 4094   1.600   3.333   3.795
 1250SOL    HW2 4095   1.556   3.176   3.793
 1251SOL     OW 4096   0.464   3.605   4.047
 1251SOL    HW1 4097   0.497   3.644   4.133
 1251SOL    HW2 4098   0.540   3.598   3.982
 1252SOL     OW 4099   1.400   1.969   4.150
 1252SOL    HW1 4100   1.376   1.932   4.060
 1252SOL    HW2 4101   1.499   1.985   4.154
 1253SOL     OW 4102   0.249   3.647   4.965
 1253SOL    HW1 4103   0.306   3.582   5.015
 1253SOL    HW2 4104   0.233   3.614   4.872
 1254SOL     OW 4105   0.940   3.560   4.628
 1254SOL    HW1 4106   1.020   3.503   4.649
 1254SOL    HW2 4107   0.891   3.520   4.551
 1255SOL     OW 4108   0.382   2.562   4.204
 1255SOL    HW1 4109   0.427   2.472   4.201
 1255SOL    HW2 4110   0.288   2.551   4.237
 1256SOL     OW 4111   1.547   2.084   5.453
 1256SOL    HW1 4112   1.542   2.121   5.545
 1256SOL    HW2 4113   1.475   2.015   5.441
 1257SOL     OW 4114   0.614   1.984   3.841
 1257SOL    HW1 4115   0.712   1.962   3.848
 1257SOL    HW2 4116   0.583   1.967   3.748
 1258SOL     OW 4117   0.781   2.126   5.473
 1258SOL    HW1 4118   0.848   2.065   5.516
 1258SOL    HW2 4119   0.708   2.145   5.538
 1259SOL     OW 4120   0.888   3.376   4.919
 1259SOL    HW1 4121   0.865   3.351   4.825
 1259SOL    HW2 4122   0.949   3.307   4.958
 1260SOL     OW 4123   1.351   2.452   5.157
 1260SOL    HW1 4124   1.379   2.409   5.242
 1260SOL    HW2 4125   1.376   2.548   5.158
 1261SOL     OW 4126   0.803   3.264   4.648
 1261SOL    HW1 4127   0.893   3.278   4.606
 1261SOL    HW2 4128   0.732   3.266   4.577
 1262SOL     OW 4129   0.922   2.365   4.623
 1262SOL    HW1 4130   0.897   2.356   4.527
 1262SOL    HW2 4131   0.970   2.283   4.654
 1263SOL     OW 4132   0.539   1.926   4.236
 1263SOL    HW1 4133   0.458   1.927   4.294
 1263SOL    HW2 4134   0.542   2.009   4.181
 1264SOL     OW 4135   1.434   3.050   3.765
 1264SOL    HW1 4136   1.466   2.974   3.822
 1264SOL    HW2 4137   1.342   3.077   3.795
 1265SOL     OW 4138   0.297   1.897   3.895
 1265SOL    HW1 4139   0.346   1.981   3.874
 1265SOL    HW2 4140   0.359   1.832   3.940
 1266SOL     OW 4141   0.935   2.098   4.204
 1266SOL    HW1 4142   0.887   2.139   4.126
 1266SOL    HW2 4143   1.034   2.096   4.185
 1267SOL     OW 4144   1.076   2.545   5.188
 1267SOL    HW1 4145   0.996   2.484   5.191
 1267SOL    HW2 4146   1.157   2.492   5.164
 1268SOL     OW 4147   1.227   3.432   4.517
 1268SOL    HW1 4148   1.248   3.506   4.452
 1268SOL    HW2 4149   1.295   3.432   4.590
 1269SOL     OW 4150   0.459   3.014   4.465
 1269SOL    HW1 4151   0.388   2.987   4.530
 1269SOL    HW2 4152   0.433   2.986   4.372
 1270SOL     OW 4153   1.271   3.659   4.315
 1270SOL    HW1 4154   1.315   3.723   4.251
 1270SOL    HW2 4155   1.221   3.711   4.385
 1271SOL     OW 4156   1.032   2.411   3.740
 1271SOL    HW1 4157   0.991   2.493   3.701
 1271SOL    HW2 4158   1.096   2.437   3.813
 1272SOL     OW 4159   0.078   2.418   5.110
 1272SOL    HW1 4160   0.170   2.417   5.069
 1272SOL    HW2 4161   0.072   2.492   5.177
 1273SOL     OW 4162   0.561   2.084   4.871
 1273SOL    HW1 4163   0.599   2.000   4.908
 1273SOL    HW2 4164   0.473   2.103   4.915
 1274SOL     OW 4165   0.866   2.316   4.366
 1274SOL    HW1 4166   0.834   2.388   4.304
 1274SOL    HW2 4167   0.890   2.235   4.313
 1275SOL     OW 4168   1.017   1.901   4.477
 1275SOL    HW1 4169   0.945   1.906   4.408
 1275SOL    HW2 4170   0.993   1.832   4.546
 1276SOL     OW 4171   1.429   3.035   4.591
 1276SOL    HW1 4172   1.374   2.951   4.584
 1276SOL    HW2 4173   1.455   3.064   4.499
 1277SOL     OW 4174   1.466   2.452   4.716
 1277SOL    HW1 4175   1.436   2.357   4.723
 1277SOL    HW2 4176   1.539   2.468   4.782
 1278SOL     OW 4177   1.857   2.695   4.101
 1278SOL    HW1 4178   1.899   2.631   4.165
 1278SOL    HW2 4179   1.819   2.644   4.023
 1279SOL     OW 4180   0.488   3.247   3.898
 1279SOL    HW1 4181   0.401   3.232   3.945
 1279SOL    HW2 4182   0.471   3.273   3.803
 1280SOL     OW 4183   1.664   3.142   4.381
 1280SOL    HW1 4184   1.763   3.150   4.395
 1280SOL    HW2 4185   1.619   3.226   4.412
 1281SOL     OW 4186   1.390   2.437   3.802
 1281SOL    HW1 4187   1.336   2.416   3.883
 1281SOL    HW2 4188   1.481   2.396   3.811
 1282SOL     OW 4189   0.527   2.118   4.052
 1282SOL    HW1 4190   0.554   2.059   3.977
 1282SOL    HW2 4191   0.527   2.213   4.021
 1283SOL     OW 4192   1.754   3.085   5.312
 1283SOL    HW1 4193   1.845   3.046   5.299
 1283SOL    HW2 4194   1.762   3.181   5.336
 1284SOL     OW 4195   1.064   3.209   5.064
 1284SOL    HW1 4196   0.984   3.186   5.119
 1284SOL    HW2 4197   1.147   3.183   5.113
 1285SOL     OW 4198   1.592   3.491   5.349
 1285SOL    HW1 4199   1.619   3.525   5.259
 1285SOL    HW2 4200   1.671   3.453   5.395
 1286SOL     OW 4201   1.111   3.057   4.824
 1286SOL    HW1 4202   1.071   3.101   4.905
 1286SOL    HW2 4203   1.070   3.094   4.741
 1287SOL     OW 4204   1.638   2.961   4.803
 1287SOL    HW1 4205   1.643   3.042   4.862
 1287SOL    HW2 4206   1.552   2.963   4.752
 1288SOL     OW 4207   0.915   1.951   5.126
 1288SOL    HW1 4208   0.940   1.931   5.031
 1288SOL    HW2 4209   0.987   2.007   5.168
 1289SOL     OW 4210   0.980   2.978   5.443
 1289SOL    HW1 4211   0.881   2.984   5.453
 1289SOL    HW2 4212   1.003   2.898   5.387
 1290SOL     OW 4213   0.705   2.912   4.092
 1290SOL    HW1 4214   0.691   2.919   4.191
 1290SOL    HW2 4215   0.789   2.861   4.074
 1291SOL     OW 4216   0.410   2.675   4.975
 1291SOL    HW1 4217   0.496   2.687   5.025
 1291SOL    HW2 4218   0.368   2.588   5.002
 1292SOL     OW 4219   1.274   2.248   4.986
 1292SOL    HW1 4220   1.295   2.322   5.050
 1292SOL    HW2 4221   1.185   2.265   4.943
 1293SOL     OW 4222   0.064   3.426   5.055
 1293SOL    HW1 4223   0.018   3.508   5.021
 1293SOL    HW2 4224   0.162   3.445   5.064
 1294SOL     OW 4225   0.367   2.962   4.225
 1294SOL    HW1 4226   0.360   3.045   4.169
 1294SOL    HW2 4227   0.371   2.882   4.165
 1295SOL     OW 4228   0.566   2.399   4.589
 1295SOL    HW1 4229   0.578   2.465   4.515
 1295SOL    HW2 4230   0.612   2.433   4.672
 1296SOL     OW 4231   1.252   3.210   4.112
 1296SOL    HW1 4232   1.302   3.287   4.152
 1296SOL    HW2 4233   1.157   3.212   4.144
 1297SOL     OW 4234   1.272   3.307   4.866
 1297SOL    HW1 4235   1.319   3.320   4.953
 1297SOL    HW2 4236   1.206   3.233   4.875
 1298SOL     OW 4237   1.582   2.501   4.196
 1298SOL    HW1 4238   1.551   2.562   4.269
 1298SOL    HW2 4239   1.632   2.553   4.127
 1299SOL     OW 4240   0.354   3.372   5.053
 1299SOL    HW1 4241   0.333   3.328   4.966
 1299SOL    HW2 4242   0.451   3.398   5.056
 1300SOL     OW 4243   0.402   2.613   5.322
 1300SOL    HW1 4244   0.470   2.668   5.275
 1300SOL    HW2 4245   0.442   2.525   5.349
 1301SOL     OW 4246   1.587   2.641   5.394
 1301SOL    HW1 4247   1.495   2.679   5.389
 1301SOL    HW2 4248   1.647   2.688   5.329
 1302SOL     OW 4249   1.013   1.967   5.494
 1302SOL    HW1 4250   1.019   2.052   5.442
 1302SOL    HW2 4251   1.045   1.891   5.437
 1303SOL     OW 4252   0.504   1.912   5.464
 1303SOL    HW1 4253   0.462   1.855   5.394
 1303SOL    HW2 4254   0.438   1.981   5.496
 1304SOL     OW 4255   0.573   2.732   4.753
 1304SOL    HW1 4256   0.617   2.821   4.744
 1304SOL    HW2 4257   0.510   2.732   4.830
 1305SOL     OW 4258   1.360   2.724   4.769
 1305SOL    HW1 4259   1.285   2.724   4.703
 1305SOL    HW2 4260   1.397   2.632   4.778
 1306SOL     OW 4261   1.209   2.387   3.999
 1306SOL    HW1 4262   1.222   2.303   4.053
 1306SOL    HW2 4263   1.180   2.461   4.059
 1307SOL     OW 4264   0.307   2.075   4.955
 1307SOL    HW1 4265   0.284   2.112   5.045
 1307SOL    HW2 4266   0.277   1.980   4.949
 1308SOL     OW 4267   0.037   3.172   5.006
 1308SOL    HW1 4268   0.090   3.123   5.074
 1308SOL    HW2 4269   0.059   3.270   5.011
 1309SOL     OW 4270   0.732   2.496   4.788
 1309SOL    HW1 4271   0.791   2.470   4.712
 1309SOL    HW2 4272   0.704   2.592   4.777
 1310SOL     OW 4273   1.728   2.797   5.578
 1310SOL    HW1 4274   1.682   2.790   5.489
 1310SOL    HW2 4275   1.666   2.841   5.644
 1311SOL     OW 4276   0.307   1.925   4.342
 1311SOL    HW1 4277   0.296   2.019   4.375
 1311SOL    HW2 4278   0.302   1.862   4.419
 1312SOL     OW 4279   1.622   2.229   4.098
 1312SOL    HW1 4280   1.624   2.153   4.162
 1312SOL    HW2 4281   1.574   2.306   4.138
 1313SOL     OW 4282   1.023   2.628   4.690
 1313SOL    HW1 4283   1.038   2.649   4.786
 1313SOL    HW2 4284   0.993   2.533   4.681
 1314SOL     OW 4285   0.980   3.435   5.424
 1314SOL    HW1 4286   0.960   3.479   5.336
 1314SOL    HW2 4287   1.019   3.344   5.408
 1315SOL     OW 4288   1.859   3.380   5.329
 1315SOL    HW1 4289   1.873   3.407   5.234
 1315SOL    HW2 4290   1.942   3.402   5.382
 1316SOL     OW 4291   0.350   2.760   5.528
 1316SOL    HW1 4292   0.426   2.804   5.576
 1316SOL    HW2 4293   0.385   2.713   5.446
 1317SOL     OW 4294   1.540   2.136   3.849
 1317SOL    HW1 4295   1.479   2.061   3.872
 1317SOL    HW2 4296   1.562   2.188   3.932
 1318SOL     OW 4297   1.303   2.700   3.766
 1318SOL    HW1 4298   1.337   2.607   3.781
 1318SOL    HW2 4299   1.321   2.727   3.671
 1319SOL     OW 4300   1.068   3.195   4.573
 1319SOL    HW1 4301   1.075   3.111   4.518
 1319SOL    HW2 4302   1.130   3.264   4.537
 1320SOL     OW 4303   0.319   2.672   4.673
 1320SOL    HW1 4304   0.412   2.708   4.678
 1320SOL    HW2 4305   0.313   2.587   4.725
 1321SOL     OW 4306   0.339   2.371   4.730
 1321SOL    HW1 4307   0.287   2.288   4.713
 1321SOL    HW2 4308   0.416   2.376   4.666
 1322SOL     OW 4309   1.138   2.242   5.402
 1322SOL    HW1 4310   1.093   2.305   5.466
 1322SOL    HW2 4311   1.231   2.273   5.385
 1323SOL     OW 4312   1.160   2.069   5.201
 1323SOL    HW1 4313   1.160   2.133   5.278
 1323SOL    HW2 4314   1.188   2.117   5.118
 1324SOL     OW 4315   0.008   3.188   3.924
 1324SOL    HW1 4316  -0.085   3.209   3.893
 1324SOL    HW2 4317   0.018   3.089   3.937
 1325SOL     OW 4318   0.088   3.663   4.651
 1325SOL    HW1 4319   0.046   3.577   4.624
 1325SOL    HW2 4320   0.182   3.666   4.617
 1326SOL     OW 4321   0.504   3.430   4.634
 1326SOL    HW1 4322   0.570   3.504   4.643
 1326SOL    HW2 4323   0.548   3.351   4.592
 1327SOL     OW 4324   1.002   2.658   4.962
 1327SOL    HW1 4325   1.043   2.626   5.048
 1327SOL    HW2 4326   0.906   2.631   4.959
 1328SOL     OW 4327   0.040   2.406   4.838
 1328SOL    HW1 4328   0.125   2.373   4.797
 1328SOL    HW2 4329   0.053   2.421   4.936
 1329SOL     OW 4330   0.189   2.382   5.446
 1329SOL    HW1 4331   0.248   2.342   5.376
 1329SOL    HW2 4332   0.131   2.453   5.405
 1330SOL     OW 4333   1.369   2.812   5.384
 1330SOL    HW1 4334   1.408   2.901   5.404
 1330SOL    HW2 4335   1.379   2.792   5.287
 1331SOL     OW 4336   0.815   2.434   4.049
 1331SOL    HW1 4337   0.822   2.345   4.003
 1331SOL    HW2 4338   0.721   2.468   4.041
 1332SOL     OW 4339   1.657   2.466   4.930
 1332SOL    HW1 4340   1.619   2.397   4.992
 1332SOL    HW2 4341   1.739   2.430   4.886
 1333SOL     OW 4342   0.252   3.426   5.468
 1333SOL    HW1 4343   0.222   3.483   5.544
 1333SOL    HW2 4344   0.245   3.329   5.494
 1334SOL     OW 4345   0.671   2.326   4.993
 1334SOL    HW1 4346   0.637   2.237   4.963
 1334SOL    HW2 4347   0.697   2.380   4.913
 1335SOL     OW 4348   0.930   3.540   5.189
 1335SOL    HW1 4349   0.906   3.522   5.094
 1335SOL    HW2 4350   0.960   3.634   5.199
 1336SOL     OW 4351   0.473   2.362   3.915
 1336SOL    HW1 4352   0.534   2.442   3.919
 1336SOL    HW2 4353   0.378   2.393   3.922
 1337SOL     OW 4354   0.159   2.999   5.190
 1337SOL    HW1 4355   0.181   2.938   5.266
 1337SOL    HW2 4356   0.169   2.950   5.104
 1338SOL     OW 4357   1.347   2.921   4.958
 1338SOL    HW1 4358   1.371   2.858   4.884
 1338SOL    HW2 4359   1.257   2.961   4.940
 1339SOL     OW 4360   1.302   2.717   4.033
 1339SOL    HW1 4361   1.216   2.686   4.075
 1339SOL    HW2 4362   1.298   2.703   3.934
 1340SOL     OW 4363   1.759   3.609   4.878
 1340SOL    HW1 4364   1.820   3.639   4.805
 1340SOL    HW2 4365   1.721   3.520   4.856
 1341SOL     OW 4366   1.252   3.593   4.852
 1341SOL    HW1 4367   1.336   3.598   4.798
 1341SOL    HW2 4368   1.229   3.497   4.870
 1342SOL     OW 4369   0.083   3.120   4.746
 1342SOL    HW1 4370   0.078   3.119   4.846
 1342SOL    HW2 4371   0.000   3.079   4.708
 1343SOL     OW 4372   0.688   3.524   5.440
 1343SOL    HW1 4373   0.632   3.605   5.449
 1343SOL    HW2 4374   0.740   3.528   5.354
 1344SOL     OW 4375   1.726   1.997   4.247
 1344SOL    HW1 4376   1.799   1.980   4.180
 1344SOL    HW2 4377   1.695   1.910   4.285
 1345SOL     OW 4378   1.388   3.435   4.201
 1345SOL    HW1 4379   1.455   3.447   4.127
 1345SOL    HW2 4380   1.348   3.524   4.224
 1346SOL     OW 4381   0.130   3.656   5.575
 1346SOL    HW1 4382   0.089   3.582   5.628
 1346SOL    HW2 4383   0.194   3.707   5.633
 1347SOL     OW 4384   1.280   2.789   4.396
 1347SOL    HW1 4385   1.340   2.708   4.398
 1347SOL    HW2 4386   1.320   2.858   4.336
 1348SOL     OW 4387   0.830   3.135   5.146
 1348SOL    HW1 4388   0.825   3.168   5.241
 1348SOL    HW2 4389   0.744   3.154   5.100
 1349SOL     OW 4390   0.672   3.478   3.878
 1349SOL    HW1 4391   0.681   3.488   3.779
 1349SOL    HW2 4392   0.632   3.389   3.899
 1350SOL     OW 4393   1.650   3.582   5.118
 1350SOL    HW1 4394   1.703   3.592   5.034
 1350SOL    HW2 4395   1.623   3.672   5.152
 1351SOL     OW 4396   1.841   2.037   4.687
 1351SOL    HW1 4397   1.880   1.952   4.651
 1351SOL    HW2 4398   1.743   2.039   4.668
 1352SOL     OW 4399   0.263   2.188   4.444
 1352SOL    HW1 4400   0.184   2.239   4.410
 1352SOL    HW2 4401   0.254   2.173   4.542
 1353SOL     OW 4402   1.194   3.474   3.755
 1353SOL    HW1 4403   1.200   3.381   3.792
 1353SOL    HW2 4404   1.135   3.474   3.675
 1354SOL     OW 4405   0.822   2.864   5.096
 1354SOL    HW1 4406   0.862   2.863   5.004
 1354SOL    HW2 4407   0.832   2.956   5.136
 1355SOL     OW 4408   0.916   2.772   4.015
 1355SOL    HW1 4409   0.979   2.810   3.947
 1355SOL    HW2 4410   0.956   2.689   4.054
 1356SOL     OW 4411   1.504   3.469   3.768
 1356SOL    HW1 4412   1.412   3.506   3.775
 1356SOL    HW2 4413   1.542   3.489   3.678
 1357SOL     OW 4414   0.372   3.150   5.214
 1357SOL    HW1 4415   0.359   3.243   5.180
 1357SOL    HW2 4416   0.288   3.098   5.201
 1358SOL     OW 4417   1.614   3.154   5.013
 1358SOL    HW1 4418   1.674   3.157   5.093
 1358SOL    HW2 4419   1.539   3.218   5.026
 1359SOL     OW 4420   1.039   2.960   4.420
 1359SOL    HW1 4421   0.969   2.913   4.474
 1359SOL    HW2 4422   1.098   2.892   4.377
 1360SOL     OW 4423   1.014   2.098   4.695
 1360SOL    HW1 4424   1.006   2.062   4.602
 1360SOL    HW2 4425   1.012   2.022   4.760
 1361SOL     OW 4426   0.590   3.349   4.215
 1361SOL    HW1 4427   0.632   3.291   4.145
 1361SOL    HW2 4428   0.546   3.428   4.171
 1362SOL     OW 4429   1.709   2.247   5.105
 1362SOL    HW1 4430   1.782   2.316   5.109
 1362SOL    HW2 4431   1.737   2.172   5.046
 1363SOL     OW 4432   0.255   3.210   4.014
 1363SOL    HW1 4433   0.159   3.211   3.987
 1363SOL    HW2 4434   0.267   3.263   4.098
 1364SOL     OW 4435   0.105   2.875   5.450
 1364SOL    HW1 4436   0.028   2.842   5.504
 1364SOL    HW2 4437   0.190   2.845   5.492
 1365SOL     OW 4438   0.672   2.065   5.213
 1365SOL    HW1 4439   0.762   2.049   5.173
 1365SOL    HW2 4440   0.680   2.070   5.312
 1366SOL     OW 4441   0.075   2.207   3.757
 1366SOL    HW1 4442  -0.017   2.179   3.728
 1366SOL    HW2 4443   0.106   2.284   3.701
 1367SOL     OW 4444   1.440   2.718   5.122
 1367SOL    HW1 4445   1.383   2.770   5.059
 1367SOL    HW2 4446   1.536   2.730   5.098
 1368SOL     OW 4447   0.072   2.028   4.042
 1368SOL    HW1 4448   0.055   2.111   3.988
 1368SOL    HW2 4449   0.162   1.991   4.020
 1369SOL     OW 4450   1.183   3.197   3.843
 1369SOL    HW1 4451   1.084   3.186   3.845
 1369SOL    HW2 4452   1.217   3.212   3.936
 1370SOL     OW 4453   0.613   2.704   5.155
 1370SOL    HW1 4454   0.669   2.785   5.138
 1370SOL    HW2 4455   0.672   2.624   5.158
 1371SOL     OW 4456   1.493   3.629   4.683
 1371SOL    HW1 4457   1.526   3.693   4.614
 1371SOL    HW2 4458   1.559   3.623   4.758
 1372SOL     OW 4459   0.716   2.427   5.432
 1372SOL    HW1 4460   0.735   2.492   5.506
 1372SOL    HW2 4461   0.776   2.347   5.441
 1373SOL     OW 4462   1.450   3.082   5.357
 1373SOL    HW1 4463   1.441   3.072   5.456
 1373SOL    HW2 4464   1.546   3.075   5.331
 1374SOL     OW 4465   0.390   3.603   5.284
 1374SOL    HW1 4466   0.299   3.644   5.282
 1374SOL    HW2 4467   0.383   3.509   5.316
 1375SOL     OW 4468   1.674   2.745   4.978
 1375SOL    HW1 4469   1.647   2.656   4.941
 1375SOL    HW2 4470   1.675   2.813   4.905
 1376SOL     OW 4471   1.225   2.187   4.173
 1376SOL    HW1 4472   1.290   2.113   4.162
 1376SOL    HW2 4473   1.245   2.237   4.257
 1377SOL     OW 4474   0.594   2.607   4.376
 1377SOL    HW1 4475   0.644   2.692   4.357
 1377SOL    HW2 4476   0.506   2.609   4.328
 1378SOL     OW 4477   1.777   2.204   5.366
 1378SOL    HW1 4478   1.760   2.235   5.272
 1378SOL    HW2 4479   1.693   2.167   5.404
 1379SOL     OW 4480   1.730   2.796   5.241
 1379SOL    HW1 4481   1.768   2.887   5.256
 1379SOL    HW2 4482   1.722   2.779   5.142
 1380SOL     OW 4483   0.859   3.236   3.740
 1380SOL    HW1 4484   0.813   3.251   3.828
 1380SOL    HW2 4485   0.903   3.321   3.710
 1381SOL     OW 4486   0.661   3.652   4.677
 1381SOL    HW1 4487   0.615   3.740   4.664
 1381SOL    HW2 4488   0.760   3.664   4.670
 1382SOL     OW 4489   0.859   2.818   4.585
 1382SOL    HW1 4490   0.913   2.749   4.633
 1382SOL    HW2 4491   0.827   2.887   4.651
 1383SOL     OW 4492   1.083   2.846   3.811
 1383SOL    HW1 4493   1.060   2.899   3.729
 1383SOL    HW2 4494   1.164   2.790   3.792
 1384SOL     OW 4495   1.861   3.431   4.575
 1384SOL    HW1 4496   1.790   3.419   4.505
 1384SOL    HW2 4497   1.862   3.352   4.635
 1385SOL     OW 4498   0.221   3.176   5.568
 1385SOL    HW1 4499   0.156   3.103   5.547
 1385SOL    HW2 4500   0.225   3.190   5.666
 1386SOL     OW 4501   0.079   3.102   4.377
 1386SOL    HW1 4502   0.078   3.055   4.465
 1386SOL    HW2 4503   0.161   3.074   4.326
 1387SOL     OW 4504   0.672   3.253   5.348
 1387SOL    HW1 4505   0.594   3.203   5.386
 1387SOL    HW2 4506   0.669   3.348   5.379
 1388SOL     OW 4507   1.824   2.054   4.951
 1388SOL    HW1 4508   1.820   1.964   4.995
 1388SOL    HW2 4509   1.827   2.043   4.852
 1389SOL     OW 4510   0.428   2.286   4.244
 1389SOL    HW1 4511   0.458   2.214   4.182
 1389SOL    HW2 4512   0.389   2.246   4.327
 1390SOL     OW 4513   1.705   3.349   4.828
 1390SOL    HW1 4514   1.612   3.324   4.801
 1390SOL    HW2 4515   1.731   3.299   4.910
 1391SOL     OW 4516   0.317   2.409   5.004
 1391SOL    HW1 4517   0.355   2.350   5.076
 1391SOL    HW2 4518   0.357   2.383   4.916
 1392SOL     OW 4519   0.812   3.448   4.411
 1392SOL    HW1 4520   0.844   3.458   4.317
 1392SOL    HW2 4521   0.733   3.386   4.413
 1393SOL     OW 4522   1.424   2.076   4.836
 1393SOL    HW1 4523   1.476   2.011   4.891
 1393SOL    HW2 4524   1.375   2.139   4.897
 1394SOL     OW 4525   1.001   1.896   4.878
 1394SOL    HW1 4526   0.938   1.824   4.847
 1394SOL    HW2 4527   1.094   1.860   4.878
 1395SOL     OW 4528   0.770   3.192   4.025
 1395SOL    HW1 4529   0.724   3.105   4.042
 1395SOL    HW2 4530   0.861   3.189   4.066
 1396SOL     OW 4531   0.618   3.429   5.008
 1396SOL    HW1 4532   0.613   3.511   5.065
 1396SOL    HW2 4533   0.707   3.426   4.963
 1397SOL     OW 4534   1.352   1.914   3.892
 1397SOL    HW1 4535   1.387   1.873   3.808
 1397SOL    HW2 4536   1.262   1.876   3.912
 1398SOL     OW 4537   1.300   2.315   4.415
 1398SOL    HW1 4538   1.241   2.395   4.419
 1398SOL    HW2 4539   1.315   2.280   4.508
 1399SOL     OW 4540   1.593   2.083   4.606
 1399SOL    HW1 4541   1.509   2.082   4.660
 1399SOL    HW2 4542   1.595   2.166   4.550
 1400SOL     OW 4543   0.039   2.939   4.024
 1400SOL    HW1 4544   0.138   2.928   4.015
 1400SOL    HW2 4545  -0.001   2.853   4.056
 1401SOL     OW 4546   0.875   3.508   4.061
 1401SOL    HW1 4547   0.798   3.473   4.007
 1401SOL    HW2 4548   0.843   3.579   4.123
 1402SOL     OW 4549   0.230   2.490   5.699
 1402SOL    HW1 4550   0.137   2.488   5.736
 1402SOL    HW2 4551   0.231   2.451   5.607
 1403SOL     OW 4552   0.019   2.230   6.233
 1403SOL    HW1 4553  -0.063   2.273   6.272
 1403SOL    HW2 4554  -0.009   2.157   6.170
 1404SOL     OW 4555   1.555   3.373   6.289
 1404SOL    HW1 4556   1.498   3.357   6.370
 1404SOL    HW2 4557   1.496   3.383   6.209
 1405SOL     OW 4558   1.135   2.565   6.303
 1405SOL    HW1 4559   1.192   2.643   6.278
 1405SOL    HW2 4560   1.075   2.591   6.379
 1406SOL     OW 4561   1.755   2.469   5.817
 1406SOL    HW1 4562   1.743   2.456   5.718
 1406SOL    HW2 4563   1.725   2.388   5.866
 1407SOL     OW 4564   0.685   2.874   6.251
 1407SOL    HW1 4565   0.754   2.858   6.321
 1407SOL    HW2 4566   0.612   2.931   6.289
 1408SOL     OW 4567   1.603   2.309   6.323
 1408SOL    HW1 4568   1.529   2.355   6.273
 1408SOL    HW2 4569   1.654   2.377   6.376
 1409SOL     OW 4570   0.231   3.575   6.069
 1409SOL    HW1 4571   0.265   3.652   6.123
 1409SOL    HW2 4572   0.275   3.575   5.979
 1410SOL     OW 4573   0.230   3.296   6.124
 1410SOL    HW1 4574   0.204   3.392   6.124
 1410SOL    HW2 4575   0.159   3.242   6.169
 1411SOL     OW 4576   0.240   2.953   6.472
 1411SOL    HW1 4577   0.254   2.869   6.524
 1411SOL    HW2 4578   0.185   3.017   6.527
 1412SOL     OW 4579   0.606   2.826   5.709
 1412SOL    HW1 4580   0.613   2.910   5.655
 1412SOL    HW2 4581   0.652   2.839   5.797
 1413SOL     OW 4582   0.122   2.505   6.149
 1413SOL    HW1 4583   0.077   2.417   6.166
 1413SOL    HW2 4584   0.121   2.559   6.233
 1414SOL     OW 4585   1.842   3.629   5.945
 1414SOL    HW1 4586   1.896   3.600   6.025
 1414SOL    HW2 4587   1.872   3.719   5.916
 1415SOL     OW 4588   0.027   3.458   5.703
 1415SOL    HW1 4589   0.008   3.362   5.724
 1415SOL    HW2 4590  -0.006   3.516   5.778
 1416SOL     OW 4591   1.689   2.784   6.198
 1416SOL    HW1 4592   1.784   2.755   6.206
 1416SOL    HW2 4593   1.681   2.849   6.123
 1417SOL     OW 4594   1.641   2.970   6.018
 1417SOL    HW1 4595   1.727   2.972   5.966
 1417SOL    HW2 4596   1.655   3.017   6.106
 1418SOL     OW 4597   0.613   3.227   6.312
 1418SOL    HW1 4598   0.564   3.140   6.321
 1418SOL    HW2 4599   0.590   3.270   6.225
 1419SOL     OW 4600   0.809   1.866   6.088
 1419SOL    HW1 4601   0.849   1.957   6.079
 1419SOL    HW2 4602   0.709   1.874   6.094
 1420SOL     OW 4603   1.525   2.861   5.776
 1420SOL    HW1 4604   1.462   2.785   5.789
 1420SOL    HW2 4605   1.573   2.879   5.862
 1421SOL     OW 4606   1.667   3.576   6.158
 1421SOL    HW1 4607   1.626   3.553   6.070
 1421SOL    HW2 4608   1.649   3.502   6.223
 1422SOL     OW 4609   0.598   2.591   5.856
 1422SOL    HW1 4610   0.622   2.660   5.788
 1422SOL    HW2 4611   0.520   2.624   5.910
 1423SOL     OW 4612   1.576   3.524   5.893
 1423SOL    HW1 4613   1.665   3.570   5.896
 1423SOL    HW2 4614   1.555   3.500   5.798
 1424SOL     OW 4615   1.041   2.563   6.015
 1424SOL    HW1 4616   1.067   2.559   6.111
 1424SOL    HW2 4617   0.956   2.512   6.001
 1425SOL     OW 4618   0.076   2.673   6.375
 1425SOL    HW1 4619   0.175   2.661   6.384
 1425SOL    HW2 4620   0.052   2.768   6.396
 1426SOL     OW 4621   0.865   2.210   5.781
 1426SOL    HW1 4622   0.924   2.273   5.732
 1426SOL    HW2 4623   0.884   2.116   5.752
 1427SOL     OW 4624   1.362   3.006   6.131
 1427SOL    HW1 4625   1.445   2.977   6.083
 1427SOL    HW2 4626   1.313   3.073   6.075
 1428SOL     OW 4627   0.550   2.058   6.471
 1428SOL    HW1 4628   0.545   2.053   6.571
 1428SOL    HW2 4629   0.552   2.154   6.442
 1429SOL     OW 4630   1.008   3.318   6.063
 1429SOL    HW1 4631   0.962   3.390   6.011
 1429SOL    HW2 4632   1.004   3.338   6.161
 1430SOL     OW 4633   0.351   3.663   6.439
 1430SOL    HW1 4634   0.401   3.577   6.445
 1430SOL    HW2 4635   0.416   3.740   6.436
 1431SOL     OW 4636   1.795   2.928   6.459
 1431SOL    HW1 4637   1.733   2.913   6.383
 1431SOL    HW2 4638   1.743   2.939   6.544
 1432SOL     OW 4639   0.321   2.805   5.828
 1432SOL    HW1 4640   0.403   2.844   5.786
 1432SOL    HW2 4641   0.294   2.723   5.779
 1433SOL     OW 4642   1.458   2.597   6.314
 1433SOL    HW1 4643   1.453   2.532   6.389
 1433SOL    HW2 4644   1.538   2.656   6.327
 1434SOL     OW 4645   1.111   3.638   5.823
 1434SOL    HW1 4646   1.051   3.576   5.873
 1434SOL    HW2 4647   1.142   3.594   5.738
 1435SOL     OW 4648   1.632   3.239   5.667
 1435SOL    HW1 4649   1.600   3.333   5.657
 1435SOL    HW2 4650   1.556   3.176   5.655
 1436SOL     OW 4651   0.464   3.605   5.909
 1436SOL    HW1 4652   0.497   3.644   5.995
 1436SOL    HW2 4653   0.540   3.598   5.844
 1437SOL     OW 4654   1.400   1.969   6.012
 1437SOL    HW1 4655   1.376   1.932   5.922
 1437SOL    HW2 4656   1.499   1.985   6.016
 1438SOL     OW 4657   0.940   3.560   6.490
 1438SOL    HW1 4658   1.020   3.503   6.511
 1438SOL    HW2 4659   0.891   3.520   6.413
 1439SOL     OW 4660   0.382   2.562   6.066
 1439SOL    HW1 4661   0.427   2.472   6.063
 1439SOL    HW2 4662   0.288   2.551   6.099
 1440SOL     OW 4663   0.614   1.984   5.703
 1440SOL    HW1 4664   0.712   1.962   5.710
 1440SOL    HW2 4665   0.583   1.967   5.610
 1441SOL     OW 4666   0.803   3.264   6.510
 1441SOL    HW1 4667   0.893   3.278   6.468
 1441SOL    HW2 4668   0.732   3.266   6.439
 1442SOL     OW 4669   0.922   2.365   6.485
 1442SOL    HW1 4670   0.897   2.356   6.389
 1442SOL    HW2 4671   0.970   2.283   6.516
 1443SOL     OW 4672   0.539   1.926   6.098
 1443SOL    HW1 4673   0.458   1.927   6.156
 1443SOL    HW2 4674   0.542   2.009   6.043
 1444SOL     OW 4675   1.434   3.050   5.627
 1444SOL    HW1 4676   1.466   2.974   5.684
 1444SOL    HW2 4677   1.342   3.077   5.657
 1445SOL     OW 4678   0.297   1.897   5.757
 1445SOL    HW1 4679   0.346   1.981   5.736
 1445SOL    HW2 4680   0.359   1.832   5.802
 1446SOL     OW 4681   0.935   2.098   6.066
 1446SOL    HW1 4682   0.887   2.139   5.988
 1446SOL    HW2 4683   1.034   2.096   6.047
 1447SOL     OW 4684   1.227   3.432   6.379
 1447SOL    HW1 4685   1.248   3.506   6.314
 1447SOL    HW2 4686   1.295   3.432   6.452
 1448SOL     OW 4687   0.459   3.014   6.327
 1448SOL    HW1 4688   0.388   2.987   6.392
 1448SOL    HW2 4689   0.433   2.986   6.234
 1449SOL     OW 4690   1.271   3.659   6.177
 1449SOL    HW1 4691   1.315   3.723   6.113
 1449SOL    HW2 4692   1.221   3.711   6.247
 1450SOL     OW 4693   1.032   2.411   5.602
 1450SOL    HW1 4694   0.991   2.493   5.563
 1450SOL    HW2 4695   1.096   2.437   5.675
 1451SOL     OW 4696   0.866   2.316   6.228
 1451SOL    HW1 4697   0.834   2.388   6.166
 1451SOL    HW2 4698   0.890   2.235   6.175
 1452SOL     OW 4699   1.017   1.901   6.339
 1452SOL    HW1 4700   0.945   1.906   6.270
 1452SOL    HW2 4701   0.993   1.832   6.408
 1453SOL     OW 4702   1.429   3.035   6.453
 1453SOL    HW1 4703   1.374   2.951   6.446
 1453SOL    HW2 4704   1.455   3.064   6.361
 1454SOL     OW 4705   1.857   2.695   5.963
 1454SOL    HW1 4706   1.899   2.631   6.027
 1454SOL    HW2 4707   1.819   2.644   5.885
 1455SOL     OW 4708   0.488   3.247   5.760
 1455SOL    HW1 4709   0.401   3.232   5.807
 1455SOL    HW2 4710   0.471   3.273   5.665
 1456SOL     OW 4711   1.664   3.142   6.243
 1456SOL    HW1 4712   1.763   3.150   6.257
 1456SOL    HW2 4713   1.619   3.226   6.274
 1457SOL     OW 4714   1.390   2.437   5.664
 1457SOL    HW1 4715   1.336   2.416   5.745
 1457SOL    HW2 4716   1.481   2.396   5.673
 1458SOL     OW 4717   0.527   2.118   5.914
 1458SOL    HW1 4718   0.554   2.059   5.839
 1458SOL    HW2 4719   0.527   2.213   5.883
 1459SOL     OW 4720   0.705   2.912   5.954
 1459SOL    HW1 4721   0.691   2.919   6.053
 1459SOL    HW2 4722   0.789   2.861   5.936
 1460SOL     OW 4723   0.367   2.962   6.087
 1460SOL    HW1 4724   0.360   3.045   6.031
 1460SOL    HW2 4725   0.371   2.882   6.027
 1461SOL     OW 4726   0.566   2.399   6.451
 1461SOL    HW1 4727   0.578   2.465   6.377
 1461SOL    HW2 4728   0.612   2.433   6.534
 1462SOL     OW 4729   1.252   3.210   5.974
 1462SOL    HW1 4730   1.302   3.287   6.014
 1462SOL    HW2 4731   1.157   3.212   6.006
 1463SOL     OW 4732   1.582   2.501   6.058
 1463SOL    HW1 4733   1.551   2.562   6.131
 1463SOL    HW2 4734   1.632   2.553   5.989
 1464SOL     OW 4735   1.209   2.387   5.861
 1464SOL    HW1 4736   1.222   2.303   5.915
 1464SOL    HW2 4737   1.180   2.461   5.921
 1465SOL     OW 4738   0.307   1.925   6.204
 1465SOL    HW1 4739   0.296   2.019   6.237
 1465SOL    HW2 4740   0.302   1.862   6.281
 1466SOL     OW 4741   1.622   2.229   5.960
 1466SOL    HW1 4742   1.624   2.153   6.024
 1466SOL    HW2 4743   1.574   2.306   6.000
 1467SOL     OW 4744   1.540   2.136   5.711
 1467SOL    HW1 4745   1.479   2.061   5.734
 1467SOL    HW2 4746   1.562   2.188   5.794
 1468SOL     OW 4747   1.303   2.700   5.628
 1468SOL    HW1 4748   1.337   2.607   5.643
 1468SOL    HW2 4749   1.321   2.727   5.533
 1469SOL     OW 4750   1.068   3.195   6.435
 1469SOL    HW1 4751   1.075   3.111   6.380
 1469SOL    HW2 4752   1.130   3.264   6.399
 1470SOL     OW 4753   0.008   3.188   5.786
 1470SOL    HW1 4754  -0.085   3.209   5.755
 1470SOL    HW2 4755   0.018   3.089   5.799
 1471SOL     OW 4756   0.504   3.430   6.496
 1471SOL    HW1 4757   0.570   3.504   6.505
 1471SOL    HW2 4758   0.548   3.351   6.454
 1472SOL     OW 4759   0.815   2.434   5.911
 1472SOL    HW1 4760   0.822   2.345   5.865
 1472SOL    HW2 4761   0.721   2.468   5.903
 1473SOL     OW 4762   0.473   2.362   5.777
 1473SOL    HW1 4763   0.534   2.442   5.781
 1473SOL    HW2 4764   0.378   2.393   5.784
 1474SOL     OW 4765   1.302   2.717   5.895
 1474SOL    HW1 4766   1.216   2.686   5.937
 1474SOL    HW2 4767   1.298   2.703   5.796
 1475SOL     OW 4768   1.726   1.997   6.109
 1475SOL    HW1 4769   1.799   1.980   6.042
 1475SOL    HW2 4770   1.695   1.910   6.147
 1476SOL     OW 4771   1.388   3.435   6.063
 1476SOL    HW1 4772   1.455   3.447   5.989
 1476SOL    HW2 4773   1.348   3.524   6.086
 1477SOL     OW 4774   1.280   2.789   6.258
 1477SOL    HW1 4775   1.340   2.708   6.260
 1477SOL    HW2 4776   1.320   2.858   6.198
 1478SOL     OW 4777   0.672   3.478   5.740
 1478SOL    HW1 4778   0.681   3.488   5.641
 1478SOL    HW2 4779   0.632   3.389   5.761
 1479SOL     OW 4780   0.263   2.188   6.306
 1479SOL    HW1 4781   0.184   2.239   6.272
 1479SOL    HW2 4782   0.254   2.173   6.404
 1480SOL     OW 4783   1.194   3.474   5.617
 1480SOL    HW1 4784   1.200   3.381   5.654
 1480SOL    HW2 4785   1.135   3.474   5.537
 1481SOL     OW 4786   0.916   2.772   5.877
 1481SOL    HW1 4787   0.979   2.810   5.809
 1481SOL    HW2 4788   0.956   2.689   5.916
 1482SOL     OW 4789   1.504   3.469   5.630
 1482SOL    HW1 4790   1.412   3.506   5.637
 1482SOL    HW2 4791   1.542   3.489   5.540
 1483SOL     OW 4792   1.039   2.960   6.282
 1483SOL    HW1 4793   0.969   2.913   6.336
 1483SOL    HW2 4794   1.098   2.892   6.239
 1484SOL     OW 4795   1.014   2.098   6.557
 1484SOL    HW1 4796   1.006   2.062   6.464
 1484SOL    HW2 4797   1.012   2.022   6.622
 1485SOL     OW 4798   0.590   3.349   6.077
 1485SOL    HW1 4799   0.632   3.291   6.007
 1485SOL    HW2 4800   0.546   3.428   6.033
 1486SOL     OW 4801   0.255   3.210   5.876
 1486SOL    HW1 4802   0.159   3.211   5.849
 1486SOL    HW2 4803   0.267   3.263   5.960
 1487SOL     OW 4804   0.075   2.207   5.619
 1487SOL    HW1 4805  -0.017   2.179   5.590
 1487SOL    HW2 4806   0.106   2.284   5.563
 1488SOL     OW 4807   0.072   2.028   5.904
 1488SOL    HW1 4808   0.055   2.111   5.850
 1488SOL    HW2 4809   0.162   1.991   5.882
 1489SOL     OW 4810   1.183   3.197   5.705
 1489SOL    HW1 4811   1.084   3.186   5.707
 1489SOL    HW2 4812   1.217   3.212   5.798
 1490SOL     OW 4813   1.225   2.187   6.035
 1490SOL    HW1 4814   1.290   2.113   6.024
 1490SOL    HW2 4815   1.245   2.237   6.119
 1491SOL     OW 4816   0.594   2.607   6.238
 1491SOL    HW1 4817   0.644   2.692   6.219
 1491SOL    HW2 4818   0.506   2.609   6.190
 1492SOL     OW 4819   0.859   3.236   5.602
 1492SOL    HW1 4820   0.813   3.251   5.690
 1492SOL    HW2 4821   0.903   3.321   5.572
 1493SOL     OW 4822   0.859   2.818   6.447
 1493SOL    HW1 4823   0.913   2.749   6.495
 1493SOL    HW2 4824   0.827   2.887   6.513
 1494SOL     OW 4825   1.083   2.846   5.673
 1494SOL    HW1 4826   1.060   2.899   5.591
 1494SOL    HW2 4827   1.164   2.790   5.654
 1495SOL     OW 4828   1.861   3.431   6.437
 1495SOL    HW1 4829   1.790   3.419   6.367
 1495SOL    HW2 4830   1.862   3.352   6.497
 1496SOL     OW 4831   0.079   3.102   6.239
 1496SOL    HW1 4832   0.078   3.055   6.327
 1496SOL    HW2 4833   0.161   3.074   6.188
 1497SOL     OW 4834   0.428   2.286   6.106
 1497SOL    HW1 4835   0.458   2.214   6.044
 1497SOL    HW2 4836   0.389   2.246   6.189
 1498SOL     OW 4837   0.812   3.448   6.273
 1498SOL    HW1 4838   0.844   3.458   6.179
 1498SOL    HW2 4839   0.733   3.386   6.275
 1499SOL     OW 4840   0.770   3.192   5.887
 1499SOL    HW1 4841   0.724   3.105   5.904
 1499SOL    HW2 4842   0.861   3.189   5.928
 1500SOL     OW 4843   1.352   1.914   5.754
 1500SOL    HW1 4844   1.387   1.873   5.670
 1500SOL    HW2 4845   1.262   1.876   5.774
 1501SOL     OW 4846   1.300   2.315   6.277
 1501SOL    HW1 4847   1.241   2.395   6.281
 1501SOL    HW2 4848   1.315   2.280   6.370
 1502SOL     OW 4849   1.593   2.083   6.468
 1502SOL    HW1 4850   1.509   2.082   6.522
 1502SOL    HW2 4851   1.595   2.166   6.412
 1503SOL     OW 4852   0.039   2.939   5.886
 1503SOL    HW1 4853   0.138   2.928   5.877
 1503SOL    HW2 4854  -0.001   2.853   5.918
 1504SOL     OW 4855   0.875   3.508   5.923
 1504SOL    HW1 4856   0.798   3.473   5.869
 1504SOL    HW2 4857   0.843   3.579   5.985
 1505SOL     OW 4858   0.230   4.352   0.113
 1505SOL    HW1 4859   0.137   4.350   0.150
 1505SOL    HW2 4860   0.231   4.313   0.021
 1506SOL     OW 4861   0.225   3.999   0.996
 1506SOL    HW1 4862   0.260   3.982   1.088
 1506SOL    HW2 4863   0.137   3.954   0.984
 1507SOL     OW 4864   0.019   4.092   0.647
 1507SOL    HW1 4865  -0.063   4.135   0.686
 1507SOL    HW2 4866  -0.009   4.019   0.584
 1508SOL     OW 4867   0.569   4.999   1.165
 1508SOL    HW1 4868   0.476   4.992   1.128
 1508SOL    HW2 4869   0.580   5.088   1.209
 1509SOL     OW 4870   1.555   5.235   0.703
 1509SOL    HW1 4871   1.498   5.219   0.784
 1509SOL    HW2 4872   1.496   5.245   0.623
 1510SOL     OW 4873   1.135   4.427   0.717
 1510SOL    HW1 4874   1.192   4.505   0.692
 1510SOL    HW2 4875   1.075   4.453   0.793
 1511SOL     OW 4876   1.755   4.331   0.231
 1511SOL    HW1 4877   1.743   4.318   0.132
 1511SOL    HW2 4878   1.725   4.250   0.280
 1512SOL     OW 4879   0.768   4.868   1.023
 1512SOL    HW1 4880   0.690   4.885   1.083
 1512SOL    HW2 4881   0.802   4.955   0.987
 1513SOL     OW 4882   0.850   4.522   1.823
 1513SOL    HW1 4883   0.846   4.598   1.888
 1513SOL    HW2 4884   0.872   4.558   1.732
 1514SOL     OW 4885   0.685   4.736   0.665
 1514SOL    HW1 4886   0.754   4.720   0.735
 1514SOL    HW2 4887   0.612   4.793   0.703
 1515SOL     OW 4888   0.686   4.885   1.803
 1515SOL    HW1 4889   0.746   4.964   1.817
 1515SOL    HW2 4890   0.600   4.916   1.762
 1516SOL     OW 4891   0.335   5.159   1.061
 1516SOL    HW1 4892   0.257   5.128   1.008
 1516SOL    HW2 4893   0.393   5.217   1.004
 1517SOL     OW 4894   1.460   5.229   1.339
 1517SOL    HW1 4895   1.484   5.323   1.365
 1517SOL    HW2 4896   1.444   5.175   1.421
 1518SOL     OW 4897   0.438   4.116   1.499
 1518SOL    HW1 4898   0.520   4.060   1.508
 1518SOL    HW2 4899   0.357   4.058   1.503
 1519SOL     OW 4900   1.603   4.171   0.737
 1519SOL    HW1 4901   1.529   4.217   0.687
 1519SOL    HW2 4902   1.654   4.239   0.790
 1520SOL     OW 4903   0.231   5.437   0.483
 1520SOL    HW1 4904   0.265   5.514   0.537
 1520SOL    HW2 4905   0.275   5.437   0.393
 1521SOL     OW 4906   1.127   5.065   1.690
 1521SOL    HW1 4907   1.174   5.065   1.778
 1521SOL    HW2 4908   1.079   4.978   1.679
 1522SOL     OW 4909   0.230   5.158   0.538
 1522SOL    HW1 4910   0.204   5.254   0.538
 1522SOL    HW2 4911   0.159   5.104   0.583
 1523SOL     OW 4912   0.240   4.815   0.886
 1523SOL    HW1 4913   0.254   4.731   0.938
 1523SOL    HW2 4914   0.185   4.879   0.941
 1524SOL     OW 4915   0.620   5.510   1.439
 1524SOL    HW1 4916   0.528   5.493   1.474
 1524SOL    HW2 4917   0.648   5.602   1.465
 1525SOL     OW 4918   0.606   4.688   0.123
 1525SOL    HW1 4919   0.613   4.772   0.069
 1525SOL    HW2 4920   0.652   4.701   0.211
 1526SOL     OW 4921   1.594   3.838   1.480
 1526SOL    HW1 4922   1.576   3.905   1.408
 1526SOL    HW2 4923   1.591   3.884   1.569
 1527SOL     OW 4924   0.122   4.367   0.563
 1527SOL    HW1 4925   0.077   4.279   0.580
 1527SOL    HW2 4926   0.121   4.421   0.647
 1528SOL     OW 4927   1.842   5.491   0.359
 1528SOL    HW1 4928   1.896   5.462   0.439
 1528SOL    HW2 4929   1.872   5.581   0.330
 1529SOL     OW 4930   0.027   5.320   0.117
 1529SOL    HW1 4931   0.008   5.224   0.138
 1529SOL    HW2 4932  -0.006   5.378   0.192
 1530SOL     OW 4933   1.689   4.646   0.612
 1530SOL    HW1 4934   1.784   4.617   0.620
 1530SOL    HW2 4935   1.681   4.711   0.537
 1531SOL     OW 4936   1.641   4.832   0.432
 1531SOL    HW1 4937   1.727   4.834   0.380
 1531SOL    HW2 4938   1.655   4.879   0.520
 1532SOL     OW 4939   0.113   4.461   1.597
 1532SOL    HW1 4940   0.201   4.448   1.642
 1532SOL    HW2 4941   0.100   4.558   1.575
 1533SOL     OW 4942   0.613   5.089   0.726
 1533SOL    HW1 4943   0.564   5.002   0.735
 1533SOL    HW2 4944   0.590   5.132   0.639
 1534SOL     OW 4945   1.293   4.952   1.423
 1534SOL    HW1 4946   1.330   4.879   1.365
 1534SOL    HW2 4947   1.345   4.957   1.508
 1535SOL     OW 4948   0.809   3.728   0.502
 1535SOL    HW1 4949   0.849   3.819   0.493
 1535SOL    HW2 4950   0.709   3.736   0.508
 1536SOL     OW 4951   0.197   4.700   1.264
 1536SOL    HW1 4952   0.286   4.655   1.250
 1536SOL    HW2 4953   0.124   4.635   1.245
 1537SOL     OW 4954   1.525   4.723   0.190
 1537SOL    HW1 4955   1.462   4.647   0.203
 1537SOL    HW2 4956   1.573   4.741   0.276
 1538SOL     OW 4957   1.187   5.516   1.616
 1538SOL    HW1 4958   1.211   5.576   1.540
 1538SOL    HW2 4959   1.194   5.421   1.586
 1539SOL     OW 4960   0.317   3.975   1.801
 1539SOL    HW1 4961   0.388   4.046   1.807
 1539SOL    HW2 4962   0.229   4.014   1.829
 1540SOL     OW 4963   1.466   5.141   0.953
 1540SOL    HW1 4964   1.407   5.147   1.033
 1540SOL    HW2 4965   1.451   5.053   0.907
 1541SOL     OW 4966   1.667   5.438   0.572
 1541SOL    HW1 4967   1.626   5.415   0.484
 1541SOL    HW2 4968   1.649   5.364   0.637
 1542SOL     OW 4969   0.598   4.453   0.270
 1542SOL    HW1 4970   0.622   4.522   0.202
 1542SOL    HW2 4971   0.520   4.486   0.324
 1543SOL     OW 4972   1.281   4.069   0.944
 1543SOL    HW1 4973   1.195   4.019   0.931
 1543SOL    HW2 4974   1.343   4.015   1.000
 1544SOL     OW 4975   1.576   5.386   0.307
 1544SOL    HW1 4976   1.665   5.432   0.310
 1544SOL    HW2 4977   1.555   5.362   0.212
 1545SOL     OW 4978   0.807   4.329   1.465
 1545SOL    HW1 4979   0.760   4.326   1.554
 1545SOL    HW2 4980   0.756   4.274   1.399
 1546SOL     OW 4981   1.394   4.193   1.674
 1546SOL    HW1 4982   1.374   4.236   1.762
 1546SOL    HW2 4983   1.472   4.131   1.683
 1547SOL     OW 4984   0.973   4.614   1.572
 1547SOL    HW1 4985   1.019   4.530   1.543
 1547SOL    HW2 4986   0.917   4.648   1.497
 1548SOL     OW 4987   0.991   4.134   1.242
 1548SOL    HW1 4988   0.914   4.168   1.296
 1548SOL    HW2 4989   0.957   4.083   1.163
 1549SOL     OW 4990   1.041   4.425   0.429
 1549SOL    HW1 4991   1.067   4.421   0.525
 1549SOL    HW2 4992   0.956   4.374   0.415
 1550SOL     OW 4993   0.076   4.535   0.789
 1550SOL    HW1 4994   0.175   4.523   0.798
 1550SOL    HW2 4995   0.052   4.630   0.810
 1551SOL     OW 4996   0.130   5.545   1.571
 1551SOL    HW1 4997   0.120   5.530   1.670
 1551SOL    HW2 4998   0.044   5.581   1.535
 1552SOL     OW 4999   0.865   4.072   0.195
 1552SOL    HW1 5000   0.924   4.135   0.146
 1552SOL    HW2 5001   0.884   3.978   0.166
 1553SOL     OW 5002   1.719   4.309   1.831
 1553SOL    HW1 5003   1.693   4.398   1.795
 1553SOL    HW2 5004   1.717   4.241   1.758
 1554SOL     OW 5005   1.362   4.868   0.545
 1554SOL    HW1 5006   1.445   4.839   0.497
 1554SOL    HW2 5007   1.313   4.935   0.489
 1555SOL     OW 5008   0.550   3.920   0.885
 1555SOL    HW1 5009   0.545   3.915   0.985
 1555SOL    HW2 5010   0.552   4.016   0.856
 1556SOL     OW 5011   1.008   5.180   0.477
 1556SOL    HW1 5012   0.962   5.252   0.425
 1556SOL    HW2 5013   1.004   5.200   0.575
 1557SOL     OW 5014   0.351   5.525   0.853
 1557SOL    HW1 5015   0.401   5.439   0.859
 1557SOL    HW2 5016   0.416   5.602   0.850
 1558SOL     OW 5017   1.795   4.790   0.873
 1558SOL    HW1 5018   1.733   4.775   0.797
 1558SOL    HW2 5019   1.743   4.801   0.958
 1559SOL     OW 5020   1.227   5.274   1.506
 1559SOL    HW1 5021   1.233   5.197   1.570
 1559SOL    HW2 5022   1.175   5.248   1.426
 1560SOL     OW 5023   0.321   4.667   0.242
 1560SOL    HW1 5024   0.403   4.706   0.200
 1560SOL    HW2 5025   0.294   4.585   0.193
 1561SOL     OW 5026   1.458   4.459   0.728
 1561SOL    HW1 5027   1.453   4.394   0.803
 1561SOL    HW2 5028   1.538   4.518   0.741
 1562SOL     OW 5029   0.461   4.990   1.727
 1562SOL    HW1 5030   0.411   4.991   1.641
 1562SOL    HW2 5031   0.398   4.972   1.803
 1563SOL     OW 5032   1.111   5.500   0.237
 1563SOL    HW1 5033   1.051   5.438   0.287
 1563SOL    HW2 5034   1.142   5.456   0.152
 1564SOL     OW 5035   0.202   4.009   1.498
 1564SOL    HW1 5036   0.122   4.069   1.485
 1564SOL    HW2 5037   0.192   3.960   1.584
 1565SOL     OW 5038   1.632   5.101   0.081
 1565SOL    HW1 5039   1.600   5.195   0.071
 1565SOL    HW2 5040   1.556   5.038   0.069
 1566SOL     OW 5041   0.464   5.467   0.323
 1566SOL    HW1 5042   0.497   5.506   0.409
 1566SOL    HW2 5043   0.540   5.460   0.258
 1567SOL     OW 5044   1.400   3.831   0.426
 1567SOL    HW1 5045   1.376   3.794   0.336
 1567SOL    HW2 5046   1.499   3.847   0.430
 1568SOL     OW 5047   0.249   5.509   1.241
 1568SOL    HW1 5048   0.306   5.444   1.291
 1568SOL    HW2 5049   0.233   5.476   1.148
 1569SOL     OW 5050   0.940   5.422   0.904
 1569SOL    HW1 5051   1.020   5.365   0.925
 1569SOL    HW2 5052   0.891   5.382   0.827
 1570SOL     OW 5053   0.382   4.424   0.480
 1570SOL    HW1 5054   0.427   4.334   0.477
 1570SOL    HW2 5055   0.288   4.413   0.513
 1571SOL     OW 5056   1.547   3.946   1.729
 1571SOL    HW1 5057   1.542   3.983   1.821
 1571SOL    HW2 5058   1.475   3.877   1.717
 1572SOL     OW 5059   0.614   3.846   0.117
 1572SOL    HW1 5060   0.712   3.824   0.124
 1572SOL    HW2 5061   0.583   3.829   0.024
 1573SOL     OW 5062   0.781   3.988   1.749
 1573SOL    HW1 5063   0.848   3.927   1.792
 1573SOL    HW2 5064   0.708   4.007   1.814
 1574SOL     OW 5065   0.888   5.238   1.195
 1574SOL    HW1 5066   0.865   5.213   1.101
 1574SOL    HW2 5067   0.949   5.169   1.234
 1575SOL     OW 5068   1.351   4.314   1.433
 1575SOL    HW1 5069   1.379   4.271   1.518
 1575SOL    HW2 5070   1.376   4.410   1.434
 1576SOL     OW 5071   0.803   5.126   0.924
 1576SOL    HW1 5072   0.893   5.140   0.882
 1576SOL    HW2 5073   0.732   5.128   0.853
 1577SOL     OW 5074   0.922   4.227   0.899
 1577SOL    HW1 5075   0.897   4.218   0.803
 1577SOL    HW2 5076   0.970   4.145   0.930
 1578SOL     OW 5077   0.539   3.788   0.512
 1578SOL    HW1 5078   0.458   3.789   0.570
 1578SOL    HW2 5079   0.542   3.871   0.457
 1579SOL     OW 5080   1.434   4.912   0.041
 1579SOL    HW1 5081   1.466   4.836   0.098
 1579SOL    HW2 5082   1.342   4.939   0.071
 1580SOL     OW 5083   0.297   3.759   0.171
 1580SOL    HW1 5084   0.346   3.843   0.150
 1580SOL    HW2 5085   0.359   3.694   0.216
 1581SOL     OW 5086   0.935   3.960   0.480
 1581SOL    HW1 5087   0.887   4.001   0.402
 1581SOL    HW2 5088   1.034   3.958   0.461
 1582SOL     OW 5089   1.076   4.407   1.464
 1582SOL    HW1 5090   0.996   4.346   1.467
 1582SOL    HW2 5091   1.157   4.354   1.440
 1583SOL     OW 5092   1.227   5.294   0.793
 1583SOL    HW1 5093   1.248   5.368   0.728
 1583SOL    HW2 5094   1.295   5.294   0.866
 1584SOL     OW 5095   0.459   4.876   0.741
 1584SOL    HW1 5096   0.388   4.849   0.806
 1584SOL    HW2 5097   0.433   4.848   0.648
 1585SOL     OW 5098   1.271   5.521   0.591
 1585SOL    HW1 5099   1.315   5.585   0.527
 1585SOL    HW2 5100   1.221   5.573   0.661
 1586SOL     OW 5101   1.032   4.273   0.016
 1586SOL    HW1 5102   0.991   4.355  -0.023
 1586SOL    HW2 5103   1.096   4.299   0.089
 1587SOL     OW 5104   0.078   4.280   1.386
 1587SOL    HW1 5105   0.170   4.279   1.345
 1587SOL    HW2 5106   0.072   4.354   1.453
 1588SOL     OW 5107   0.561   3.946   1.147
 1588SOL    HW1 5108   0.599   3.862   1.184
 1588SOL    HW2 5109   0.473   3.965   1.191
 1589SOL     OW 5110   0.866   4.178   0.642
 1589SOL    HW1 5111   0.834   4.250   0.580
 1589SOL    HW2 5112   0.890   4.097   0.589
 1590SOL     OW 5113   1.017   3.763   0.753
 1590SOL    HW1 5114   0.945   3.768   0.684
 1590SOL    HW2 5115   0.993   3.694   0.822
 1591SOL     OW 5116   1.429   4.897   0.867
 1591SOL    HW1 5117   1.374   4.813   0.860
 1591SOL    HW2 5118   1.455   4.926   0.775
 1592SOL     OW 5119   1.466   4.314   0.992
 1592SOL    HW1 5120   1.436   4.219   0.999
 1592SOL    HW2 5121   1.539   4.330   1.058
 1593SOL     OW 5122   1.857   4.557   0.377
 1593SOL    HW1 5123   1.899   4.493   0.441
 1593SOL    HW2 5124   1.819   4.506   0.299
 1594SOL     OW 5125   0.488   5.109   0.174
 1594SOL    HW1 5126   0.401   5.094   0.221
 1594SOL    HW2 5127   0.471   5.135   0.079
 1595SOL     OW 5128   1.664   5.004   0.657
 1595SOL    HW1 5129   1.763   5.012   0.671
 1595SOL    HW2 5130   1.619   5.088   0.688
 1596SOL     OW 5131   1.390   4.299   0.078
 1596SOL    HW1 5132   1.336   4.278   0.159
 1596SOL    HW2 5133   1.481   4.258   0.087
 1597SOL     OW 5134   0.527   3.980   0.328
 1597SOL    HW1 5135   0.554   3.921   0.253
 1597SOL    HW2 5136   0.527   4.075   0.297
 1598SOL     OW 5137   1.754   4.947   1.588
 1598SOL    HW1 5138   1.845   4.908   1.575
 1598SOL    HW2 5139   1.762   5.043   1.612
 1599SOL     OW 5140   1.064   5.071   1.340
 1599SOL    HW1 5141   0.984   5.048   1.395
 1599SOL    HW2 5142   1.147   5.045   1.389
 1600SOL     OW 5143   1.592   5.353   1.625
 1600SOL    HW1 5144   1.619   5.387   1.535
 1600SOL    HW2 5145   1.671   5.315   1.671
 1601SOL     OW 5146   1.111   4.919   1.100
 1601SOL    HW1 5147   1.071   4.963   1.181
 1601SOL    HW2 5148   1.070   4.956   1.017
 1602SOL     OW 5149   1.638   4.823   1.079
 1602SOL    HW1 5150   1.643   4.904   1.138
 1602SOL    HW2 5151   1.552   4.825   1.028
 1603SOL     OW 5152   0.915   3.813   1.402
 1603SOL    HW1 5153   0.940   3.793   1.307
 1603SOL    HW2 5154   0.987   3.869   1.444
 1604SOL     OW 5155   0.980   4.840   1.719
 1604SOL    HW1 5156   0.881   4.846   1.729
 1604SOL    HW2 5157   1.003   4.760   1.663
 1605SOL     OW 5158   0.705   4.774   0.368
 1605SOL    HW1 5159   0.691   4.781   0.467
 1605SOL    HW2 5160   0.789   4.723   0.350
 1606SOL     OW 5161   0.410   4.537   1.251
 1606SOL    HW1 5162   0.496   4.549   1.301
 1606SOL    HW2 5163   0.368   4.450   1.278
 1607SOL     OW 5164   1.274   4.110   1.262
 1607SOL    HW1 5165   1.295   4.184   1.326
 1607SOL    HW2 5166   1.185   4.127   1.219
 1608SOL     OW 5167   0.064   5.288   1.331
 1608SOL    HW1 5168   0.018   5.370   1.297
 1608SOL    HW2 5169   0.162   5.307   1.340
 1609SOL     OW 5170   0.367   4.824   0.501
 1609SOL    HW1 5171   0.360   4.907   0.445
 1609SOL    HW2 5172   0.371   4.744   0.441
 1610SOL     OW 5173   0.566   4.261   0.865
 1610SOL    HW1 5174   0.578   4.327   0.791
 1610SOL    HW2 5175   0.612   4.295   0.948
 1611SOL     OW 5176   1.252   5.072   0.388
 1611SOL    HW1 5177   1.302   5.149   0.428
 1611SOL    HW2 5178   1.157   5.074   0.420
 1612SOL     OW 5179   1.272   5.169   1.142
 1612SOL    HW1 5180   1.319   5.182   1.229
 1612SOL    HW2 5181   1.206   5.095   1.151
 1613SOL     OW 5182   1.582   4.363   0.472
 1613SOL    HW1 5183   1.551   4.424   0.545
 1613SOL    HW2 5184   1.632   4.415   0.403
 1614SOL     OW 5185   0.354   5.234   1.329
 1614SOL    HW1 5186   0.333   5.190   1.242
 1614SOL    HW2 5187   0.451   5.260   1.332
 1615SOL     OW 5188   0.402   4.475   1.598
 1615SOL    HW1 5189   0.470   4.530   1.551
 1615SOL    HW2 5190   0.442   4.387   1.625
 1616SOL     OW 5191   1.587   4.503   1.670
 1616SOL    HW1 5192   1.495   4.541   1.665
 1616SOL    HW2 5193   1.647   4.550   1.605
 1617SOL     OW 5194   1.013   3.829   1.770
 1617SOL    HW1 5195   1.019   3.914   1.718
 1617SOL    HW2 5196   1.045   3.753   1.713
 1618SOL     OW 5197   0.504   3.774   1.740
 1618SOL    HW1 5198   0.462   3.717   1.670
 1618SOL    HW2 5199   0.438   3.843   1.772
 1619SOL     OW 5200   0.573   4.594   1.029
 1619SOL    HW1 5201   0.617   4.683   1.020
 1619SOL    HW2 5202   0.510   4.594   1.106
 1620SOL     OW 5203   1.360   4.586   1.045
 1620SOL    HW1 5204   1.285   4.586   0.979
 1620SOL    HW2 5205   1.397   4.494   1.054
 1621SOL     OW 5206   1.209   4.249   0.275
 1621SOL    HW1 5207   1.222   4.165   0.329
 1621SOL    HW2 5208   1.180   4.323   0.335
 1622SOL     OW 5209   0.307   3.937   1.231
 1622SOL    HW1 5210   0.284   3.974   1.321
 1622SOL    HW2 5211   0.277   3.842   1.225
 1623SOL     OW 5212   0.037   5.034   1.282
 1623SOL    HW1 5213   0.090   4.985   1.350
 1623SOL    HW2 5214   0.059   5.132   1.287
 1624SOL     OW 5215   0.732   4.358   1.064
 1624SOL    HW1 5216   0.791   4.332   0.988
 1624SOL    HW2 5217   0.704   4.454   1.053
 1625SOL     OW 5218   1.728   4.659   1.854
 1625SOL    HW1 5219   1.682   4.652   1.765
 1625SOL    HW2 5220   1.666   4.703   1.920
 1626SOL     OW 5221   0.307   3.787   0.618
 1626SOL    HW1 5222   0.296   3.881   0.651
 1626SOL    HW2 5223   0.302   3.724   0.695
 1627SOL     OW 5224   1.622   4.091   0.374
 1627SOL    HW1 5225   1.624   4.015   0.438
 1627SOL    HW2 5226   1.574   4.168   0.414
 1628SOL     OW 5227   1.023   4.490   0.966
 1628SOL    HW1 5228   1.038   4.511   1.062
 1628SOL    HW2 5229   0.993   4.395   0.957
 1629SOL     OW 5230   0.980   5.297   1.700
 1629SOL    HW1 5231   0.960   5.341   1.612
 1629SOL    HW2 5232   1.019   5.206   1.684
 1630SOL     OW 5233   1.859   5.242   1.605
 1630SOL    HW1 5234   1.873   5.269   1.510
 1630SOL    HW2 5235   1.942   5.264   1.658
 1631SOL     OW 5236   0.350   4.622   1.804
 1631SOL    HW1 5237   0.426   4.666   1.852
 1631SOL    HW2 5238   0.385   4.575   1.722
 1632SOL     OW 5239   1.540   3.998   0.125
 1632SOL    HW1 5240   1.479   3.923   0.148
 1632SOL    HW2 5241   1.562   4.050   0.208
 1633SOL     OW 5242   1.303   4.562   0.042
 1633SOL    HW1 5243   1.337   4.469   0.057
 1633SOL    HW2 5244   1.321   4.589  -0.053
 1634SOL     OW 5245   1.068   5.057   0.849
 1634SOL    HW1 5246   1.075   4.973   0.794
 1634SOL    HW2 5247   1.130   5.126   0.813
 1635SOL     OW 5248   0.319   4.534   0.949
 1635SOL    HW1 5249   0.412   4.570   0.954
 1635SOL    HW2 5250   0.313   4.449   1.001
 1636SOL     OW 5251   0.339   4.233   1.006
 1636SOL    HW1 5252   0.287   4.150   0.989
 1636SOL    HW2 5253   0.416   4.238   0.942
 1637SOL     OW 5254   1.138   4.104   1.678
 1637SOL    HW1 5255   1.093   4.167   1.742
 1637SOL    HW2 5256   1.231   4.135   1.661
 1638SOL     OW 5257   1.160   3.931   1.477
 1638SOL    HW1 5258   1.160   3.995   1.554
 1638SOL    HW2 5259   1.188   3.979   1.394
 1639SOL     OW 5260   0.008   5.050   0.200
 1639SOL    HW1 5261  -0.085   5.071   0.169
 1639SOL    HW2 5262   0.018   4.951   0.213
 1640SOL     OW 5263   0.088   5.525   0.927
 1640SOL    HW1 5264   0.046   5.439   0.900
 1640SOL    HW2 5265   0.182   5.528   0.893
 1641SOL     OW 5266   0.504   5.292   0.910
 1641SOL    HW1 5267   0.570   5.366   0.919
 1641SOL    HW2 5268   0.548   5.213   0.868
 1642SOL     OW 5269   1.002   4.520   1.238
 1642SOL    HW1 5270   1.043   4.488   1.324
 1642SOL    HW2 5271   0.906   4.493   1.235
 1643SOL     OW 5272   0.040   4.268   1.114
 1643SOL    HW1 5273   0.125   4.235   1.073
 1643SOL    HW2 5274   0.053   4.283   1.212
 1644SOL     OW 5275   0.189   4.244   1.722
 1644SOL    HW1 5276   0.248   4.204   1.652
 1644SOL    HW2 5277   0.131   4.315   1.681
 1645SOL     OW 5278   1.369   4.674   1.660
 1645SOL    HW1 5279   1.408   4.763   1.680
 1645SOL    HW2 5280   1.379   4.654   1.563
 1646SOL     OW 5281   0.815   4.296   0.325
 1646SOL    HW1 5282   0.822   4.207   0.279
 1646SOL    HW2 5283   0.721   4.330   0.317
 1647SOL     OW 5284   1.657   4.328   1.206
 1647SOL    HW1 5285   1.619   4.259   1.268
 1647SOL    HW2 5286   1.739   4.292   1.162
 1648SOL     OW 5287   0.252   5.288   1.744
 1648SOL    HW1 5288   0.222   5.345   1.820
 1648SOL    HW2 5289   0.245   5.191   1.770
 1649SOL     OW 5290   0.671   4.188   1.269
 1649SOL    HW1 5291   0.637   4.099   1.239
 1649SOL    HW2 5292   0.697   4.242   1.189
 1650SOL     OW 5293   0.930   5.402   1.465
 1650SOL    HW1 5294   0.906   5.384   1.370
 1650SOL    HW2 5295   0.960   5.496   1.475
 1651SOL     OW 5296   0.473   4.224   0.191
 1651SOL    HW1 5297   0.534   4.304   0.195
 1651SOL    HW2 5298   0.378   4.255   0.198
 1652SOL     OW 5299   0.159   4.861   1.466
 1652SOL    HW1 5300   0.181   4.800   1.542
 1652SOL    HW2 5301   0.169   4.812   1.380
 1653SOL     OW 5302   1.347   4.783   1.234
 1653SOL    HW1 5303   1.371   4.720   1.160
 1653SOL    HW2 5304   1.257   4.823   1.216
 1654SOL     OW 5305   1.302   4.579   0.309
 1654SOL    HW1 5306   1.216   4.548   0.351
 1654SOL    HW2 5307   1.298   4.565   0.210
 1655SOL     OW 5308   1.759   5.471   1.154
 1655SOL    HW1 5309   1.820   5.501   1.081
 1655SOL    HW2 5310   1.721   5.382   1.132
 1656SOL     OW 5311   1.252   5.455   1.128
 1656SOL    HW1 5312   1.336   5.460   1.074
 1656SOL    HW2 5313   1.229   5.359   1.146
 1657SOL     OW 5314   0.083   4.982   1.022
 1657SOL    HW1 5315   0.078   4.981   1.122
 1657SOL    HW2 5316   0.000   4.941   0.984
 1658SOL     OW 5317   0.688   5.386   1.716
 1658SOL    HW1 5318   0.632   5.467   1.725
 1658SOL    HW2 5319   0.740   5.390   1.630
 1659SOL     OW 5320   0.903   3.810   0.133
 1659SOL    HW1 5321   0.954   3.811   0.047
 1659SOL    HW2 5322   0.959   3.768   0.204
 1660SOL     OW 5323   1.726   3.859   0.523
 1660SOL    HW1 5324   1.799   3.842   0.456
 1660SOL    HW2 5325   1.695   3.772   0.561
 1661SOL     OW 5326   1.388   5.297   0.477
 1661SOL    HW1 5327   1.455   5.309   0.403
 1661SOL    HW2 5328   1.348   5.386   0.500
 1662SOL     OW 5329   0.130   5.518   1.851
 1662SOL    HW1 5330   0.089   5.444   1.904
 1662SOL    HW2 5331   0.194   5.569   1.909
 1663SOL     OW 5332   1.280   4.651   0.672
 1663SOL    HW1 5333   1.340   4.570   0.674
 1663SOL    HW2 5334   1.320   4.720   0.612
 1664SOL     OW 5335   0.830   4.997   1.422
 1664SOL    HW1 5336   0.825   5.030   1.517
 1664SOL    HW2 5337   0.744   5.016   1.376
 1665SOL     OW 5338   0.672   5.340   0.154
 1665SOL    HW1 5339   0.681   5.350   0.055
 1665SOL    HW2 5340   0.632   5.251   0.175
 1666SOL     OW 5341   1.650   5.444   1.394
 1666SOL    HW1 5342   1.703   5.454   1.310
 1666SOL    HW2 5343   1.623   5.534   1.428
 1667SOL     OW 5344   1.841   3.899   0.963
 1667SOL    HW1 5345   1.880   3.814   0.927
 1667SOL    HW2 5346   1.743   3.901   0.944
 1668SOL     OW 5347   0.263   4.050   0.720
 1668SOL    HW1 5348   0.184   4.101   0.686
 1668SOL    HW2 5349   0.254   4.035   0.818
 1669SOL     OW 5350   1.194   5.336   0.031
 1669SOL    HW1 5351   1.200   5.243   0.068
 1669SOL    HW2 5352   1.135   5.336  -0.049
 1670SOL     OW 5353   0.822   4.726   1.372
 1670SOL    HW1 5354   0.862   4.725   1.280
 1670SOL    HW2 5355   0.832   4.818   1.412
 1671SOL     OW 5356   0.916   4.634   0.291
 1671SOL    HW1 5357   0.979   4.672   0.223
 1671SOL    HW2 5358   0.956   4.551   0.330
 1672SOL     OW 5359   1.504   5.331   0.044
 1672SOL    HW1 5360   1.412   5.368   0.051
 1672SOL    HW2 5361   1.542   5.351  -0.046
 1673SOL     OW 5362   0.372   5.012   1.490
 1673SOL    HW1 5363   0.359   5.105   1.456
 1673SOL    HW2 5364   0.288   4.960   1.477
 1674SOL     OW 5365   1.614   5.016   1.289
 1674SOL    HW1 5366   1.674   5.019   1.369
 1674SOL    HW2 5367   1.539   5.080   1.302
 1675SOL     OW 5368   1.039   4.822   0.696
 1675SOL    HW1 5369   0.969   4.775   0.750
 1675SOL    HW2 5370   1.098   4.754   0.653
 1676SOL     OW 5371   1.014   3.960   0.971
 1676SOL    HW1 5372   1.006   3.924   0.878
 1676SOL    HW2 5373   1.012   3.884   1.036
 1677SOL     OW 5374   0.590   5.211   0.491
 1677SOL    HW1 5375   0.632   5.153   0.421
 1677SOL    HW2 5376   0.546   5.290   0.447
 1678SOL     OW 5377   1.709   4.109   1.381
 1678SOL    HW1 5378   1.782   4.178   1.385
 1678SOL    HW2 5379   1.737   4.034   1.322
 1679SOL     OW 5380   0.255   5.072   0.290
 1679SOL    HW1 5381   0.159   5.073   0.263
 1679SOL    HW2 5382   0.267   5.125   0.374
 1680SOL     OW 5383   0.105   4.737   1.726
 1680SOL    HW1 5384   0.028   4.704   1.780
 1680SOL    HW2 5385   0.190   4.707   1.768
 1681SOL     OW 5386   0.672   3.927   1.489
 1681SOL    HW1 5387   0.762   3.911   1.449
 1681SOL    HW2 5388   0.680   3.932   1.588
 1682SOL     OW 5389   0.075   4.069   0.033
 1682SOL    HW1 5390  -0.017   4.041   0.004
 1682SOL    HW2 5391   0.106   4.146  -0.023
 1683SOL     OW 5392   1.440   4.580   1.398
 1683SOL    HW1 5393   1.383   4.632   1.335
 1683SOL    HW2 5394   1.536   4.592   1.374
 1684SOL     OW 5395   0.072   3.890   0.318
 1684SOL    HW1 5396   0.055   3.973   0.264
 1684SOL    HW2 5397   0.162   3.853   0.296
 1685SOL     OW 5398   1.183   5.059   0.119
 1685SOL    HW1 5399   1.084   5.048   0.121
 1685SOL    HW2 5400   1.217   5.074   0.212
 1686SOL     OW 5401   0.613   4.566   1.431
 1686SOL    HW1 5402   0.669   4.647   1.414
 1686SOL    HW2 5403   0.672   4.486   1.434
 1687SOL     OW 5404   1.493   5.491   0.959
 1687SOL    HW1 5405   1.526   5.555   0.890
 1687SOL    HW2 5406   1.559   5.485   1.034
 1688SOL     OW 5407   0.716   4.289   1.708
 1688SOL    HW1 5408   0.735   4.354   1.782
 1688SOL    HW2 5409   0.776   4.209   1.717
 1689SOL     OW 5410   1.450   4.944   1.633
 1689SOL    HW1 5411   1.441   4.934   1.732
 1689SOL    HW2 5412   1.546   4.937   1.607
 1690SOL     OW 5413   0.390   5.465   1.560
 1690SOL    HW1 5414   0.299   5.506   1.558
 1690SOL    HW2 5415   0.383   5.371   1.592
 1691SOL     OW 5416   1.674   4.607   1.254
 1691SOL    HW1 5417   1.647   4.518   1.217
 1691SOL    HW2 5418   1.675   4.675   1.181
 1692SOL     OW 5419   1.225   4.049   0.449
 1692SOL    HW1 5420   1.290   3.975   0.438
 1692SOL    HW2 5421   1.245   4.099   0.533
 1693SOL     OW 5422   0.594   4.469   0.652
 1693SOL    HW1 5423   0.644   4.554   0.633
 1693SOL    HW2 5424   0.506   4.471   0.604
 1694SOL     OW 5425   1.777   4.066   1.642
 1694SOL    HW1 5426   1.760   4.097   1.548
 1694SOL    HW2 5427   1.693   4.029   1.680
 1695SOL     OW 5428   1.730   4.658   1.517
 1695SOL    HW1 5429   1.768   4.749   1.532
 1695SOL    HW2 5430   1.722   4.641   1.418
 1696SOL     OW 5431   0.859   5.098   0.016
 1696SOL    HW1 5432   0.813   5.113   0.104
 1696SOL    HW2 5433   0.903   5.183  -0.014
 1697SOL     OW 5434   0.661   5.514   0.953
 1697SOL    HW1 5435   0.615   5.602   0.940
 1697SOL    HW2 5436   0.760   5.526   0.946
 1698SOL     OW 5437   0.859   4.680   0.861
 1698SOL    HW1 5438   0.913   4.611   0.909
 1698SOL    HW2 5439   0.827   4.749   0.927
 1699SOL     OW 5440   1.083   4.708   0.087
 1699SOL    HW1 5441   1.060   4.761   0.005
 1699SOL    HW2 5442   1.164   4.652   0.068
 1700SOL     OW 5443   1.861   5.293   0.851
 1700SOL    HW1 5444   1.790   5.281   0.781
 1700SOL    HW2 5445   1.862   5.214   0.911
 1701SOL     OW 5446   0.221   5.038   1.844
 1701SOL    HW1 5447   0.156   4.965   1.823
 1701SOL    HW2 5448   0.225   5.052   1.942
 1702SOL     OW 5449   0.079   4.964   0.653
 1702SOL    HW1 5450   0.078   4.917   0.741
 1702SOL    HW2 5451   0.161   4.936   0.602
 1703SOL     OW 5452   0.672   5.115   1.624
 1703SOL    HW1 5453   0.594   5.065   1.662
 1703SOL    HW2 5454   0.669   5.210   1.655
 1704SOL     OW 5455   1.824   3.916   1.227
 1704SOL    HW1 5456   1.820   3.826   1.271
 1704SOL    HW2 5457   1.827   3.905   1.128
 1705SOL     OW 5458   0.428   4.148   0.520
 1705SOL    HW1 5459   0.458   4.076   0.458
 1705SOL    HW2 5460   0.389   4.108   0.603
 1706SOL     OW 5461   1.705   5.211   1.104
 1706SOL    HW1 5462   1.612   5.186   1.077
 1706SOL    HW2 5463   1.731   5.161   1.186
 1707SOL     OW 5464   0.317   4.271   1.280
 1707SOL    HW1 5465   0.355   4.212   1.352
 1707SOL    HW2 5466   0.357   4.245   1.192
 1708SOL     OW 5467   0.812   5.310   0.687
 1708SOL    HW1 5468   0.844   5.320   0.593
 1708SOL    HW2 5469   0.733   5.248   0.689
 1709SOL     OW 5470   1.424   3.938   1.112
 1709SOL    HW1 5471   1.476   3.873   1.167
 1709SOL    HW2 5472   1.375   4.001   1.173
 1710SOL     OW 5473   1.001   3.758   1.154
 1710SOL    HW1 5474   0.938   3.686   1.123
 1710SOL    HW2 5475   1.094   3.722   1.154
 1711SOL     OW 5476   0.770   5.054   0.301
 1711SOL    HW1 5477   0.724   4.967   0.318
 1711SOL    HW2 5478   0.861   5.051   0.342
 1712SOL     OW 5479   0.618   5.291   1.284
 1712SOL    HW1 5480   0.613   5.373   1.341
 1712SOL    HW2 5481   0.707   5.288   1.239
 1713SOL     OW 5482   1.352   3.776   0.168
 1713SOL    HW1 5483   1.387   3.735   0.084
 1713SOL    HW2 5484   1.262   3.738   0.188
 1714SOL     OW 5485   1.300   4.177   0.691
 1714SOL    HW1 5486   1.241   4.257   0.695
 1714SOL    HW2 5487   1.315   4.142   0.784
 1715SOL     OW 5488   1.593   3.945   0.882
 1715SOL    HW1 5489   1.509   3.944   0.936
 1715SOL    HW2 5490   1.595   4.028   0.826
 1716SOL     OW 5491   0.039   4.801   0.300
 1716SOL    HW1 5492   0.138   4.790   0.291
 1716SOL    HW2 5493  -0.001   4.715   0.332
 1717SOL     OW 5494   0.875   5.370   0.337
 1717SOL    HW1 5495   0.798   5.335   0.283
 1717SOL    HW2 5496   0.843   5.441   0.399
 1718SOL     OW 5497   0.230   4.352   1.975
 1718SOL    HW1 5498   0.137   4.350   2.012
 1718SOL    HW2 5499   0.231   4.313   1.883
 1719SOL     OW 5500   0.225   3.999   2.858
 1719SOL    HW1 5501   0.260   3.982   2.950
 1719SOL    HW2 5502   0.137   3.954   2.846
 1720SOL     OW 5503   0.019   4.092   2.509
 1720SOL    HW1 5504  -0.063   4.135   2.548
 1720SOL    HW2 5505  -0.009   4.019   2.446
 1721SOL     OW 5506   0.569   4.999   3.027
 1721SOL    HW1 5507   0.476   4.992   2.990
 1721SOL    HW2 5508   0.580   5.088   3.071
 1722SOL     OW 5509   1.555   5.235   2.565
 1722SOL    HW1 5510   1.498   5.219   2.646
 1722SOL    HW2 5511   1.496   5.245   2.485
 1723SOL     OW 5512   1.135   4.427   2.579
 1723SOL    HW1 5513   1.192   4.505   2.554
 1723SOL    HW2 5514   1.075   4.453   2.655
 1724SOL     OW 5515   1.755   4.331   2.093
 1724SOL    HW1 5516   1.743   4.318   1.994
 1724SOL    HW2 5517   1.725   4.250   2.142
 1725SOL     OW 5518   0.768   4.868   2.885
 1725SOL    HW1 5519   0.690   4.885   2.945
 1725SOL    HW2 5520   0.802   4.955   2.849
 1726SOL     OW 5521   0.850   4.522   3.685
 1726SOL    HW1 5522   0.846   4.598   3.750
 1726SOL    HW2 5523   0.872   4.558   3.594
 1727SOL     OW 5524   0.685   4.736   2.527
 1727SOL    HW1 5525   0.754   4.720   2.597
 1727SOL    HW2 5526   0.612   4.793   2.565
 1728SOL     OW 5527   0.686   4.885   3.665
 1728SOL    HW1 5528   0.746   4.964   3.679
 1728SOL    HW2 5529   0.600   4.916   3.624
 1729SOL     OW 5530   0.335   5.159   2.923
 1729SOL    HW1 5531   0.257   5.128   2.870
 1729SOL    HW2 5532   0.393   5.217   2.866
 1730SOL     OW 5533   1.460   5.229   3.201
 1730SOL    HW1 5534   1.484   5.323   3.227
 1730SOL    HW2 5535   1.444   5.175   3.283
 1731SOL     OW 5536   0.438   4.116   3.361
 1731SOL    HW1 5537   0.520   4.060   3.370
 1731SOL    HW2 5538   0.357   4.058   3.365
 1732SOL     OW 5539   1.603   4.171   2.599
 1732SOL    HW1 5540   1.529   4.217   2.549
 1732SOL    HW2 5541   1.654   4.239   2.652
 1733SOL     OW 5542   0.231   5.437   2.345
 1733SOL    HW1 5543   0.265   5.514   2.399
 1733SOL    HW2 5544   0.275   5.437   2.255
 1734SOL     OW 5545   1.127   5.065   3.552
 1734SOL    HW1 5546   1.174   5.065   3.640
 1734SOL    HW2 5547   1.079   4.978   3.541
 1735SOL     OW 5548   0.230   5.158   2.400
 1735SOL    HW1 5549   0.204   5.254   2.400
 1735SOL    HW2 5550   0.159   5.104   2.445
 1736SOL     OW 5551   0.240   4.815   2.748
 1736SOL    HW1 5552   0.254   4.731   2.800
 1736SOL    HW2 5553   0.185   4.879   2.803
 1737SOL     OW 5554   0.620   5.510   3.301
 1737SOL    HW1 5555   0.528   5.493   3.336
 1737SOL    HW2 5556   0.648   5.602   3.327
 1738SOL     OW 5557   0.606   4.688   1.985
 1738SOL    HW1 5558   0.613   4.772   1.931
 1738SOL    HW2 5559   0.652   4.701   2.073
 1739SOL     OW 5560   1.594   3.838   3.342
 1739SOL    HW1 5561   1.576   3.905   3.270
 1739SOL    HW2 5562   1.591   3.884   3.431
 1740SOL     OW 5563   0.122   4.367   2.425
 1740SOL    HW1 5564   0.077   4.279   2.442
 1740SOL    HW2 5565   0.121   4.421   2.509
 1741SOL     OW 5566   1.842   5.491   2.221
 1741SOL    HW1 5567   1.896   5.462   2.301
 1741SOL    HW2 5568   1.872   5.581   2.192
 1742SOL     OW 5569   0.027   5.320   1.979
 1742SOL    HW1 5570   0.008   5.224   2.000
 1742SOL    HW2 5571  -0.006   5.378   2.054
 1743SOL     OW 5572   1.689   4.646   2.474
 1743SOL    HW1 5573   1.784   4.617   2.482
 1743SOL    HW2 5574   1.681   4.711   2.399
 1744SOL     OW 5575   1.641   4.832   2.294
 1744SOL    HW1 5576   1.727   4.834   2.242
 1744SOL    HW2 5577   1.655   4.879   2.382
 1745SOL     OW 5578   0.113   4.461   3.459
 1745SOL    HW1 5579   0.201   4.448   3.504
 1745SOL    HW2 5580   0.100   4.558   3.437
 1746SOL     OW 5581   0.613   5.089   2.588
 1746SOL    HW1 5582   0.564   5.002   2.597
 1746SOL    HW2 5583   0.590   5.132   2.501
 1747SOL     OW 5584   1.293   4.952   3.285
 1747SOL    HW1 5585   1.330   4.879   3.227
 1747SOL    HW2 5586   1.345   4.957   3.370
 1748SOL     OW 5587   0.809   3.728   2.364
 1748SOL    HW1 5588   0.849   3.819   2.355
 1748SOL    HW2 5589   0.709   3.736   2.370
 1749SOL     OW 5590   0.197   4.700   3.126
 1749SOL    HW1 5591   0.286   4.655   3.112
 1749SOL    HW2 5592   0.124   4.635   3.107
 1750SOL     OW 5593   1.525   4.723   2.052
 1750SOL    HW1 5594   1.462   4.647   2.065
 1750SOL    HW2 5595   1.573   4.741   2.138
 1751SOL     OW 5596   1.187   5.516   3.478
 1751SOL    HW1 5597   1.211   5.576   3.402
 1751SOL    HW2 5598   1.194   5.421   3.448
 1752SOL     OW 5599   0.317   3.975   3.663
 1752SOL    HW1 5600   0.388   4.046   3.669
 1752SOL    HW2 5601   0.229   4.014   3.691
 1753SOL     OW 5602   1.466   5.141   2.815
 1753SOL    HW1 5603   1.407   5.147   2.895
 1753SOL    HW2 5604   1.451   5.053   2.769
 1754SOL     OW 5605   1.667   5.438   2.434
 1754SOL    HW1 5606   1.626   5.415   2.346
 1754SOL    HW2 5607   1.649   5.364   2.499
 1755SOL     OW 5608   0.598   4.453   2.132
 1755SOL    HW1 5609   0.622   4.522   2.064
 1755SOL    HW2 5610   0.520   4.486   2.186
 1756SOL     OW 5611   1.281   4.069   2.806
 1756SOL    HW1 5612   1.195   4.019   2.793
 1756SOL    HW2 5613   1.343   4.015   2.862
 1757SOL     OW 5614   1.576   5.386   2.169
 1757SOL    HW1 5615   1.665   5.432   2.172
 1757SOL    HW2 5616   1.555   5.362   2.074
 1758SOL     OW 5617   0.807   4.329   3.327
 1758SOL    HW1 5618   0.760   4.326   3.416
 1758SOL    HW2 5619   0.756   4.274   3.261
 1759SOL     OW 5620   1.394   4.193   3.536
 1759SOL    HW1 5621   1.374   4.236   3.624
 1759SOL    HW2 5622   1.472   4.131   3.545
 1760SOL     OW 5623   0.973   4.614   3.434
 1760SOL    HW1 5624   1.019   4.530   3.405
 1760SOL    HW2 5625   0.917   4.648   3.359
 1761SOL     OW 5626   0.991   4.134   3.104
 1761SOL    HW1 5627   0.914   4.168   3.158
 1761SOL    HW2 5628   0.957   4.083   3.025
 1762SOL     OW 5629   1.041   4.425   2.291
 1762SOL    HW1 5630   1.067   4.421   2.387
 1762SOL    HW2 5631   0.956   4.374   2.277
 1763SOL     OW 5632   0.076   4.535   2.651
 1763SOL    HW1 5633   0.175   4.523   2.660
 1763SOL    HW2 5634   0.052   4.630   2.672
 1764SOL     OW 5635   0.130   5.545   3.433
 1764SOL    HW1 5636   0.120   5.530   3.532
 1764SOL    HW2 5637   0.044   5.581   3.397
 1765SOL     OW 5638   0.865   4.072   2.057
 1765SOL    HW1 5639   0.924   4.135   2.008
 1765SOL    HW2 5640   0.884   3.978   2.028
 1766SOL     OW 5641   1.719   4.309   3.693
 1766SOL    HW1 5642   1.693   4.398   3.657
 1766SOL    HW2 5643   1.717   4.241   3.620
 1767SOL     OW 5644   1.362   4.868   2.407
 1767SOL    HW1 5645   1.445   4.839   2.359
 1767SOL    HW2 5646   1.313   4.935   2.351
 1768SOL     OW 5647   0.550   3.920   2.747
 1768SOL    HW1 5648   0.545   3.915   2.847
 1768SOL    HW2 5649   0.552   4.016   2.718
 1769SOL     OW 5650   1.008   5.180   2.339
 1769SOL    HW1 5651   0.962   5.252   2.287
 1769SOL    HW2 5652   1.004   5.200   2.437
 1770SOL     OW 5653   0.351   5.525   2.715
 1770SOL    HW1 5654   0.401   5.439   2.721
 1770SOL    HW2 5655   0.416   5.602   2.712
 1771SOL     OW 5656   1.795   4.790   2.735
 1771SOL    HW1 5657   1.733   4.775   2.659
 1771SOL    HW2 5658   1.743   4.801   2.820
 1772SOL     OW 5659   1.227   5.274   3.368
 1772SOL    HW1 5660   1.233   5.197   3.432
 1772SOL    HW2 5661   1.175   5.248   3.288
 1773SOL     OW 5662   0.321   4.667   2.104
 1773SOL    HW1 5663   0.403   4.706   2.062
 1773SOL    HW2 5664   0.294   4.585   2.055
 1774SOL     OW 5665   1.458   4.459   2.590
 1774SOL    HW1 5666   1.453   4.394   2.665
 1774SOL    HW2 5667   1.538   4.518   2.603
 1775SOL     OW 5668   0.461   4.990   3.589
 1775SOL    HW1 5669   0.411   4.991   3.503
 1775SOL    HW2 5670   0.398   4.972   3.665
 1776SOL     OW 5671   1.111   5.500   2.099
 1776SOL    HW1 5672   1.051   5.438   2.149
 1776SOL    HW2 5673   1.142   5.456   2.014
 1777SOL     OW 5674   0.202   4.009   3.360
 1777SOL    HW1 5675   0.122   4.069   3.347
 1777SOL    HW2 5676   0.192   3.960   3.446
 1778SOL     OW 5677   1.632   5.101   1.943
 1778SOL    HW1 5678   1.600   5.195   1.933
 1778SOL    HW2 5679   1.556   5.038   1.931
 1779SOL     OW 5680   0.464   5.467   2.185
 1779SOL    HW1 5681   0.497   5.506   2.271
 1779SOL    HW2 5682   0.540   5.460   2.120
 1780SOL     OW 5683   1.400   3.831   2.288
 1780SOL    HW1 5684   1.376   3.794   2.198
 1780SOL    HW2 5685   1.499   3.847   2.292
 1781SOL     OW 5686   0.249   5.509   3.103
 1781SOL    HW1 5687   0.306   5.444   3.153
 1781SOL    HW2 5688   0.233   5.476   3.010
 1782SOL     OW 5689   0.940   5.422   2.766
 1782SOL    HW1 5690   1.020   5.365   2.787
 1782SOL    HW2 5691   0.891   5.382   2.689
 1783SOL     OW 5692   0.382   4.424   2.342
 1783SOL    HW1 5693   0.427   4.334   2.339
 1783SOL    HW2 5694   0.288   4.413   2.375
 1784SOL     OW 5695   1.547   3.946   3.591
 1784SOL    HW1 5696   1.542   3.983   3.683
 1784SOL    HW2 5697   1.475   3.877   3.579
 1785SOL     OW 5698   0.614   3.846   1.979
 1785SOL    HW1 5699   0.712   3.824   1.986
 1785SOL    HW2 5700   0.583   3.829   1.886
 1786SOL     OW 5701   0.781   3.988   3.611
 1786SOL    HW1 5702   0.848   3.927   3.654
 1786SOL    HW2 5703   0.708   4.007   3.676
 1787SOL     OW 5704   0.888   5.238   3.057
 1787SOL    HW1 5705   0.865   5.213   2.963
 1787SOL    HW2 5706   0.949   5.169   3.096
 1788SOL     OW 5707   1.351   4.314   3.295
 1788SOL    HW1 5708   1.379   4.271   3.380
 1788SOL    HW2 5709   1.376   4.410   3.296
 1789SOL     OW 5710   0.803   5.126   2.786
 1789SOL    HW1 5711   0.893   5.140   2.744
 1789SOL    HW2 5712   0.732   5.128   2.715
 1790SOL     OW 5713   0.922   4.227   2.761
 1790SOL    HW1 5714   0.897   4.218   2.665
 1790SOL    HW2 5715   0.970   4.145   2.792
 1791SOL     OW 5716   0.539   3.788   2.374
 1791SOL    HW1 5717   0.458   3.789   2.432
 1791SOL    HW2 5718   0.542   3.871   2.319
 1792SOL     OW 5719   1.434   4.912   1.903
 1792SOL    HW1 5720   1.466   4.836   1.960
 1792SOL    HW2 5721   1.342   4.939   1.933
 1793SOL     OW 5722   0.297   3.759   2.033
 1793SOL    HW1 5723   0.346   3.843   2.012
 1793SOL    HW2 5724   0.359   3.694   2.078
 1794SOL     OW 5725   0.935   3.960   2.342
 1794SOL    HW1 5726   0.887   4.001   2.264
 1794SOL    HW2 5727   1.034   3.958   2.323
 1795SOL     OW 5728   1.076   4.407   3.326
 1795SOL    HW1 5729   0.996   4.346   3.329
 1795SOL    HW2 5730   1.157   4.354   3.302
 1796SOL     OW 5731   1.227   5.294   2.655
 1796SOL    HW1 5732   1.248   5.368   2.590
 1796SOL    HW2 5733   1.295   5.294   2.728
 1797SOL     OW 5734   0.459   4.876   2.603
 1797SOL    HW1 5735   0.388   4.849   2.668
 1797SOL    HW2 5736   0.433   4.848   2.510
 1798SOL     OW 5737   1.271   5.521   2.453
 1798SOL    HW1 5738   1.315   5.585   2.389
 1798SOL    HW2 5739   1.221   5.573   2.523
 1799SOL     OW 5740   1.032   4.273   1.878
 1799SOL    HW1 5741   0.991   4.355   1.839
 1799SOL    HW2 5742   1.096   4.299   1.951
 1800SOL     OW 5743   0.078   4.280   3.248
 1800SOL    HW1 5744   0.170   4.279   3.207
 1800SOL    HW2 5745   0.072   4.354   3.315
 1801SOL     OW 5746   0.561   3.946   3.009
 1801SOL    HW1 5747   0.599   3.862   3.046
 1801SOL    HW2 5748   0.473   3.965   3.053
 1802SOL     OW 5749   0.866   4.178   2.504
 1802SOL    HW1 5750   0.834   4.250   2.442
 1802SOL    HW2 5751   0.890   4.097   2.451
 1803SOL     OW 5752   1.017   3.763   2.615
 1803SOL    HW1 5753   0.945   3.768   2.546
 1803SOL    HW2 5754   0.993   3.694   2.684
 1804SOL     OW 5755   1.429   4.897   2.729
 1804SOL    HW1 5756   1.374   4.813   2.722
 1804SOL    HW2 5757   1.455   4.926   2.637
 1805SOL     OW 5758   1.466   4.314   2.854
 1805SOL    HW1 5759   1.436   4.219   2.861
 1805SOL    HW2 5760   1.539   4.330   2.920
 1806SOL     OW 5761   1.857   4.557   2.239
 1806SOL    HW1 5762   1.899   4.493   2.303
 1806SOL    HW2 5763   1.819   4.506   2.161
 1807SOL     OW 5764   0.488   5.109   2.036
 1807SOL    HW1 5765   0.401   5.094   2.083
 1807SOL    HW2 5766   0.471   5.135   1.941
 1808SOL     OW 5767   1.664   5.004   2.519
 1808SOL    HW1 5768   1.763   5.012   2.533
 1808SOL    HW2 5769   1.619   5.088   2.550
 1809SOL     OW 5770   1.390   4.299   1.940
 1809SOL    HW1 5771   1.336   4.278   2.021
 1809SOL    HW2 5772   1.481   4.258   1.949
 1810SOL     OW 5773   0.527   3.980   2.190
 1810SOL    HW1 5774   0.554   3.921   2.115
 1810SOL    HW2 5775   0.527   4.075   2.159
 1811SOL     OW 5776   1.754   4.947   3.450
 1811SOL    HW1 5777   1.845   4.908   3.437
 1811SOL    HW2 5778   1.762   5.043   3.474
 1812SOL     OW 5779   1.064   5.071   3.202
 1812SOL    HW1 5780   0.984   5.048   3.257
 1812SOL    HW2 5781   1.147   5.045   3.251
 1813SOL     OW 5782   1.592   5.353   3.487
 1813SOL    HW1 5783   1.619   5.387   3.397
 1813SOL    HW2 5784   1.671   5.315   3.533
 1814SOL     OW 5785   1.111   4.919   2.962
 1814SOL    HW1 5786   1.071   4.963   3.043
 1814SOL    HW2 5787   1.070   4.956   2.879
 1815SOL     OW 5788   1.638   4.823   2.941
 1815SOL    HW1 5789   1.643   4.904   3.000
 1815SOL    HW2 5790   1.552   4.825   2.890
 1816SOL     OW 5791   0.915   3.813   3.264
 1816SOL    HW1 5792   0.940   3.793   3.169
 1816SOL    HW2 5793   0.987   3.869   3.306
 1817SOL     OW 5794   0.980   4.840   3.581
 1817SOL    HW1 5795   0.881   4.846   3.591
 1817SOL    HW2 5796   1.003   4.760   3.525
 1818SOL     OW 5797   0.705   4.774   2.230
 1818SOL    HW1 5798   0.691   4.781   2.329
 1818SOL    HW2 5799   0.789   4.723   2.212
 1819SOL     OW 5800   0.410   4.537   3.113
 1819SOL    HW1 5801   0.496   4.549   3.163
 1819SOL    HW2 5802   0.368   4.450   3.140
 1820SOL     OW 5803   1.274   4.110   3.124
 1820SOL    HW1 5804   1.295   4.184   3.188
 1820SOL    HW2 5805   1.185   4.127   3.081
 1821SOL     OW 5806   0.064   5.288   3.193
 1821SOL    HW1 5807   0.018   5.370   3.159
 1821SOL    HW2 5808   0.162   5.307   3.202
 1822SOL     OW 5809   0.367   4.824   2.363
 1822SOL    HW1 5810   0.360   4.907   2.307
 1822SOL    HW2 5811   0.371   4.744   2.303
 1823SOL     OW 5812   0.566   4.261   2.727
 1823SOL    HW1 5813   0.578   4.327   2.653
 1823SOL    HW2 5814   0.612   4.295   2.810
 1824SOL     OW 5815   1.252   5.072   2.250
 1824SOL    HW1 5816   1.302   5.149   2.290
 1824SOL    HW2 5817   1.157   5.074   2.282
 1825SOL     OW 5818   1.272   5.169   3.004
 1825SOL    HW1 5819   1.319   5.182   3.091
 1825SOL    HW2 5820   1.206   5.095   3.013
 1826SOL     OW 5821   1.582   4.363   2.334
 1826SOL    HW1 5822   1.551   4.424   2.407
 1826SOL    HW2 5823   1.632   4.415   2.265
 1827SOL     OW 5824   0.354   5.234   3.191
 1827SOL    HW1 5825   0.333   5.190   3.104
 1827SOL    HW2 5826   0.451   5.260   3.194
 1828SOL     OW 5827   0.402   4.475   3.460
 1828SOL    HW1 5828   0.470   4.530   3.413
 1828SOL    HW2 5829   0.442   4.387   3.487
 1829SOL     OW 5830   1.587   4.503   3.532
 1829SOL    HW1 5831   1.495   4.541   3.527
 1829SOL    HW2 5832   1.647   4.550   3.467
 1830SOL     OW 5833   1.013   3.829   3.632
 1830SOL    HW1 5834   1.019   3.914   3.580
 1830SOL    HW2 5835   1.045   3.753   3.575
 1831SOL     OW 5836   0.504   3.774   3.602
 1831SOL    HW1 5837   0.462   3.717   3.532
 1831SOL    HW2 5838   0.438   3.843   3.634
 1832SOL     OW 5839   0.573   4.594   2.891
 1832SOL    HW1 5840   0.617   4.683   2.882
 1832SOL    HW2 5841   0.510   4.594   2.968
 1833SOL     OW 5842   1.360   4.586   2.907
 1833SOL    HW1 5843   1.285   4.586   2.841
 1833SOL    HW2 5844   1.397   4.494   2.916
 1834SOL     OW 5845   1.209   4.249   2.137
 1834SOL    HW1 5846   1.222   4.165   2.191
 1834SOL    HW2 5847   1.180   4.323   2.197
 1835SOL     OW 5848   0.307   3.937   3.093
 1835SOL    HW1 5849   0.284   3.974   3.183
 1835SOL    HW2 5850   0.277   3.842   3.087
 1836SOL     OW 5851   0.037   5.034   3.144
 1836SOL    HW1 5852   0.090   4.985   3.212
 1836SOL    HW2 5853   0.059   5.132   3.149
 1837SOL     OW 5854   0.732   4.358   2.926
 1837SOL    HW1 5855   0.791   4.332   2.850
 1837SOL    HW2 5856   0.704   4.454   2.915
 1838SOL     OW 5857   1.728   4.659   3.716
 1838SOL    HW1 5858   1.682   4.652   3.627
 1838SOL    HW2 5859   1.666   4.703   3.782
 1839SOL     OW 5860   0.307   3.787   2.480
 1839SOL    HW1 5861   0.296   3.881   2.513
 1839SOL    HW2 5862   0.302   3.724   2.557
 1840SOL     OW 5863   1.622   4.091   2.236
 1840SOL    HW1 5864   1.624   4.015   2.300
 1840SOL    HW2 5865   1.574   4.168   2.276
 1841SOL     OW 5866   1.023   4.490   2.828
 1841SOL    HW1 5867   1.038   4.511   2.924
 1841SOL    HW2 5868   0.993   4.395   2.819
 1842SOL     OW 5869   0.980   5.297   3.562
 1842SOL    HW1 5870   0.960   5.341   3.474
 1842SOL    HW2 5871   1.019   5.206   3.546
 1843SOL     OW 5872   1.859   5.242   3.467
 1843SOL    HW1 5873   1.873   5.269   3.372
 1843SOL    HW2 5874   1.942   5.264   3.520
 1844SOL     OW 5875   0.350   4.622   3.666
 1844SOL    HW1 5876   0.426   4.666   3.714
 1844SOL    HW2 5877   0.385   4.575   3.584
 1845SOL     OW 5878   1.540   3.998   1.987
 1845SOL    HW1 5879   1.479   3.923   2.010
 1845SOL    HW2 5880   1.562   4.050   2.070
 1846SOL     OW 5881   1.303   4.562   1.904
 1846SOL    HW1 5882   1.337   4.469   1.919
 1846SOL    HW2 5883   1.321   4.589   1.809
 1847SOL     OW 5884   1.068   5.057   2.711
 1847SOL    HW1 5885   1.075   4.973   2.656
 1847SOL    HW2 5886   1.130   5.126   2.675
 1848SOL     OW 5887   0.319   4.534   2.811
 1848SOL    HW1 5888   0.412   4.570   2.816
 1848SOL    HW2 5889   0.313   4.449   2.863
 1849SOL     OW 5890   0.339   4.233   2.868
 1849SOL    HW1 5891   0.287   4.150   2.851
 1849SOL    HW2 5892   0.416   4.238   2.804
 1850SOL     OW 5893   1.138   4.104   3.540
 1850SOL    HW1 5894   1.093   4.167   3.604
 1850SOL    HW2 5895   1.231   4.135   3.523
 1851SOL     OW 5896   1.160   3.931   3.339
 1851SOL    HW1 5897   1.160   3.995   3.416
 1851SOL    HW2 5898   1.188   3.979   3.256
 1852SOL     OW 5899   0.008   5.050   2.062
 1852SOL    HW1 5900  -0.085   5.071   2.031
 1852SOL    HW2 5901   0.018   4.951   2.075
 1853SOL     OW 5902   0.088   5.525   2.789
 1853SOL    HW1 5903   0.046   5.439   2.762
 1853SOL    HW2 5904   0.182   5.528   2.755
 1854SOL     OW 5905   0.504   5.292   2.772
 1854SOL    HW1 5906   0.570   5.366   2.781
 1854SOL    HW2 5907   0.548   5.213   2.730
 1855SOL     OW 5908   1.002   4.520   3.100
 1855SOL    HW1 5909   1.043   4.488   3.186
 1855SOL    HW2 5910   0.906   4.493   3.097
 1856SOL     OW 5911   0.040   4.268   2.976
 1856SOL    HW1 5912   0.125   4.235   2.935
 1856SOL    HW2 5913   0.053   4.283   3.074
 1857SOL     OW 5914   0.189   4.244   3.584
 1857SOL    HW1 5915   0.248   4.204   3.514
 1857SOL    HW2 5916   0.131   4.315   3.543
 1858SOL     OW 5917   1.369   4.674   3.522
 1858SOL    HW1 5918   1.408   4.763   3.542
 1858SOL    HW2 5919   1.379   4.654   3.425
 1859SOL     OW 5920   0.815   4.296   2.187
 1859SOL    HW1 5921   0.822   4.207   2.141
 1859SOL    HW2 5922   0.721   4.330   2.179
 1860SOL     OW 5923   1.657   4.328   3.068
 1860SOL    HW1 5924   1.619   4.259   3.130
 1860SOL    HW2 5925   1.739   4.292   3.024
 1861SOL     OW 5926   0.252   5.288   3.606
 1861SOL    HW1 5927   0.222   5.345   3.682
 1861SOL    HW2 5928   0.245   5.191   3.632
 1862SOL     OW 5929   0.671   4.188   3.131
 1862SOL    HW1 5930   0.637   4.099   3.101
 1862SOL    HW2 5931   0.697   4.242   3.051
 1863SOL     OW 5932   0.930   5.402   3.327
 1863SOL    HW1 5933   0.906   5.384   3.232
 1863SOL    HW2 5934   0.960   5.496   3.337
 1864SOL     OW 5935   0.473   4.224   2.053
 1864SOL    HW1 5936   0.534   4.304   2.057
 1864SOL    HW2 5937   0.378   4.255   2.060
 1865SOL     OW 5938   0.159   4.861   3.328
 1865SOL    HW1 5939   0.181   4.800   3.404
 1865SOL    HW2 5940   0.169   4.812   3.242
 1866SOL     OW 5941   1.347   4.783   3.096
 1866SOL    HW1 5942   1.371   4.720   3.022
 1866SOL    HW2 5943   1.257   4.823   3.078
 1867SOL     OW 5944   1.302   4.579   2.171
 1867SOL    HW1 5945   1.216   4.548   2.213
 1867SOL    HW2 5946   1.298   4.565   2.072
 1868SOL     OW 5947   1.759   5.471   3.016
 1868SOL    HW1 5948   1.820   5.501   2.943
 1868SOL    HW2 5949   1.721   5.382   2.994
 1869SOL     OW 5950   1.252   5.455   2.990
 1869SOL    HW1 5951   1.336   5.460   2.936
 1869SOL    HW2 5952   1.229   5.359   3.008
 1870SOL     OW 5953   0.083   4.982   2.884
 1870SOL    HW1 5954   0.078   4.981   2.984
 1870SOL    HW2 5955   0.000   4.941   2.846
 1871SOL     OW 5956   0.688   5.386   3.578
 1871SOL    HW1 5957   0.632   5.467   3.587
 1871SOL    HW2 5958   0.740   5.390   3.492
 1872SOL     OW 5959   1.726   3.859   2.385
 1872SOL    HW1 5960   1.799   3.842   2.318
 1872SOL    HW2 5961   1.695   3.772   2.423
 1873SOL     OW 5962   1.388   5.297   2.339
 1873SOL    HW1 5963   1.455   5.309   2.265
 1873SOL    HW2 5964   1.348   5.386   2.362
 1874SOL     OW 5965   0.130   5.518   3.713
 1874SOL    HW1 5966   0.089   5.444   3.766
 1874SOL    HW2 5967   0.194   5.569   3.771
 1875SOL     OW 5968   1.280   4.651   2.534
 1875SOL    HW1 5969   1.340   4.570   2.536
 1875SOL    HW2 5970   1.320   4.720   2.474
 1876SOL     OW 5971   0.830   4.997   3.284
 1876SOL    HW1 5972   0.825   5.030   3.379
 1876SOL    HW2 5973   0.744   5.016   3.238
 1877SOL     OW 5974   0.672   5.340   2.016
 1877SOL    HW1 5975   0.681   5.350   1.917
 1877SOL    HW2 5976   0.632   5.251   2.037
 1878SOL     OW 5977   1.650   5.444   3.256
 1878SOL    HW1 5978   1.703   5.454   3.172
 1878SOL    HW2 5979   1.623   5.534   3.290
 1879SOL     OW 5980   1.841   3.899   2.825
 1879SOL    HW1 5981   1.880   3.814   2.789
 1879SOL    HW2 5982   1.743   3.901   2.806
 1880SOL     OW 5983   0.263   4.050   2.582
 1880SOL    HW1 5984   0.184   4.101   2.548
 1880SOL    HW2 5985   0.254   4.035   2.680
 1881SOL     OW 5986   1.194   5.336   1.893
 1881SOL    HW1 5987   1.200   5.243   1.930
 1881SOL    HW2 5988   1.135   5.336   1.813
 1882SOL     OW 5989   0.822   4.726   3.234
 1882SOL    HW1 5990   0.862   4.725   3.142
 1882SOL    HW2 5991   0.832   4.818   3.274
 1883SOL     OW 5992   0.916   4.634   2.153
 1883SOL    HW1 5993   0.979   4.672   2.085
 1883SOL    HW2 5994   0.956   4.551   2.192
 1884SOL     OW 5995   1.504   5.331   1.906
 1884SOL    HW1 5996   1.412   5.368   1.913
 1884SOL    HW2 5997   1.542   5.351   1.816
 1885SOL     OW 5998   0.372   5.012   3.352
 1885SOL    HW1 5999   0.359   5.105   3.318
 1885SOL    HW2 6000   0.288   4.960   3.339
 1886SOL     OW 6001   1.614   5.016   3.151
 1886SOL    HW1 6002   1.674   5.019   3.231
 1886SOL    HW2 6003   1.539   5.080   3.164
 1887SOL     OW 6004   1.039   4.822   2.558
 1887SOL    HW1 6005   0.969   4.775   2.612
 1887SOL    HW2 6006   1.098   4.754   2.515
 1888SOL     OW 6007   1.014   3.960   2.833
 1888SOL    HW1 6008   1.006   3.924   2.740
 1888SOL    HW2 6009   1.012   3.884   2.898
 1889SOL     OW 6010   0.590   5.211   2.353
 1889SOL    HW1 6011   0.632   5.153   2.283
 1889SOL    HW2 6012   0.546   5.290   2.309
 1890SOL     OW 6013   1.709   4.109   3.243
 1890SOL    HW1 6014   1.782   4.178   3.247
 1890SOL    HW2 6015   1.737   4.034   3.184
 1891SOL     OW 6016   0.255   5.072   2.152
 1891SOL    HW1 6017   0.159   5.073   2.125
 1891SOL    HW2 6018   0.267   5.125   2.236
 1892SOL     OW 6019   0.105   4.737   3.588
 1892SOL    HW1 6020   0.028   4.704   3.642
 1892SOL    HW2 6021   0.190   4.707   3.630
 1893SOL     OW 6022   0.672   3.927   3.351
 1893SOL    HW1 6023   0.762   3.911   3.311
 1893SOL    HW2 6024   0.680   3.932   3.450
 1894SOL     OW 6025   0.075   4.069   1.895
 1894SOL    HW1 6026  -0.017   4.041   1.866
 1894SOL    HW2 6027   0.106   4.146   1.839
 1895SOL     OW 6028   1.440   4.580   3.260
 1895SOL    HW1 6029   1.383   4.632   3.197
 1895SOL    HW2 6030   1.536   4.592   3.236
 1896SOL     OW 6031   0.072   3.890   2.180
 1896SOL    HW1 6032   0.055   3.973   2.126
 1896SOL    HW2 6033   0.162   3.853   2.158
 1897SOL     OW 6034   1.183   5.059   1.981
 1897SOL    HW1 6035   1.084   5.048   1.983
 1897SOL    HW2 6036   1.217   5.074   2.074
 1898SOL     OW 6037   0.613   4.566   3.293
 1898SOL    HW1 6038   0.669   4.647   3.276
 1898SOL    HW2 6039   0.672   4.486   3.296
 1899SOL     OW 6040   1.493   5.491   2.821
 1899SOL    HW1 6041   1.526   5.555   2.752
 1899SOL    HW2 6042   1.559   5.485   2.896
 1900SOL     OW 6043   0.716   4.289   3.570
 1900SOL    HW1 6044   0.735   4.354   3.644
 1900SOL    HW2 6045   0.776   4.209   3.579
 1901SOL     OW 6046   1.450   4.944   3.495
 1901SOL    HW1 6047   1.441   4.934   3.594
 1901SOL    HW2 6048   1.546   4.937   3.469
 1902SOL     OW 6049   0.390   5.465   3.422
 1902SOL    HW1 6050   0.299   5.506   3.420
 1902SOL    HW2 6051   0.383   5.371   3.454
 1903SOL     OW 6052   1.674   4.607   3.116
 1903SOL    HW1 6053   1.647   4.518   3.079
 1903SOL    HW2 6054   1.675   4.675   3.043
 1904SOL     OW 6055   1.225   4.049   2.311
 1904SOL    HW1 6056   1.290   3.975   2.300
 1904SOL    HW2 6057   1.245   4.099   2.395
 1905SOL     OW 6058   0.594   4.469   2.514
 1905SOL    HW1 6059   0.644   4.554   2.495
 1905SOL    HW2 6060   0.506   4.471   2.466
 1906SOL     OW 6061   1.777   4.066   3.504
 1906SOL    HW1 6062   1.760   4.097   3.410
 1906SOL    HW2 6063   1.693   4.029   3.542
 1907SOL     OW 6064   1.730   4.658   3.379
 1907SOL    HW1 6065   1.768   4.749   3.394
 1907SOL    HW2 6066   1.722   4.641   3.280
 1908SOL     OW 6067   0.859   5.098   1.878
 1908SOL    HW1 6068   0.813   5.113   1.966
 1908SOL    HW2 6069   0.903   5.183   1.848
 1909SOL     OW 6070   0.661   5.514   2.815
 1909SOL    HW1 6071   0.615   5.602   2.802
 1909SOL    HW2 6072   0.760   5.526   2.808
 1910SOL     OW 6073   0.859   4.680   2.723
 1910SOL    HW1 6074   0.913   4.611   2.771
 1910SOL    HW2 6075   0.827   4.749   2.789
 1911SOL     OW 6076   1.083   4.708   1.949
 1911SOL    HW1 6077   1.060   4.761   1.867
 1911SOL    HW2 6078   1.164   4.652   1.930
 1912SOL     OW 6079   1.861   5.293   2.713
 1912SOL    HW1 6080   1.790   5.281   2.643
 1912SOL    HW2 6081   1.862   5.214   2.773
 1913SOL     OW 6082   0.221   5.038   3.706
 1913SOL    HW1 6083   0.156   4.965   3.685
 1913SOL    HW2 6084   0.225   5.052   3.804
 1914SOL     OW 6085   0.079   4.964   2.515
 1914SOL    HW1 6086   0.078   4.917   2.603
 1914SOL    HW2 6087   0.161   4.936   2.464
 1915SOL     OW 6088   0.672   5.115   3.486
 1915SOL    HW1 6089   0.594   5.065   3.524
 1915SOL    HW2 6090   0.669   5.210   3.517
 1916SOL     OW 6091   1.824   3.916   3.089
 1916SOL    HW1 6092   1.820   3.826   3.133
 1916SOL    HW2 6093   1.827   3.905   2.990
 1917SOL     OW 6094   0.428   4.148   2.382
 1917SOL    HW1 6095   0.458   4.076   2.320
 1917SOL    HW2 6096   0.389   4.108   2.465
 1918SOL     OW 6097   1.705   5.211   2.966
 1918SOL    HW1 6098   1.612   5.186   2.939
 1918SOL    HW2 6099   1.731   5.161   3.048
 1919SOL     OW 6100   0.317   4.271   3.142
 1919SOL    HW1 6101   0.355   4.212   3.214
 1919SOL    HW2 6102   0.357   4.245   3.054
 1920SOL     OW 6103   0.812   5.310   2.549
 1920SOL    HW1 6104   0.844   5.320   2.455
 1920SOL    HW2 6105   0.733   5.248   2.551
 1921SOL     OW 6106   1.424   3.938   2.974
 1921SOL    HW1 6107   1.476   3.873   3.029
 1921SOL    HW2 6108   1.375   4.001   3.035
 1922SOL     OW 6109   1.001   3.758   3.016
 1922SOL    HW1 6110   0.938   3.686   2.985
 1922SOL    HW2 6111   1.094   3.722   3.016
 1923SOL     OW 6112   0.770   5.054   2.163
 1923SOL    HW1 6113   0.724   4.967   2.180
 1923SOL    HW2 6114   0.861   5.051   2.204
 1924SOL     OW 6115   0.618   5.291   3.146
 1924SOL    HW1 6116   0.613   5.373   3.203
 1924SOL    HW2 6117   0.707   5.288   3.101
 1925SOL     OW 6118   1.352   3.776   2.030
 1925SOL    HW1 6119   1.387   3.735   1.946
 1925SOL    HW2 6120   1.262   3.738   2.050
 1926SOL     OW 6121   1.300   4.177   2.553
 1926SOL    HW1 6122   1.241   4.257   2.557
 1926SOL    HW2 6123   1.315   4.142   2.646
 1927SOL     OW 6124   1.593   3.945   2.744
 1927SOL    HW1 6125   1.509   3.944   2.798
 1927SOL    HW2 6126   1.595   4.028   2.688
 1928SOL     OW 6127   0.039   4.801   2.162
 1928SOL    HW1 6128   0.138   4.790   2.153
 1928SOL    HW2 6129  -0.001   4.715   2.194
 1929SOL     OW 6130   0.875   5.370   2.199
 1929SOL    HW1 6131   0.798   5.335   2.145
 1929SOL    HW2 6132   0.843   5.441   2.261
 1930SOL     OW 6133   0.230   4.352   3.837
 1930SOL    HW1 6134   0.137   4.350   3.874
 1930SOL    HW2 6135   0.231   4.313   3.745
 1931SOL     OW 6136   0.225   3.999   4.720
 1931SOL    HW1 6137   0.260   3.982   4.812
 1931SOL    HW2 6138   0.137   3.954   4.708
 1932SOL     OW 6139   0.019   4.092   4.371
 1932SOL    HW1 6140  -0.063   4.135   4.410
 1932SOL    HW2 6141  -0.009   4.019   4.308
 1933SOL     OW 6142   0.569   4.999   4.889
 1933SOL    HW1 6143   0.476   4.992   4.852
 1933SOL    HW2 6144   0.580   5.088   4.933
 1934SOL     OW 6145   1.555   5.235   4.427
 1934SOL    HW1 6146   1.498   5.219   4.508
 1934SOL    HW2 6147   1.496   5.245   4.347
 1935SOL     OW 6148   1.135   4.427   4.441
 1935SOL    HW1 6149   1.192   4.505   4.416
 1935SOL    HW2 6150   1.075   4.453   4.517
 1936SOL     OW 6151   1.755   4.331   3.955
 1936SOL    HW1 6152   1.743   4.318   3.856
 1936SOL    HW2 6153   1.725   4.250   4.004
 1937SOL     OW 6154   0.768   4.868   4.747
 1937SOL    HW1 6155   0.690   4.885   4.807
 1937SOL    HW2 6156   0.802   4.955   4.711
 1938SOL     OW 6157   0.850   4.522   5.547
 1938SOL    HW1 6158   0.846   4.598   5.612
 1938SOL    HW2 6159   0.872   4.558   5.456
 1939SOL     OW 6160   0.685   4.736   4.389
 1939SOL    HW1 6161   0.754   4.720   4.459
 1939SOL    HW2 6162   0.612   4.793   4.427
 1940SOL     OW 6163   0.686   4.885   5.527
 1940SOL    HW1 6164   0.746   4.964   5.541
 1940SOL    HW2 6165   0.600   4.916   5.486
 1941SOL     OW 6166   0.335   5.159   4.785
 1941SOL    HW1 6167   0.257   5.128   4.732
 1941SOL    HW2 6168   0.393   5.217   4.728
 1942SOL     OW 6169   1.460   5.229   5.063
 1942SOL    HW1 6170   1.484   5.323   5.089
 1942SOL    HW2 6171   1.444   5.175   5.145
 1943SOL     OW 6172   0.438   4.116   5.223
 1943SOL    HW1 6173   0.520   4.060   5.232
 1943SOL    HW2 6174   0.357   4.058   5.227
 1944SOL     OW 6175   1.603   4.171   4.461
 1944SOL    HW1 6176   1.529   4.217   4.411
 1944SOL    HW2 6177   1.654   4.239   4.514
 1945SOL     OW 6178   0.231   5.437   4.207
 1945SOL    HW1 6179   0.265   5.514   4.261
 1945SOL    HW2 6180   0.275   5.437   4.117
 1946SOL     OW 6181   1.127   5.065   5.414
 1946SOL    HW1 6182   1.174   5.065   5.502
 1946SOL    HW2 6183   1.079   4.978   5.403
 1947SOL     OW 6184   0.230   5.158   4.262
 1947SOL    HW1 6185   0.204   5.254   4.262
 1947SOL    HW2 6186   0.159   5.104   4.307
 1948SOL     OW 6187   0.240   4.815   4.610
 1948SOL    HW1 6188   0.254   4.731   4.662
 1948SOL    HW2 6189   0.185   4.879   4.665
 1949SOL     OW 6190   0.620   5.510   5.163
 1949SOL    HW1 6191   0.528   5.493   5.198
 1949SOL    HW2 6192   0.648   5.602   5.189
 1950SOL     OW 6193   0.606   4.688   3.847
 1950SOL    HW1 6194   0.613   4.772   3.793
 1950SOL    HW2 6195   0.652   4.701   3.935
 1951SOL     OW 6196   1.594   3.838   5.204
 1951SOL    HW1 6197   1.576   3.905   5.132
 1951SOL    HW2 6198   1.591   3.884   5.293
 1952SOL     OW 6199   0.122   4.367   4.287
 1952SOL    HW1 6200   0.077   4.279   4.304
 1952SOL    HW2 6201   0.121   4.421   4.371
 1953SOL     OW 6202   1.842   5.491   4.083
 1953SOL    HW1 6203   1.896   5.462   4.163
 1953SOL    HW2 6204   1.872   5.581   4.054
 1954SOL     OW 6205   0.027   5.320   3.841
 1954SOL    HW1 6206   0.008   5.224   3.862
 1954SOL    HW2 6207  -0.006   5.378   3.916
 1955SOL     OW 6208   1.689   4.646   4.336
 1955SOL    HW1 6209   1.784   4.617   4.344
 1955SOL    HW2 6210   1.681   4.711   4.261
 1956SOL     OW 6211   1.641   4.832   4.156
 1956SOL    HW1 6212   1.727   4.834   4.104
 1956SOL    HW2 6213   1.655   4.879   4.244
 1957SOL     OW 6214   0.113   4.461   5.321
 1957SOL    HW1 6215   0.201   4.448   5.366
 1957SOL    HW2 6216   0.100   4.558   5.299
 1958SOL     OW 6217   0.613   5.089   4.450
 1958SOL    HW1 6218   0.564   5.002   4.459
 1958SOL    HW2 6219   0.590   5.132   4.363
 1959SOL     OW 6220   1.293   4.952   5.147
 1959SOL    HW1 6221   1.330   4.879   5.089
 1959SOL    HW2 6222   1.345   4.957   5.232
 1960SOL     OW 6223   0.809   3.728   4.226
 1960SOL    HW1 6224   0.849   3.819   4.217
 1960SOL    HW2 6225   0.709   3.736   4.232
 1961SOL     OW 6226   0.197   4.700   4.988
 1961SOL    HW1 6227   0.286   4.655   4.974
 1961SOL    HW2 6228   0.124   4.635   4.969
 1962SOL     OW 6229   1.525   4.723   3.914
 1962SOL    HW1 6230   1.462   4.647   3.927
 1962SOL    HW2 6231   1.573   4.741   4.000
 1963SOL     OW 6232   1.187   5.516   5.340
 1963SOL    HW1 6233   1.211   5.576   5.264
 1963SOL    HW2 6234   1.194   5.421   5.310
 1964SOL     OW 6235   0.317   3.975   5.525
 1964SOL    HW1 6236   0.388   4.046   5.531
 1964SOL    HW2 6237   0.229   4.014   5.553
 1965SOL     OW 6238   1.466   5.141   4.677
 1965SOL    HW1 6239   1.407   5.147   4.757
 1965SOL    HW2 6240   1.451   5.053   4.631
 1966SOL     OW 6241   1.667   5.438   4.296
 1966SOL    HW1 6242   1.626   5.415   4.208
 1966SOL    HW2 6243   1.649   5.364   4.361
 1967SOL     OW 6244   0.598   4.453   3.994
 1967SOL    HW1 6245   0.622   4.522   3.926
 1967SOL    HW2 6246   0.520   4.486   4.048
 1968SOL     OW 6247   1.281   4.069   4.668
 1968SOL    HW1 6248   1.195   4.019   4.655
 1968SOL    HW2 6249   1.343   4.015   4.724
 1969SOL     OW 6250   1.576   5.386   4.031
 1969SOL    HW1 6251   1.665   5.432   4.034
 1969SOL    HW2 6252   1.555   5.362   3.936
 1970SOL     OW 6253   0.807   4.329   5.189
 1970SOL    HW1 6254   0.760   4.326   5.278
 1970SOL    HW2 6255   0.756   4.274   5.123
 1971SOL     OW 6256   1.394   4.193   5.398
 1971SOL    HW1 6257   1.374   4.236   5.486
 1971SOL    HW2 6258   1.472   4.131   5.407
 1972SOL     OW 6259   0.973   4.614   5.296
 1972SOL    HW1 6260   1.019   4.530   5.267
 1972SOL    HW2 6261   0.917   4.648   5.221
 1973SOL     OW 6262   0.991   4.134   4.966
 1973SOL    HW1 6263   0.914   4.168   5.020
 1973SOL    HW2 6264   0.957   4.083   4.887
 1974SOL     OW 6265   1.041   4.425   4.153
 1974SOL    HW1 6266   1.067   4.421   4.249
 1974SOL    HW2 6267   0.956   4.374   4.139
 1975SOL     OW 6268   0.076   4.535   4.513
 1975SOL    HW1 6269   0.175   4.523   4.522
 1975SOL    HW2 6270   0.052   4.630   4.534
 1976SOL     OW 6271   0.130   5.545   5.295
 1976SOL    HW1 6272   0.120   5.530   5.394
 1976SOL    HW2 6273   0.044   5.581   5.259
 1977SOL     OW 6274   0.865   4.072   3.919
 1977SOL    HW1 6275   0.924   4.135   3.870
 1977SOL    HW2 6276   0.884   3.978   3.890
 1978SOL     OW 6277   1.719   4.309   5.555
 1978SOL    HW1 6278   1.693   4.398   5.519
 1978SOL    HW2 6279   1.717   4.241   5.482
 1979SOL     OW 6280   1.362   4.868   4.269
 1979SOL    HW1 6281   1.445   4.839   4.221
 1979SOL    HW2 6282   1.313   4.935   4.213
 1980SOL     OW 6283   0.550   3.920   4.609
 1980SOL    HW1 6284   0.545   3.915   4.709
 1980SOL    HW2 6285   0.552   4.016   4.580
 1981SOL     OW 6286   1.008   5.180   4.201
 1981SOL    HW1 6287   0.962   5.252   4.149
 1981SOL    HW2 6288   1.004   5.200   4.299
 1982SOL     OW 6289   0.351   5.525   4.577
 1982SOL    HW1 6290   0.401   5.439   4.583
 1982SOL    HW2 6291   0.416   5.602   4.574
 1983SOL     OW 6292   1.795   4.790   4.597
 1983SOL    HW1 6293   1.733   4.775   4.521
 1983SOL    HW2 6294   1.743   4.801   4.682
 1984SOL     OW 6295   1.227   5.274   5.230
 1984SOL    HW1 6296   1.233   5.197   5.294
 1984SOL    HW2 6297   1.175   5.248   5.150
 1985SOL     OW 6298   0.321   4.667   3.966
 1985SOL    HW1 6299   0.403   4.706   3.924
 1985SOL    HW2 6300   0.294   4.585   3.917
 1986SOL     OW 6301   1.458   4.459   4.452
 1986SOL    HW1 6302   1.453   4.394   4.527
 1986SOL    HW2 6303   1.538   4.518   4.465
 1987SOL     OW 6304   0.461   4.990   5.451
 1987SOL    HW1 6305   0.411   4.991   5.365
 1987SOL    HW2 6306   0.398   4.972   5.527
 1988SOL     OW 6307   1.111   5.500   3.961
 1988SOL    HW1 6308   1.051   5.438   4.011
 1988SOL    HW2 6309   1.142   5.456   3.876
 1989SOL     OW 6310   0.202   4.009   5.222
 1989SOL    HW1 6311   0.122   4.069   5.209
 1989SOL    HW2 6312   0.192   3.960   5.308
 1990SOL     OW 6313   1.632   5.101   3.805
 1990SOL    HW1 6314   1.600   5.195   3.795
 1990SOL    HW2 6315   1.556   5.038   3.793
 1991SOL     OW 6316   0.464   5.467   4.047
 1991SOL    HW1 6317   0.497   5.506   4.133
 1991SOL    HW2 6318   0.540   5.460   3.982
 1992SOL     OW 6319   1.400   3.831   4.150
 1992SOL    HW1 6320   1.376   3.794   4.060
 1992SOL    HW2 6321   1.499   3.847   4.154
 1993SOL     OW 6322   0.249   5.509   4.965
 1993SOL    HW1 6323   0.306   5.444   5.015
 1993SOL    HW2 6324   0.233   5.476   4.872
 1994SOL     OW 6325   0.940   5.422   4.628
 1994SOL    HW1 6326   1.020   5.365   4.649
 1994SOL    HW2 6327   0.891   5.382   4.551
 1995SOL     OW 6328   0.382   4.424   4.204
 1995SOL    HW1 6329   0.427   4.334   4.201
 1995SOL    HW2 6330   0.288   4.413   4.237
 1996SOL     OW 6331   1.547   3.946   5.453
 1996SOL    HW1 6332   1.542   3.983   5.545
 1996SOL    HW2 6333   1.475   3.877   5.441
 1997SOL     OW 6334   0.614   3.846   3.841
 1997SOL    HW1 6335   0.712   3.824   3.848
 1997SOL    HW2 6336   0.583   3.829   3.748
 1998SOL     OW 6337   0.781   3.988   5.473
 1998SOL    HW1 6338   0.848   3.927   5.516
 1998SOL    HW2 6339   0.708   4.007   5.538
 1999SOL     OW 6340   0.888   5.238   4.919
 1999SOL    HW1 6341   0.865   5.213   4.825
 1999SOL    HW2 6342   0.949   5.169   4.958
 2000SOL     OW 6343   1.351   4.314   5.157
 2000SOL    HW1 6344   1.379   4.271   5.242
 2000SOL    HW2 6345   1.376   4.410   5.158
 2001SOL     OW 6346   0.803   5.126   4.648
 2001SOL    HW1 6347   0.893   5.140   4.606
 2001SOL    HW2 6348   0.732   5.128   4.577
 2002SOL     OW 6349   0.922   4.227   4.623
 2002SOL    HW1 6350   0.897   4.218   4.527
 2002SOL    HW2 6351   0.970   4.145   4.654
 2003SOL     OW 6352   0.539   3.788   4.236
 2003SOL    HW1 6353   0.458   3.789   4.294
 2003SOL    HW2 6354   0.542   3.871   4.181
 2004SOL     OW 6355   1.434   4.912   3.765
 2004SOL    HW1 6356   1.466   4.836   3.822
 2004SOL    HW2 6357   1.342   4.939   3.795
 2005SOL     OW 6358   0.297   3.759   3.895
 2005SOL    HW1 6359   0.346   3.843   3.874
 2005SOL    HW2 6360   0.359   3.694   3.940
 2006SOL     OW 6361   0.935   3.960   4.204
 2006SOL    HW1 6362   0.887   4.001   4.126
 2006SOL    HW2 6363   1.034   3.958   4.185
 2007SOL     OW 6364   1.076   4.407   5.188
 2007SOL    HW1 6365   0.996   4.346   5.191
 2007SOL    HW2 6366   1.157   4.354   5.164
 2008SOL     OW 6367   1.227   5.294   4.517
 2008SOL    HW1 6368   1.248   5.368   4.452
 2008SOL    HW2 6369   1.295   5.294   4.590
 2009SOL     OW 6370   0.459   4.876   4.465
 2009SOL    HW1 6371   0.388   4.849   4.530
 2009SOL    HW2 6372   0.433   4.848   4.372
 2010SOL     OW 6373   1.271   5.521   4.315
 2010SOL    HW1 6374   1.315   5.585   4.251
 2010SOL    HW2 6375   1.221   5.573   4.385
 2011SOL     OW 6376   1.032   4.273   3.740
 2011SOL    HW1 6377   0.991   4.355   3.701
 2011SOL    HW2 6378   1.096   4.299   3.813
 2012SOL     OW 6379   0.078   4.280   5.110
 2012SOL    HW1 6380   0.170   4.279   5.069
 2012SOL    HW2 6381   0.072   4.354   5.177
 2013SOL     OW 6382   0.561   3.946   4.871
 2013SOL    HW1 6383   0.599   3.862   4.908
 2013SOL    HW2 6384   0.473   3.965   4.915
 2014SOL     OW 6385   0.866   4.178   4.366
 2014SOL    HW1 6386   0.834   4.250   4.304
 2014SOL    HW2 6387   0.890   4.097   4.313
 2015SOL     OW 6388   1.017   3.763   4.477
 2015SOL    HW1 6389   0.945   3.768   4.408
 2015SOL    HW2 6390   0.993   3.694   4.546
 2016SOL     OW 6391   1.429   4.897   4.591
 2016SOL    HW1 6392   1.374   4.813   4.584
 2016SOL    HW2 6393   1.455   4.926   4.499
 2017SOL     OW 6394   1.466   4.314   4.716
 2017SOL    HW1 6395   1.436   4.219   4.723
 2017SOL    HW2 6396   1.539   4.330   4.782
 2018SOL     OW 6397   1.857   4.557   4.101
 2018SOL    HW1 6398   1.899   4.493   4.165
 2018SOL    HW2 6399   1.819   4.506   4.023
 2019SOL     OW 6400   0.488   5.109   3.898
 2019SOL    HW1 6401   0.401   5.094   3.945
 2019SOL    HW2 6402   0.471   5.135   3.803
 2020SOL     OW 6403   1.664   5.004   4.381
 2020SOL    HW1 6404   1.763   5.012   4.395
 2020SOL    HW2 6405   1.619   5.088   4.412
 2021SOL     OW 6406   1.390   4.299   3.802
 2021SOL    HW1 6407   1.336   4.278   3.883
 2021SOL    HW2 6408   1.481   4.258   3.811
 2022SOL     OW 6409   0.527   3.980   4.052
 2022SOL    HW1 6410   0.554   3.921   3.977
 2022SOL    HW2 6411   0.527   4.075   4.021
 2023SOL     OW 6412   1.754   4.947   5.312
 2023SOL    HW1 6413   1.845   4.908   5.299
 2023SOL    HW2 6414   1.762   5.043   5.336
 2024SOL     OW 6415   1.064   5.071   5.064
 2024SOL    HW1 6416   0.984   5.048   5.119
 2024SOL    HW2 6417   1.147   5.045   5.113
 2025SOL     OW 6418   1.592   5.353   5.349
 2025SOL    HW1 6419   1.619   5.387   5.259
 2025SOL    HW2 6420   1.671   5.315   5.395
 2026SOL     OW 6421   1.111   4.919   4.824
 2026SOL    HW1 6422   1.071   4.963   4.905
 2026SOL    HW2 6423   1.070   4.956   4.741
 2027SOL     OW 6424   1.638   4.823   4.803
 2027SOL    HW1 6425   1.643   4.904   4.862
 2027SOL    HW2 6426   1.552   4.825   4.752
 2028SOL     OW 6427   0.915   3.813   5.126
 2028SOL    HW1 6428   0.940   3.793   5.031
 2028SOL    HW2 6429   0.987   3.869   5.168
 2029SOL     OW 6430   0.980   4.840   5.443
 2029SOL    HW1 6431   0.881   4.846   5.453
 2029SOL    HW2 6432   1.003   4.760   5.387
 2030SOL     OW 6433   0.705   4.774   4.092
 2030SOL    HW1 6434   0.691   4.781   4.191
 2030SOL    HW2 6435   0.789   4.723   4.074
 2031SOL     OW 6436   0.410   4.537   4.975
 2031SOL    HW1 6437   0.496   4.549   5.025
 2031SOL    HW2 6438   0.368   4.450   5.002
 2032SOL     OW 6439   1.274   4.110   4.986
 2032SOL    HW1 6440   1.295   4.184   5.050
 2032SOL    HW2 6441   1.185   4.127   4.943
 2033SOL     OW 6442   0.064   5.288   5.055
 2033SOL    HW1 6443   0.018   5.370   5.021
 2033SOL    HW2 6444   0.162   5.307   5.064
 2034SOL     OW 6445   0.367   4.824   4.225
 2034SOL    HW1 6446   0.360   4.907   4.169
 2034SOL    HW2 6447   0.371   4.744   4.165
 2035SOL     OW 6448   0.566   4.261   4.589
 2035SOL    HW1 6449   0.578   4.327   4.515
 2035SOL    HW2 6450   0.612   4.295   4.672
 2036SOL     OW 6451   1.252   5.072   4.112
 2036SOL    HW1 6452   1.302   5.149   4.152
 2036SOL    HW2 6453   1.157   5.074   4.144
 2037SOL     OW 6454   1.272   5.169   4.866
 2037SOL    HW1 6455   1.319   5.182   4.953
 2037SOL    HW2 6456   1.206   5.095   4.875
 2038SOL     OW 6457   1.582   4.363   4.196
 2038SOL    HW1 6458   1.551   4.424   4.269
 2038SOL    HW2 6459   1.632   4.415   4.127
 2039SOL     OW 6460   0.354   5.234   5.053
 2039SOL    HW1 6461   0.333   5.190   4.966
 2039SOL    HW2 6462   0.451   5.260   5.056
 2040SOL     OW 6463   0.402   4.475   5.322
 2040SOL    HW1 6464   0.470   4.530   5.275
 2040SOL    HW2 6465   0.442   4.387   5.349
 2041SOL     OW 6466   1.587   4.503   5.394
 2041SOL    HW1 6467   1.495   4.541   5.389
 2041SOL    HW2 6468   1.647   4.550   5.329
 2042SOL     OW 6469   1.013   3.829   5.494
 2042SOL    HW1 6470   1.019   3.914   5.442
 2042SOL    HW2 6471   1.045   3.753   5.437
 2043SOL     OW 6472   0.504   3.774   5.464
 2043SOL    HW1 6473   0.462   3.717   5.394
 2043SOL    HW2 6474   0.438   3.843   5.496
 2044SOL     OW 6475   0.573   4.594   4.753
 2044SOL    HW1 6476   0.617   4.683   4.744
 2044SOL    HW2 6477   0.510   4.594   4.830
 2045SOL     OW 6478   1.360   4.586   4.769
 2045SOL    HW1 6479   1.285   4.586   4.703
 2045SOL    HW2 6480   1.397   4.494   4.778
 2046SOL     OW 6481   1.209   4.249   3.999
 2046SOL    HW1 6482   1.222   4.165   4.053
 2046SOL    HW2 6483   1.180   4.323   4.059
 2047SOL     OW 6484   0.307   3.937   4.955
 2047SOL    HW1 6485   0.284   3.974   5.045
 2047SOL    HW2 6486   0.277   3.842   4.949
 2048SOL     OW 6487   0.037   5.034   5.006
 2048SOL    HW1 6488   0.090   4.985   5.074
 2048SOL    HW2 6489   0.059   5.132   5.011
 2049SOL     OW 6490   0.732   4.358   4.788
 2049SOL    HW1 6491   0.791   4.332   4.712
 2049SOL    HW2 6492   0.704   4.454   4.777
 2050SOL     OW 6493   1.728   4.659   5.578
 2050SOL    HW1 6494   1.682   4.652   5.489
 2050SOL    HW2 6495   1.666   4.703   5.644
 2051SOL     OW 6496   0.307   3.787   4.342
 2051SOL    HW1 6497   0.296   3.881   4.375
 2051SOL    HW2 6498   0.302   3.724   4.419
 2052SOL     OW 6499   1.622   4.091   4.098
 2052SOL    HW1 6500   1.624   4.015   4.162
 2052SOL    HW2 6501   1.574   4.168   4.138
 2053SOL     OW 6502   1.023   4.490   4.690
 2053SOL    HW1 6503   1.038   4.511   4.786
 2053SOL    HW2 6504   0.993   4.395   4.681
 2054SOL     OW 6505   0.980   5.297   5.424
 2054SOL    HW1 6506   0.960   5.341   5.336
 2054SOL    HW2 6507   1.019   5.206   5.408
 2055SOL     OW 6508   1.859   5.242   5.329
 2055SOL    HW1 6509   1.873   5.269   5.234
 2055SOL    HW2 6510   1.942   5.264   5.382
 2056SOL     OW 6511   0.350   4.622   5.528
 2056SOL    HW1 6512   0.426   4.666   5.576
 2056SOL    HW2 6513   0.385   4.575   5.446
 2057SOL     OW 6514   1.540   3.998   3.849
 2057SOL    HW1 6515   1.479   3.923   3.872
 2057SOL    HW2 6516   1.562   4.050   3.932
 2058SOL     OW 6517   1.303   4.562   3.766
 2058SOL    HW1 6518   1.337   4.469   3.781
 2058SOL    HW2 6519   1.321   4.589   3.671
 2059SOL     OW 6520   1.068   5.057   4.573
 2059SOL    HW1 6521   1.075   4.973   4.518
 2059SOL    HW2 6522   1.130   5.126   4.537
 2060SOL     OW 6523   0.319   4.534   4.673
 2060SOL    HW1 6524   0.412   4.570   4.678
 2060SOL    HW2 6525   0.313   4.449   4.725
 2061SOL     OW 6526   0.339   4.233   4.730
 2061SOL    HW1 6527   0.287   4.150   4.713
 2061SOL    HW2 6528   0.416   4.238   4.666
 2062SOL     OW 6529   1.138   4.104   5.402
 2062SOL    HW1 6530   1.093   4.167   5.466
 2062SOL    HW2 6531   1.231   4.135   5.385
 2063SOL     OW 6532   1.160   3.931   5.201
 2063SOL    HW1 6533   1.160   3.995   5.278
 2063SOL    HW2 6534   1.188   3.979   5.118
 2064SOL     OW 6535   0.008   5.050   3.924
 2064SOL    HW1 6536  -0.085   5.071   3.893
 2064SOL    HW2 6537   0.018   4.951   3.937
 2065SOL     OW 6538   0.088   5.525   4.651
 2065SOL    HW1 6539   0.046   5.439   4.624
 2065SOL    HW2 6540   0.182   5.528   4.617
 2066SOL     OW 6541   0.504   5.292   4.634
 2066SOL    HW1 6542   0.570   5.366   4.643
 2066SOL    HW2 6543   0.548   5.213   4.592
 2067SOL     OW 6544   1.002   4.520   4.962
 2067SOL    HW1 6545   1.043   4.488   5.048
 2067SOL    HW2 6546   0.906   4.493   4.959
 2068SOL     OW 6547   0.040   4.268   4.838
 2068SOL    HW1 6548   0.125   4.235   4.797
 2068SOL    HW2 6549   0.053   4.283   4.936
 2069SOL     OW 6550   0.189   4.244   5.446
 2069SOL    HW1 6551   0.248   4.204   5.376
 2069SOL    HW2 6552   0.131   4.315   5.405
 2070SOL     OW 6553   1.369   4.674   5.384
 2070SOL    HW1 6554   1.408   4.763   5.404
 2070SOL    HW2 6555   1.379   4.654   5.287
 2071SOL     OW 6556   0.815   4.296   4.049
 2071SOL    HW1 6557   0.822   4.207   4.003
 2071SOL    HW2 6558   0.721   4.330   4.041
 2072SOL     OW 6559   1.657   4.328   4.930
 2072SOL    HW1 6560   1.619   4.259   4.992
 2072SOL    HW2 6561   1.739   4.292   4.886
 2073SOL     OW 6562   0.252   5.288   5.468
 2073SOL    HW1 6563   0.222   5.345   5.544
 2073SOL    HW2 6564   0.245   5.191   5.494
 2074SOL     OW 6565   0.671   4.188   4.993
 2074SOL    HW1 6566   0.637   4.099   4.963
 2074SOL    HW2 6567   0.697   4.242   4.913
 2075SOL     OW 6568   0.930   5.402   5.189
 2075SOL    HW1 6569   0.906   5.384   5.094
 2075SOL    HW2 6570   0.960   5.496   5.199
 2076SOL     OW 6571   0.473   4.224   3.915
 2076SOL    HW1 6572   0.534   4.304   3.919
 2076SOL    HW2 6573   0.378   4.255   3.922
 2077SOL     OW 6574   0.159   4.861   5.190
 2077SOL    HW1 6575   0.181   4.800   5.266
 2077SOL    HW2 6576   0.169   4.812   5.104
 2078SOL     OW 6577   1.347   4.783   4.958
 2078SOL    HW1 6578   1.371   4.720   4.884
 2078SOL    HW2 6579   1.257   4.823   4.940
 2079SOL     OW 6580   1.302   4.579   4.033
 2079SOL    HW1 6581   1.216   4.548   4.075
 2079SOL    HW2 6582   1.298   4.565   3.934
 2080SOL     OW 6583   1.759   5.471   4.878
 2080SOL    HW1 6584   1.820   5.501   4.805
 2080SOL    HW2 6585   1.721   5.382   4.856
 2081SOL     OW 6586   1.252   5.455   4.852
 2081SOL    HW1 6587   1.336   5.460   4.798
 2081SOL    HW2 6588   1.229   5.359   4.870
 2082SOL     OW 6589   0.083   4.982   4.746
 2082SOL    HW1 6590   0.078   4.981   4.846
 2082SOL    HW2 6591   0.000   4.941   4.708
 2083SOL     OW 6592   0.688   5.386   5.440
 2083SOL    HW1 6593   0.632   5.467   5.449
 2083SOL    HW2 6594   0.740   5.390   5.354
 2084SOL     OW 6595   1.726   3.859   4.247
 2084SOL    HW1 6596   1.799   3.842   4.180
 2084SOL    HW2 6597   1.695   3.772   4.285
 2085SOL     OW 6598   1.388   5.297   4.201
 2085SOL    HW1 6599   1.455   5.309   4.127
 2085SOL    HW2 6600   1.348   5.386   4.224
 2086SOL     OW 6601   0.130   5.518   5.575
 2086SOL    HW1 6602   0.089   5.444   5.628
 2086SOL    HW2 6603   0.194   5.569   5.633
 2087SOL     OW 6604   1.280   4.651   4.396
 2087SOL    HW1 6605   1.340   4.570   4.398
 2087SOL    HW2 6606   1.320   4.720   4.336
 2088SOL     OW 6607   0.830   4.997   5.146
 2088SOL    HW1 6608   0.825   5.030   5.241
 2088SOL    HW2 6609   0.744   5.016   5.100
 2089SOL     OW 6610   0.672   5.340   3.878
 2089SOL    HW1 6611   0.681   5.350   3.779
 2089SOL    HW2 6612   0.632   5.251   3.899
 2090SOL     OW 6613   1.650   5.444   5.118
 2090SOL    HW1 6614   1.703   5.454   5.034
 2090SOL    HW2 6615   1.623   5.534   5.152
 2091SOL     OW 6616   1.841   3.899   4.687
 2091SOL    HW1 6617   1.880   3.814   4.651
 2091SOL    HW2 6618   1.743   3.901   4.668
 2092SOL     OW 6619   0.263   4.050   4.444
 2092SOL    HW1 6620   0.184   4.101   4.410
 2092SOL    HW2 6621   0.254   4.035   4.542
 2093SOL     OW 6622   1.194   5.336   3.755
 2093SOL    HW1 6623   1.200   5.243   3.792
 2093SOL    HW2 6624   1.135   5.336   3.675
 2094SOL     OW 6625   0.822   4.726   5.096
 2094SOL    HW1 6626   0.862   4.725   5.004
 2094SOL    HW2 6627   0.832   4.818   5.136
 2095SOL     OW 6628   0.916   4.634   4.015
 2095SOL    HW1 6629   0.979   4.672   3.947
 2095SOL    HW2 6630   0.956   4.551   4.054
 2096SOL     OW 6631   1.504   5.331   3.768
 2096SOL    HW1 6632   1.412   5.368   3.775
 2096SOL    HW2 6633   1.542   5.351   3.678
 2097SOL     OW 6634   0.372   5.012   5.214
 2097SOL    HW1 6635   0.359   5.105   5.180
 2097SOL    HW2 6636   0.288   4.960   5.201
 2098SOL     OW 6637   1.614   5.016   5.013
 2098SOL    HW1 6638   1.674   5.019   5.093
 2098SOL    HW2 6639   1.539   5.080   5.026
 2099SOL     OW 6640   1.039   4.822   4.420
 2099SOL    HW1 6641   0.969   4.775   4.474
 2099SOL    HW2 6642   1.098   4.754   4.377
 2100SOL     OW 6643   1.014   3.960   4.695
 2100SOL    HW1 6644   1.006   3.924   4.602
 2100SOL    HW2 6645   1.012   3.884   4.760
 2101SOL     OW 6646   0.590   5.211   4.215
 2101SOL    HW1 6647   0.632   5.153   4.145
 2101SOL    HW2 6648   0.546   5.290   4.171
 2102SOL     OW 6649   1.709   4.109   5.105
 2102SOL    HW1 6650   1.782   4.178   5.109
 2102SOL    HW2 6651   1.737   4.034   5.046
 2103SOL     OW 6652   0.255   5.072   4.014
 2103SOL    HW1 6653   0.159   5.073   3.987
 2103SOL    HW2 6654   0.267   5.125   4.098
 2104SOL     OW 6655   0.105   4.737   5.450
 2104SOL    HW1 6656   0.028   4.704   5.504
 2104SOL    HW2 6657   0.190   4.707   5.492
 2105SOL     OW 6658   0.672   3.927   5.213
 2105SOL    HW1 6659   0.762   3.911   5.173
 2105SOL    HW2 6660   0.680   3.932   5.312
 2106SOL     OW 6661   0.075   4.069   3.757
 2106SOL    HW1 6662  -0.017   4.041   3.728
 2106SOL    HW2 6663   0.106   4.146   3.701
 2107SOL     OW 6664   1.440   4.580   5.122
 2107SOL    HW1 6665   1.383   4.632   5.059
 2107SOL    HW2 6666   1.536   4.592   5.098
 2108SOL     OW 6667   0.072   3.890   4.042
 2108SOL    HW1 6668   0.055   3.973   3.988
 2108SOL    HW2 6669   0.162   3.853   4.020
 2109SOL     OW 6670   1.183   5.059   3.843
 2109SOL    HW1 6671   1.084   5.048   3.845
 2109SOL    HW2 6672   1.217   5.074   3.936
 2110SOL     OW 6673   0.613   4.566   5.155
 2110SOL    HW1 6674   0.669   4.647   5.138
 2110SOL    HW2 6675   0.672   4.486   5.158
 2111SOL     OW 6676   1.493   5.491   4.683
 2111SOL    HW1 6677   1.526   5.555   4.614
 2111SOL    HW2 6678   1.559   5.485   4.758
 2112SOL     OW 6679   0.716   4.289   5.432
 2112SOL    HW1 6680   0.735   4.354   5.506
 2112SOL    HW2 6681   0.776   4.209   5.441
 2113SOL     OW 6682   1.450   4.944   5.357
 2113SOL    HW1 6683   1.441   4.934   5.456
 2113SOL    HW2 6684   1.546   4.937   5.331
 2114SOL     OW 6685   0.390   5.465   5.284
 2114SOL    HW1 6686   0.299   5.506   5.282
 2114SOL    HW2 6687   0.383   5.371   5.316
 2115SOL     OW 6688   1.674   4.607   4.978
 2115SOL    HW1 6689   1.647   4.518   4.941
 2115SOL    HW2 6690   1.675   4.675   4.905
 2116SOL     OW 6691   1.225   4.049   4.173
 2116SOL    HW1 6692   1.290   3.975   4.162
 2116SOL    HW2 6693   1.245   4.099   4.257
 2117SOL     OW 6694   0.594   4.469   4.376
 2117SOL    HW1 6695   0.644   4.554   4.357
 2117SOL    HW2 6696   0.506   4.471   4.328
 2118SOL     OW 6697   1.777   4.066   5.366
 2118SOL    HW1 6698   1.760   4.097   5.272
 2118SOL    HW2 6699   1.693   4.029   5.404
 2119SOL     OW 6700   1.730   4.658   5.241
 2119SOL    HW1 6701   1.768   4.749   5.256
 2119SOL    HW2 6702   1.722   4.641   5.142
 2120SOL     OW 6703   0.859   5.098   3.740
 2120SOL    HW1 6704   0.813   5.113   3.828
 2120SOL    HW2 6705   0.903   5.183   3.710
 2121SOL     OW 6706   0.661   5.514   4.677
 2121SOL    HW1 6707   0.615   5.602   4.664
 2121SOL    HW2 6708   0.760   5.526   4.670
 2122SOL     OW 6709   0.859   4.680   4.585
 2122SOL    HW1 6710   0.913   4.611   4.633
 2122SOL    HW2 6711   0.827   4.749   4.651
 2123SOL     OW 6712   1.083   4.708   3.811
 2123SOL    HW1 6713   1.060   4.761   3.729
 2123SOL    HW2 6714   1.164   4.652   3.792
 2124SOL     OW 6715   1.861   5.293   4.575
 2124SOL    HW1 6716   1.790   5.281   4.505
 2124SOL    HW2 6717   1.862   5.214   4.635
 2125SOL     OW 6718   0.221   5.038   5.568
 2125SOL    HW1 6719   0.156   4.965   5.547
 2125SOL    HW2 6720   0.225   5.052   5.666
 2126SOL     OW 6721   0.079   4.964   4.377
 2126SOL    HW1 6722   0.078   4.917   4.465
 2126SOL    HW2 6723   0.161   4.936   4.326
 2127SOL     OW 6724   0.672   5.115   5.348
 2127SOL    HW1 6725   0.594   5.065   5.386
 2127SOL    HW2 6726   0.669   5.210   5.379
 2128SOL     OW 6727   1.824   3.916   4.951
 2128SOL    HW1 6728   1.820   3.826   4.995
 2128SOL    HW2 6729   1.827   3.905   4.852
 2129SOL     OW 6730   0.428   4.148   4.244
 2129SOL    HW1 6731   0.458   4.076   4.182
 2129SOL    HW2 6732   0.389   4.108   4.327
 2130SOL     OW 6733   1.705   5.211   4.828
 2130SOL    HW1 6734   1.612   5.186   4.801
 2130SOL    HW2 6735   1.731   5.161   4.910
 2131SOL     OW 6736   0.317   4.271   5.004
 2131SOL    HW1 6737   0.355   4.212   5.076
 2131SOL    HW2 6738   0.357   4.245   4.916
 2132SOL     OW 6739   0.812   5.310   4.411
 2132SOL    HW1 6740   0.844   5.320   4.317
 2132SOL    HW2 6741   0.733   5.248   4.413
 2133SOL     OW 6742   1.424   3.938   4.836
 2133SOL    HW1 6743   1.476   3.873   4.891
 2133SOL    HW2 6744   1.375   4.001   4.897
 2134SOL     OW 6745   1.001   3.758   4.878
 2134SOL    HW1 6746   0.938   3.686   4.847
 2134SOL    HW2 6747   1.094   3.722   4.878
 2135SOL     OW 6748   0.770   5.054   4.025
 2135SOL    HW1 6749   0.724   4.967   4.042
 2135SOL    HW2 6750   0.861   5.051   4.066
 2136SOL     OW 6751   0.618   5.291   5.008
 2136SOL    HW1 6752   0.613   5.373   5.065
 2136SOL    HW2 6753   0.707   5.288   4.963
 2137SOL     OW 6754   1.352   3.776   3.892
 2137SOL    HW1 6755   1.387   3.735   3.808
 2137SOL    HW2 6756   1.262   3.738   3.912
 2138SOL     OW 6757   1.300   4.177   4.415
 2138SOL    HW1 6758   1.241   4.257   4.419
 2138SOL    HW2 6759   1.315   4.142   4.508
 2139SOL     OW 6760   1.593   3.945   4.606
 2139SOL    HW1 6761   1.509   3.944   4.660
 2139SOL    HW2 6762   1.595   4.028   4.550
 2140SOL     OW 6763   0.039   4.801   4.024
 2140SOL    HW1 6764   0.138   4.790   4.015
 2140SOL    HW2 6765  -0.001   4.715   4.056
 2141SOL     OW 6766   0.875   5.370   4.061
 2141SOL    HW1 6767   0.798   5.335   4.007
 2141SOL    HW2 6768   0.843   5.441   4.123
 2142SOL     OW 6769   0.230   4.352   5.699
 2142SOL    HW1 6770   0.137   4.350   5.736
 2142SOL    HW2 6771   0.231   4.313   5.607
 2143SOL     OW 6772   0.019   4.092   6.233
 2143SOL    HW1 6773  -0.063   4.135   6.272
 2143SOL    HW2 6774  -0.009   4.019   6.170
 2144SOL     OW 6775   1.555   5.235   6.289
 2144SOL    HW1 6776   1.498   5.219   6.370
 2144SOL    HW2 6777   1.496   5.245   6.209
 2145SOL     OW 6778   1.135   4.427   6.303
 2145SOL    HW1 6779   1.192   4.505   6.278
 2145SOL    HW2 6780   1.075   4.453   6.379
 2146SOL     OW 6781   1.755   4.331   5.817
 2146SOL    HW1 6782   1.743   4.318   5.718
 2146SOL    HW2 6783   1.725   4.250   5.866
 2147SOL     OW 6784   0.685   4.736   6.251
 2147SOL    HW1 6785   0.754   4.720   6.321
 2147SOL    HW2 6786   0.612   4.793   6.289
 2148SOL     OW 6787   1.603   4.171   6.323
 2148SOL    HW1 6788   1.529   4.217   6.273
 2148SOL    HW2 6789   1.654   4.239   6.376
 2149SOL     OW 6790   0.231   5.437   6.069
 2149SOL    HW1 6791   0.265   5.514   6.123
 2149SOL    HW2 6792   0.275   5.437   5.979
 2150SOL     OW 6793   0.230   5.158   6.124
 2150SOL    HW1 6794   0.204   5.254   6.124
 2150SOL    HW2 6795   0.159   5.104   6.169
 2151SOL     OW 6796   0.240   4.815   6.472
 2151SOL    HW1 6797   0.254   4.731   6.524
 2151SOL    HW2 6798   0.185   4.879   6.527
 2152SOL     OW 6799   0.606   4.688   5.709
 2152SOL    HW1 6800   0.613   4.772   5.655
 2152SOL    HW2 6801   0.652   4.701   5.797
 2153SOL     OW 6802   0.122   4.367   6.149
 2153SOL    HW1 6803   0.077   4.279   6.166
 2153SOL    HW2 6804   0.121   4.421   6.233
 2154SOL     OW 6805   1.842   5.491   5.945
 2154SOL    HW1 6806   1.896   5.462   6.025
 2154SOL    HW2 6807   1.872   5.581   5.916
 2155SOL     OW 6808   0.027   5.320   5.703
 2155SOL    HW1 6809   0.008   5.224   5.724
 2155SOL    HW2 6810  -0.006   5.378   5.778
 2156SOL     OW 6811   1.689   4.646   6.198
 2156SOL    HW1 6812   1.784   4.617   6.206
 2156SOL    HW2 6813   1.681   4.711   6.123
 2157SOL     OW 6814   1.641   4.832   6.018
 2157SOL    HW1 6815   1.727   4.834   5.966
 2157SOL    HW2 6816   1.655   4.879   6.106
 2158SOL     OW 6817   0.613   5.089   6.312
 2158SOL    HW1 6818   0.564   5.002   6.321
 2158SOL    HW2 6819   0.590   5.132   6.225
 2159SOL     OW 6820   0.809   3.728   6.088
 2159SOL    HW1 6821   0.849   3.819   6.079
 2159SOL    HW2 6822   0.709   3.736   6.094
 2160SOL     OW 6823   1.525   4.723   5.776
 2160SOL    HW1 6824   1.462   4.647   5.789
 2160SOL    HW2 6825   1.573   4.741   5.862
 2161SOL     OW 6826   1.667   5.438   6.158
 2161SOL    HW1 6827   1.626   5.415   6.070
 2161SOL    HW2 6828   1.649   5.364   6.223
 2162SOL     OW 6829   0.598   4.453   5.856
 2162SOL    HW1 6830   0.622   4.522   5.788
 2162SOL    HW2 6831   0.520   4.486   5.910
 2163SOL     OW 6832   1.576   5.386   5.893
 2163SOL    HW1 6833   1.665   5.432   5.896
 2163SOL    HW2 6834   1.555   5.362   5.798
 2164SOL     OW 6835   1.041   4.425   6.015
 2164SOL    HW1 6836   1.067   4.421   6.111
 2164SOL    HW2 6837   0.956   4.374   6.001
 2165SOL     OW 6838   0.076   4.535   6.375
 2165SOL    HW1 6839   0.175   4.523   6.384
 2165SOL    HW2 6840   0.052   4.630   6.396
 2166SOL     OW 6841   0.865   4.072   5.781
 2166SOL    HW1 6842   0.924   4.135   5.732
 2166SOL    HW2 6843   0.884   3.978   5.752
 2167SOL     OW 6844   1.362   4.868   6.131
 2167SOL    HW1 6845   1.445   4.839   6.083
 2167SOL    HW2 6846   1.313   4.935   6.075
 2168SOL     OW 6847   0.550   3.920   6.471
 2168SOL    HW1 6848   0.545   3.915   6.571
 2168SOL    HW2 6849   0.552   4.016   6.442
 2169SOL     OW 6850   1.008   5.180   6.063
 2169SOL    HW1 6851   0.962   5.252   6.011
 2169SOL    HW2 6852   1.004   5.200   6.161
 2170SOL     OW 6853   0.351   5.525   6.439
 2170SOL    HW1 6854   0.401   5.439   6.445
 2170SOL    HW2 6855   0.416   5.602   6.436
 2171SOL     OW 6856   1.795   4.790   6.459
 2171SOL    HW1 6857   1.733   4.775   6.383
 2171SOL    HW2 6858   1.743   4.801   6.544
 2172SOL     OW 6859   0.321   4.667   5.828
 2172SOL    HW1 6860   0.403   4.706   5.786
 2172SOL    HW2 6861   0.294   4.585   5.779
 2173SOL     OW 6862   1.458   4.459   6.314
 2173SOL    HW1 6863   1.453   4.394   6.389
 2173SOL    HW2 6864   1.538   4.518   6.327
 2174SOL     OW 6865   1.111   5.500   5.823
 2174SOL    HW1 6866   1.051   5.438   5.873
 2174SOL    HW2 6867   1.142   5.456   5.738
 2175SOL     OW 6868   1.632   5.101   5.667
 2175SOL    HW1 6869   1.600   5.195   5.657
 2175SOL    HW2 6870   1.556   5.038   5.655
 2176SOL     OW 6871   0.464   5.467   5.909
 2176SOL    HW1 6872   0.497   5.506   5.995
 2176SOL    HW2 6873   0.540   5.460   5.844
 2177SOL     OW 6874   1.400   3.831   6.012
 2177SOL    HW1 6875   1.376   3.794   5.922
 2177SOL    HW2 6876   1.499   3.847   6.016
 2178SOL     OW 6877   0.940   5.422   6.490
 2178SOL    HW1 6878   1.020   5.365   6.511
 2178SOL    HW2 6879   0.891   5.382   6.413
 2179SOL     OW 6880   0.382   4.424   6.066
 2179SOL    HW1 6881   0.427   4.334   6.063
 2179SOL    HW2 6882   0.288   4.413   6.099
 2180SOL     OW 6883   0.614   3.846   5.703
 2180SOL    HW1 6884   0.712   3.824   5.710
 2180SOL    HW2 6885   0.583   3.829   5.610
 2181SOL     OW 6886   0.803   5.126   6.510
 2181SOL    HW1 6887   0.893   5.140   6.468
 2181SOL    HW2 6888   0.732   5.128   6.439
 2182SOL     OW 6889   0.922   4.227   6.485
 2182SOL    HW1 6890   0.897   4.218   6.389
 2182SOL    HW2 6891   0.970   4.145   6.516
 2183SOL     OW 6892   0.539   3.788   6.098
 2183SOL    HW1 6893   0.458   3.789   6.156
 2183SOL    HW2 6894   0.542   3.871   6.043
 2184SOL     OW 6895   1.434   4.912   5.627
 2184SOL    HW1 6896   1.466   4.836   5.684
 2184SOL    HW2 6897   1.342   4.939   5.657
 2185SOL     OW 6898   0.297   3.759   5.757
 2185SOL    HW1 6899   0.346   3.843   5.736
 2185SOL    HW2 6900   0.359   3.694   5.802
 2186SOL     OW 6901   0.935   3.960   6.066
 2186SOL    HW1 6902   0.887   4.001   5.988
 2186SOL    HW2 6903   1.034   3.958   6.047
 2187SOL     OW 6904   1.227   5.294   6.379
 2187SOL    HW1 6905   1.248   5.368   6.314
 2187SOL    HW2 6906   1.295   5.294   6.452
 2188SOL     OW 6907   0.459   4.876   6.327
 2188SOL    HW1 6908   0.388   4.849   6.392
 2188SOL    HW2 6909   0.433   4.848   6.234
 2189SOL     OW 6910   1.271   5.521   6.177
 2189SOL    HW1 6911   1.315   5.585   6.113
 2189SOL    HW2 6912   1.221   5.573   6.247
 2190SOL     OW 6913   1.032   4.273   5.602
 2190SOL    HW1 6914   0.991   4.355   5.563
 2190SOL    HW2 6915   1.096   4.299   5.675
 2191SOL     OW 6916   0.866   4.178   6.228
 2191SOL    HW1 6917   0.834   4.250   6.166
 2191SOL    HW2 6918   0.890   4.097   6.175
 2192SOL     OW 6919   1.017   3.763   6.339
 2192SOL    HW1 6920   0.945   3.768   6.270
 2192SOL    HW2 6921   0.993   3.694   6.408
 2193SOL     OW 6922   1.429   4.897   6.453
 2193SOL    HW1 6923   1.374   4.813   6.446
 2193SOL    HW2 6924   1.455   4.926   6.361
 2194SOL     OW 6925   1.857   4.557   5.963
 2194SOL    HW1 6926   1.899   4.493   6.027
 2194SOL    HW2 6927   1.819   4.506   5.885
 2195SOL     OW 6928   0.488   5.109   5.760
 2195SOL    HW1 6929   0.401   5.094   5.807
 2195SOL    HW2 6930   0.471   5.135   5.665
 2196SOL     OW 6931   1.664   5.004   6.243
 2196SOL    HW1 6932   1.763   5.012   6.257
 2196SOL    HW2 6933   1.619   5.088   6.274
 2197SOL     OW 6934   1.390   4.299   5.664
 2197SOL    HW1 6935   1.336   4.278   5.745
 2197SOL    HW2 6936   1.481   4.258   5.673
 2198SOL     OW 6937   0.527   3.980   5.914
 2198SOL    HW1 6938   0.554   3.921   5.839
 2198SOL    HW2 6939   0.527   4.075   5.883
 2199SOL     OW 6940   0.705   4.774   5.954
 2199SOL    HW1 6941   0.691   4.781   6.053
 2199SOL    HW2 6942   0.789   4.723   5.936
 2200SOL     OW 6943   0.367   4.824   6.087
 2200SOL    HW1 6944   0.360   4.907   6.031
 2200SOL    HW2 6945   0.371   4.744   6.027
 2201SOL     OW 6946   0.566   4.261   6.451
 2201SOL    HW1 6947   0.578   4.327   6.377
 2201SOL    HW2 6948   0.612   4.295   6.534
 2202SOL     OW 6949   1.252   5.072   5.974
 2202SOL    HW1 6950   1.302   5.149   6.014
 2202SOL    HW2 6951   1.157   5.074   6.006
 2203SOL     OW 6952   1.582   4.363   6.058
 2203SOL    HW1 6953   1.551   4.424   6.131
 2203SOL    HW2 6954   1.632   4.415   5.989
 2204SOL     OW 6955   1.209   4.249   5.861
 2204SOL    HW1 6956   1.222   4.165   5.915
 2204SOL    HW2 6957   1.180   4.323   5.921
 2205SOL     OW 6958   0.307   3.787   6.204
 2205SOL    HW1 6959   0.296   3.881   6.237
 2205SOL    HW2 6960   0.302   3.724   6.281
 2206SOL     OW 6961   1.622   4.091   5.960
 2206SOL    HW1 6962   1.624   4.015   6.024
 2206SOL    HW2 6963   1.574   4.168   6.000
 2207SOL     OW 6964   1.540   3.998   5.711
 2207SOL    HW1 6965   1.479   3.923   5.734
 2207SOL    HW2 6966   1.562   4.050   5.794
 2208SOL     OW 6967   1.303   4.562   5.628
 2208SOL    HW1 6968   1.337   4.469   5.643
 2208SOL    HW2 6969   1.321   4.589   5.533
 2209SOL     OW 6970   1.068   5.057   6.435
 2209SOL    HW1 6971   1.075   4.973   6.380
 2209SOL    HW2 6972   1.130   5.126   6.399
 2210SOL     OW 6973   0.008   5.050   5.786
 2210SOL    HW1 6974  -0.085   5.071   5.755
 2210SOL    HW2 6975   0.018   4.951   5.799
 2211SOL     OW 6976   0.504   5.292   6.496
 2211SOL    HW1 6977   0.570   5.366   6.505
 2211SOL    HW2 6978   0.548   5.213   6.454
 2212SOL     OW 6979   0.815   4.296   5.911
 2212SOL    HW1 6980   0.822   4.207   5.865
 2212SOL    HW2 6981   0.721   4.330   5.903
 2213SOL     OW 6982   0.473   4.224   5.777
 2213SOL    HW1 6983   0.534   4.304   5.781
 2213SOL    HW2 6984   0.378   4.255   5.784
 2214SOL     OW 6985   1.302   4.579   5.895
 2214SOL    HW1 6986   1.216   4.548   5.937
 2214SOL    HW2 6987   1.298   4.565   5.796
 2215SOL     OW 6988   1.726   3.859   6.109
 2215SOL    HW1 6989   1.799   3.842   6.042
 2215SOL    HW2 6990   1.695   3.772   6.147
 2216SOL     OW 6991   1.388   5.297   6.063
 2216SOL    HW1 6992   1.455   5.309   5.989
 2216SOL    HW2 6993   1.348   5.386   6.086
 2217SOL     OW 6994   1.280   4.651   6.258
 2217SOL    HW1 6995   1.340   4.570   6.260
 2217SOL    HW2 6996   1.320   4.720   6.198
 2218SOL     OW 6997   0.672   5.340   5.740
 2218SOL    HW1 6998   0.681   5.350   5.641
 2218SOL    HW2 6999   0.632   5.251   5.761
 2219SOL     OW 7000   0.263   4.050   6.306
 2219SOL    HW1 7001   0.184   4.101   6.272
 2219SOL    HW2 7002   0.254   4.035   6.404
 2220SOL     OW 7003   1.194   5.336   5.617
 2220SOL    HW1 7004   1.200   5.243   5.654
 2220SOL    HW2 7005   1.135   5.336   5.537
 2221SOL     OW 7006   0.916   4.634   5.877
 2221SOL    HW1 7007   0.979   4.672   5.809
 2221SOL    HW2 7008   0.956   4.551   5.916
 2222SOL     OW 7009   1.504   5.331   5.630
 2222SOL    HW1 7010   1.412   5.368   5.637
 2222SOL    HW2 7011   1.542   5.351   5.540
 2223SOL     OW 7012   1.039   4.822   6.282
 2223SOL    HW1 7013   0.969   4.775   6.336
 2223SOL    HW2 7014   1.098   4.754   6.239
 2224SOL     OW 7015   1.014   3.960   6.557
 2224SOL    HW1 7016   1.006   3.924   6.464
 2224SOL    HW2 7017   1.012   3.884   6.622
 2225SOL     OW 7018   0.590   5.211   6.077
 2225SOL    HW1 7019   0.632   5.153   6.007
 2225SOL    HW2 7020   0.546   5.290   6.033
 2226SOL     OW 7021   0.255   5.072   5.876
 2226SOL    HW1 7022   0.159   5.073   5.849
 2226SOL    HW2 7023   0.267   5.125   5.960
 2227SOL     OW 7024   0.075   4.069   5.619
 2227SOL    HW1 7025  -0.017   4.041   5.590
 2227SOL    HW2 7026   0.106   4.146   5.563
 2228SOL     OW 7027   0.072   3.890   5.904
 2228SOL    HW1 7028   0.055   3.973   5.850
 2228SOL    HW2 7029   0.162   3.853   5.882
 2229SOL     OW 7030   1.183   5.059   5.705
 2229SOL    HW1 7031   1.084   5.048   5.707
 2229SOL    HW2 7032   1.217   5.074   5.798
 2230SOL     OW 7033   1.225   4.049   6.035
 2230SOL    HW1 7034   1.290   3.975   6.024
 2230SOL    HW2 7035   1.245   4.099   6.119
 2231SOL     OW 7036   0.594   4.469   6.238
 2231SOL    HW1 7037   0.644   4.554   6.219
 2231SOL    HW2 7038   0.506   4.471   6.190
 2232SOL     OW 7039   0.859   5.098   5.602
 2232SOL    HW1 7040   0.813   5.113   5.690
 2232SOL    HW2 7041   0.903   5.183   5.572
 2233SOL     OW 7042   0.859   4.680   6.447
 2233SOL    HW1 7043   0.913   4.611   6.495
 2233SOL    HW2 7044   0.827   4.749   6.513
 2234SOL     OW 7045   1.083   4.708   5.673
 2234SOL    HW1 7046   1.060   4.761   5.591
 2234SOL    HW2 7047   1.164   4.652   5.654
 2235SOL     OW 7048   1.861   5.293   6.437
 2235SOL    HW1 7049   1.790   5.281   6.367
 2235SOL    HW2 7050   1.862   5.214   6.497
 2236SOL     OW 7051   0.079   4.964   6.239
 2236SOL    HW1 7052   0.078   4.917   6.327
 2236SOL    HW2 7053   0.161   4.936   6.188
 2237SOL     OW 7054   0.428   4.148   6.106
 2237SOL    HW1 7055   0.458   4.076   6.044
 2237SOL    HW2 7056   0.389   4.108   6.189
 2238SOL     OW 7057   0.812   5.310   6.273
 2238SOL    HW1 7058   0.844   5.320   6.179
 2238SOL    HW2 7059   0.733   5.248   6.275
 2239SOL     OW 7060   0.770   5.054   5.887
 2239SOL    HW1 7061   0.724   4.967   5.904
 2239SOL    HW2 7062   0.861   5.051   5.928
 2240SOL     OW 7063   1.352   3.776   5.754
 2240SOL    HW1 7064   1.387   3.735   5.670
 2240SOL    HW2 7065   1.262   3.738   5.774
 2241SOL     OW 7066   1.300   4.177   6.277
 2241SOL    HW1 7067   1.241   4.257   6.281
 2241SOL    HW2 7068   1.315   4.142   6.370
 2242SOL     OW 7069   1.593   3.945   6.468
 2242SOL    HW1 7070   1.509   3.944   6.522
 2242SOL    HW2 7071   1.595   4.028   6.412
 2243SOL     OW 7072   0.039   4.801   5.886
 2243SOL    HW1 7073   0.138   4.790   5.877
 2243SOL    HW2 7074  -0.001   4.715   5.918
 2244SOL     OW 7075   0.875   5.370   5.923
 2244SOL    HW1 7076   0.798   5.335   5.869
 2244SOL    HW2 7077   0.843   5.441   5.985
 2245SOL     OW 7078   0.230   6.214   0.113
 2245SOL    HW1 7079   0.137   6.212   0.150
 2245SOL    HW2 7080   0.231   6.175   0.021
 2246SOL     OW 7081   0.225   5.861   0.996
 2246SOL    HW1 7082   0.260   5.844   1.088
 2246SOL    HW2 7083   0.137   5.816   0.984
 2247SOL     OW 7084   0.019   5.954   0.647
 2247SOL    HW1 7085  -0.063   5.997   0.686
 2247SOL    HW2 7086  -0.009   5.881   0.584
 2248SOL     OW 7087   0.569   6.861   1.165
 2248SOL    HW1 7088   0.476   6.854   1.128
 2248SOL    HW2 7089   0.580   6.950   1.209
 2249SOL     OW 7090   1.555   7.097   0.703
 2249SOL    HW1 7091   1.498   7.081   0.784
 2249SOL    HW2 7092   1.496   7.107   0.623
 2250SOL     OW 7093   1.135   6.289   0.717
 2250SOL    HW1 7094   1.192   6.367   0.692
 2250SOL    HW2 7095   1.075   6.315   0.793
 2251SOL     OW 7096   1.755   6.193   0.231
 2251SOL    HW1 7097   1.743   6.180   0.132
 2251SOL    HW2 7098   1.725   6.112   0.280
 2252SOL     OW 7099   0.768   6.730   1.023
 2252SOL    HW1 7100   0.690   6.747   1.083
 2252SOL    HW2 7101   0.802   6.817   0.987
 2253SOL     OW 7102   0.850   6.384   1.823
 2253SOL    HW1 7103   0.846   6.460   1.888
 2253SOL    HW2 7104   0.872   6.420   1.732
 2254SOL     OW 7105   0.685   6.598   0.665
 2254SOL    HW1 7106   0.754   6.582   0.735
 2254SOL    HW2 7107   0.612   6.655   0.703
 2255SOL     OW 7108   0.686   6.747   1.803
 2255SOL    HW1 7109   0.746   6.826   1.817
 2255SOL    HW2 7110   0.600   6.778   1.762
 2256SOL     OW 7111   0.335   7.021   1.061
 2256SOL    HW1 7112   0.257   6.990   1.008
 2256SOL    HW2 7113   0.393   7.079   1.004
 2257SOL     OW 7114   1.460   7.091   1.339
 2257SOL    HW1 7115   1.484   7.185   1.365
 2257SOL    HW2 7116   1.444   7.037   1.421
 2258SOL     OW 7117   0.438   5.978   1.499
 2258SOL    HW1 7118   0.520   5.922   1.508
 2258SOL    HW2 7119   0.357   5.920   1.503
 2259SOL     OW 7120   1.603   6.033   0.737
 2259SOL    HW1 7121   1.529   6.079   0.687
 2259SOL    HW2 7122   1.654   6.101   0.790
 2260SOL     OW 7123   0.231   7.299   0.483
 2260SOL    HW1 7124   0.265   7.376   0.537
 2260SOL    HW2 7125   0.275   7.299   0.393
 2261SOL     OW 7126   1.127   6.927   1.690
 2261SOL    HW1 7127   1.174   6.927   1.778
 2261SOL    HW2 7128   1.079   6.840   1.679
 2262SOL     OW 7129   0.230   7.020   0.538
 2262SOL    HW1 7130   0.204   7.116   0.538
 2262SOL    HW2 7131   0.159   6.966   0.583
 2263SOL     OW 7132   0.240   6.677   0.886
 2263SOL    HW1 7133   0.254   6.593   0.938
 2263SOL    HW2 7134   0.185   6.741   0.941
 2264SOL     OW 7135   0.620   7.372   1.439
 2264SOL    HW1 7136   0.528   7.355   1.474
 2264SOL    HW2 7137   0.648   7.464   1.465
 2265SOL     OW 7138   0.606   6.550   0.123
 2265SOL    HW1 7139   0.613   6.634   0.069
 2265SOL    HW2 7140   0.652   6.563   0.211
 2266SOL     OW 7141   1.594   5.700   1.480
 2266SOL    HW1 7142   1.576   5.767   1.408
 2266SOL    HW2 7143   1.591   5.746   1.569
 2267SOL     OW 7144   0.122   6.229   0.563
 2267SOL    HW1 7145   0.077   6.141   0.580
 2267SOL    HW2 7146   0.121   6.283   0.647
 2268SOL     OW 7147   1.842   7.353   0.359
 2268SOL    HW1 7148   1.896   7.324   0.439
 2268SOL    HW2 7149   1.872   7.443   0.330
 2269SOL     OW 7150   0.027   7.182   0.117
 2269SOL    HW1 7151   0.008   7.086   0.138
 2269SOL    HW2 7152  -0.006   7.240   0.192
 2270SOL     OW 7153   1.689   6.508   0.612
 2270SOL    HW1 7154   1.784   6.479   0.620
 2270SOL    HW2 7155   1.681   6.573   0.537
 2271SOL     OW 7156   1.641   6.694   0.432
 2271SOL    HW1 7157   1.727   6.696   0.380
 2271SOL    HW2 7158   1.655   6.741   0.520
 2272SOL     OW 7159   0.113   6.323   1.597
 2272SOL    HW1 7160   0.201   6.310   1.642
 2272SOL    HW2 7161   0.100   6.420   1.575
 2273SOL     OW 7162   0.613   6.951   0.726
 2273SOL    HW1 7163   0.564   6.864   0.735
 2273SOL    HW2 7164   0.590   6.994   0.639
 2274SOL     OW 7165   1.293   6.814   1.423
 2274SOL    HW1 7166   1.330   6.741   1.365
 2274SOL    HW2 7167   1.345   6.819   1.508
 2275SOL     OW 7168   0.809   5.590   0.502
 2275SOL    HW1 7169   0.849   5.681   0.493
 2275SOL    HW2 7170   0.709   5.598   0.508
 2276SOL     OW 7171   0.197   6.562   1.264
 2276SOL    HW1 7172   0.286   6.517   1.250
 2276SOL    HW2 7173   0.124   6.497   1.245
 2277SOL     OW 7174   1.525   6.585   0.190
 2277SOL    HW1 7175   1.462   6.509   0.203
 2277SOL    HW2 7176   1.573   6.603   0.276
 2278SOL     OW 7177   1.187   7.378   1.616
 2278SOL    HW1 7178   1.211   7.438   1.540
 2278SOL    HW2 7179   1.194   7.283   1.586
 2279SOL     OW 7180   0.317   5.837   1.801
 2279SOL    HW1 7181   0.388   5.908   1.807
 2279SOL    HW2 7182   0.229   5.876   1.829
 2280SOL     OW 7183   1.466   7.003   0.953
 2280SOL    HW1 7184   1.407   7.009   1.033
 2280SOL    HW2 7185   1.451   6.915   0.907
 2281SOL     OW 7186   1.667   7.300   0.572
 2281SOL    HW1 7187   1.626   7.277   0.484
 2281SOL    HW2 7188   1.649   7.226   0.637
 2282SOL     OW 7189   0.598   6.315   0.270
 2282SOL    HW1 7190   0.622   6.384   0.202
 2282SOL    HW2 7191   0.520   6.348   0.324
 2283SOL     OW 7192   1.281   5.931   0.944
 2283SOL    HW1 7193   1.195   5.881   0.931
 2283SOL    HW2 7194   1.343   5.877   1.000
 2284SOL     OW 7195   1.576   7.248   0.307
 2284SOL    HW1 7196   1.665   7.294   0.310
 2284SOL    HW2 7197   1.555   7.224   0.212
 2285SOL     OW 7198   0.807   6.191   1.465
 2285SOL    HW1 7199   0.760   6.188   1.554
 2285SOL    HW2 7200   0.756   6.136   1.399
 2286SOL     OW 7201   1.394   6.055   1.674
 2286SOL    HW1 7202   1.374   6.098   1.762
 2286SOL    HW2 7203   1.472   5.993   1.683
 2287SOL     OW 7204   0.973   6.476   1.572
 2287SOL    HW1 7205   1.019   6.392   1.543
 2287SOL    HW2 7206   0.917   6.510   1.497
 2288SOL     OW 7207   0.991   5.996   1.242
 2288SOL    HW1 7208   0.914   6.030   1.296
 2288SOL    HW2 7209   0.957   5.945   1.163
 2289SOL     OW 7210   1.041   6.287   0.429
 2289SOL    HW1 7211   1.067   6.283   0.525
 2289SOL    HW2 7212   0.956   6.236   0.415
 2290SOL     OW 7213   0.076   6.397   0.789
 2290SOL    HW1 7214   0.175   6.385   0.798
 2290SOL    HW2 7215   0.052   6.492   0.810
 2291SOL     OW 7216   0.130   7.407   1.571
 2291SOL    HW1 7217   0.120   7.392   1.670
 2291SOL    HW2 7218   0.044   7.443   1.535
 2292SOL     OW 7219   0.865   5.934   0.195
 2292SOL    HW1 7220   0.924   5.997   0.146
 2292SOL    HW2 7221   0.884   5.840   0.166
 2293SOL     OW 7222   1.719   6.171   1.831
 2293SOL    HW1 7223   1.693   6.260   1.795
 2293SOL    HW2 7224   1.717   6.103   1.758
 2294SOL     OW 7225   1.362   6.730   0.545
 2294SOL    HW1 7226   1.445   6.701   0.497
 2294SOL    HW2 7227   1.313   6.797   0.489
 2295SOL     OW 7228   0.550   5.782   0.885
 2295SOL    HW1 7229   0.545   5.777   0.985
 2295SOL    HW2 7230   0.552   5.878   0.856
 2296SOL     OW 7231   1.008   7.042   0.477
 2296SOL    HW1 7232   0.962   7.114   0.425
 2296SOL    HW2 7233   1.004   7.062   0.575
 2297SOL     OW 7234   0.351   7.387   0.853
 2297SOL    HW1 7235   0.401   7.301   0.859
 2297SOL    HW2 7236   0.416   7.464   0.850
 2298SOL     OW 7237   1.795   6.652   0.873
 2298SOL    HW1 7238   1.733   6.637   0.797
 2298SOL    HW2 7239   1.743   6.663   0.958
 2299SOL     OW 7240   1.227   7.136   1.506
 2299SOL    HW1 7241   1.233   7.059   1.570
 2299SOL    HW2 7242   1.175   7.110   1.426
 2300SOL     OW 7243   0.321   6.529   0.242
 2300SOL    HW1 7244   0.403   6.568   0.200
 2300SOL    HW2 7245   0.294   6.447   0.193
 2301SOL     OW 7246   1.458   6.321   0.728
 2301SOL    HW1 7247   1.453   6.256   0.803
 2301SOL    HW2 7248   1.538   6.380   0.741
 2302SOL     OW 7249   0.461   6.852   1.727
 2302SOL    HW1 7250   0.411   6.853   1.641
 2302SOL    HW2 7251   0.398   6.834   1.803
 2303SOL     OW 7252   1.111   7.362   0.237
 2303SOL    HW1 7253   1.051   7.300   0.287
 2303SOL    HW2 7254   1.142   7.318   0.152
 2304SOL     OW 7255   0.202   5.871   1.498
 2304SOL    HW1 7256   0.122   5.931   1.485
 2304SOL    HW2 7257   0.192   5.822   1.584
 2305SOL     OW 7258   1.632   6.963   0.081
 2305SOL    HW1 7259   1.600   7.057   0.071
 2305SOL    HW2 7260   1.556   6.900   0.069
 2306SOL     OW 7261   0.464   7.329   0.323
 2306SOL    HW1 7262   0.497   7.368   0.409
 2306SOL    HW2 7263   0.540   7.322   0.258
 2307SOL     OW 7264   1.400   5.693   0.426
 2307SOL    HW1 7265   1.376   5.656   0.336
 2307SOL    HW2 7266   1.499   5.709   0.430
 2308SOL     OW 7267   0.249   7.371   1.241
 2308SOL    HW1 7268   0.306   7.306   1.291
 2308SOL    HW2 7269   0.233   7.338   1.148
 2309SOL     OW 7270   0.940   7.284   0.904
 2309SOL    HW1 7271   1.020   7.227   0.925
 2309SOL    HW2 7272   0.891   7.244   0.827
 2310SOL     OW 7273   0.382   6.286   0.480
 2310SOL    HW1 7274   0.427   6.196   0.477
 2310SOL    HW2 7275   0.288   6.275   0.513
 2311SOL     OW 7276   1.547   5.808   1.729
 2311SOL    HW1 7277   1.542   5.845   1.821
 2311SOL    HW2 7278   1.475   5.739   1.717
 2312SOL     OW 7279   0.614   5.708   0.117
 2312SOL    HW1 7280   0.712   5.686   0.124
 2312SOL    HW2 7281   0.583   5.691   0.024
 2313SOL     OW 7282   0.781   5.850   1.749
 2313SOL    HW1 7283   0.848   5.789   1.792
 2313SOL    HW2 7284   0.708   5.869   1.814
 2314SOL     OW 7285   0.888   7.100   1.195
 2314SOL    HW1 7286   0.865   7.075   1.101
 2314SOL    HW2 7287   0.949   7.031   1.234
 2315SOL     OW 7288   1.351   6.176   1.433
 2315SOL    HW1 7289   1.379   6.133   1.518
 2315SOL    HW2 7290   1.376   6.272   1.434
 2316SOL     OW 7291   0.803   6.988   0.924
 2316SOL    HW1 7292   0.893   7.002   0.882
 2316SOL    HW2 7293   0.732   6.990   0.853
 2317SOL     OW 7294   0.922   6.089   0.899
 2317SOL    HW1 7295   0.897   6.080   0.803
 2317SOL    HW2 7296   0.970   6.007   0.930
 2318SOL     OW 7297   0.539   5.650   0.512
 2318SOL    HW1 7298   0.458   5.651   0.570
 2318SOL    HW2 7299   0.542   5.733   0.457
 2319SOL     OW 7300   1.434   6.774   0.041
 2319SOL    HW1 7301   1.466   6.698   0.098
 2319SOL    HW2 7302   1.342   6.801   0.071
 2320SOL     OW 7303   0.297   5.621   0.171
 2320SOL    HW1 7304   0.346   5.705   0.150
 2320SOL    HW2 7305   0.359   5.556   0.216
 2321SOL     OW 7306   0.935   5.822   0.480
 2321SOL    HW1 7307   0.887   5.863   0.402
 2321SOL    HW2 7308   1.034   5.820   0.461
 2322SOL     OW 7309   1.076   6.269   1.464
 2322SOL    HW1 7310   0.996   6.208   1.467
 2322SOL    HW2 7311   1.157   6.216   1.440
 2323SOL     OW 7312   1.227   7.156   0.793
 2323SOL    HW1 7313   1.248   7.230   0.728
 2323SOL    HW2 7314   1.295   7.156   0.866
 2324SOL     OW 7315   0.459   6.738   0.741
 2324SOL    HW1 7316   0.388   6.711   0.806
 2324SOL    HW2 7317   0.433   6.710   0.648
 2325SOL     OW 7318   1.271   7.383   0.591
 2325SOL    HW1 7319   1.315   7.447   0.527
 2325SOL    HW2 7320   1.221   7.435   0.661
 2326SOL     OW 7321   1.032   6.135   0.016
 2326SOL    HW1 7322   0.991   6.217  -0.023
 2326SOL    HW2 7323   1.096   6.161   0.089
 2327SOL     OW 7324   0.078   6.142   1.386
 2327SOL    HW1 7325   0.170   6.141   1.345
 2327SOL    HW2 7326   0.072   6.216   1.453
 2328SOL     OW 7327   0.561   5.808   1.147
 2328SOL    HW1 7328   0.599   5.724   1.184
 2328SOL    HW2 7329   0.473   5.827   1.191
 2329SOL     OW 7330   0.866   6.040   0.642
 2329SOL    HW1 7331   0.834   6.112   0.580
 2329SOL    HW2 7332   0.890   5.959   0.589
 2330SOL     OW 7333   1.017   5.625   0.753
 2330SOL    HW1 7334   0.945   5.630   0.684
 2330SOL    HW2 7335   0.993   5.556   0.822
 2331SOL     OW 7336   1.429   6.759   0.867
 2331SOL    HW1 7337   1.374   6.675   0.860
 2331SOL    HW2 7338   1.455   6.788   0.775
 2332SOL     OW 7339   1.466   6.176   0.992
 2332SOL    HW1 7340   1.436   6.081   0.999
 2332SOL    HW2 7341   1.539   6.192   1.058
 2333SOL     OW 7342   1.857   6.419   0.377
 2333SOL    HW1 7343   1.899   6.355   0.441
 2333SOL    HW2 7344   1.819   6.368   0.299
 2334SOL     OW 7345   0.488   6.971   0.174
 2334SOL    HW1 7346   0.401   6.956   0.221
 2334SOL    HW2 7347   0.471   6.997   0.079
 2335SOL     OW 7348   1.664   6.866   0.657
 2335SOL    HW1 7349   1.763   6.874   0.671
 2335SOL    HW2 7350   1.619   6.950   0.688
 2336SOL     OW 7351   1.390   6.161   0.078
 2336SOL    HW1 7352   1.336   6.140   0.159
 2336SOL    HW2 7353   1.481   6.120   0.087
 2337SOL     OW 7354   0.527   5.842   0.328
 2337SOL    HW1 7355   0.554   5.783   0.253
 2337SOL    HW2 7356   0.527   5.937   0.297
 2338SOL     OW 7357   1.754   6.809   1.588
 2338SOL    HW1 7358   1.845   6.770   1.575
 2338SOL    HW2 7359   1.762   6.905   1.612
 2339SOL     OW 7360   1.064   6.933   1.340
 2339SOL    HW1 7361   0.984   6.910   1.395
 2339SOL    HW2 7362   1.147   6.907   1.389
 2340SOL     OW 7363   1.592   7.215   1.625
 2340SOL    HW1 7364   1.619   7.249   1.535
 2340SOL    HW2 7365   1.671   7.177   1.671
 2341SOL     OW 7366   1.111   6.781   1.100
 2341SOL    HW1 7367   1.071   6.825   1.181
 2341SOL    HW2 7368   1.070   6.818   1.017
 2342SOL     OW 7369   1.638   6.685   1.079
 2342SOL    HW1 7370   1.643   6.766   1.138
 2342SOL    HW2 7371   1.552   6.687   1.028
 2343SOL     OW 7372   0.915   5.675   1.402
 2343SOL    HW1 7373   0.940   5.655   1.307
 2343SOL    HW2 7374   0.987   5.731   1.444
 2344SOL     OW 7375   0.980   6.702   1.719
 2344SOL    HW1 7376   0.881   6.708   1.729
 2344SOL    HW2 7377   1.003   6.622   1.663
 2345SOL     OW 7378   0.705   6.636   0.368
 2345SOL    HW1 7379   0.691   6.643   0.467
 2345SOL    HW2 7380   0.789   6.585   0.350
 2346SOL     OW 7381   0.410   6.399   1.251
 2346SOL    HW1 7382   0.496   6.411   1.301
 2346SOL    HW2 7383   0.368   6.312   1.278
 2347SOL     OW 7384   1.274   5.972   1.262
 2347SOL    HW1 7385   1.295   6.046   1.326
 2347SOL    HW2 7386   1.185   5.989   1.219
 2348SOL     OW 7387   0.064   7.150   1.331
 2348SOL    HW1 7388   0.018   7.232   1.297
 2348SOL    HW2 7389   0.162   7.169   1.340
 2349SOL     OW 7390   0.367   6.686   0.501
 2349SOL    HW1 7391   0.360   6.769   0.445
 2349SOL    HW2 7392   0.371   6.606   0.441
 2350SOL     OW 7393   0.566   6.123   0.865
 2350SOL    HW1 7394   0.578   6.189   0.791
 2350SOL    HW2 7395   0.612   6.157   0.948
 2351SOL     OW 7396   1.252   6.934   0.388
 2351SOL    HW1 7397   1.302   7.011   0.428
 2351SOL    HW2 7398   1.157   6.936   0.420
 2352SOL     OW 7399   1.272   7.031   1.142
 2352SOL    HW1 7400   1.319   7.044   1.229
 2352SOL    HW2 7401   1.206   6.957   1.151
 2353SOL     OW 7402   1.582   6.225   0.472
 2353SOL    HW1 7403   1.551   6.286   0.545
 2353SOL    HW2 7404   1.632   6.277   0.403
 2354SOL     OW 7405   0.354   7.096   1.329
 2354SOL    HW1 7406   0.333   7.052   1.242
 2354SOL    HW2 7407   0.451   7.122   1.332
 2355SOL     OW 7408   0.402   6.337   1.598
 2355SOL    HW1 7409   0.470   6.392   1.551
 2355SOL    HW2 7410   0.442   6.249   1.625
 2356SOL     OW 7411   1.587   6.365   1.670
 2356SOL    HW1 7412   1.495   6.403   1.665
 2356SOL    HW2 7413   1.647   6.412   1.605
 2357SOL     OW 7414   1.013   5.691   1.770
 2357SOL    HW1 7415   1.019   5.776   1.718
 2357SOL    HW2 7416   1.045   5.615   1.713
 2358SOL     OW 7417   0.504   5.636   1.740
 2358SOL    HW1 7418   0.462   5.579   1.670
 2358SOL    HW2 7419   0.438   5.705   1.772
 2359SOL     OW 7420   0.573   6.456   1.029
 2359SOL    HW1 7421   0.617   6.545   1.020
 2359SOL    HW2 7422   0.510   6.456   1.106
 2360SOL     OW 7423   1.360   6.448   1.045
 2360SOL    HW1 7424   1.285   6.448   0.979
 2360SOL    HW2 7425   1.397   6.356   1.054
 2361SOL     OW 7426   1.209   6.111   0.275
 2361SOL    HW1 7427   1.222   6.027   0.329
 2361SOL    HW2 7428   1.180   6.185   0.335
 2362SOL     OW 7429   0.307   5.799   1.231
 2362SOL    HW1 7430   0.284   5.836   1.321
 2362SOL    HW2 7431   0.277   5.704   1.225
 2363SOL     OW 7432   0.037   6.896   1.282
 2363SOL    HW1 7433   0.090   6.847   1.350
 2363SOL    HW2 7434   0.059   6.994   1.287
 2364SOL     OW 7435   0.732   6.220   1.064
 2364SOL    HW1 7436   0.791   6.194   0.988
 2364SOL    HW2 7437   0.704   6.316   1.053
 2365SOL     OW 7438   1.728   6.521   1.854
 2365SOL    HW1 7439   1.682   6.514   1.765
 2365SOL    HW2 7440   1.666   6.565   1.920
 2366SOL     OW 7441   0.307   5.649   0.618
 2366SOL    HW1 7442   0.296   5.743   0.651
 2366SOL    HW2 7443   0.302   5.586   0.695
 2367SOL     OW 7444   1.622   5.953   0.374
 2367SOL    HW1 7445   1.624   5.877   0.438
 2367SOL    HW2 7446   1.574   6.030   0.414
 2368SOL     OW 7447   1.023   6.352   0.966
 2368SOL    HW1 7448   1.038   6.373   1.062
 2368SOL    HW2 7449   0.993   6.257   0.957
 2369SOL     OW 7450   0.980   7.159   1.700
 2369SOL    HW1 7451   0.960   7.203   1.612
 2369SOL    HW2 7452   1.019   7.068   1.684
 2370SOL     OW 7453   1.859   7.104   1.605
 2370SOL    HW1 7454   1.873   7.131   1.510
 2370SOL    HW2 7455   1.942   7.126   1.658
 2371SOL     OW 7456   0.350   6.484   1.804
 2371SOL    HW1 7457   0.426   6.528   1.852
 2371SOL    HW2 7458   0.385   6.437   1.722
 2372SOL     OW 7459   1.540   5.860   0.125
 2372SOL    HW1 7460   1.479   5.785   0.148
 2372SOL    HW2 7461   1.562   5.912   0.208
 2373SOL     OW 7462   1.303   6.424   0.042
 2373SOL    HW1 7463   1.337   6.331   0.057
 2373SOL    HW2 7464   1.321   6.451  -0.053
 2374SOL     OW 7465   1.068   6.919   0.849
 2374SOL    HW1 7466   1.075   6.835   0.794
 2374SOL    HW2 7467   1.130   6.988   0.813
 2375SOL     OW 7468   0.319   6.396   0.949
 2375SOL    HW1 7469   0.412   6.432   0.954
 2375SOL    HW2 7470   0.313   6.311   1.001
 2376SOL     OW 7471   0.339   6.095   1.006
 2376SOL    HW1 7472   0.287   6.012   0.989
 2376SOL    HW2 7473   0.416   6.100   0.942
 2377SOL     OW 7474   1.138   5.966   1.678
 2377SOL    HW1 7475   1.093   6.029   1.742
 2377SOL    HW2 7476   1.231   5.997   1.661
 2378SOL     OW 7477   1.160   5.793   1.477
 2378SOL    HW1 7478   1.160   5.857   1.554
 2378SOL    HW2 7479   1.188   5.841   1.394
 2379SOL     OW 7480   0.008   6.912   0.200
 2379SOL    HW1 7481  -0.085   6.933   0.169
 2379SOL    HW2 7482   0.018   6.813   0.213
 2380SOL     OW 7483   0.088   7.387   0.927
 2380SOL    HW1 7484   0.046   7.301   0.900
 2380SOL    HW2 7485   0.182   7.390   0.893
 2381SOL     OW 7486   0.504   7.154   0.910
 2381SOL    HW1 7487   0.570   7.228   0.919
 2381SOL    HW2 7488   0.548   7.075   0.868
 2382SOL     OW 7489   1.002   6.382   1.238
 2382SOL    HW1 7490   1.043   6.350   1.324
 2382SOL    HW2 7491   0.906   6.355   1.235
 2383SOL     OW 7492   0.040   6.130   1.114
 2383SOL    HW1 7493   0.125   6.097   1.073
 2383SOL    HW2 7494   0.053   6.145   1.212
 2384SOL     OW 7495   0.189   6.106   1.722
 2384SOL    HW1 7496   0.248   6.066   1.652
 2384SOL    HW2 7497   0.131   6.177   1.681
 2385SOL     OW 7498   1.369   6.536   1.660
 2385SOL    HW1 7499   1.408   6.625   1.680
 2385SOL    HW2 7500   1.379   6.516   1.563
 2386SOL     OW 7501   0.815   6.158   0.325
 2386SOL    HW1 7502   0.822   6.069   0.279
 2386SOL    HW2 7503   0.721   6.192   0.317
 2387SOL     OW 7504   1.657   6.190   1.206
 2387SOL    HW1 7505   1.619   6.121   1.268
 2387SOL    HW2 7506   1.739   6.154   1.162
 2388SOL     OW 7507   0.252   7.150   1.744
 2388SOL    HW1 7508   0.222   7.207   1.820
 2388SOL    HW2 7509   0.245   7.053   1.770
 2389SOL     OW 7510   0.671   6.050   1.269
 2389SOL    HW1 7511   0.637   5.961   1.239
 2389SOL    HW2 7512   0.697   6.104   1.189
 2390SOL     OW 7513   0.930   7.264   1.465
 2390SOL    HW1 7514   0.906   7.246   1.370
 2390SOL    HW2 7515   0.960   7.358   1.475
 2391SOL     OW 7516   0.473   6.086   0.191
 2391SOL    HW1 7517   0.534   6.166   0.195
 2391SOL    HW2 7518   0.378   6.117   0.198
 2392SOL     OW 7519   0.159   6.723   1.466
 2392SOL    HW1 7520   0.181   6.662   1.542
 2392SOL    HW2 7521   0.169   6.674   1.380
 2393SOL     OW 7522   1.347   6.645   1.234
 2393SOL    HW1 7523   1.371   6.582   1.160
 2393SOL    HW2 7524   1.257   6.685   1.216
 2394SOL     OW 7525   1.302   6.441   0.309
 2394SOL    HW1 7526   1.216   6.410   0.351
 2394SOL    HW2 7527   1.298   6.427   0.210
 2395SOL     OW 7528   1.759   7.333   1.154
 2395SOL    HW1 7529   1.820   7.363   1.081
 2395SOL    HW2 7530   1.721   7.244   1.132
 2396SOL     OW 7531   1.252   7.317   1.128
 2396SOL    HW1 7532   1.336   7.322   1.074
 2396SOL    HW2 7533   1.229   7.221   1.146
 2397SOL     OW 7534   0.083   6.844   1.022
 2397SOL    HW1 7535   0.078   6.843   1.122
 2397SOL    HW2 7536   0.000   6.803   0.984
 2398SOL     OW 7537   0.688   7.248   1.716
 2398SOL    HW1 7538   0.632   7.329   1.725
 2398SOL    HW2 7539   0.740   7.252   1.630
 2399SOL     OW 7540   0.903   5.672   0.133
 2399SOL    HW1 7541   0.954   5.673   0.047
 2399SOL    HW2 7542   0.959   5.630   0.204
 2400SOL     OW 7543   1.726   5.721   0.523
 2400SOL    HW1 7544   1.799   5.704   0.456
 2400SOL    HW2 7545   1.695   5.634   0.561
 2401SOL     OW 7546   1.388   7.159   0.477
 2401SOL    HW1 7547   1.455   7.171   0.403
 2401SOL    HW2 7548   1.348   7.248   0.500
 2402SOL     OW 7549   0.130   7.380   1.851
 2402SOL    HW1 7550   0.089   7.306   1.904
 2402SOL    HW2 7551   0.194   7.431   1.909
 2403SOL     OW 7552   1.280   6.513   0.672
 2403SOL    HW1 7553   1.340   6.432   0.674
 2403SOL    HW2 7554   1.320   6.582   0.612
 2404SOL     OW 7555   0.830   6.859   1.422
 2404SOL    HW1 7556   0.825   6.892   1.517
 2404SOL    HW2 7557   0.744   6.878   1.376
 2405SOL     OW 7558   0.672   7.202   0.154
 2405SOL    HW1 7559   0.681   7.212   0.055
 2405SOL    HW2 7560   0.632   7.113   0.175
 2406SOL     OW 7561   1.650   7.306   1.394
 2406SOL    HW1 7562   1.703   7.316   1.310
 2406SOL    HW2 7563   1.623   7.396   1.428
 2407SOL     OW 7564   1.841   5.761   0.963
 2407SOL    HW1 7565   1.880   5.676   0.927
 2407SOL    HW2 7566   1.743   5.763   0.944
 2408SOL     OW 7567   0.263   5.912   0.720
 2408SOL    HW1 7568   0.184   5.963   0.686
 2408SOL    HW2 7569   0.254   5.897   0.818
 2409SOL     OW 7570   1.194   7.198   0.031
 2409SOL    HW1 7571   1.200   7.105   0.068
 2409SOL    HW2 7572   1.135   7.198  -0.049
 2410SOL     OW 7573   0.822   6.588   1.372
 2410SOL    HW1 7574   0.862   6.587   1.280
 2410SOL    HW2 7575   0.832   6.680   1.412
 2411SOL     OW 7576   0.916   6.496   0.291
 2411SOL    HW1 7577   0.979   6.534   0.223
 2411SOL    HW2 7578   0.956   6.413   0.330
 2412SOL     OW 7579   1.504   7.193   0.044
 2412SOL    HW1 7580   1.412   7.230   0.051
 2412SOL    HW2 7581   1.542   7.213  -0.046
 2413SOL     OW 7582   0.372   6.874   1.490
 2413SOL    HW1 7583   0.359   6.967   1.456
 2413SOL    HW2 7584   0.288   6.822   1.477
 2414SOL     OW 7585   1.614   6.878   1.289
 2414SOL    HW1 7586   1.674   6.881   1.369
 2414SOL    HW2 7587   1.539   6.942   1.302
 2415SOL     OW 7588   1.039   6.684   0.696
 2415SOL    HW1 7589   0.969   6.637   0.750
 2415SOL    HW2 7590   1.098   6.616   0.653
 2416SOL     OW 7591   1.014   5.822   0.971
 2416SOL    HW1 7592   1.006   5.786   0.878
 2416SOL    HW2 7593   1.012   5.746   1.036
 2417SOL     OW 7594   0.590   7.073   0.491
 2417SOL    HW1 7595   0.632   7.015   0.421
 2417SOL    HW2 7596   0.546   7.152   0.447
 2418SOL     OW 7597   1.709   5.971   1.381
 2418SOL    HW1 7598   1.782   6.040   1.385
 2418SOL    HW2 7599   1.737   5.896   1.322
 2419SOL     OW 7600   0.255   6.934   0.290
 2419SOL    HW1 7601   0.159   6.935   0.263
 2419SOL    HW2 7602   0.267   6.987   0.374
 2420SOL     OW 7603   0.105   6.599   1.726
 2420SOL    HW1 7604   0.028   6.566   1.780
 2420SOL    HW2 7605   0.190   6.569   1.768
 2421SOL     OW 7606   0.672   5.789   1.489
 2421SOL    HW1 7607   0.762   5.773   1.449
 2421SOL    HW2 7608   0.680   5.794   1.588
 2422SOL     OW 7609   0.075   5.931   0.033
 2422SOL    HW1 7610  -0.017   5.903   0.004
 2422SOL    HW2 7611   0.106   6.008  -0.023
 2423SOL     OW 7612   1.440   6.442   1.398
 2423SOL    HW1 7613   1.383   6.494   1.335
 2423SOL    HW2 7614   1.536   6.454   1.374
 2424SOL     OW 7615   0.072   5.752   0.318
 2424SOL    HW1 7616   0.055   5.835   0.264
 2424SOL    HW2 7617   0.162   5.715   0.296
 2425SOL     OW 7618   1.183   6.921   0.119
 2425SOL    HW1 7619   1.084   6.910   0.121
 2425SOL    HW2 7620   1.217   6.936   0.212
 2426SOL     OW 7621   0.613   6.428   1.431
 2426SOL    HW1 7622   0.669   6.509   1.414
 2426SOL    HW2 7623   0.672   6.348   1.434
 2427SOL     OW 7624   1.493   7.353   0.959
 2427SOL    HW1 7625   1.526   7.417   0.890
 2427SOL    HW2 7626   1.559   7.347   1.034
 2428SOL     OW 7627   0.716   6.151   1.708
 2428SOL    HW1 7628   0.735   6.216   1.782
 2428SOL    HW2 7629   0.776   6.071   1.717
 2429SOL     OW 7630   1.450   6.806   1.633
 2429SOL    HW1 7631   1.441   6.796   1.732
 2429SOL    HW2 7632   1.546   6.799   1.607
 2430SOL     OW 7633   0.390   7.327   1.560
 2430SOL    HW1 7634   0.299   7.368   1.558
 2430SOL    HW2 7635   0.383   7.233   1.592
 2431SOL     OW 7636   1.674   6.469   1.254
 2431SOL    HW1 7637   1.647   6.380   1.217
 2431SOL    HW2 7638   1.675   6.537   1.181
 2432SOL     OW 7639   1.225   5.911   0.449
 2432SOL    HW1 7640   1.290   5.837   0.438
 2432SOL    HW2 7641   1.245   5.961   0.533
 2433SOL     OW 7642   0.594   6.331   0.652
 2433SOL    HW1 7643   0.644   6.416   0.633
 2433SOL    HW2 7644   0.506   6.333   0.604
 2434SOL     OW 7645   1.777   5.928   1.642
 2434SOL    HW1 7646   1.760   5.959   1.548
 2434SOL    HW2 7647   1.693   5.891   1.680
 2435SOL     OW 7648   1.730   6.520   1.517
 2435SOL    HW1 7649   1.768   6.611   1.532
 2435SOL    HW2 7650   1.722   6.503   1.418
 2436SOL     OW 7651   0.859   6.960   0.016
 2436SOL    HW1 7652   0.813   6.975   0.104
 2436SOL    HW2 7653   0.903   7.045  -0.014
 2437SOL     OW 7654   0.661   7.376   0.953
 2437SOL    HW1 7655   0.615   7.464   0.940
 2437SOL    HW2 7656   0.760   7.388   0.946
 2438SOL     OW 7657   0.859   6.542   0.861
 2438SOL    HW1 7658   0.913   6.473   0.909
 2438SOL    HW2 7659   0.827   6.611   0.927
 2439SOL     OW 7660   1.083   6.570   0.087
 2439SOL    HW1 7661   1.060   6.623   0.005
 2439SOL    HW2 7662   1.164   6.514   0.068
 2440SOL     OW 7663   1.861   7.155   0.851
 2440SOL    HW1 7664   1.790   7.143   0.781
 2440SOL    HW2 7665   1.862   7.076   0.911
 2441SOL     OW 7666   0.221   6.900   1.844
 2441SOL    HW1 7667   0.156   6.827   1.823
 2441SOL    HW2 7668   0.225   6.914   1.942
 2442SOL     OW 7669   0.079   6.826   0.653
 2442SOL    HW1 7670   0.078   6.779   0.741
 2442SOL    HW2 7671   0.161   6.798   0.602
 2443SOL     OW 7672   0.672   6.977   1.624
 2443SOL    HW1 7673   0.594   6.927   1.662
 2443SOL    HW2 7674   0.669   7.072   1.655
 2444SOL     OW 7675   1.824   5.778   1.227
 2444SOL    HW1 7676   1.820   5.688   1.271
 2444SOL    HW2 7677   1.827   5.767   1.128
 2445SOL     OW 7678   0.428   6.010   0.520
 2445SOL    HW1 7679   0.458   5.938   0.458
 2445SOL    HW2 7680   0.389   5.970   0.603
 2446SOL     OW 7681   1.705   7.073   1.104
 2446SOL    HW1 7682   1.612   7.048   1.077
 2446SOL    HW2 7683   1.731   7.023   1.186
 2447SOL     OW 7684   0.317   6.133   1.280
 2447SOL    HW1 7685   0.355   6.074   1.352
 2447SOL    HW2 7686   0.357   6.107   1.192
 2448SOL     OW 7687   0.812   7.172   0.687
 2448SOL    HW1 7688   0.844   7.182   0.593
 2448SOL    HW2 7689   0.733   7.110   0.689
 2449SOL     OW 7690   1.424   5.800   1.112
 2449SOL    HW1 7691   1.476   5.735   1.167
 2449SOL    HW2 7692   1.375   5.863   1.173
 2450SOL     OW 7693   1.001   5.620   1.154
 2450SOL    HW1 7694   0.938   5.548   1.123
 2450SOL    HW2 7695   1.094   5.584   1.154
 2451SOL     OW 7696   0.770   6.916   0.301
 2451SOL    HW1 7697   0.724   6.829   0.318
 2451SOL    HW2 7698   0.861   6.913   0.342
 2452SOL     OW 7699   0.618   7.153   1.284
 2452SOL    HW1 7700   0.613   7.235   1.341
 2452SOL    HW2 7701   0.707   7.150   1.239
 2453SOL     OW 7702   1.352   5.638   0.168
 2453SOL    HW1 7703   1.387   5.597   0.084
 2453SOL    HW2 7704   1.262   5.600   0.188
 2454SOL     OW 7705   1.300   6.039   0.691
 2454SOL    HW1 7706   1.241   6.119   0.695
 2454SOL    HW2 7707   1.315   6.004   0.784
 2455SOL     OW 7708   1.593   5.807   0.882
 2455SOL    HW1 7709   1.509   5.806   0.936
 2455SOL    HW2 7710   1.595   5.890   0.826
 2456SOL     OW 7711   0.039   6.663   0.300
 2456SOL    HW1 7712   0.138   6.652   0.291
 2456SOL    HW2 7713  -0.001   6.577   0.332
 2457SOL     OW 7714   0.875   7.232   0.337
 2457SOL    HW1 7715   0.798   7.197   0.283
 2457SOL    HW2 7716   0.843   7.303   0.399
 2458SOL     OW 7717   0.230   6.214   1.975
 2458SOL    HW1 7718   0.137   6.212   2.012
 2458SOL    HW2 7719   0.231   6.175   1.883
 2459SOL     OW 7720   0.225   5.861   2.858
 2459SOL    HW1 7721   0.260   5.844   2.950
 2459SOL    HW2 7722   0.137   5.816   2.846
 2460SOL     OW 7723   0.019   5.954   2.509
 2460SOL    HW1 7724  -0.063   5.997   2.548
 2460SOL    HW2 7725  -0.009   5.881   2.446
 2461SOL     OW 7726   0.569   6.861   3.027
 2461SOL    HW1 7727   0.476   6.854   2.990
 2461SOL    HW2 7728   0.580   6.950   3.071
 2462SOL     OW 7729   1.555   7.097   2.565
 2462SOL    HW1 7730   1.498   7.081   2.646
 2462SOL    HW2 7731   1.496   7.107   2.485
 2463SOL     OW 7732   1.135   6.289   2.579
 2463SOL    HW1 7733   1.192   6.367   2.554
 2463SOL    HW2 7734   1.075   6.315   2.655
 2464SOL     OW 7735   1.755   6.193   2.093
 2464SOL    HW1 7736   1.743   6.180   1.994
 2464SOL    HW2 7737   1.725   6.112   2.142
 2465SOL     OW 7738   0.768   6.730   2.885
 2465SOL    HW1 7739   0.690   6.747   2.945
 2465SOL    HW2 7740   0.802   6.817   2.849
 2466SOL     OW 7741   0.850   6.384   3.685
 2466SOL    HW1 7742   0.846   6.460   3.750
 2466SOL    HW2 7743   0.872   6.420   3.594
 2467SOL     OW 7744   0.685   6.598   2.527
 2467SOL    HW1 7745   0.754   6.582   2.597
 2467SOL    HW2 7746   0.612   6.655   2.565
 2468SOL     OW 7747   0.686   6.747   3.665
 2468SOL    HW1 7748   0.746   6.826   3.679
 2468SOL    HW2 7749   0.600   6.778   3.624
 2469SOL     OW 7750   0.335   7.021   2.923
 2469SOL    HW1 7751   0.257   6.990   2.870
 2469SOL    HW2 7752   0.393   7.079   2.866
 2470SOL     OW 7753   1.460   7.091   3.201
 2470SOL    HW1 7754   1.484   7.185   3.227
 2470SOL    HW2 7755   1.444   7.037   3.283
 2471SOL     OW 7756   0.438   5.978   3.361
 2471SOL    HW1 7757   0.520   5.922   3.370
 2471SOL    HW2 7758   0.357   5.920   3.365
 2472SOL     OW 7759   1.603   6.033   2.599
 2472SOL    HW1 7760   1.529   6.079   2.549
 2472SOL    HW2 7761   1.654   6.101   2.652
 2473SOL     OW 7762   0.231   7.299   2.345
 2473SOL    HW1 7763   0.265   7.376   2.399
 2473SOL    HW2 7764   0.275   7.299   2.255
 2474SOL     OW 7765   1.127   6.927   3.552
 2474SOL    HW1 7766   1.174   6.927   3.640
 2474SOL    HW2 7767   1.079   6.840   3.541
 2475SOL     OW 7768   0.230   7.020   2.400
 2475SOL    HW1 7769   0.204   7.116   2.400
 2475SOL    HW2 7770   0.159   6.966   2.445
 2476SOL     OW 7771   0.240   6.677   2.748
 2476SOL    HW1 7772   0.254   6.593   2.800
 2476SOL    HW2 7773   0.185   6.741   2.803
 2477SOL     OW 7774   0.620   7.372   3.301
 2477SOL    HW1 7775   0.528   7.355   3.336
 2477SOL    HW2 7776   0.648   7.464   3.327
 2478SOL     OW 7777   0.606   6.550   1.985
 2478SOL    HW1 7778   0.613   6.634   1.931
 2478SOL    HW2 7779   0.652   6.563   2.073
 2479SOL     OW 7780   1.594   5.700   3.342
 2479SOL    HW1 7781   1.576   5.767   3.270
 2479SOL    HW2 7782   1.591   5.746   3.431
 2480SOL     OW 7783   0.122   6.229   2.425
 2480SOL    HW1 7784   0.077   6.141   2.442
 2480SOL    HW2 7785   0.121   6.283   2.509
 2481SOL     OW 7786   1.842   7.353   2.221
 2481SOL    HW1 7787   1.896   7.324   2.301
 2481SOL    HW2 7788   1.872   7.443   2.192
 2482SOL     OW 7789   0.027   7.182   1.979
 2482SOL    HW1 7790   0.008   7.086   2.000
 2482SOL    HW2 7791  -0.006   7.240   2.054
 2483SOL     OW 7792   1.689   6.508   2.474
 2483SOL    HW1 7793   1.784   6.479   2.482
 2483SOL    HW2 7794   1.681   6.573   2.399
 2484SOL     OW 7795   1.641   6.694   2.294
 2484SOL    HW1 7796   1.727   6.696   2.242
 2484SOL    HW2 7797   1.655   6.741   2.382
 2485SOL     OW 7798   0.113   6.323   3.459
 2485SOL    HW1 7799   0.201   6.310   3.504
 2485SOL    HW2 7800   0.100   6.420   3.437
 2486SOL     OW 7801   0.613   6.951   2.588
 2486SOL    HW1 7802   0.564   6.864   2.597
 2486SOL    HW2 7803   0.590   6.994   2.501
 2487SOL     OW 7804   1.293   6.814   3.285
 2487SOL    HW1 7805   1.330   6.741   3.227
 2487SOL    HW2 7806   1.345   6.819   3.370
 2488SOL     OW 7807   0.809   5.590   2.364
 2488SOL    HW1 7808   0.849   5.681   2.355
 2488SOL    HW2 7809   0.709   5.598   2.370
 2489SOL     OW 7810   0.197   6.562   3.126
 2489SOL    HW1 7811   0.286   6.517   3.112
 2489SOL    HW2 7812   0.124   6.497   3.107
 2490SOL     OW 7813   1.525   6.585   2.052
 2490SOL    HW1 7814   1.462   6.509   2.065
 2490SOL    HW2 7815   1.573   6.603   2.138
 2491SOL     OW 7816   1.187   7.378   3.478
 2491SOL    HW1 7817   1.211   7.438   3.402
 2491SOL    HW2 7818   1.194   7.283   3.448
 2492SOL     OW 7819   0.317   5.837   3.663
 2492SOL    HW1 7820   0.388   5.908   3.669
 2492SOL    HW2 7821   0.229   5.876   3.691
 2493SOL     OW 7822   1.466   7.003   2.815
 2493SOL    HW1 7823   1.407   7.009   2.895
 2493SOL    HW2 7824   1.451   6.915   2.769
 2494SOL     OW 7825   1.667   7.300   2.434
 2494SOL    HW1 7826   1.626   7.277   2.346
 2494SOL    HW2 7827   1.649   7.226   2.499
 2495SOL     OW 7828   0.598   6.315   2.132
 2495SOL    HW1 7829   0.622   6.384   2.064
 2495SOL    HW2 7830   0.520   6.348   2.186
 2496SOL     OW 7831   1.281   5.931   2.806
 2496SOL    HW1 7832   1.195   5.881   2.793
 2496SOL    HW2 7833   1.343   5.877   2.862
 2497SOL     OW 7834   1.576   7.248   2.169
 2497SOL    HW1 7835   1.665   7.294   2.172
 2497SOL    HW2 7836   1.555   7.224   2.074
 2498SOL     OW 7837   0.807   6.191   3.327
 2498SOL    HW1 7838   0.760   6.188   3.416
 2498SOL    HW2 7839   0.756   6.136   3.261
 2499SOL     OW 7840   1.394   6.055   3.536
 2499SOL    HW1 7841   1.374   6.098   3.624
 2499SOL    HW2 7842   1.472   5.993   3.545
 2500SOL     OW 7843   0.973   6.476   3.434
 2500SOL    HW1 7844   1.019   6.392   3.405
 2500SOL    HW2 7845   0.917   6.510   3.359
 2501SOL     OW 7846   0.991   5.996   3.104
 2501SOL    HW1 7847   0.914   6.030   3.158
 2501SOL    HW2 7848   0.957   5.945   3.025
 2502SOL     OW 7849   1.041   6.287   2.291
 2502SOL    HW1 7850   1.067   6.283   2.387
 2502SOL    HW2 7851   0.956   6.236   2.277
 2503SOL     OW 7852   0.076   6.397   2.651
 2503SOL    HW1 7853   0.175   6.385   2.660
 2503SOL    HW2 7854   0.052   6.492   2.672
 2504SOL     OW 7855   0.130   7.407   3.433
 2504SOL    HW1 7856   0.120   7.392   3.532
 2504SOL    HW2 7857   0.044   7.443   3.397
 2505SOL     OW 7858   0.865   5.934   2.057
 2505SOL    HW1 7859   0.924   5.997   2.008
 2505SOL    HW2 7860   0.884   5.840   2.028
 2506SOL     OW 7861   1.719   6.171   3.693
 2506SOL    HW1 7862   1.693   6.260   3.657
 2506SOL    HW2 7863   1.717   6.103   3.620
 2507SOL     OW 7864   1.362   6.730   2.407
 2507SOL    HW1 7865   1.445   6.701   2.359
 2507SOL    HW2 7866   1.313   6.797   2.351
 2508SOL     OW 7867   0.550   5.782   2.747
 2508SOL    HW1 7868   0.545   5.777   2.847
 2508SOL    HW2 7869   0.552   5.878   2.718
 2509SOL     OW 7870   1.008   7.042   2.339
 2509SOL    HW1 7871   0.962   7.114   2.287
 2509SOL    HW2 7872   1.004   7.062   2.437
 2510SOL     OW 7873   0.351   7.387   2.715
 2510SOL    HW1 7874   0.401   7.301   2.721
 2510SOL    HW2 7875   0.416   7.464   2.712
 2511SOL     OW 7876   1.795   6.652   2.735
 2511SOL    HW1 7877   1.733   6.637   2.659
 2511SOL    HW2 7878   1.743   6.663   2.820
 2512SOL     OW 7879   1.227   7.136   3.368
 2512SOL    HW1 7880   1.233   7.059   3.432
 2512SOL    HW2 7881   1.175   7.110   3.288
 2513SOL     OW 7882   0.321   6.529   2.104
 2513SOL    HW1 7883   0.403   6.568   2.062
 2513SOL    HW2 7884   0.294   6.447   2.055
 2514SOL     OW 7885   1.458   6.321   2.590
 2514SOL    HW1 7886   1.453   6.256   2.665
 2514SOL    HW2 7887   1.538   6.380   2.603
 2515SOL     OW 7888   0.461   6.852   3.589
 2515SOL    HW1 7889   0.411   6.853   3.503
 2515SOL    HW2 7890   0.398   6.834   3.665
 2516SOL     OW 7891   1.111   7.362   2.099
 2516SOL    HW1 7892   1.051   7.300   2.149
 2516SOL    HW2 7893   1.142   7.318   2.014
 2517SOL     OW 7894   0.202   5.871   3.360
 2517SOL    HW1 7895   0.122   5.931   3.347
 2517SOL    HW2 7896   0.192   5.822   3.446
 2518SOL     OW 7897   1.632   6.963   1.943
 2518SOL    HW1 7898   1.600   7.057   1.933
 2518SOL    HW2 7899   1.556   6.900   1.931
 2519SOL     OW 7900   0.464   7.329   2.185
 2519SOL    HW1 7901   0.497   7.368   2.271
 2519SOL    HW2 7902   0.540   7.322   2.120
 2520SOL     OW 7903   1.400   5.693   2.288
 2520SOL    HW1 7904   1.376   5.656   2.198
 2520SOL    HW2 7905   1.499   5.709   2.292
 2521SOL     OW 7906   0.249   7.371   3.103
 2521SOL    HW1 7907   0.306   7.306   3.153
 2521SOL    HW2 7908   0.233   7.338   3.010
 2522SOL     OW 7909   0.940   7.284   2.766
 2522SOL    HW1 7910   1.020   7.227   2.787
 2522SOL    HW2 7911   0.891   7.244   2.689
 2523SOL     OW 7912   0.382   6.286   2.342
 2523SOL    HW1 7913   0.427   6.196   2.339
 2523SOL    HW2 7914   0.288   6.275   2.375
 2524SOL     OW 7915   1.547   5.808   3.591
 2524SOL    HW1 7916   1.542   5.845   3.683
 2524SOL    HW2 7917   1.475   5.739   3.579
 2525SOL     OW 7918   0.614   5.708   1.979
 2525SOL    HW1 7919   0.712   5.686   1.986
 2525SOL    HW2 7920   0.583   5.691   1.886
 2526SOL     OW 7921   0.781   5.850   3.611
 2526SOL    HW1 7922   0.848   5.789   3.654
 2526SOL    HW2 7923   0.708   5.869   3.676
 2527SOL     OW 7924   0.888   7.100   3.057
 2527SOL    HW1 7925   0.865   7.075   2.963
 2527SOL    HW2 7926   0.949   7.031   3.096
 2528SOL     OW 7927   1.351   6.176   3.295
 2528SOL    HW1 7928   1.379   6.133   3.380
 2528SOL    HW2 7929   1.376   6.272   3.296
 2529SOL     OW 7930   0.803   6.988   2.786
 2529SOL    HW1 7931   0.893   7.002   2.744
 2529SOL    HW2 7932   0.732   6.990   2.715
 2530SOL     OW 7933   0.922   6.089   2.761
 2530SOL    HW1 7934   0.897   6.080   2.665
 2530SOL    HW2 7935   0.970   6.007   2.792
 2531SOL     OW 7936   0.539   5.650   2.374
 2531SOL    HW1 7937   0.458   5.651   2.432
 2531SOL    HW2 7938   0.542   5.733   2.319
 2532SOL     OW 7939   1.434   6.774   1.903
 2532SOL    HW1 7940   1.466   6.698   1.960
 2532SOL    HW2 7941   1.342   6.801   1.933
 2533SOL     OW 7942   0.297   5.621   2.033
 2533SOL    HW1 7943   0.346   5.705   2.012
 2533SOL    HW2 7944   0.359   5.556   2.078
 2534SOL     OW 7945   0.935   5.822   2.342
 2534SOL    HW1 7946   0.887   5.863   2.264
 2534SOL    HW2 7947   1.034   5.820   2.323
 2535SOL     OW 7948   1.076   6.269   3.326
 2535SOL    HW1 7949   0.996   6.208   3.329
 2535SOL    HW2 7950   1.157   6.216   3.302
 2536SOL     OW 7951   1.227   7.156   2.655
 2536SOL    HW1 7952   1.248   7.230   2.590
 2536SOL    HW2 7953   1.295   7.156   2.728
 2537SOL     OW 7954   0.459   6.738   2.603
 2537SOL    HW1 7955   0.388   6.711   2.668
 2537SOL    HW2 7956   0.433   6.710   2.510
 2538SOL     OW 7957   1.271   7.383   2.453
 2538SOL    HW1 7958   1.315   7.447   2.389
 2538SOL    HW2 7959   1.221   7.435   2.523
 2539SOL     OW 7960   1.032   6.135   1.878
 2539SOL    HW1 7961   0.991   6.217   1.839
 2539SOL    HW2 7962   1.096   6.161   1.951
 2540SOL     OW 7963   0.078   6.142   3.248
 2540SOL    HW1 7964   0.170   6.141   3.207
 2540SOL    HW2 7965   0.072   6.216   3.315
 2541SOL     OW 7966   0.561   5.808   3.009
 2541SOL    HW1 7967   0.599   5.724   3.046
 2541SOL    HW2 7968   0.473   5.827   3.053
 2542SOL     OW 7969   0.866   6.040   2.504
 2542SOL    HW1 7970   0.834   6.112   2.442
 2542SOL    HW2 7971   0.890   5.959   2.451
 2543SOL     OW 7972   1.017   5.625   2.615
 2543SOL    HW1 7973   0.945   5.630   2.546
 2543SOL    HW2 7974   0.993   5.556   2.684
 2544SOL     OW 7975   1.429   6.759   2.729
 2544SOL    HW1 7976   1.374   6.675   2.722
 2544SOL    HW2 7977   1.455   6.788   2.637
 2545SOL     OW 7978   1.466   6.176   2.854
 2545SOL    HW1 7979   1.436   6.081   2.861
 2545SOL    HW2 7980   1.539   6.192   2.920
 2546SOL     OW 7981   1.857   6.419   2.239
 2546SOL    HW1 7982   1.899   6.355   2.303
 2546SOL    HW2 7983   1.819   6.368   2.161
 2547SOL     OW 7984   0.488   6.971   2.036
 2547SOL    HW1 7985   0.401   6.956   2.083
 2547SOL    HW2 7986   0.471   6.997   1.941
 2548SOL     OW 7987   1.664   6.866   2.519
 2548SOL    HW1 7988   1.763   6.874   2.533
 2548SOL    HW2 7989   1.619   6.950   2.550
 2549SOL     OW 7990   1.390   6.161   1.940
 2549SOL    HW1 7991   1.336   6.140   2.021
 2549SOL    HW2 7992   1.481   6.120   1.949
 2550SOL     OW 7993   0.527   5.842   2.190
 2550SOL    HW1 7994   0.554   5.783   2.115
 2550SOL    HW2 7995   0.527   5.937   2.159
 2551SOL     OW 7996   1.754   6.809   3.450
 2551SOL    HW1 7997   1.845   6.770   3.437
 2551SOL    HW2 7998   1.762   6.905   3.474
 2552SOL     OW 7999   1.064   6.933   3.202
 2552SOL    HW1 8000   0.984   6.910   3.257
 2552SOL    HW2 8001   1.147   6.907   3.251
 2553SOL     OW 8002   1.592   7.215   3.487
 2553SOL    HW1 8003   1.619   7.249   3.397
 2553SOL    HW2 8004   1.671   7.177   3.533
 2554SOL     OW 8005   1.111   6.781   2.962
 2554SOL    HW1 8006   1.071   6.825   3.043
 2554SOL    HW2 8007   1.070   6.818   2.879
 2555SOL     OW 8008   1.638   6.685   2.941
 2555SOL    HW1 8009   1.643   6.766   3.000
 2555SOL    HW2 8010   1.552   6.687   2.890
 2556SOL     OW 8011   0.915   5.675   3.264
 2556SOL    HW1 8012   0.940   5.655   3.169
 2556SOL    HW2 8013   0.987   5.731   3.306
 2557SOL     OW 8014   0.980   6.702   3.581
 2557SOL    HW1 8015   0.881   6.708   3.591
 2557SOL    HW2 8016   1.003   6.622   3.525
 2558SOL     OW 8017   0.705   6.636   2.230
 2558SOL    HW1 8018   0.691   6.643   2.329
 2558SOL    HW2 8019   0.789   6.585   2.212
 2559SOL     OW 8020   0.410   6.399   3.113
 2559SOL    HW1 8021   0.496   6.411   3.163
 2559SOL    HW2 8022   0.368   6.312   3.140
 2560SOL     OW 8023   1.274   5.972   3.124
 2560SOL    HW1 8024   1.295   6.046   3.188
 2560SOL    HW2 8025   1.185   5.989   3.081
 2561SOL     OW 8026   0.064   7.150   3.193
 2561SOL    HW1 8027   0.018   7.232   3.159
 2561SOL    HW2 8028   0.162   7.169   3.202
 2562SOL     OW 8029   0.367   6.686   2.363
 2562SOL    HW1 8030   0.360   6.769   2.307
 2562SOL    HW2 8031   0.371   6.606   2.303
 2563SOL     OW 8032   0.566   6.123   2.727
 2563SOL    HW1 8033   0.578   6.189   2.653
 2563SOL    HW2 8034   0.612   6.157   2.810
 2564SOL     OW 8035   1.252   6.934   2.250
 2564SOL    HW1 8036   1.302   7.011   2.290
 2564SOL    HW2 8037   1.157   6.936   2.282
 2565SOL     OW 8038   1.272   7.031   3.004
 2565SOL    HW1 8039   1.319   7.044   3.091
 2565SOL    HW2 8040   1.206   6.957   3.013
 2566SOL     OW 8041   1.582   6.225   2.334
 2566SOL    HW1 8042   1.551   6.286   2.407
 2566SOL    HW2 8043   1.632   6.277   2.265
 2567SOL     OW 8044   0.354   7.096   3.191
 2567SOL    HW1 8045   0.333   7.052   3.104
 2567SOL    HW2 8046   0.451   7.122   3.194
 2568SOL     OW 8047   0.402   6.337   3.460
 2568SOL    HW1 8048   0.470   6.392   3.413
 2568SOL    HW2 8049   0.442   6.249   3.487
 2569SOL     OW 8050   1.587   6.365   3.532
 2569SOL    HW1 8051   1.495   6.403   3.527
 2569SOL    HW2 8052   1.647   6.412   3.467
 2570SOL     OW 8053   1.013   5.691   3.632
 2570SOL    HW1 8054   1.019   5.776   3.580
 2570SOL    HW2 8055   1.045   5.615   3.575
 2571SOL     OW 8056   0.504   5.636   3.602
 2571SOL    HW1 8057   0.462   5.579   3.532
 2571SOL    HW2 8058   0.438   5.705   3.634
 2572SOL     OW 8059   0.573   6.456   2.891
 2572SOL    HW1 8060   0.617   6.545   2.882
 2572SOL    HW2 8061   0.510   6.456   2.968
 2573SOL     OW 8062   1.360   6.448   2.907
 2573SOL    HW1 8063   1.285   6.448   2.841
 2573SOL    HW2 8064   1.397   6.356   2.916
 2574SOL     OW 8065   1.209   6.111   2.137
 2574SOL    HW1 8066   1.222   6.027   2.191
 2574SOL    HW2 8067   1.180   6.185   2.197
 2575SOL     OW 8068   0.307   5.799   3.093
 2575SOL    HW1 8069   0.284   5.836   3.183
 2575SOL    HW2 8070   0.277   5.704   3.087
 2576SOL     OW 8071   0.037   6.896   3.144
 2576SOL    HW1 8072   0.090   6.847   3.212
 2576SOL    HW2 8073   0.059   6.994   3.149
 2577SOL     OW 8074   0.732   6.220   2.926
 2577SOL    HW1 8075   0.791   6.194   2.850
 2577SOL    HW2 8076   0.704   6.316   2.915
 2578SOL     OW 8077   1.728   6.521   3.716
 2578SOL    HW1 8078   1.682   6.514   3.627
 2578SOL    HW2 8079   1.666   6.565   3.782
 2579SOL     OW 8080   0.307   5.649   2.480
 2579SOL    HW1 8081   0.296   5.743   2.513
 2579SOL    HW2 8082   0.302   5.586   2.557
 2580SOL     OW 8083   1.622   5.953   2.236
 2580SOL    HW1 8084   1.624   5.877   2.300
 2580SOL    HW2 8085   1.574   6.030   2.276
 2581SOL     OW 8086   1.023   6.352   2.828
 2581SOL    HW1 8087   1.038   6.373   2.924
 2581SOL    HW2 8088   0.993   6.257   2.819
 2582SOL     OW 8089   0.980   7.159   3.562
 2582SOL    HW1 8090   0.960   7.203   3.474
 2582SOL    HW2 8091   1.019   7.068   3.546
 2583SOL     OW 8092   1.859   7.104   3.467
 2583SOL    HW1 8093   1.873   7.131   3.372
 2583SOL    HW2 8094   1.942   7.126   3.520
 2584SOL     OW 8095   0.350   6.484   3.666
 2584SOL    HW1 8096   0.426   6.528   3.714
 2584SOL    HW2 8097   0.385   6.437   3.584
 2585SOL     OW 8098   1.540   5.860   1.987
 2585SOL    HW1 8099   1.479   5.785   2.010
 2585SOL    HW2 8100   1.562   5.912   2.070
 2586SOL     OW 8101   1.303   6.424   1.904
 2586SOL    HW1 8102   1.337   6.331   1.919
 2586SOL    HW2 8103   1.321   6.451   1.809
 2587SOL     OW 8104   1.068   6.919   2.711
 2587SOL    HW1 8105   1.075   6.835   2.656
 2587SOL    HW2 8106   1.130   6.988   2.675
 2588SOL     OW 8107   0.319   6.396   2.811
 2588SOL    HW1 8108   0.412   6.432   2.816
 2588SOL    HW2 8109   0.313   6.311   2.863
 2589SOL     OW 8110   0.339   6.095   2.868
 2589SOL    HW1 8111   0.287   6.012   2.851
 2589SOL    HW2 8112   0.416   6.100   2.804
 2590SOL     OW 8113   1.138   5.966   3.540
 2590SOL    HW1 8114   1.093   6.029   3.604
 2590SOL    HW2 8115   1.231   5.997   3.523
 2591SOL     OW 8116   1.160   5.793   3.339
 2591SOL    HW1 8117   1.160   5.857   3.416
 2591SOL    HW2 8118   1.188   5.841   3.256
 2592SOL     OW 8119   0.008   6.912   2.062
 2592SOL    HW1 8120  -0.085   6.933   2.031
 2592SOL    HW2 8121   0.018   6.813   2.075
 2593SOL     OW 8122   0.088   7.387   2.789
 2593SOL    HW1 8123   0.046   7.301   2.762
 2593SOL    HW2 8124   0.182   7.390   2.755
 2594SOL     OW 8125   0.504   7.154   2.772
 2594SOL    HW1 8126   0.570   7.228   2.781
 2594SOL    HW2 8127   0.548   7.075   2.730
 2595SOL     OW 8128   1.002   6.382   3.100
 2595SOL    HW1 8129   1.043   6.350   3.186
 2595SOL    HW2 8130   0.906   6.355   3.097
 2596SOL     OW 8131   0.040   6.130   2.976
 2596SOL    HW1 8132   0.125   6.097   2.935
 2596SOL    HW2 8133   0.053   6.145   3.074
 2597SOL     OW 8134   0.189   6.106   3.584
 2597SOL    HW1 8135   0.248   6.066   3.514
 2597SOL    HW2 8136   0.131   6.177   3.543
 2598SOL     OW 8137   1.369   6.536   3.522
 2598SOL    HW1 8138   1.408   6.625   3.542
 2598SOL    HW2 8139   1.379   6.516   3.425
 2599SOL     OW 8140   0.815   6.158   2.187
 2599SOL    HW1 8141   0.822   6.069   2.141
 2599SOL    HW2 8142   0.721   6.192   2.179
 2600SOL     OW 8143   1.657   6.190   3.068
 2600SOL    HW1 8144   1.619   6.121   3.130
 2600SOL    HW2 8145   1.739   6.154   3.024
 2601SOL     OW 8146   0.252   7.150   3.606
 2601SOL    HW1 8147   0.222   7.207   3.682
 2601SOL    HW2 8148   0.245   7.053   3.632
 2602SOL     OW 8149   0.671   6.050   3.131
 2602SOL    HW1 8150   0.637   5.961   3.101
 2602SOL    HW2 8151   0.697   6.104   3.051
 2603SOL     OW 8152   0.930   7.264   3.327
 2603SOL    HW1 8153   0.906   7.246   3.232
 2603SOL    HW2 8154   0.960   7.358   3.337
 2604SOL     OW 8155   0.473   6.086   2.053
 2604SOL    HW1 8156   0.534   6.166   2.057
 2604SOL    HW2 8157   0.378   6.117   2.060
 2605SOL     OW 8158   0.159   6.723   3.328
 2605SOL    HW1 8159   0.181   6.662   3.404
 2605SOL    HW2 8160   0.169   6.674   3.242
 2606SOL     OW 8161   1.347   6.645   3.096
 2606SOL    HW1 8162   1.371   6.582   3.022
 2606SOL    HW2 8163   1.257   6.685   3.078
 2607SOL     OW 8164   1.302   6.441   2.171
 2607SOL    HW1 8165   1.216   6.410   2.213
 2607SOL    HW2 8166   1.298   6.427   2.072
 2608SOL     OW 8167   1.759   7.333   3.016
 2608SOL    HW1 8168   1.820   7.363   2.943
 2608SOL    HW2 8169   1.721   7.244   2.994
 2609SOL     OW 8170   1.252   7.317   2.990
 2609SOL    HW1 8171   1.336   7.322   2.936
 2609SOL    HW2 8172   1.229   7.221   3.008
 2610SOL     OW 8173   0.083   6.844   2.884
 2610SOL    HW1 8174   0.078   6.843   2.984
 2610SOL    HW2 8175   0.000   6.803   2.846
 2611SOL     OW 8176   0.688   7.248   3.578
 2611SOL    HW1 8177   0.632   7.329   3.587
 2611SOL    HW2 8178   0.740   7.252   3.492
 2612SOL     OW 8179   1.726   5.721   2.385
 2612SOL    HW1 8180   1.799   5.704   2.318
 2612SOL    HW2 8181   1.695   5.634   2.423
 2613SOL     OW 8182   1.388   7.159   2.339
 2613SOL    HW1 8183   1.455   7.171   2.265
 2613SOL    HW2 8184   1.348   7.248   2.362
 2614SOL     OW 8185   0.130   7.380   3.713
 2614SOL    HW1 8186   0.089   7.306   3.766
 2614SOL    HW2 8187   0.194   7.431   3.771
 2615SOL     OW 8188   1.280   6.513   2.534
 2615SOL    HW1 8189   1.340   6.432   2.536
 2615SOL    HW2 8190   1.320   6.582   2.474
 2616SOL     OW 8191   0.830   6.859   3.284
 2616SOL    HW1 8192   0.825   6.892   3.379
 2616SOL    HW2 8193   0.744   6.878   3.238
 2617SOL     OW 8194   0.672   7.202   2.016
 2617SOL    HW1 8195   0.681   7.212   1.917
 2617SOL    HW2 8196   0.632   7.113   2.037
 2618SOL     OW 8197   1.650   7.306   3.256
 2618SOL    HW1 8198   1.703   7.316   3.172
 2618SOL    HW2 8199   1.623   7.396   3.290
 2619SOL     OW 8200   1.841   5.761   2.825
 2619SOL    HW1 8201   1.880   5.676   2.789
 2619SOL    HW2 8202   1.743   5.763   2.806
 2620SOL     OW 8203   0.263   5.912   2.582
 2620SOL    HW1 8204   0.184   5.963   2.548
 2620SOL    HW2 8205   0.254   5.897   2.680
 2621SOL     OW 8206   1.194   7.198   1.893
 2621SOL    HW1 8207   1.200   7.105   1.930
 2621SOL    HW2 8208   1.135   7.198   1.813
 2622SOL     OW 8209   0.822   6.588   3.234
 2622SOL    HW1 8210   0.862   6.587   3.142
 2622SOL    HW2 8211   0.832   6.680   3.274
 2623SOL     OW 8212   0.916   6.496   2.153
 2623SOL    HW1 8213   0.979   6.534   2.085
 2623SOL    HW2 8214   0.956   6.413   2.192
 2624SOL     OW 8215   1.504   7.193   1.906
 2624SOL    HW1 8216   1.412   7.230   1.913
 2624SOL    HW2 8217   1.542   7.213   1.816
 2625SOL     OW 8218   0.372   6.874   3.352
 2625SOL    HW1 8219   0.359   6.967   3.318
 2625SOL    HW2 8220   0.288   6.822   3.339
 2626SOL     OW 8221   1.614   6.878   3.151
 2626SOL    HW1 8222   1.674   6.881   3.231
 2626SOL    HW2 8223   1.539   6.942   3.164
 2627SOL     OW 8224   1.039   6.684   2.558
 2627SOL    HW1 8225   0.969   6.637   2.612
 2627SOL    HW2 8226   1.098   6.616   2.515
 2628SOL     OW 8227   1.014   5.822   2.833
 2628SOL    HW1 8228   1.006   5.786   2.740
 2628SOL    HW2 8229   1.012   5.746   2.898
 2629SOL     OW 8230   0.590   7.073   2.353
 2629SOL    HW1 8231   0.632   7.015   2.283
 2629SOL    HW2 8232   0.546   7.152   2.309
 2630SOL     OW 8233   1.709   5.971   3.243
 2630SOL    HW1 8234   1.782   6.040   3.247
 2630SOL    HW2 8235   1.737   5.896   3.184
 2631SOL     OW 8236   0.255   6.934   2.152
 2631SOL    HW1 8237   0.159   6.935   2.125
 2631SOL    HW2 8238   0.267   6.987   2.236
 2632SOL     OW 8239   0.105   6.599   3.588
 2632SOL    HW1 8240   0.028   6.566   3.642
 2632SOL    HW2 8241   0.190   6.569   3.630
 2633SOL     OW 8242   0.672   5.789   3.351
 2633SOL    HW1 8243   0.762   5.773   3.311
 2633SOL    HW2 8244   0.680   5.794   3.450
 2634SOL     OW 8245   0.075   5.931   1.895
 2634SOL    HW1 8246  -0.017   5.903   1.866
 2634SOL    HW2 8247   0.106   6.008   1.839
 2635SOL     OW 8248   1.440   6.442   3.260
 2635SOL    HW1 8249   1.383   6.494   3.197
 2635SOL    HW2 8250   1.536   6.454   3.236
 2636SOL     OW 8251   0.072   5.752   2.180
 2636SOL    HW1 8252   0.055   5.835   2.126
 2636SOL    HW2 8253   0.162   5.715   2.158
 2637SOL     OW 8254   1.183   6.921   1.981
 2637SOL    HW1 8255   1.084   6.910   1.983
 2637SOL    HW2 8256   1.217   6.936   2.074
 2638SOL     OW 8257   0.613   6.428   3.293
 2638SOL    HW1 8258   0.669   6.509   3.276
 2638SOL    HW2 8259   0.672   6.348   3.296
 2639SOL     OW 8260   1.493   7.353   2.821
 2639SOL    HW1 8261   1.526   7.417   2.752
 2639SOL    HW2 8262   1.559   7.347   2.896
 2640SOL     OW 8263   0.716   6.151   3.570
 2640SOL    HW1 8264   0.735   6.216   3.644
 2640SOL    HW2 8265   0.776   6.071   3.579
 2641SOL     OW 8266   1.450   6.806   3.495
 2641SOL    HW1 8267   1.441   6.796   3.594
 2641SOL    HW2 8268   1.546   6.799   3.469
 2642SOL     OW 8269   0.390   7.327   3.422
 2642SOL    HW1 8270   0.299   7.368   3.420
 2642SOL    HW2 8271   0.383   7.233   3.454
 2643SOL     OW 8272   1.674   6.469   3.116
 2643SOL    HW1 8273   1.647   6.380   3.079
 2643SOL    HW2 8274   1.675   6.537   3.043
 2644SOL     OW 8275   1.225   5.911   2.311
 2644SOL    HW1 8276   1.290   5.837   2.300
 2644SOL    HW2 8277   1.245   5.961   2.395
 2645SOL     OW 8278   0.594   6.331   2.514
 2645SOL    HW1 8279   0.644   6.416   2.495
 2645SOL    HW2 8280   0.506   6.333   2.466
 2646SOL     OW 8281   1.777   5.928   3.504
 2646SOL    HW1 8282   1.760   5.959   3.410
 2646SOL    HW2 8283   1.693   5.891   3.542
 2647SOL     OW 8284   1.730   6.520   3.379
 2647SOL    HW1 8285   1.768   6.611   3.394
 2647SOL    HW2 8286   1.722   6.503   3.280
 2648SOL     OW 8287   0.859   6.960   1.878
 2648SOL    HW1 8288   0.813   6.975   1.966
 2648SOL    HW2 8289   0.903   7.045   1.848
 2649SOL     OW 8290   0.661   7.376   2.815
 2649SOL    HW1 8291   0.615   7.464   2.802
 2649SOL    HW2 8292   0.760   7.388   2.808
 2650SOL     OW 8293   0.859   6.542   2.723
 2650SOL    HW1 8294   0.913   6.473   2.771
 2650SOL    HW2 8295   0.827   6.611   2.789
 2651SOL     OW 8296   1.083   6.570   1.949
 2651SOL    HW1 8297   1.060   6.623   1.867
 2651SOL    HW2 8298   1.164   6.514   1.930
 2652SOL     OW 8299   1.861   7.155   2.713
 2652SOL    HW1 8300   1.790   7.143   2.643
 2652SOL    HW2 8301   1.862   7.076   2.773
 2653SOL     OW 8302   0.221   6.900   3.706
 2653SOL    HW1 8303   0.156   6.827   3.685
 2653SOL    HW2 8304   0.225   6.914   3.804
 2654SOL     OW 8305   0.079   6.826   2.515
 2654SOL    HW1 8306   0.078   6.779   2.603
 2654SOL    HW2 8307   0.161   6.798   2.464
 2655SOL     OW 8308   0.672   6.977   3.486
 2655SOL    HW1 8309   0.594   6.927   3.524
 2655SOL    HW2 8310   0.669   7.072   3.517
 2656SOL     OW 8311   1.824   5.778   3.089
 2656SOL    HW1 8312   1.820   5.688   3.133
 2656SOL    HW2 8313   1.827   5.767   2.990
 2657SOL     OW 8314   0.428   6.010   2.382
 2657SOL    HW1 8315   0.458   5.938   2.320
 2657SOL    HW2 8316   0.389   5.970   2.465
 2658SOL     OW 8317   1.705   7.073   2.966
 2658SOL    HW1 8318   1.612   7.048   2.939
 2658SOL    HW2 8319   1.731   7.023   3.048
 2659SOL     OW 8320   0.317   6.133   3.142
 2659SOL    HW1 8321   0.355   6.074   3.214
 2659SOL    HW2 8322   0.357   6.107   3.054
 2660SOL     OW 8323   0.812   7.172   2.549
 2660SOL    HW1 8324   0.844   7.182   2.455
 2660SOL    HW2 8325   0.733   7.110   2.551
 2661SOL     OW 8326   1.424   5.800   2.974
 2661SOL    HW1 8327   1.476   5.735   3.029
 2661SOL    HW2 8328   1.375   5.863   3.035
 2662SOL     OW 8329   1.001   5.620   3.016
 2662SOL    HW1 8330   0.938   5.548   2.985
 2662SOL    HW2 8331   1.094   5.584   3.016
 2663SOL     OW 8332   0.770   6.916   2.163
 2663SOL    HW1 8333   0.724   6.829   2.180
 2663SOL    HW2 8334   0.861   6.913   2.204
 2664SOL     OW 8335   0.618   7.153   3.146
 2664SOL    HW1 8336   0.613   7.235   3.203
 2664SOL    HW2 8337   0.707   7.150   3.101
 2665SOL     OW 8338   1.352   5.638   2.030
 2665SOL    HW1 8339   1.387   5.597   1.946
 2665SOL    HW2 8340   1.262   5.600   2.050
 2666SOL     OW 8341   1.300   6.039   2.553
 2666SOL    HW1 8342   1.241   6.119   2.557
 2666SOL    HW2 8343   1.315   6.004   2.646
 2667SOL     OW 8344   1.593   5.807   2.744
 2667SOL    HW1 8345   1.509   5.806   2.798
 2667SOL    HW2 8346   1.595   5.890   2.688
 2668SOL     OW 8347   0.039   6.663   2.162
 2668SOL    HW1 8348   0.138   6.652   2.153
 2668SOL    HW2 8349  -0.001   6.577   2.194
 2669SOL     OW 8350   0.875   7.232   2.199
 2669SOL    HW1 8351   0.798   7.197   2.145
 2669SOL    HW2 8352   0.843   7.303   2.261
 2670SOL     OW 8353   0.230   6.214   3.837
 2670SOL    HW1 8354   0.137   6.212   3.874
 2670SOL    HW2 8355   0.231   6.175   3.745
 2671SOL     OW 8356   0.225   5.861   4.720
 2671SOL    HW1 8357   0.260   5.844   4.812
 2671SOL    HW2 8358   0.137   5.816   4.708
 2672SOL     OW 8359   0.019   5.954   4.371
 2672SOL    HW1 8360  -0.063   5.997   4.410
 2672SOL    HW2 8361  -0.009   5.881   4.308
 2673SOL     OW 8362   0.569   6.861   4.889
 2673SOL    HW1 8363   0.476   6.854   4.852
 2673SOL    HW2 8364   0.580   6.950   4.933
 2674SOL     OW 8365   1.555   7.097   4.427
 2674SOL    HW1 8366   1.498   7.081   4.508
 2674SOL    HW2 8367   1.496   7.107   4.347
 2675SOL     OW 8368   1.135   6.289   4.441
 2675SOL    HW1 8369   1.192   6.367   4.416
 2675SOL    HW2 8370   1.075   6.315   4.517
 2676SOL     OW 8371   1.755   6.193   3.955
 2676SOL    HW1 8372   1.743   6.180   3.856
 2676SOL    HW2 8373   1.725   6.112   4.004
 2677SOL     OW 8374   0.768   6.730   4.747
 2677SOL    HW1 8375   0.690   6.747   4.807
 2677SOL    HW2 8376   0.802   6.817   4.711
 2678SOL     OW 8377   0.850   6.384   5.547
 2678SOL    HW1 8378   0.846   6.460   5.612
 2678SOL    HW2 8379   0.872   6.420   5.456
 2679SOL     OW 8380   0.685   6.598   4.389
 2679SOL    HW1 8381   0.754   6.582   4.459
 2679SOL    HW2 8382   0.612   6.655   4.427
 2680SOL     OW 8383   0.686   6.747   5.527
 2680SOL    HW1 8384   0.746   6.826   5.541
 2680SOL    HW2 8385   0.600   6.778   5.486
 2681SOL     OW 8386   0.335   7.021   4.785
 2681SOL    HW1 8387   0.257   6.990   4.732
 2681SOL    HW2 8388   0.393   7.079   4.728
 2682SOL     OW 8389   1.460   7.091   5.063
 2682SOL    HW1 8390   1.484   7.185   5.089
 2682SOL    HW2 8391   1.444   7.037   5.145
 2683SOL     OW 8392   0.438   5.978   5.223
 2683SOL    HW1 8393   0.520   5.922   5.232
 2683SOL    HW2 8394   0.357   5.920   5.227
 2684SOL     OW 8395   1.603   6.033   4.461
 2684SOL    HW1 8396   1.529   6.079   4.411
 2684SOL    HW2 8397   1.654   6.101   4.514
 2685SOL     OW 8398   0.231   7.299   4.207
 2685SOL    HW1 8399   0.265   7.376   4.261
 2685SOL    HW2 8400   0.275   7.299   4.117
 2686SOL     OW 8401   1.127   6.927   5.414
 2686SOL    HW1 8402   1.174   6.927   5.502
 2686SOL    HW2 8403   1.079   6.840   5.403
 2687SOL     OW 8404   0.230   7.020   4.262
 2687SOL    HW1 8405   0.204   7.116   4.262
 2687SOL    HW2 8406   0.159   6.966   4.307
 2688SOL     OW 8407   0.240   6.677   4.610
 2688SOL    HW1 8408   0.254   6.593   4.662
 2688SOL    HW2 8409   0.185   6.741   4.665
 2689SOL     OW 8410   0.620   7.372   5.163
 2689SOL    HW1 8411   0.528   7.355   5.198
 2689SOL    HW2 8412   0.648   7.464   5.189
 2690SOL     OW 8413   0.606   6.550   3.847
 2690SOL    HW1 8414   0.613   6.634   3.793
 2690SOL    HW2 8415   0.652   6.563   3.935
 2691SOL     OW 8416   1.594   5.700   5.204
 2691SOL    HW1 8417   1.576   5.767   5.132
 2691SOL    HW2 8418   1.591   5.746   5.293
 2692SOL     OW 8419   0.122   6.229   4.287
 2692SOL    HW1 8420   0.077   6.141   4.304
 2692SOL    HW2 8421   0.121   6.283   4.371
 2693SOL     OW 8422   1.842   7.353   4.083
 2693SOL    HW1 8423   1.896   7.324   4.163
 2693SOL    HW2 8424   1.872   7.443   4.054
 2694SOL     OW 8425   0.027   7.182   3.841
 2694SOL    HW1 8426   0.008   7.086   3.862
 2694SOL    HW2 8427  -0.006   7.240   3.916
 2695SOL     OW 8428   1.689   6.508   4.336
 2695SOL    HW1 8429   1.784   6.479   4.344
 2695SOL    HW2 8430   1.681   6.573   4.261
 2696SOL     OW 8431   1.641   6.694   4.156
 2696SOL    HW1 8432   1.727   6.696   4.104
 2696SOL    HW2 8433   1.655   6.741   4.244
 2697SOL     OW 8434   0.113   6.323   5.321
 2697SOL    HW1 8435   0.201   6.310   5.366
 2697SOL    HW2 8436   0.100   6.420   5.299
 2698SOL     OW 8437   0.613   6.951   4.450
 2698SOL    HW1 8438   0.564   6.864   4.459
 2698SOL    HW2 8439   0.590   6.994   4.363
 2699SOL     OW 8440   1.293   6.814   5.147
 2699SOL    HW1 8441   1.330   6.741   5.089
 2699SOL    HW2 8442   1.345   6.819   5.232
 2700SOL     OW 8443   0.809   5.590   4.226
 2700SOL    HW1 8444   0.849   5.681   4.217
 2700SOL    HW2 8445   0.709   5.598   4.232
 2701SOL     OW 8446   0.197   6.562   4.988
 2701SOL    HW1 8447   0.286   6.517   4.974
 2701SOL    HW2 8448   0.124   6.497   4.969
 2702SOL     OW 8449   1.525   6.585   3.914
 2702SOL    HW1 8450   1.462   6.509   3.927
 2702SOL    HW2 8451   1.573   6.603   4.000
 2703SOL     OW 8452   1.187   7.378   5.340
 2703SOL    HW1 8453   1.211   7.438   5.264
 2703SOL    HW2 8454   1.194   7.283   5.310
 2704SOL     OW 8455   0.317   5.837   5.525
 2704SOL    HW1 8456   0.388   5.908   5.531
 2704SOL    HW2 8457   0.229   5.876   5.553
 2705SOL     OW 8458   1.466   7.003   4.677
 2705SOL    HW1 8459   1.407   7.009   4.757
 2705SOL    HW2 8460   1.451   6.915   4.631
 2706SOL     OW 8461   1.667   7.300   4.296
 2706SOL    HW1 8462   1.626   7.277   4.208
 2706SOL    HW2 8463   1.649   7.226   4.361
 2707SOL     OW 8464   0.598   6.315   3.994
 2707SOL    HW1 8465   0.622   6.384   3.926
 2707SOL    HW2 8466   0.520   6.348   4.048
 2708SOL     OW 8467   1.281   5.931   4.668
 2708SOL    HW1 8468   1.195   5.881   4.655
 2708SOL    HW2 8469   1.343   5.877   4.724
 2709SOL     OW 8470   1.576   7.248   4.031
 2709SOL    HW1 8471   1.665   7.294   4.034
 2709SOL    HW2 8472   1.555   7.224   3.936
 2710SOL     OW 8473   0.807   6.191   5.189
 2710SOL    HW1 8474   0.760   6.188   5.278
 2710SOL    HW2 8475   0.756   6.136   5.123
 2711SOL     OW 8476   1.394   6.055   5.398
 2711SOL    HW1 8477   1.374   6.098   5.486
 2711SOL    HW2 8478   1.472   5.993   5.407
 2712SOL     OW 8479   0.973   6.476   5.296
 2712SOL    HW1 8480   1.019   6.392   5.267
 2712SOL    HW2 8481   0.917   6.510   5.221
 2713SOL     OW 8482   0.991   5.996   4.966
 2713SOL    HW1 8483   0.914   6.030   5.020
 2713SOL    HW2 8484   0.957   5.945   4.887
 2714SOL     OW 8485   1.041   6.287   4.153
 2714SOL    HW1 8486   1.067   6.283   4.249
 2714SOL    HW2 8487   0.956   6.236   4.139
 2715SOL     OW 8488   0.076   6.397   4.513
 2715SOL    HW1 8489   0.175   6.385   4.522
 2715SOL    HW2 8490   0.052   6.492   4.534
 2716SOL     OW 8491   0.130   7.407   5.295
 2716SOL    HW1 8492   0.120   7.392   5.394
 2716SOL    HW2 8493   0.044   7.443   5.259
 2717SOL     OW 8494   0.865   5.934   3.919
 2717SOL    HW1 8495   0.924   5.997   3.870
 2717SOL    HW2 8496   0.884   5.840   3.890
 2718SOL     OW 8497   1.719   6.171   5.555
 2718SOL    HW1 8498   1.693   6.260   5.519
 2718SOL    HW2 8499   1.717   6.103   5.482
 2719SOL     OW 8500   1.362   6.730   4.269
 2719SOL    HW1 8501   1.445   6.701   4.221
 2719SOL    HW2 8502   1.313   6.797   4.213
 2720SOL     OW 8503   0.550   5.782   4.609
 2720SOL    HW1 8504   0.545   5.777   4.709
 2720SOL    HW2 8505   0.552   5.878   4.580
 2721SOL     OW 8506   1.008   7.042   4.201
 2721SOL    HW1 8507   0.962   7.114   4.149
 2721SOL    HW2 8508   1.004   7.062   4.299
 2722SOL     OW 8509   0.351   7.387   4.577
 2722SOL    HW1 8510   0.401   7.301   4.583
 2722SOL    HW2 8511   0.416   7.464   4.574
 2723SOL     OW 8512   1.795   6.652   4.597
 2723SOL    HW1 8513   1.733   6.637   4.521
 2723SOL    HW2 8514   1.743   6.663   4.682
 2724SOL     OW 8515   1.227   7.136   5.230
 2724SOL    HW1 8516   1.233   7.059   5.294
 2724SOL    HW2 8517   1.175   7.110   5.150
 2725SOL     OW 8518   0.321   6.529   3.966
 2725SOL    HW1 8519   0.403   6.568   3.924
 2725SOL    HW2 8520   0.294   6.447   3.917
 2726SOL     OW 8521   1.458   6.321   4.452
 2726SOL    HW1 8522   1.453   6.256   4.527
 2726SOL    HW2 8523   1.538   6.380   4.465
 2727SOL     OW 8524   0.461   6.852   5.451
 2727SOL    HW1 8525   0.411   6.853   5.365
 2727SOL    HW2 8526   0.398   6.834   5.527
 2728SOL     OW 8527   1.111   7.362   3.961
 2728SOL    HW1 8528   1.051   7.300   4.011
 2728SOL    HW2 8529   1.142   7.318   3.876
 2729SOL     OW 8530   0.202   5.871   5.222
 2729SOL    HW1 8531   0.122   5.931   5.209
 2729SOL    HW2 8532   0.192   5.822   5.308
 2730SOL     OW 8533   1.632   6.963   3.805
 2730SOL    HW1 8534   1.600   7.057   3.795
 2730SOL    HW2 8535   1.556   6.900   3.793
 2731SOL     OW 8536   0.464   7.329   4.047
 2731SOL    HW1 8537   0.497   7.368   4.133
 2731SOL    HW2 8538   0.540   7.322   3.982
 2732SOL     OW 8539   1.400   5.693   4.150
 2732SOL    HW1 8540   1.376   5.656   4.060
 2732SOL    HW2 8541   1.499   5.709   4.154
 2733SOL     OW 8542   0.249   7.371   4.965
 2733SOL    HW1 8543   0.306   7.306   5.015
 2733SOL    HW2 8544   0.233   7.338   4.872
 2734SOL     OW 8545   0.940   7.284   4.628
 2734SOL    HW1 8546   1.020   7.227   4.649
 2734SOL    HW2 8547   0.891   7.244   4.551
 2735SOL     OW 8548   0.382   6.286   4.204
 2735SOL    HW1 8549   0.427   6.196   4.201
 2735SOL    HW2 8550   0.288   6.275   4.237
 2736SOL     OW 8551   1.547   5.808   5.453
 2736SOL    HW1 8552   1.542   5.845   5.545
 2736SOL    HW2 8553   1.475   5.739   5.441
 2737SOL     OW 8554   0.614   5.708   3.841
 2737SOL    HW1 8555   0.712   5.686   3.848
 2737SOL    HW2 8556   0.583   5.691   3.748
 2738SOL     OW 8557   0.781   5.850   5.473
 2738SOL    HW1 8558   0.848   5.789   5.516
 2738SOL    HW2 8559   0.708   5.869   5.538
 2739SOL     OW 8560   0.888   7.100   4.919
 2739SOL    HW1 8561   0.865   7.075   4.825
 2739SOL    HW2 8562   0.949   7.031   4.958
 2740SOL     OW 8563   1.351   6.176   5.157
 2740SOL    HW1 8564   1.379   6.133   5.242
 2740SOL    HW2 8565   1.376   6.272   5.158
 2741SOL     OW 8566   0.803   6.988   4.648
 2741SOL    HW1 8567   0.893   7.002   4.606
 2741SOL    HW2 8568   0.732   6.990   4.577
 2742SOL     OW 8569   0.922   6.089   4.623
 2742SOL    HW1 8570   0.897   6.080   4.527
 2742SOL    HW2 8571   0.970   6.007   4.654
 2743SOL     OW 8572   0.539   5.650   4.236
 2743SOL    HW1 8573   0.458   5.651   4.294
 2743SOL    HW2 8574   0.542   5.733   4.181
 2744SOL     OW 8575   1.434   6.774   3.765
 2744SOL    HW1 8576   1.466   6.698   3.822
 2744SOL    HW2 8577   1.342   6.801   3.795
 2745SOL     OW 8578   0.297   5.621   3.895
 2745SOL    HW1 8579   0.346   5.705   3.874
 2745SOL    HW2 8580   0.359   5.556   3.940
 2746SOL     OW 8581   0.935   5.822   4.204
 2746SOL    HW1 8582   0.887   5.863   4.126
 2746SOL    HW2 8583   1.034   5.820   4.185
 2747SOL     OW 8584   1.076   6.269   5.188
 2747SOL    HW1 8585   0.996   6.208   5.191
 2747SOL    HW2 8586   1.157   6.216   5.164
 2748SOL     OW 8587   1.227   7.156   4.517
 2748SOL    HW1 8588   1.248   7.230   4.452
 2748SOL    HW2 8589   1.295   7.156   4.590
 2749SOL     OW 8590   0.459   6.738   4.465
 2749SOL    HW1 8591   0.388   6.711   4.530
 2749SOL    HW2 8592   0.433   6.710   4.372
 2750SOL     OW 8593   1.271   7.383   4.315
 2750SOL    HW1 8594   1.315   7.447   4.251
 2750SOL    HW2 8595   1.221   7.435   4.385
 2751SOL     OW 8596   1.032   6.135   3.740
 2751SOL    HW1 8597   0.991   6.217   3.701
 2751SOL    HW2 8598   1.096   6.161   3.813
 2752SOL     OW 8599   0.078   6.142   5.110
 2752SOL    HW1 8600   0.170   6.141   5.069
 2752SOL    HW2 8601   0.072   6.216   5.177
 2753SOL     OW 8602   0.561   5.808   4.871
 2753SOL    HW1 8603   0.599   5.724   4.908
 2753SOL    HW2 8604   0.473   5.827   4.915
 2754SOL     OW 8605   0.866   6.040   4.366
 2754SOL    HW1 8606   0.834   6.112   4.304
 2754SOL    HW2 8607   0.890   5.959   4.313
 2755SOL     OW 8608   1.017   5.625   4.477
 2755SOL    HW1 8609   0.945   5.630   4.408
 2755SOL    HW2 8610   0.993   5.556   4.546
 2756SOL     OW 8611   1.429   6.759   4.591
 2756SOL    HW1 8612   1.374   6.675   4.584
 2756SOL    HW2 8613   1.455   6.788   4.499
 2757SOL     OW 8614   1.466   6.176   4.716
 2757SOL    HW1 8615   1.436   6.081   4.723
 2757SOL    HW2 8616   1.539   6.192   4.782
 2758SOL     OW 8617   1.857   6.419   4.101
 2758SOL    HW1 8618   1.899   6.355   4.165
 2758SOL    HW2 8619   1.819   6.368   4.023
 2759SOL     OW 8620   0.488   6.971   3.898
 2759SOL    HW1 8621   0.401   6.956   3.945
 2759SOL    HW2 8622   0.471   6.997   3.803
 2760SOL     OW 8623   1.664   6.866   4.381
 2760SOL    HW1 8624   1.763   6.874   4.395
 2760SOL    HW2 8625   1.619   6.950   4.412
 2761SOL     OW 8626   1.390   6.161   3.802
 2761SOL    HW1 8627   1.336   6.140   3.883
 2761SOL    HW2 8628   1.481   6.120   3.811
 2762SOL     OW 8629   0.527   5.842   4.052
 2762SOL    HW1 8630   0.554   5.783   3.977
 2762SOL    HW2 8631   0.527   5.937   4.021
 2763SOL     OW 8632   1.754   6.809   5.312
 2763SOL    HW1 8633   1.845   6.770   5.299
 2763SOL    HW2 8634   1.762   6.905   5.336
 2764SOL     OW 8635   1.064   6.933   5.064
 2764SOL    HW1 8636   0.984   6.910   5.119
 2764SOL    HW2 8637   1.147   6.907   5.113
 2765SOL     OW 8638   1.592   7.215   5.349
 2765SOL    HW1 8639   1.619   7.249   5.259
 2765SOL    HW2 8640   1.671   7.177   5.395
 2766SOL     OW 8641   1.111   6.781   4.824
 2766SOL    HW1 8642   1.071   6.825   4.905
 2766SOL    HW2 8643   1.070   6.818   4.741
 2767SOL     OW 8644   1.638   6.685   4.803
 2767SOL    HW1 8645   1.643   6.766   4.862
 2767SOL    HW2 8646   1.552   6.687   4.752
 2768SOL     OW 8647   0.915   5.675   5.126
 2768SOL    HW1 8648   0.940   5.655   5.031
 2768SOL    HW2 8649   0.987   5.731   5.168
 2769SOL     OW 8650   0.980   6.702   5.443
 2769SOL    HW1 8651   0.881   6.708   5.453
 2769SOL    HW2 8652   1.003   6.622   5.387
 2770SOL     OW 8653   0.705   6.636   4.092
 2770SOL    HW1 8654   0.691   6.643   4.191
 2770SOL    HW2 8655   0.789   6.585   4.074
 2771SOL     OW 8656   0.410   6.399   4.975
 2771SOL    HW1 8657   0.496   6.411   5.025
 2771SOL    HW2 8658   0.368   6.312   5.002
 2772SOL     OW 8659   1.274   5.972   4.986
 2772SOL    HW1 8660   1.295   6.046   5.050
 2772SOL    HW2 8661   1.185   5.989   4.943
 2773SOL     OW 8662   0.064   7.150   5.055
 2773SOL    HW1 8663   0.018   7.232   5.021
 2773SOL    HW2 8664   0.162   7.169   5.064
 2774SOL     OW 8665   0.367   6.686   4.225
 2774SOL    HW1 8666   0.360   6.769   4.169
 2774SOL    HW2 8667   0.371   6.606   4.165
 2775SOL     OW 8668   0.566   6.123   4.589
 2775SOL    HW1 8669   0.578   6.189   4.515
 2775SOL    HW2 8670   0.612   6.157   4.672
 2776SOL     OW 8671   1.252   6.934   4.112
 2776SOL    HW1 8672   1.302   7.011   4.152
 2776SOL    HW2 8673   1.157   6.936   4.144
 2777SOL     OW 8674   1.272   7.031   4.866
 2777SOL    HW1 8675   1.319   7.044   4.953
 2777SOL    HW2 8676   1.206   6.957   4.875
 2778SOL     OW 8677   1.582   6.225   4.196
 2778SOL    HW1 8678   1.551   6.286   4.269
 2778SOL    HW2 8679   1.632   6.277   4.127
 2779SOL     OW 8680   0.354   7.096   5.053
 2779SOL    HW1 8681   0.333   7.052   4.966
 2779SOL    HW2 8682   0.451   7.122   5.056
 2780SOL     OW 8683   0.402   6.337   5.322
 2780SOL    HW1 8684   0.470   6.392   5.275
 2780SOL    HW2 8685   0.442   6.249   5.349
 2781SOL     OW 8686   1.587   6.365   5.394
 2781SOL    HW1 8687   1.495   6.403   5.389
 2781SOL    HW2 8688   1.647   6.412   5.329
 2782SOL     OW 8689   1.013   5.691   5.494
 2782SOL    HW1 8690   1.019   5.776   5.442
 2782SOL    HW2 8691   1.045   5.615   5.437
 2783SOL     OW 8692   0.504   5.636   5.464
 2783SOL    HW1 8693   0.462   5.579   5.394
 2783SOL    HW2 8694   0.438   5.705   5.496
 2784SOL     OW 8695   0.573   6.456   4.753
 2784SOL    HW1 8696   0.617   6.545   4.744
 2784SOL    HW2 8697   0.510   6.456   4.830
 2785SOL     OW 8698   1.360   6.448   4.769
 2785SOL    HW1 8699   1.285   6.448   4.703
 2785SOL    HW2 8700   1.397   6.356   4.778
 2786SOL     OW 8701   1.209   6.111   3.999
 2786SOL    HW1 8702   1.222   6.027   4.053
 2786SOL    HW2 8703   1.180   6.185   4.059
 2787SOL     OW 8704   0.307   5.799   4.955
 2787SOL    HW1 8705   0.284   5.836   5.045
 2787SOL    HW2 8706   0.277   5.704   4.949
 2788SOL     OW 8707   0.037   6.896   5.006
 2788SOL    HW1 8708   0.090   6.847   5.074
 2788SOL    HW2 8709   0.059   6.994   5.011
 2789SOL     OW 8710   0.732   6.220   4.788
 2789SOL    HW1 8711   0.791   6.194   4.712
 2789SOL    HW2 8712   0.704   6.316   4.777
 2790SOL     OW 8713   1.728   6.521   5.578
 2790SOL    HW1 8714   1.682   6.514   5.489
 2790SOL    HW2 8715   1.666   6.565   5.644
 2791SOL     OW 8716   0.307   5.649   4.342
 2791SOL    HW1 8717   0.296   5.743   4.375
 2791SOL    HW2 8718   0.302   5.586   4.419
 2792SOL     OW 8719   1.622   5.953   4.098
 2792SOL    HW1 8720   1.624   5.877   4.162
 2792SOL    HW2 8721   1.574   6.030   4.138
 2793SOL     OW 8722   1.023   6.352   4.690
 2793SOL    HW1 8723   1.038   6.373   4.786
 2793SOL    HW2 8724   0.993   6.257   4.681
 2794SOL     OW 8725   0.980   7.159   5.424
 2794SOL    HW1 8726   0.960   7.203   5.336
 2794SOL    HW2 8727   1.019   7.068   5.408
 2795SOL     OW 8728   1.859   7.104   5.329
 2795SOL    HW1 8729   1.873   7.131   5.234
 2795SOL    HW2 8730   1.942   7.126   5.382
 2796SOL     OW 8731   0.350   6.484   5.528
 2796SOL    HW1 8732   0.426   6.528   5.576
 2796SOL    HW2 8733   0.385   6.437   5.446
 2797SOL     OW 8734   1.540   5.860   3.849
 2797SOL    HW1 8735   1.479   5.785   3.872
 2797SOL    HW2 8736   1.562   5.912   3.932
 2798SOL     OW 8737   1.303   6.424   3.766
 2798SOL    HW1 8738   1.337   6.331   3.781
 2798SOL    HW2 8739   1.321   6.451   3.671
 2799SOL     OW 8740   1.068   6.919   4.573
 2799SOL    HW1 8741   1.075   6.835   4.518
 2799SOL    HW2 8742   1.130   6.988   4.537
 2800SOL     OW 8743   0.319   6.396   4.673
 2800SOL    HW1 8744   0.412   6.432   4.678
 2800SOL    HW2 8745   0.313   6.311   4.725
 2801SOL     OW 8746   0.339   6.095   4.730
 2801SOL    HW1 8747   0.287   6.012   4.713
 2801SOL    HW2 8748   0.416   6.100   4.666
 2802SOL     OW 8749   1.138   5.966   5.402
 2802SOL    HW1 8750   1.093   6.029   5.466
 2802SOL    HW2 8751   1.231   5.997   5.385
 2803SOL     OW 8752   1.160   5.793   5.201
 2803SOL    HW1 8753   1.160   5.857   5.278
 2803SOL    HW2 8754   1.188   5.841   5.118
 2804SOL     OW 8755   0.008   6.912   3.924
 2804SOL    HW1 8756  -0.085   6.933   3.893
 2804SOL    HW2 8757   0.018   6.813   3.937
 2805SOL     OW 8758   0.088   7.387   4.651
 2805SOL    HW1 8759   0.046   7.301   4.624
 2805SOL    HW2 8760   0.182   7.390   4.617
 2806SOL     OW 8761   0.504   7.154   4.634
 2806SOL    HW1 8762   0.570   7.228   4.643
 2806SOL    HW2 8763   0.548   7.075   4.592
 2807SOL     OW 8764   1.002   6.382   4.962
 2807SOL    HW1 8765   1.043   6.350   5.048
 2807SOL    HW2 8766   0.906   6.355   4.959
 2808SOL     OW 8767   0.040   6.130   4.838
 2808SOL    HW1 8768   0.125   6.097   4.797
 2808SOL    HW2 8769   0.053   6.145   4.936
 2809SOL     OW 8770   0.189   6.106   5.446
 2809SOL    HW1 8771   0.248   6.066   5.376
 2809SOL    HW2 8772   0.131   6.177   5.405
 2810SOL     OW 8773   1.369   6.536   5.384
 2810SOL    HW1 8774   1.408   6.625   5.404
 2810SOL    HW2 8775   1.379   6.516   5.287
 2811SOL     OW 8776   0.815   6.158   4.049
 2811SOL    HW1 8777   0.822   6.069   4.003
 2811SOL    HW2 8778   0.721   6.192   4.041
 2812SOL     OW 8779   1.657   6.190   4.930
 2812SOL    HW1 8780   1.619   6.121   4.992
 2812SOL    HW2 8781   1.739   6.154   4.886
 2813SOL     OW 8782   0.252   7.150   5.468
 2813SOL    HW1 8783   0.222   7.207   5.544
 2813SOL    HW2 8784   0.245   7.053   5.494
 2814SOL     OW 8785   0.671   6.050   4.993
 2814SOL    HW1 8786   0.637   5.961   4.963
 2814SOL    HW2 8787   0.697   6.104   4.913
 2815SOL     OW 8788   0.930   7.264   5.189
 2815SOL    HW1 8789   0.906   7.246   5.094
 2815SOL    HW2 8790   0.960   7.358   5.199
 2816SOL     OW 8791   0.473   6.086   3.915
 2816SOL    HW1 8792   0.534   6.166   3.919
 2816SOL    HW2 8793   0.378   6.117   3.922
 2817SOL     OW 8794   0.159   6.723   5.190
 2817SOL    HW1 8795   0.181   6.662   5.266
 2817SOL    HW2 8796   0.169   6.674   5.104
 2818SOL     OW 8797   1.347   6.645   4.958
 2818SOL    HW1 8798   1.371   6.582   4.884
 2818SOL    HW2 8799   1.257   6.685   4.940
 2819SOL     OW 8800   1.302   6.441   4.033
 2819SOL    HW1 8801   1.216   6.410   4.075
 2819SOL    HW2 8802   1.298   6.427   3.934
 2820SOL     OW 8803   1.759   7.333   4.878
 2820SOL    HW1 8804   1.820   7.363   4.805
 2820SOL    HW2 8805   1.721   7.244   4.856
 2821SOL     OW 8806   1.252   7.317   4.852
 2821SOL    HW1 8807   1.336   7.322   4.798
 2821SOL    HW2 8808   1.229   7.221   4.870
 2822SOL     OW 8809   0.083   6.844   4.746
 2822SOL    HW1 8810   0.078   6.843   4.846
 2822SOL    HW2 8811   0.000   6.803   4.708
 2823SOL     OW 8812   0.688   7.248   5.440
 2823SOL    HW1 8813   0.632   7.329   5.449
 2823SOL    HW2 8814   0.740   7.252   5.354
 2824SOL     OW 8815   1.726   5.721   4.247
 2824SOL    HW1 8816   1.799   5.704   4.180
 2824SOL    HW2 8817   1.695   5.634   4.285
 2825SOL     OW 8818   1.388   7.159   4.201
 2825SOL    HW1 8819   1.455   7.171   4.127
 2825SOL    HW2 8820   1.348   7.248   4.224
 2826SOL     OW 8821   0.130   7.380   5.575
 2826SOL    HW1 8822   0.089   7.306   5.628
 2826SOL    HW2 8823   0.194   7.431   5.633
 2827SOL     OW 8824   1.280   6.513   4.396
 2827SOL    HW1 8825   1.340   6.432   4.398
 2827SOL    HW2 8826   1.320   6.582   4.336
 2828SOL     OW 8827   0.830   6.859   5.146
 2828SOL    HW1 8828   0.825   6.892   5.241
 2828SOL    HW2 8829   0.744   6.878   5.100
 2829SOL     OW 8830   0.672   7.202   3.878
 2829SOL    HW1 8831   0.681   7.212   3.779
 2829SOL    HW2 8832   0.632   7.113   3.899
 2830SOL     OW 8833   1.650   7.306   5.118
 2830SOL    HW1 8834   1.703   7.316   5.034
 2830SOL    HW2 8835   1.623   7.396   5.152
 2831SOL     OW 8836   1.841   5.761   4.687
 2831SOL    HW1 8837   1.880   5.676   4.651
 2831SOL    HW2 8838   1.743   5.763   4.668
 2832SOL     OW 8839   0.263   5.912   4.444
 2832SOL    HW1 8840   0.184   5.963   4.410
 2832SOL    HW2 8841   0.254   5.897   4.542
 2833SOL     OW 8842   1.194   7.198   3.755
 2833SOL    HW1 8843   1.200   7.105   3.792
 2833SOL    HW2 8844   1.135   7.198   3.675
 2834SOL     OW 8845   0.822   6.588   5.096
 2834SOL    HW1 8846   0.862   6.587   5.004
 2834SOL    HW2 8847   0.832   6.680   5.136
 2835SOL     OW 8848   0.916   6.496   4.015
 2835SOL    HW1 8849   0.979   6.534   3.947
 2835SOL    HW2 8850   0.956   6.413   4.054
 2836SOL     OW 8851   1.504   7.193   3.768
 2836SOL    HW1 8852   1.412   7.230   3.775
 2836SOL    HW2 8853   1.542   7.213   3.678
 2837SOL     OW 8854   0.372   6.874   5.214
 2837SOL    HW1 8855   0.359   6.967   5.180
 2837SOL    HW2 8856   0.288   6.822   5.201
 2838SOL     OW 8857   1.614   6.878   5.013
 2838SOL    HW1 8858   1.674   6.881   5.093
 2838SOL    HW2 8859   1.539   6.942   5.026
 2839SOL     OW 8860   1.039   6.684   4.420
 2839SOL    HW1 8861   0.969   6.637   4.474
 2839SOL    HW2 8862   1.098   6.616   4.377
 2840SOL     OW 8863   1.014   5.822   4.695
 2840SOL    HW1 8864   1.006   5.786   4.602
 2840SOL    HW2 8865   1.012   5.746   4.760
 2841SOL     OW 8866   0.590   7.073   4.215
 2841SOL    HW1 8867   0.632   7.015   4.145
 2841SOL    HW2 8868   0.546   7.152   4.171
 2842SOL     OW 8869   1.709   5.971   5.105
 2842SOL    HW1 8870   1.782   6.040   5.109
 2842SOL    HW2 8871   1.737   5.896   5.046
 2843SOL     OW 8872   0.255   6.934   4.014
 2843SOL    HW1 8873   0.159   6.935   3.987
 2843SOL    HW2 8874   0.267   6.987   4.098
 2844SOL     OW 8875   0.105   6.599   5.450
 2844SOL    HW1 8876   0.028   6.566   5.504
 2844SOL    HW2 8877   0.190   6.569   5.492
 2845SOL     OW 8878   0.672   5.789   5.213
 2845SOL    HW1 8879   0.762   5.773   5.173
 2845SOL    HW2 8880   0.680   5.794   5.312
 2846SOL     OW 8881   0.075   5.931   3.757
 2846SOL    HW1 8882  -0.017   5.903   3.728
 2846SOL    HW2 8883   0.106   6.008   3.701
 2847SOL     OW 8884   1.440   6.442   5.122
 2847SOL    HW1 8885   1.383   6.494   5.059
 2847SOL    HW2 8886   1.536   6.454   5.098
 2848SOL     OW 8887   0.072   5.752   4.042
 2848SOL    HW1 8888   0.055   5.835   3.988
 2848SOL    HW2 8889   0.162   5.715   4.020
 2849SOL     OW 8890   1.183   6.921   3.843
 2849SOL    HW1 8891   1.084   6.910   3.845
 2849SOL    HW2 8892   1.217   6.936   3.936
 2850SOL     OW 8893   0.613   6.428   5.155
 2850SOL    HW1 8894   0.669   6.509   5.138
 2850SOL    HW2 8895   0.672   6.348   5.158
 2851SOL     OW 8896   1.493   7.353   4.683
 2851SOL    HW1 8897   1.526   7.417   4.614
 2851SOL    HW2 8898   1.559   7.347   4.758
 2852SOL     OW 8899   0.716   6.151   5.432
 2852SOL    HW1 8900   0.735   6.216   5.506
 2852SOL    HW2 8901   0.776   6.071   5.441
 2853SOL     OW 8902   1.450   6.806   5.357
 2853SOL    HW1 8903   1.441   6.796   5.456
 2853SOL    HW2 8904   1.546   6.799   5.331
 2854SOL     OW 8905   0.390   7.327   5.284
 2854SOL    HW1 8906   0.299   7.368   5.282
 2854SOL    HW2 8907   0.383   7.233   5.316
 2855SOL     OW 8908   1.674   6.469   4.978
 2855SOL    HW1 8909   1.647   6.380   4.941
 2855SOL    HW2 8910   1.675   6.537   4.905
 2856SOL     OW 8911   1.225   5.911   4.173
 2856SOL    HW1 8912   1.290   5.837   4.162
 2856SOL    HW2 8913   1.245   5.961   4.257
 2857SOL     OW 8914   0.594   6.331   4.376
 2857SOL    HW1 8915   0.644   6.416   4.357
 2857SOL    HW2 8916   0.506   6.333   4.328
 2858SOL     OW 8917   1.777   5.928   5.366
 2858SOL    HW1 8918   1.760   5.959   5.272
 2858SOL    HW2 8919   1.693   5.891   5.404
 2859SOL     OW 8920   1.730   6.520   5.241
 2859SOL    HW1 8921   1.768   6.611   5.256
 2859SOL    HW2 8922   1.722   6.503   5.142
 2860SOL     OW 8923   0.859   6.960   3.740
 2860SOL    HW1 8924   0.813   6.975   3.828
 2860SOL    HW2 8925   0.903   7.045   3.710
 2861SOL     OW 8926   0.661   7.376   4.677
 2861SOL    HW1 8927   0.615   7.464   4.664
 2861SOL    HW2 8928   0.760   7.388   4.670
 2862SOL     OW 8929   0.859   6.542   4.585
 2862SOL    HW1 8930   0.913   6.473   4.633
 2862SOL    HW2 8931   0.827   6.611   4.651
 2863SOL     OW 8932   1.083   6.570   3.811
 2863SOL    HW1 8933   1.060   6.623   3.729
 2863SOL    HW2 8934   1.164   6.514   3.792
 2864SOL     OW 8935   1.861   7.155   4.575
 2864SOL    HW1 8936   1.790   7.143   4.505
 2864SOL    HW2 8937   1.862   7.076   4.635
 2865SOL     OW 8938   0.221   6.900   5.568
 2865SOL    HW1 8939   0.156   6.827   5.547
 2865SOL    HW2 8940   0.225   6.914   5.666
 2866SOL     OW 8941   0.079   6.826   4.377
 2866SOL    HW1 8942   0.078   6.779   4.465
 2866SOL    HW2 8943   0.161   6.798   4.326
 2867SOL     OW 8944   0.672   6.977   5.348
 2867SOL    HW1 8945   0.594   6.927   5.386
 2867SOL    HW2 8946   0.669   7.072   5.379
 2868SOL     OW 8947   1.824   5.778   4.951
 2868SOL    HW1 8948   1.820   5.688   4.995
 2868SOL    HW2 8949   1.827   5.767   4.852
 2869SOL     OW 8950   0.428   6.010   4.244
 2869SOL    HW1 8951   0.458   5.938   4.182
 2869SOL    HW2 8952   0.389   5.970   4.327
 2870SOL     OW 8953   1.705   7.073   4.828
 2870SOL    HW1 8954   1.612   7.048   4.801
 2870SOL    HW2 8955   1.731   7.023   4.910
 2871SOL     OW 8956   0.317   6.133   5.004
 2871SOL    HW1 8957   0.355   6.074   5.076
 2871SOL    HW2 8958   0.357   6.107   4.916
 2872SOL     OW 8959   0.812   7.172   4.411
 2872SOL    HW1 8960   0.844   7.182   4.317
 2872SOL    HW2 8961   0.733   7.110   4.413
 2873SOL     OW 8962   1.424   5.800   4.836
 2873SOL    HW1 8963   1.476   5.735   4.891
 2873SOL    HW2 8964   1.375   5.863   4.897
 2874SOL     OW 8965   1.001   5.620   4.878
 2874SOL    HW1 8966   0.938   5.548   4.847
 2874SOL    HW2 8967   1.094   5.584   4.878
 2875SOL     OW 8968   0.770   6.916   4.025
 2875SOL    HW1 8969   0.724   6.829   4.042
 2875SOL    HW2 8970   0.861   6.913   4.066
 2876SOL     OW 8971   0.618   7.153   5.008
 2876SOL    HW1 8972   0.613   7.235   5.065
 2876SOL    HW2 8973   0.707   7.150   4.963
 2877SOL     OW 8974   1.352   5.638   3.892
 2877SOL    HW1 8975   1.387   5.597   3.808
 2877SOL    HW2 8976   1.262   5.600   3.912
 2878SOL     OW 8977   1.300   6.039   4.415
 2878SOL    HW1 8978   1.241   6.119   4.419
 2878SOL    HW2 8979   1.315   6.004   4.508
 2879SOL     OW 8980   1.593   5.807   4.606
 2879SOL    HW1 8981   1.509   5.806   4.660
 2879SOL    HW2 8982   1.595   5.890   4.550
 2880SOL     OW 8983   0.039   6.663   4.024
 2880SOL    HW1 8984   0.138   6.652   4.015
 2880SOL    HW2 8985  -0.001   6.577   4.056
 2881SOL     OW 8986   0.875   7.232   4.061
 2881SOL    HW1 8987   0.798   7.197   4.007
 2881SOL    HW2 8988   0.843   7.303   4.123
 2882SOL     OW 8989   0.230   6.214   5.699
 2882SOL    HW1 8990   0.137   6.212   5.736
 2882SOL    HW2 8991   0.231   6.175   5.607
 2883SOL     OW 8992   0.019   5.954   6.233
 2883SOL    HW1 8993  -0.063   5.997   6.272
 2883SOL    HW2 8994  -0.009   5.881   6.170
 2884SOL     OW 8995   1.555   7.097   6.289
 2884SOL    HW1 8996   1.498   7.081   6.370
 2884SOL    HW2 8997   1.496   7.107   6.209
 2885SOL     OW 8998   1.135   6.289   6.303
 2885SOL    HW1 8999   1.192   6.367   6.278
 2885SOL    HW2 9000   1.075   6.315   6.379
 2886SOL     OW 9001   1.755   6.193   5.817
 2886SOL    HW1 9002   1.743   6.180   5.718
 2886SOL    HW2 9003   1.725   6.112   5.866
 2887SOL     OW 9004   0.685   6.598   6.251
 2887SOL    HW1 9005   0.754   6.582   6.321
 2887SOL    HW2 9006   0.612   6.655   6.289
 2888SOL     OW 9007   1.603   6.033   6.323
 2888SOL    HW1 9008   1.529   6.079   6.273
 2888SOL    HW2 9009   1.654   6.101   6.376
 2889SOL     OW 9010   0.231   7.299   6.069
 2889SOL    HW1 9011   0.265   7.376   6.123
 2889SOL    HW2 9012   0.275   7.299   5.979
 2890SOL     OW 9013   0.230   7.020   6.124
 2890SOL    HW1 9014   0.204   7.116   6.124
 2890SOL    HW2 9015   0.159   6.966   6.169
 2891SOL     OW 9016   0.240   6.677   6.472
 2891SOL    HW1 9017   0.254   6.593   6.524
 2891SOL    HW2 9018   0.185   6.741   6.527
 2892SOL     OW 9019   0.606   6.550   5.709
 2892SOL    HW1 9020   0.613   6.634   5.655
 2892SOL    HW2 9021   0.652   6.563   5.797
 2893SOL     OW 9022   0.122   6.229   6.149
 2893SOL    HW1 9023   0.077   6.141   6.166
 2893SOL    HW2 9024   0.121   6.283   6.233
 2894SOL     OW 9025   1.842   7.353   5.945
 2894SOL    HW1 9026   1.896   7.324   6.025
 2894SOL    HW2 9027   1.872   7.443   5.916
 2895SOL     OW 9028   0.027   7.182   5.703
 2895SOL    HW1 9029   0.008   7.086   5.724
 2895SOL    HW2 9030  -0.006   7.240   5.778
 2896SOL     OW 9031   1.689   6.508   6.198
 2896SOL    HW1 9032   1.784   6.479   6.206
 2896SOL    HW2 9033   1.681   6.573   6.123
 2897SOL     OW 9034   1.641   6.694   6.018
 2897SOL    HW1 9035   1.727   6.696   5.966
 2897SOL    HW2 9036   1.655   6.741   6.106
 2898SOL     OW 9037   0.613   6.951   6.312
 2898SOL    HW1 9038   0.564   6.864   6.321
 2898SOL    HW2 9039   0.590   6.994   6.225
 2899SOL     OW 9040   0.809   5.590   6.088
 2899SOL    HW1 9041   0.849   5.681   6.079
 2899SOL    HW2 9042   0.709   5.598   6.094
 2900SOL     OW 9043   1.525   6.585   5.776
 2900SOL    HW1 9044   1.462   6.509   5.789
 2900SOL    HW2 9045   1.573   6.603   5.862
 2901SOL     OW 9046   1.667   7.300   6.158
 2901SOL    HW1 9047   1.626   7.277   6.070
 2901SOL    HW2 9048   1.649   7.226   6.223
 2902SOL     OW 9049   0.598   6.315   5.856
 2902SOL    HW1 9050   0.622   6.384   5.788
 2902SOL    HW2 9051   0.520   6.348   5.910
 2903SOL     OW 9052   1.576   7.248   5.893
 2903SOL    HW1 9053   1.665   7.294   5.896
 2903SOL    HW2 9054   1.555   7.224   5.798
 2904SOL     OW 9055   1.041   6.287   6.015
 2904SOL    HW1 9056   1.067   6.283   6.111
 2904SOL    HW2 9057   0.956   6.236   6.001
 2905SOL     OW 9058   0.076   6.397   6.375
 2905SOL    HW1 9059   0.175   6.385   6.384
 2905SOL    HW2 9060   0.052   6.492   6.396
 2906SOL     OW 9061   0.865   5.934   5.781
 2906SOL    HW1 9062   0.924   5.997   5.732
 2906SOL    HW2 9063   0.884   5.840   5.752
 2907SOL     OW 9064   1.362   6.730   6.131
 2907SOL    HW1 9065   1.445   6.701   6.083
 2907SOL    HW2 9066   1.313   6.797   6.075
 2908SOL     OW 9067   0.550   5.782   6.471
 2908SOL    HW1 9068   0.545   5.777   6.571
 2908SOL    HW2 9069   0.552   5.878   6.442
 2909SOL     OW 9070   1.008   7.042   6.063
 2909SOL    HW1 9071   0.962   7.114   6.011
 2909SOL    HW2 9072   1.004   7.062   6.161
 2910SOL     OW 9073   0.351   7.387   6.439
 2910SOL    HW1 9074   0.401   7.301   6.445
 2910SOL    HW2 9075   0.416   7.464   6.436
 2911SOL     OW 9076   1.795   6.652   6.459
 2911SOL    HW1 9077   1.733   6.637   6.383
 2911SOL    HW2 9078   1.743   6.663   6.544
 2912SOL     OW 9079   0.321   6.529   5.828
 2912SOL    HW1 9080   0.403   6.568   5.786
 2912SOL    HW2 9081   0.294   6.447   5.779
 2913SOL     OW 9082   1.458   6.321   6.314
 2913SOL    HW1 9083   1.453   6.256   6.389
 2913SOL    HW2 9084   1.538   6.380   6.327
 2914SOL     OW 9085   1.111   7.362   5.823
 2914SOL    HW1 9086   1.051   7.300   5.873
 2914SOL    HW2 9087   1.142   7.318   5.738
 2915SOL     OW 9088   1.632   6.963   5.667
 2915SOL    HW1 9089   1.600   7.057   5.657
 2915SOL    HW2 9090   1.556   6.900   5.655
 2916SOL     OW 9091   0.464   7.329   5.909
 2916SOL    HW1 9092   0.497   7.368   5.995
 2916SOL    HW2 9093   0.540   7.322   5.844
 2917SOL     OW 9094   1.400   5.693   6.012
 2917SOL    HW1 9095   1.376   5.656   5.922
 2917SOL    HW2 9096   1.499   5.709   6.016
 2918SOL     OW 9097   0.940   7.284   6.490
 2918SOL    HW1 9098   1.020   7.227   6.511
 2918SOL    HW2 9099   0.891   7.244   6.413
 2919SOL     OW 9100   0.382   6.286   6.066
 2919SOL    HW1 9101   0.427   6.196   6.063
 2919SOL    HW2 9102   0.288   6.275   6.099
 2920SOL     OW 9103   0.614   5.708   5.703
 2920SOL    HW1 9104   0.712   5.686   5.710
 2920SOL    HW2 9105   0.583   5.691   5.610
 2921SOL     OW 9106   0.803   6.988   6.510
 2921SOL    HW1 9107   0.893   7.002   6.468
 2921SOL    HW2 9108   0.732   6.990   6.439
 2922SOL     OW 9109   0.922   6.089   6.485
 2922SOL    HW1 9110   0.897   6.080   6.389
 2922SOL    HW2 9111   0.970   6.007   6.516
 2923SOL     OW 9112   0.539   5.650   6.098
 2923SOL    HW1 9113   0.458   5.651   6.156
 2923SOL    HW2 9114   0.542   5.733   6.043
 2924SOL     OW 9115   1.434   6.774   5.627
 2924SOL    HW1 9116   1.466   6.698   5.684
 2924SOL    HW2 9117   1.342   6.801   5.657
 2925SOL     OW 9118   0.297   5.621   5.757
 2925SOL    HW1 9119   0.346   5.705   5.736
 2925SOL    HW2 9120   0.359   5.556   5.802
 2926SOL     OW 9121   0.935   5.822   6.066
 2926SOL    HW1 9122   0.887   5.863   5.988
 2926SOL    HW2 9123   1.034   5.820   6.047
 2927SOL     OW 9124   1.227   7.156   6.379
 2927SOL    HW1 9125   1.248   7.230   6.314
 2927SOL    HW2 9126   1.295   7.156   6.452
 2928SOL     OW 9127   0.459   6.738   6.327
 2928SOL    HW1 9128   0.388   6.711   6.392
 2928SOL    HW2 9129   0.433   6.710   6.234
 2929SOL     OW 9130   1.271   7.383   6.177
 2929SOL    HW1 9131   1.315   7.447   6.113
 2929SOL    HW2 9132   1.221   7.435   6.247
 2930SOL     OW 9133   1.032   6.135   5.602
 2930SOL    HW1 9134   0.991   6.217   5.563
 2930SOL    HW2 9135   1.096   6.161   5.675
 2931SOL     OW 9136   0.866   6.040   6.228
 2931SOL    HW1 9137   0.834   6.112   6.166
 2931SOL    HW2 9138   0.890   5.959   6.175
 2932SOL     OW 9139   1.017   5.625   6.339
 2932SOL    HW1 9140   0.945   5.630   6.270
 2932SOL    HW2 9141   0.993   5.556   6.408
 2933SOL     OW 9142   1.429   6.759   6.453
 2933SOL    HW1 9143   1.374   6.675   6.446
 2933SOL    HW2 9144   1.455   6.788   6.361
 2934SOL     OW 9145   1.857   6.419   5.963
 2934SOL    HW1 9146   1.899   6.355   6.027
 2934SOL    HW2 9147   1.819   6.368   5.885
 2935SOL     OW 9148   0.488   6.971   5.760
 2935SOL    HW1 9149   0.401   6.956   5.807
 2935SOL    HW2 9150   0.471   6.997   5.665
 2936SOL     OW 9151   1.664   6.866   6.243
 2936SOL    HW1 9152   1.763   6.874   6.257
 2936SOL    HW2 9153   1.619   6.950   6.274
 2937SOL     OW 9154   1.390   6.161   5.664
 2937SOL    HW1 9155   1.336   6.140   5.745
 2937SOL    HW2 9156   1.481   6.120   5.673
 2938SOL     OW 9157   0.527   5.842   5.914
 2938SOL    HW1 9158   0.554   5.783   5.839
 2938SOL    HW2 9159   0.527   5.937   5.883
 2939SOL     OW 9160   0.705   6.636   5.954
 2939SOL    HW1 9161   0.691   6.643   6.053
 2939SOL    HW2 9162   0.789   6.585   5.936
 2940SOL     OW 9163   0.367   6.686   6.087
 2940SOL    HW1 9164   0.360   6.769   6.031
 2940SOL    HW2 9165   0.371   6.606   6.027
 2941SOL     OW 9166   0.566   6.123   6.451
 2941SOL    HW1 9167   0.578   6.189   6.377
 2941SOL    HW2 9168   0.612   6.157   6.534
 2942SOL     OW 9169   1.252   6.934   5.974
 2942SOL    HW1 9170   1.302   7.011   6.014
 2942SOL    HW2 9171   1.157   6.936   6.006
 2943SOL     OW 9172   1.582   6.225   6.058
 2943SOL    HW1 9173   1.551   6.286   6.131
 2943SOL    HW2 9174   1.632   6.277   5.989
 2944SOL     OW 9175   1.209   6.111   5.861
 2944SOL    HW1 9176   1.222   6.027   5.915
 2944SOL    HW2 9177   1.180   6.185   5.921
 2945SOL     OW 9178   0.307   5.649   6.204
 2945SOL    HW1 9179   0.296   5.743   6.237
 2945SOL    HW2 9180   0.302   5.586   6.281
 2946SOL     OW 9181   1.622   5.953   5.960
 2946SOL    HW1 9182   1.624   5.877   6.024
 2946SOL    HW2 9183   1.574   6.030   6.000
 2947SOL     OW 9184   1.540   5.860   5.711
 2947SOL    HW1 9185   1.479   5.785   5.734
 2947SOL    HW2 9186   1.562   5.912   5.794
 2948SOL     OW 9187   1.303   6.424   5.628
 2948SOL    HW1 9188   1.337   6.331   5.643
 2948SOL    HW2 9189   1.321   6.451   5.533
 2949SOL     OW 9190   1.068   6.919   6.435
 2949SOL    HW1 9191   1.075   6.835   6.380
 2949SOL    HW2 9192   1.130   6.988   6.399
 2950SOL     OW 9193   0.008   6.912   5.786
 2950SOL    HW1 9194  -0.085   6.933   5.755
 2950SOL    HW2 9195   0.018   6.813   5.799
 2951SOL     OW 9196   0.504   7.154   6.496
 2951SOL    HW1 9197   0.570   7.228   6.505
 2951SOL    HW2 9198   0.548   7.075   6.454
 2952SOL     OW 9199   0.815   6.158   5.911
 2952SOL    HW1 9200   0.822   6.069   5.865
 2952SOL    HW2 9201   0.721   6.192   5.903
 2953SOL     OW 9202   0.473   6.086   5.777
 2953SOL    HW1 9203   0.534   6.166   5.781
 2953SOL    HW2 9204   0.378   6.117   5.784
 2954SOL     OW 9205   1.302   6.441   5.895
 2954SOL    HW1 9206   1.216   6.410   5.937
 2954SOL    HW2 9207   1.298   6.427   5.796
 2955SOL     OW 9208   1.726   5.721   6.109
 2955SOL    HW1 9209   1.799   5.704   6.042
 2955SOL    HW2 9210   1.695   5.634   6.147
 2956SOL     OW 9211   1.388   7.159   6.063
 2956SOL    HW1 9212   1.455   7.171   5.989
 2956SOL    HW2 9213   1.348   7.248   6.086
 2957SOL     OW 9214   1.280   6.513   6.258
 2957SOL    HW1 9215   1.340   6.432   6.260
 2957SOL    HW2 9216   1.320   6.582   6.198
 2958SOL     OW 9217   0.672   7.202   5.740
 2958SOL    HW1 9218   0.681   7.212   5.641
 2958SOL    HW2 9219   0.632   7.113   5.761
 2959SOL     OW 9220   0.263   5.912   6.306
 2959SOL    HW1 9221   0.184   5.963   6.272
 2959SOL    HW2 9222   0.254   5.897   6.404
 2960SOL     OW 9223   1.194   7.198   5.617
 2960SOL    HW1 9224   1.200   7.105   5.654
 2960SOL    HW2 9225   1.135   7.198   5.537
 2961SOL     OW 9226   0.916   6.496   5.877
 2961SOL    HW1 9227   0.979   6.534   5.809
 2961SOL    HW2 9228   0.956   6.413   5.916
 2962SOL     OW 9229   1.504   7.193   5.630
 2962SOL    HW1 9230   1.412   7.230   5.637
 2962SOL    HW2 9231   1.542   7.213   5.540
 2963SOL     OW 9232   1.039   6.684   6.282
 2963SOL    HW1 9233   0.969   6.637   6.336
 2963SOL    HW2 9234   1.098   6.616   6.239
 2964SOL     OW 9235   1.014   5.822   6.557
 2964SOL    HW1 9236   1.006   5.786   6.464
 2964SOL    HW2 9237   1.012   5.746   6.622
 2965SOL     OW 9238   0.590   7.073   6.077
 2965SOL    HW1 9239   0.632   7.015   6.007
 2965SOL    HW2 9240   0.546   7.152   6.033
 2966SOL     OW 9241   0.255   6.934   5.876
 2966SOL    HW1 9242   0.159   6.935   5.849
 2966SOL    HW2 9243   0.267   6.987   5.960
 2967SOL     OW 9244   0.075   5.931   5.619
 2967SOL    HW1 9245  -0.017   5.903   5.590
 2967SOL    HW2 9246   0.106   6.008   5.563
 2968SOL     OW 9247   0.072   5.752   5.904
 2968SOL    HW1 9248   0.055   5.835   5.850
 2968SOL    HW2 9249   0.162   5.715   5.882
 2969SOL     OW 9250   1.183   6.921   5.705
 2969SOL    HW1 9251   1.084   6.910   5.707
 2969SOL    HW2 9252   1.217   6.936   5.798
 2970SOL     OW 9253   1.225   5.911   6.035
 2970SOL    HW1 9254   1.290   5.837   6.024
 2970SOL    HW2 9255   1.245   5.961   6.119
 2971SOL     OW 9256   0.594   6.331   6.238
 2971SOL    HW1 9257   0.644   6.416   6.219
 2971SOL    HW2 9258   0.506   6.333   6.190
 2972SOL     OW 9259   0.859   6.960   5.602
 2972SOL    HW1 9260   0.813   6.975   5.690
 2972SOL    HW2 9261   0.903   7.045   5.572
 2973SOL     OW 9262   0.859   6.542   6.447
 2973SOL    HW1 9263   0.913   6.473   6.495
 2973SOL    HW2 9264   0.827   6.611   6.513
 2974SOL     OW 9265   1.083   6.570   5.673
 2974SOL    HW1 9266   1.060   6.623   5.591
 2974SOL    HW2 9267   1.164   6.514   5.654
 2975SOL     OW 9268   1.861   7.155   6.437
 2975SOL    HW1 9269   1.790   7.143   6.367
 2975SOL    HW2 9270   1.862   7.076   6.497
 2976SOL     OW 9271   0.079   6.826   6.239
 2976SOL    HW1 9272   0.078   6.779   6.327
 2976SOL    HW2 9273   0.161   6.798   6.188
 2977SOL     OW 9274   0.428   6.010   6.106
 2977SOL    HW1 9275   0.458   5.938   6.044
 2977SOL    HW2 9276   0.389   5.970   6.189
 2978SOL     OW 9277   0.812   7.172   6.273
 2978SOL    HW1 9278   0.844   7.182   6.179
 2978SOL    HW2 9279   0.733   7.110   6.275
 2979SOL     OW 9280   0.770   6.916   5.887
 2979SOL    HW1 9281   0.724   6.829   5.904
 2979SOL    HW2 9282   0.861   6.913   5.928
 2980SOL     OW 9283   1.352   5.638   5.754
 2980SOL    HW1 9284   1.387   5.597   5.670
 2980SOL    HW2 9285   1.262   5.600   5.774
 2981SOL     OW 9286   1.300   6.039   6.277
 2981SOL    HW1 9287   1.241   6.119   6.281
 2981SOL    HW2 9288   1.315   6.004   6.370
 2982SOL     OW 9289   1.593   5.807   6.468
 2982SOL    HW1 9290   1.509   5.806   6.522
 2982SOL    HW2 9291   1.595   5.890   6.412
 2983SOL     OW 9292   0.039   6.663   5.886
 2983SOL    HW1 9293   0.138   6.652   5.877
 2983SOL    HW2 9294  -0.001   6.577   5.918
 2984SOL     OW 9295   0.875   7.232   5.923
 2984SOL    HW1 9296   0.798   7.197   5.869
 2984SOL    HW2 9297   0.843   7.303   5.985
 2985SOL     OW 9298   2.092   0.628   0.113
 2985SOL    HW1 9299   1.999   0.626   0.150
 2985SOL    HW2 9300   2.093   0.589   0.021
 2986SOL     OW 9301   2.087   0.275   0.996
 2986SOL    HW1 9302   2.122   0.258   1.088
 2986SOL    HW2 9303   1.999   0.230   0.984
 2987SOL     OW 9304   1.881   0.368   0.647
 2987SOL    HW1 9305   1.799   0.411   0.686
 2987SOL    HW2 9306   1.853   0.295   0.584
 2988SOL     OW 9307   2.431   1.275   1.165
 2988SOL    HW1 9308   2.338   1.268   1.128
 2988SOL    HW2 9309   2.442   1.364   1.209
 2989SOL     OW 9310   3.417   1.511   0.703
 2989SOL    HW1 9311   3.360   1.495   0.784
 2989SOL    HW2 9312   3.358   1.521   0.623
 2990SOL     OW 9313   2.997   0.703   0.717
 2990SOL    HW1 9314   3.054   0.781   0.692
 2990SOL    HW2 9315   2.937   0.729   0.793
 2991SOL     OW 9316   2.630   1.144   1.023
 2991SOL    HW1 9317   2.552   1.161   1.083
 2991SOL    HW2 9318   2.664   1.231   0.987
 2992SOL     OW 9319   2.712   0.798   1.823
 2992SOL    HW1 9320   2.708   0.874   1.888
 2992SOL    HW2 9321   2.734   0.834   1.732
 2993SOL     OW 9322   2.547   1.012   0.665
 2993SOL    HW1 9323   2.616   0.996   0.735
 2993SOL    HW2 9324   2.474   1.069   0.703
 2994SOL     OW 9325   2.548   1.161   1.803
 2994SOL    HW1 9326   2.608   1.240   1.817
 2994SOL    HW2 9327   2.462   1.192   1.762
 2995SOL     OW 9328   2.197   1.435   1.061
 2995SOL    HW1 9329   2.119   1.404   1.008
 2995SOL    HW2 9330   2.255   1.493   1.004
 2996SOL     OW 9331   3.322   1.505   1.339
 2996SOL    HW1 9332   3.346   1.599   1.365
 2996SOL    HW2 9333   3.306   1.451   1.421
 2997SOL     OW 9334   2.300   0.392   1.499
 2997SOL    HW1 9335   2.382   0.336   1.508
 2997SOL    HW2 9336   2.219   0.334   1.503
 2998SOL     OW 9337   3.465   0.447   0.737
 2998SOL    HW1 9338   3.391   0.493   0.687
 2998SOL    HW2 9339   3.516   0.515   0.790
 2999SOL     OW 9340   2.093   1.713   0.483
 2999SOL    HW1 9341   2.127   1.790   0.537
 2999SOL    HW2 9342   2.137   1.713   0.393
 3000SOL     OW 9343   2.989   1.341   1.690
 3000SOL    HW1 9344   3.036   1.341   1.778
 3000SOL    HW2 9345   2.941   1.254   1.679
 3001SOL     OW 9346   2.092   1.434   0.538
 3001SOL    HW1 9347   2.066   1.530   0.538
 3001SOL    HW2 9348   2.021   1.380   0.583
 3002SOL     OW 9349   2.102   1.091   0.886
 3002SOL    HW1 9350   2.116   1.007   0.938
 3002SOL    HW2 9351   2.047   1.155   0.941
 3003SOL     OW 9352   2.482   1.786   1.439
 3003SOL    HW1 9353   2.390   1.769   1.474
 3003SOL    HW2 9354   2.510   1.878   1.465
 3004SOL     OW 9355   3.456   0.114   1.480
 3004SOL    HW1 9356   3.438   0.181   1.408
 3004SOL    HW2 9357   3.453   0.160   1.569
 3005SOL     OW 9358   1.984   0.643   0.563
 3005SOL    HW1 9359   1.939   0.555   0.580
 3005SOL    HW2 9360   1.983   0.697   0.647
 3006SOL     OW 9361   3.704   1.767   0.359
 3006SOL    HW1 9362   3.758   1.738   0.439
 3006SOL    HW2 9363   3.734   1.857   0.330
 3007SOL     OW 9364   1.889   1.596   0.117
 3007SOL    HW1 9365   1.870   1.500   0.138
 3007SOL    HW2 9366   1.856   1.654   0.192
 3008SOL     OW 9367   3.551   0.922   0.612
 3008SOL    HW1 9368   3.646   0.893   0.620
 3008SOL    HW2 9369   3.543   0.987   0.537
 3009SOL     OW 9370   3.503   1.108   0.432
 3009SOL    HW1 9371   3.589   1.110   0.380
 3009SOL    HW2 9372   3.517   1.155   0.520
 3010SOL     OW 9373   1.975   0.737   1.597
 3010SOL    HW1 9374   2.063   0.724   1.642
 3010SOL    HW2 9375   1.962   0.834   1.575
 3011SOL     OW 9376   2.475   1.365   0.726
 3011SOL    HW1 9377   2.426   1.278   0.735
 3011SOL    HW2 9378   2.452   1.408   0.639
 3012SOL     OW 9379   3.155   1.228   1.423
 3012SOL    HW1 9380   3.192   1.155   1.365
 3012SOL    HW2 9381   3.207   1.233   1.508
 3013SOL     OW 9382   2.671   0.004   0.502
 3013SOL    HW1 9383   2.711   0.095   0.493
 3013SOL    HW2 9384   2.571   0.012   0.508
 3014SOL     OW 9385   2.059   0.976   1.264
 3014SOL    HW1 9386   2.148   0.931   1.250
 3014SOL    HW2 9387   1.986   0.911   1.245
 3015SOL     OW 9388   3.049   1.792   1.616
 3015SOL    HW1 9389   3.073   1.852   1.540
 3015SOL    HW2 9390   3.056   1.697   1.586
 3016SOL     OW 9391   2.179   0.251   1.801
 3016SOL    HW1 9392   2.250   0.322   1.807
 3016SOL    HW2 9393   2.091   0.290   1.829
 3017SOL     OW 9394   3.328   1.417   0.953
 3017SOL    HW1 9395   3.269   1.423   1.033
 3017SOL    HW2 9396   3.313   1.329   0.907
 3018SOL     OW 9397   3.529   1.714   0.572
 3018SOL    HW1 9398   3.488   1.691   0.484
 3018SOL    HW2 9399   3.511   1.640   0.637
 3019SOL     OW 9400   2.460   0.729   0.270
 3019SOL    HW1 9401   2.484   0.798   0.202
 3019SOL    HW2 9402   2.382   0.762   0.324
 3020SOL     OW 9403   3.143   0.345   0.944
 3020SOL    HW1 9404   3.057   0.295   0.931
 3020SOL    HW2 9405   3.205   0.291   1.000
 3021SOL     OW 9406   2.669   0.605   1.465
 3021SOL    HW1 9407   2.622   0.602   1.554
 3021SOL    HW2 9408   2.618   0.550   1.399
 3022SOL     OW 9409   3.256   0.469   1.674
 3022SOL    HW1 9410   3.236   0.512   1.762
 3022SOL    HW2 9411   3.334   0.407   1.683
 3023SOL     OW 9412   2.835   0.890   1.572
 3023SOL    HW1 9413   2.881   0.806   1.543
 3023SOL    HW2 9414   2.779   0.924   1.497
 3024SOL     OW 9415   2.853   0.410   1.242
 3024SOL    HW1 9416   2.776   0.444   1.296
 3024SOL    HW2 9417   2.819   0.359   1.163
 3025SOL     OW 9418   2.903   0.701   0.429
 3025SOL    HW1 9419   2.929   0.697   0.525
 3025SOL    HW2 9420   2.818   0.650   0.415
 3026SOL     OW 9421   1.938   0.811   0.789
 3026SOL    HW1 9422   2.037   0.799   0.798
 3026SOL    HW2 9423   1.914   0.906   0.810
 3027SOL     OW 9424   1.992   1.821   1.571
 3027SOL    HW1 9425   1.982   1.806   1.670
 3027SOL    HW2 9426   1.906   1.857   1.535
 3028SOL     OW 9427   3.581   0.585   1.831
 3028SOL    HW1 9428   3.555   0.674   1.795
 3028SOL    HW2 9429   3.579   0.517   1.758
 3029SOL     OW 9430   3.224   1.144   0.545
 3029SOL    HW1 9431   3.307   1.115   0.497
 3029SOL    HW2 9432   3.175   1.211   0.489
 3030SOL     OW 9433   2.412   0.196   0.885
 3030SOL    HW1 9434   2.407   0.191   0.985
 3030SOL    HW2 9435   2.414   0.292   0.856
 3031SOL     OW 9436   2.870   1.456   0.477
 3031SOL    HW1 9437   2.824   1.528   0.425
 3031SOL    HW2 9438   2.866   1.476   0.575
 3032SOL     OW 9439   2.213   1.801   0.853
 3032SOL    HW1 9440   2.263   1.715   0.859
 3032SOL    HW2 9441   2.278   1.878   0.850
 3033SOL     OW 9442   3.657   1.066   0.873
 3033SOL    HW1 9443   3.595   1.051   0.797
 3033SOL    HW2 9444   3.605   1.077   0.958
 3034SOL     OW 9445   3.089   1.550   1.506
 3034SOL    HW1 9446   3.095   1.473   1.570
 3034SOL    HW2 9447   3.037   1.524   1.426
 3035SOL     OW 9448   2.183   0.943   0.242
 3035SOL    HW1 9449   2.265   0.982   0.200
 3035SOL    HW2 9450   2.156   0.861   0.193
 3036SOL     OW 9451   3.320   0.735   0.728
 3036SOL    HW1 9452   3.315   0.670   0.803
 3036SOL    HW2 9453   3.400   0.794   0.741
 3037SOL     OW 9454   2.323   1.266   1.727
 3037SOL    HW1 9455   2.273   1.267   1.641
 3037SOL    HW2 9456   2.260   1.248   1.803
 3038SOL     OW 9457   2.064   0.285   1.498
 3038SOL    HW1 9458   1.984   0.345   1.485
 3038SOL    HW2 9459   2.054   0.236   1.584
 3039SOL     OW 9460   2.326   1.743   0.323
 3039SOL    HW1 9461   2.359   1.782   0.409
 3039SOL    HW2 9462   2.402   1.736   0.258
 3040SOL     OW 9463   3.262   0.107   0.426
 3040SOL    HW1 9464   3.238   0.070   0.336
 3040SOL    HW2 9465   3.361   0.123   0.430
 3041SOL     OW 9466   2.111   1.785   1.241
 3041SOL    HW1 9467   2.168   1.720   1.291
 3041SOL    HW2 9468   2.095   1.752   1.148
 3042SOL     OW 9469   2.802   1.698   0.904
 3042SOL    HW1 9470   2.882   1.641   0.925
 3042SOL    HW2 9471   2.753   1.658   0.827
 3043SOL     OW 9472   2.244   0.700   0.480
 3043SOL    HW1 9473   2.289   0.610   0.477
 3043SOL    HW2 9474   2.150   0.689   0.513
 3044SOL     OW 9475   3.409   0.222   1.729
 3044SOL    HW1 9476   3.404   0.259   1.821
 3044SOL    HW2 9477   3.337   0.153   1.717
 3045SOL     OW 9478   2.476   0.122   0.117
 3045SOL    HW1 9479   2.574   0.100   0.124
 3045SOL    HW2 9480   2.445   0.105   0.024
 3046SOL     OW 9481   2.643   0.264   1.749
 3046SOL    HW1 9482   2.710   0.203   1.792
 3046SOL    HW2 9483   2.570   0.283   1.814
 3047SOL     OW 9484   2.750   1.514   1.195
 3047SOL    HW1 9485   2.727   1.489   1.101
 3047SOL    HW2 9486   2.811   1.445   1.234
 3048SOL     OW 9487   3.213   0.590   1.433
 3048SOL    HW1 9488   3.241   0.547   1.518
 3048SOL    HW2 9489   3.238   0.686   1.434
 3049SOL     OW 9490   2.665   1.402   0.924
 3049SOL    HW1 9491   2.755   1.416   0.882
 3049SOL    HW2 9492   2.594   1.404   0.853
 3050SOL     OW 9493   2.784   0.503   0.899
 3050SOL    HW1 9494   2.759   0.494   0.803
 3050SOL    HW2 9495   2.832   0.421   0.930
 3051SOL     OW 9496   2.401   0.064   0.512
 3051SOL    HW1 9497   2.320   0.065   0.570
 3051SOL    HW2 9498   2.404   0.147   0.457
 3052SOL     OW 9499   2.159   0.035   0.171
 3052SOL    HW1 9500   2.208   0.119   0.150
 3052SOL    HW2 9501   2.221  -0.030   0.216
 3053SOL     OW 9502   2.797   0.236   0.480
 3053SOL    HW1 9503   2.749   0.277   0.402
 3053SOL    HW2 9504   2.896   0.234   0.461
 3054SOL     OW 9505   2.938   0.683   1.464
 3054SOL    HW1 9506   2.858   0.622   1.467
 3054SOL    HW2 9507   3.019   0.630   1.440
 3055SOL     OW 9508   3.089   1.570   0.793
 3055SOL    HW1 9509   3.110   1.644   0.728
 3055SOL    HW2 9510   3.157   1.570   0.866
 3056SOL     OW 9511   2.321   1.152   0.741
 3056SOL    HW1 9512   2.250   1.125   0.806
 3056SOL    HW2 9513   2.295   1.124   0.648
 3057SOL     OW 9514   3.133   1.797   0.591
 3057SOL    HW1 9515   3.177   1.861   0.527
 3057SOL    HW2 9516   3.083   1.849   0.661
 3058SOL     OW 9517   1.940   0.556   1.386
 3058SOL    HW1 9518   2.032   0.555   1.345
 3058SOL    HW2 9519   1.934   0.630   1.453
 3059SOL     OW 9520   2.423   0.222   1.147
 3059SOL    HW1 9521   2.461   0.138   1.184
 3059SOL    HW2 9522   2.335   0.241   1.191
 3060SOL     OW 9523   2.728   0.454   0.642
 3060SOL    HW1 9524   2.696   0.526   0.580
 3060SOL    HW2 9525   2.752   0.373   0.589
 3061SOL     OW 9526   2.879   0.039   0.753
 3061SOL    HW1 9527   2.807   0.044   0.684
 3061SOL    HW2 9528   2.855  -0.030   0.822
 3062SOL     OW 9529   3.291   1.173   0.867
 3062SOL    HW1 9530   3.236   1.089   0.860
 3062SOL    HW2 9531   3.317   1.202   0.775
 3063SOL     OW 9532   3.328   0.590   0.992
 3063SOL    HW1 9533   3.298   0.495   0.999
 3063SOL    HW2 9534   3.401   0.606   1.058
 3064SOL     OW 9535   3.719   0.833   0.377
 3064SOL    HW1 9536   3.761   0.769   0.441
 3064SOL    HW2 9537   3.681   0.782   0.299
 3065SOL     OW 9538   2.350   1.385   0.174
 3065SOL    HW1 9539   2.263   1.370   0.221
 3065SOL    HW2 9540   2.333   1.411   0.079
 3066SOL     OW 9541   3.526   1.280   0.657
 3066SOL    HW1 9542   3.625   1.288   0.671
 3066SOL    HW2 9543   3.481   1.364   0.688
 3067SOL     OW 9544   2.389   0.256   0.328
 3067SOL    HW1 9545   2.416   0.197   0.253
 3067SOL    HW2 9546   2.389   0.351   0.297
 3068SOL     OW 9547   3.616   1.223   1.588
 3068SOL    HW1 9548   3.707   1.184   1.575
 3068SOL    HW2 9549   3.624   1.319   1.612
 3069SOL     OW 9550   2.926   1.347   1.340
 3069SOL    HW1 9551   2.846   1.324   1.395
 3069SOL    HW2 9552   3.009   1.321   1.389
 3070SOL     OW 9553   3.454   1.629   1.625
 3070SOL    HW1 9554   3.481   1.663   1.535
 3070SOL    HW2 9555   3.533   1.591   1.671
 3071SOL     OW 9556   2.973   1.195   1.100
 3071SOL    HW1 9557   2.933   1.239   1.181
 3071SOL    HW2 9558   2.932   1.232   1.017
 3072SOL     OW 9559   3.500   1.099   1.079
 3072SOL    HW1 9560   3.505   1.180   1.138
 3072SOL    HW2 9561   3.414   1.101   1.028
 3073SOL     OW 9562   2.777   0.089   1.402
 3073SOL    HW1 9563   2.802   0.069   1.307
 3073SOL    HW2 9564   2.849   0.145   1.444
 3074SOL     OW 9565   2.842   1.116   1.719
 3074SOL    HW1 9566   2.743   1.122   1.729
 3074SOL    HW2 9567   2.865   1.036   1.663
 3075SOL     OW 9568   2.567   1.050   0.368
 3075SOL    HW1 9569   2.553   1.057   0.467
 3075SOL    HW2 9570   2.651   0.999   0.350
 3076SOL     OW 9571   2.272   0.813   1.251
 3076SOL    HW1 9572   2.358   0.825   1.301
 3076SOL    HW2 9573   2.230   0.726   1.278
 3077SOL     OW 9574   3.136   0.386   1.262
 3077SOL    HW1 9575   3.157   0.460   1.326
 3077SOL    HW2 9576   3.047   0.403   1.219
 3078SOL     OW 9577   1.926   1.564   1.331
 3078SOL    HW1 9578   1.880   1.646   1.297
 3078SOL    HW2 9579   2.024   1.583   1.340
 3079SOL     OW 9580   2.229   1.100   0.501
 3079SOL    HW1 9581   2.222   1.183   0.445
 3079SOL    HW2 9582   2.233   1.020   0.441
 3080SOL     OW 9583   2.428   0.537   0.865
 3080SOL    HW1 9584   2.440   0.603   0.791
 3080SOL    HW2 9585   2.474   0.571   0.948
 3081SOL     OW 9586   3.114   1.348   0.388
 3081SOL    HW1 9587   3.164   1.425   0.428
 3081SOL    HW2 9588   3.019   1.350   0.420
 3082SOL     OW 9589   3.134   1.445   1.142
 3082SOL    HW1 9590   3.181   1.458   1.229
 3082SOL    HW2 9591   3.068   1.371   1.151
 3083SOL     OW 9592   2.216   1.510   1.329
 3083SOL    HW1 9593   2.195   1.466   1.242
 3083SOL    HW2 9594   2.313   1.536   1.332
 3084SOL     OW 9595   2.264   0.751   1.598
 3084SOL    HW1 9596   2.332   0.806   1.551
 3084SOL    HW2 9597   2.304   0.663   1.625
 3085SOL     OW 9598   3.449   0.779   1.670
 3085SOL    HW1 9599   3.357   0.817   1.665
 3085SOL    HW2 9600   3.509   0.826   1.605
 3086SOL     OW 9601   2.875   0.105   1.770
 3086SOL    HW1 9602   2.881   0.190   1.718
 3086SOL    HW2 9603   2.907   0.029   1.713
 3087SOL     OW 9604   2.366   0.050   1.740
 3087SOL    HW1 9605   2.324  -0.007   1.670
 3087SOL    HW2 9606   2.300   0.119   1.772
 3088SOL     OW 9607   2.435   0.870   1.029
 3088SOL    HW1 9608   2.479   0.959   1.020
 3088SOL    HW2 9609   2.372   0.870   1.106
 3089SOL     OW 9610   3.222   0.862   1.045
 3089SOL    HW1 9611   3.147   0.862   0.979
 3089SOL    HW2 9612   3.259   0.770   1.054
 3090SOL     OW 9613   2.169   0.213   1.231
 3090SOL    HW1 9614   2.146   0.250   1.321
 3090SOL    HW2 9615   2.139   0.118   1.225
 3091SOL     OW 9616   1.899   1.310   1.282
 3091SOL    HW1 9617   1.952   1.261   1.350
 3091SOL    HW2 9618   1.921   1.408   1.287
 3092SOL     OW 9619   2.594   0.634   1.064
 3092SOL    HW1 9620   2.653   0.608   0.988
 3092SOL    HW2 9621   2.566   0.730   1.053
 3093SOL     OW 9622   3.590   0.935   1.854
 3093SOL    HW1 9623   3.544   0.928   1.765
 3093SOL    HW2 9624   3.528   0.979   1.920
 3094SOL     OW 9625   2.169   0.063   0.618
 3094SOL    HW1 9626   2.158   0.157   0.651
 3094SOL    HW2 9627   2.164   0.000   0.695
 3095SOL     OW 9628   2.885   0.766   0.966
 3095SOL    HW1 9629   2.900   0.787   1.062
 3095SOL    HW2 9630   2.855   0.671   0.957
 3096SOL     OW 9631   2.842   1.573   1.700
 3096SOL    HW1 9632   2.822   1.617   1.612
 3096SOL    HW2 9633   2.881   1.482   1.684
 3097SOL     OW 9634   3.721   1.518   1.605
 3097SOL    HW1 9635   3.735   1.545   1.510
 3097SOL    HW2 9636   3.804   1.540   1.658
 3098SOL     OW 9637   2.212   0.898   1.804
 3098SOL    HW1 9638   2.288   0.942   1.852
 3098SOL    HW2 9639   2.247   0.851   1.722
 3099SOL     OW 9640   2.930   1.333   0.849
 3099SOL    HW1 9641   2.937   1.249   0.794
 3099SOL    HW2 9642   2.992   1.402   0.813
 3100SOL     OW 9643   2.181   0.810   0.949
 3100SOL    HW1 9644   2.274   0.846   0.954
 3100SOL    HW2 9645   2.175   0.725   1.001
 3101SOL     OW 9646   2.201   0.509   1.006
 3101SOL    HW1 9647   2.149   0.426   0.989
 3101SOL    HW2 9648   2.278   0.514   0.942
 3102SOL     OW 9649   3.000   0.380   1.678
 3102SOL    HW1 9650   2.955   0.443   1.742
 3102SOL    HW2 9651   3.093   0.411   1.661
 3103SOL     OW 9652   3.022   0.207   1.477
 3103SOL    HW1 9653   3.022   0.271   1.554
 3103SOL    HW2 9654   3.050   0.255   1.394
 3104SOL     OW 9655   1.870   1.326   0.200
 3104SOL    HW1 9656   1.777   1.347   0.169
 3104SOL    HW2 9657   1.880   1.227   0.213
 3105SOL     OW 9658   1.950   1.801   0.927
 3105SOL    HW1 9659   1.908   1.715   0.900
 3105SOL    HW2 9660   2.044   1.804   0.893
 3106SOL     OW 9661   2.366   1.568   0.910
 3106SOL    HW1 9662   2.432   1.642   0.919
 3106SOL    HW2 9663   2.410   1.489   0.868
 3107SOL     OW 9664   2.864   0.796   1.238
 3107SOL    HW1 9665   2.905   0.764   1.324
 3107SOL    HW2 9666   2.768   0.769   1.235
 3108SOL     OW 9667   1.902   0.544   1.114
 3108SOL    HW1 9668   1.987   0.511   1.073
 3108SOL    HW2 9669   1.915   0.559   1.212
 3109SOL     OW 9670   2.051   0.520   1.722
 3109SOL    HW1 9671   2.110   0.480   1.652
 3109SOL    HW2 9672   1.993   0.591   1.681
 3110SOL     OW 9673   3.231   0.950   1.660
 3110SOL    HW1 9674   3.270   1.039   1.680
 3110SOL    HW2 9675   3.241   0.930   1.563
 3111SOL     OW 9676   2.677   0.572   0.325
 3111SOL    HW1 9677   2.684   0.483   0.279
 3111SOL    HW2 9678   2.583   0.606   0.317
 3112SOL     OW 9679   3.519   0.604   1.206
 3112SOL    HW1 9680   3.481   0.535   1.268
 3112SOL    HW2 9681   3.601   0.568   1.162
 3113SOL     OW 9682   2.114   1.564   1.744
 3113SOL    HW1 9683   2.084   1.621   1.820
 3113SOL    HW2 9684   2.107   1.467   1.770
 3114SOL     OW 9685   2.533   0.464   1.269
 3114SOL    HW1 9686   2.499   0.375   1.239
 3114SOL    HW2 9687   2.559   0.518   1.189
 3115SOL     OW 9688   2.792   1.678   1.465
 3115SOL    HW1 9689   2.768   1.660   1.370
 3115SOL    HW2 9690   2.822   1.772   1.475
 3116SOL     OW 9691   2.335   0.500   0.191
 3116SOL    HW1 9692   2.396   0.580   0.195
 3116SOL    HW2 9693   2.240   0.531   0.198
 3117SOL     OW 9694   2.021   1.137   1.466
 3117SOL    HW1 9695   2.043   1.076   1.542
 3117SOL    HW2 9696   2.031   1.088   1.380
 3118SOL     OW 9697   3.209   1.059   1.234
 3118SOL    HW1 9698   3.233   0.996   1.160
 3118SOL    HW2 9699   3.119   1.099   1.216
 3119SOL     OW 9700   3.621   1.747   1.154
 3119SOL    HW1 9701   3.682   1.777   1.081
 3119SOL    HW2 9702   3.583   1.658   1.132
 3120SOL     OW 9703   3.114   1.731   1.128
 3120SOL    HW1 9704   3.198   1.736   1.074
 3120SOL    HW2 9705   3.091   1.635   1.146
 3121SOL     OW 9706   1.945   1.258   1.022
 3121SOL    HW1 9707   1.940   1.257   1.122
 3121SOL    HW2 9708   1.862   1.217   0.984
 3122SOL     OW 9709   2.550   1.662   1.716
 3122SOL    HW1 9710   2.494   1.743   1.725
 3122SOL    HW2 9711   2.602   1.666   1.630
 3123SOL     OW 9712   3.588   0.135   0.523
 3123SOL    HW1 9713   3.661   0.118   0.456
 3123SOL    HW2 9714   3.557   0.048   0.561
 3124SOL     OW 9715   1.992   1.794   1.851
 3124SOL    HW1 9716   1.951   1.720   1.904
 3124SOL    HW2 9717   2.056   1.845   1.909
 3125SOL     OW 9718   3.142   0.927   0.672
 3125SOL    HW1 9719   3.202   0.846   0.674
 3125SOL    HW2 9720   3.182   0.996   0.612
 3126SOL     OW 9721   2.692   1.273   1.422
 3126SOL    HW1 9722   2.687   1.306   1.517
 3126SOL    HW2 9723   2.606   1.292   1.376
 3127SOL     OW 9724   2.534   1.616   0.154
 3127SOL    HW1 9725   2.543   1.626   0.055
 3127SOL    HW2 9726   2.494   1.527   0.175
 3128SOL     OW 9727   3.512   1.720   1.394
 3128SOL    HW1 9728   3.565   1.730   1.310
 3128SOL    HW2 9729   3.485   1.810   1.428
 3129SOL     OW 9730   3.703   0.175   0.963
 3129SOL    HW1 9731   3.742   0.090   0.927
 3129SOL    HW2 9732   3.605   0.177   0.944
 3130SOL     OW 9733   2.125   0.326   0.720
 3130SOL    HW1 9734   2.046   0.377   0.686
 3130SOL    HW2 9735   2.116   0.311   0.818
 3131SOL     OW 9736   2.684   1.002   1.372
 3131SOL    HW1 9737   2.724   1.001   1.280
 3131SOL    HW2 9738   2.694   1.094   1.412
 3132SOL     OW 9739   2.234   1.288   1.490
 3132SOL    HW1 9740   2.221   1.381   1.456
 3132SOL    HW2 9741   2.150   1.236   1.477
 3133SOL     OW 9742   3.476   1.292   1.289
 3133SOL    HW1 9743   3.536   1.295   1.369
 3133SOL    HW2 9744   3.401   1.356   1.302
 3134SOL     OW 9745   2.901   1.098   0.696
 3134SOL    HW1 9746   2.831   1.051   0.750
 3134SOL    HW2 9747   2.960   1.030   0.653
 3135SOL     OW 9748   2.876   0.236   0.971
 3135SOL    HW1 9749   2.868   0.200   0.878
 3135SOL    HW2 9750   2.874   0.160   1.036
 3136SOL     OW 9751   2.452   1.487   0.491
 3136SOL    HW1 9752   2.494   1.429   0.421
 3136SOL    HW2 9753   2.408   1.566   0.447
 3137SOL     OW 9754   3.571   0.385   1.381
 3137SOL    HW1 9755   3.644   0.454   1.385
 3137SOL    HW2 9756   3.599   0.310   1.322
 3138SOL     OW 9757   2.117   1.348   0.290
 3138SOL    HW1 9758   2.021   1.349   0.263
 3138SOL    HW2 9759   2.129   1.401   0.374
 3139SOL     OW 9760   1.967   1.013   1.726
 3139SOL    HW1 9761   1.890   0.980   1.780
 3139SOL    HW2 9762   2.052   0.983   1.768
 3140SOL     OW 9763   2.534   0.203   1.489
 3140SOL    HW1 9764   2.624   0.187   1.449
 3140SOL    HW2 9765   2.542   0.208   1.588
 3141SOL     OW 9766   1.937   0.345   0.033
 3141SOL    HW1 9767   1.845   0.317   0.004
 3141SOL    HW2 9768   1.968   0.422  -0.023
 3142SOL     OW 9769   3.302   0.856   1.398
 3142SOL    HW1 9770   3.245   0.908   1.335
 3142SOL    HW2 9771   3.398   0.868   1.374
 3143SOL     OW 9772   1.934   0.166   0.318
 3143SOL    HW1 9773   1.917   0.249   0.264
 3143SOL    HW2 9774   2.024   0.129   0.296
 3144SOL     OW 9775   2.475   0.842   1.431
 3144SOL    HW1 9776   2.531   0.923   1.414
 3144SOL    HW2 9777   2.534   0.762   1.434
 3145SOL     OW 9778   3.355   1.767   0.959
 3145SOL    HW1 9779   3.388   1.831   0.890
 3145SOL    HW2 9780   3.421   1.761   1.034
 3146SOL     OW 9781   2.578   0.565   1.708
 3146SOL    HW1 9782   2.597   0.630   1.782
 3146SOL    HW2 9783   2.638   0.485   1.717
 3147SOL     OW 9784   3.312   1.220   1.633
 3147SOL    HW1 9785   3.303   1.210   1.732
 3147SOL    HW2 9786   3.408   1.213   1.607
 3148SOL     OW 9787   2.252   1.741   1.560
 3148SOL    HW1 9788   2.161   1.782   1.558
 3148SOL    HW2 9789   2.245   1.647   1.592
 3149SOL     OW 9790   3.536   0.883   1.254
 3149SOL    HW1 9791   3.509   0.794   1.217
 3149SOL    HW2 9792   3.537   0.951   1.181
 3150SOL     OW 9793   2.456   0.745   0.652
 3150SOL    HW1 9794   2.506   0.830   0.633
 3150SOL    HW2 9795   2.368   0.747   0.604
 3151SOL     OW 9796   3.639   0.342   1.642
 3151SOL    HW1 9797   3.622   0.373   1.548
 3151SOL    HW2 9798   3.555   0.305   1.680
 3152SOL     OW 9799   3.592   0.934   1.517
 3152SOL    HW1 9800   3.630   1.025   1.532
 3152SOL    HW2 9801   3.584   0.917   1.418
 3153SOL     OW 9802   2.523   1.790   0.953
 3153SOL    HW1 9803   2.477   1.878   0.940
 3153SOL    HW2 9804   2.622   1.802   0.946
 3154SOL     OW 9805   2.721   0.956   0.861
 3154SOL    HW1 9806   2.775   0.887   0.909
 3154SOL    HW2 9807   2.689   1.025   0.927
 3155SOL     OW 9808   3.723   1.569   0.851
 3155SOL    HW1 9809   3.652   1.557   0.781
 3155SOL    HW2 9810   3.724   1.490   0.911
 3156SOL     OW 9811   2.083   1.314   1.844
 3156SOL    HW1 9812   2.018   1.241   1.823
 3156SOL    HW2 9813   2.087   1.328   1.942
 3157SOL     OW 9814   1.941   1.240   0.653
 3157SOL    HW1 9815   1.940   1.193   0.741
 3157SOL    HW2 9816   2.023   1.212   0.602
 3158SOL     OW 9817   2.534   1.391   1.624
 3158SOL    HW1 9818   2.456   1.341   1.662
 3158SOL    HW2 9819   2.531   1.486   1.655
 3159SOL     OW 9820   3.686   0.192   1.227
 3159SOL    HW1 9821   3.682   0.102   1.271
 3159SOL    HW2 9822   3.689   0.181   1.128
 3160SOL     OW 9823   2.290   0.424   0.520
 3160SOL    HW1 9824   2.320   0.352   0.458
 3160SOL    HW2 9825   2.251   0.384   0.603
 3161SOL     OW 9826   3.567   1.487   1.104
 3161SOL    HW1 9827   3.474   1.462   1.077
 3161SOL    HW2 9828   3.593   1.437   1.186
 3162SOL     OW 9829   2.179   0.547   1.280
 3162SOL    HW1 9830   2.217   0.488   1.352
 3162SOL    HW2 9831   2.219   0.521   1.192
 3163SOL     OW 9832   2.674   1.586   0.687
 3163SOL    HW1 9833   2.706   1.596   0.593
 3163SOL    HW2 9834   2.595   1.524   0.689
 3164SOL     OW 9835   3.286   0.214   1.112
 3164SOL    HW1 9836   3.338   0.149   1.167
 3164SOL    HW2 9837   3.237   0.277   1.173
 3165SOL     OW 9838   2.863   0.034   1.154
 3165SOL    HW1 9839   2.800  -0.038   1.123
 3165SOL    HW2 9840   2.956  -0.002   1.154
 3166SOL     OW 9841   2.480   1.567   1.284
 3166SOL    HW1 9842   2.475   1.649   1.341
 3166SOL    HW2 9843   2.569   1.564   1.239
 3167SOL     OW 9844   3.214   0.052   0.168
 3167SOL    HW1 9845   3.249   0.011   0.084
 3167SOL    HW2 9846   3.124   0.014   0.188
 3168SOL     OW 9847   3.162   0.453   0.691
 3168SOL    HW1 9848   3.103   0.533   0.695
 3168SOL    HW2 9849   3.177   0.418   0.784
 3169SOL     OW 9850   3.455   0.221   0.882
 3169SOL    HW1 9851   3.371   0.220   0.936
 3169SOL    HW2 9852   3.457   0.304   0.826
 3170SOL     OW 9853   1.901   1.077   0.300
 3170SOL    HW1 9854   2.000   1.066   0.291
 3170SOL    HW2 9855   1.861   0.991   0.332
 3171SOL     OW 9856   2.737   1.646   0.337
 3171SOL    HW1 9857   2.660   1.611   0.283
 3171SOL    HW2 9858   2.705   1.717   0.399
 3172SOL     OW 9859   2.092   0.628   1.975
 3172SOL    HW1 9860   1.999   0.626   2.012
 3172SOL    HW2 9861   2.093   0.589   1.883
 3173SOL     OW 9862   2.087   0.275   2.858
 3173SOL    HW1 9863   2.122   0.258   2.950
 3173SOL    HW2 9864   1.999   0.230   2.846
 3174SOL     OW 9865   1.881   0.368   2.509
 3174SOL    HW1 9866   1.799   0.411   2.548
 3174SOL    HW2 9867   1.853   0.295   2.446
 3175SOL     OW 9868   2.431   1.275   3.027
 3175SOL    HW1 9869   2.338   1.268   2.990
 3175SOL    HW2 9870   2.442   1.364   3.071
 3176SOL     OW 9871   3.417   1.511   2.565
 3176SOL    HW1 9872   3.360   1.495   2.646
 3176SOL    HW2 9873   3.358   1.521   2.485
 3177SOL     OW 9874   2.997   0.703   2.579
 3177SOL    HW1 9875   3.054   0.781   2.554
 3177SOL    HW2 9876   2.937   0.729   2.655
 3178SOL     OW 9877   3.617   0.607   2.093
 3178SOL    HW1 9878   3.605   0.594   1.994
 3178SOL    HW2 9879   3.587   0.526   2.142
 3179SOL     OW 9880   2.630   1.144   2.885
 3179SOL    HW1 9881   2.552   1.161   2.945
 3179SOL    HW2 9882   2.664   1.231   2.849
 3180SOL     OW 9883   2.712   0.798   3.685
 3180SOL    HW1 9884   2.708   0.874   3.750
 3180SOL    HW2 9885   2.734   0.834   3.594
 3181SOL     OW 9886   2.547   1.012   2.527
 3181SOL    HW1 9887   2.616   0.996   2.597
 3181SOL    HW2 9888   2.474   1.069   2.565
 3182SOL     OW 9889   2.548   1.161   3.665
 3182SOL    HW1 9890   2.608   1.240   3.679
 3182SOL    HW2 9891   2.462   1.192   3.624
 3183SOL     OW 9892   2.197   1.435   2.923
 3183SOL    HW1 9893   2.119   1.404   2.870
 3183SOL    HW2 9894   2.255   1.493   2.866
 3184SOL     OW 9895   3.322   1.505   3.201
 3184SOL    HW1 9896   3.346   1.599   3.227
 3184SOL    HW2 9897   3.306   1.451   3.283
 3185SOL     OW 9898   2.300   0.392   3.361
 3185SOL    HW1 9899   2.382   0.336   3.370
 3185SOL    HW2 9900   2.219   0.334   3.365
 3186SOL     OW 9901   3.465   0.447   2.599
 3186SOL    HW1 9902   3.391   0.493   2.549
 3186SOL    HW2 9903   3.516   0.515   2.652
 3187SOL     OW 9904   2.093   1.713   2.345
 3187SOL    HW1 9905   2.127   1.790   2.399
 3187SOL    HW2 9906   2.137   1.713   2.255
 3188SOL     OW 9907   2.989   1.341   3.552
 3188SOL    HW1 9908   3.036   1.341   3.640
 3188SOL    HW2 9909   2.941   1.254   3.541
 3189SOL     OW 9910   2.092   1.434   2.400
 3189SOL    HW1 9911   2.066   1.530   2.400
 3189SOL    HW2 9912   2.021   1.380   2.445
 3190SOL     OW 9913   2.102   1.091   2.748
 3190SOL    HW1 9914   2.116   1.007   2.800
 3190SOL    HW2 9915   2.047   1.155   2.803
 3191SOL     OW 9916   2.482   1.786   3.301
 3191SOL    HW1 9917   2.390   1.769   3.336
 3191SOL    HW2 9918   2.510   1.878   3.327
 3192SOL     OW 9919   2.468   0.964   1.985
 3192SOL    HW1 9920   2.475   1.048   1.931
 3192SOL    HW2 9921   2.514   0.977   2.073
 3193SOL     OW 9922   3.456   0.114   3.342
 3193SOL    HW1 9923   3.438   0.181   3.270
 3193SOL    HW2 9924   3.453   0.160   3.431
 3194SOL     OW 9925   1.984   0.643   2.425
 3194SOL    HW1 9926   1.939   0.555   2.442
 3194SOL    HW2 9927   1.983   0.697   2.509
 3195SOL     OW 9928   3.704   1.767   2.221
 3195SOL    HW1 9929   3.758   1.738   2.301
 3195SOL    HW2 9930   3.734   1.857   2.192
 3196SOL     OW 9931   1.889   1.596   1.979
 3196SOL    HW1 9932   1.870   1.500   2.000
 3196SOL    HW2 9933   1.856   1.654   2.054
 3197SOL     OW 9934   3.551   0.922   2.474
 3197SOL    HW1 9935   3.646   0.893   2.482
 3197SOL    HW2 9936   3.543   0.987   2.399
 3198SOL     OW 9937   3.503   1.108   2.294
 3198SOL    HW1 9938   3.589   1.110   2.242
 3198SOL    HW2 9939   3.517   1.155   2.382
 3199SOL     OW 9940   1.975   0.737   3.459
 3199SOL    HW1 9941   2.063   0.724   3.504
 3199SOL    HW2 9942   1.962   0.834   3.437
 3200SOL     OW 9943   2.475   1.365   2.588
 3200SOL    HW1 9944   2.426   1.278   2.597
 3200SOL    HW2 9945   2.452   1.408   2.501
 3201SOL     OW 9946   3.155   1.228   3.285
 3201SOL    HW1 9947   3.192   1.155   3.227
 3201SOL    HW2 9948   3.207   1.233   3.370
 3202SOL     OW 9949   2.671   0.004   2.364
 3202SOL    HW1 9950   2.711   0.095   2.355
 3202SOL    HW2 9951   2.571   0.012   2.370
 3203SOL     OW 9952   2.059   0.976   3.126
 3203SOL    HW1 9953   2.148   0.931   3.112
 3203SOL    HW2 9954   1.986   0.911   3.107
 3204SOL     OW 9955   3.387   0.999   2.052
 3204SOL    HW1 9956   3.324   0.923   2.065
 3204SOL    HW2 9957   3.435   1.017   2.138
 3205SOL     OW 9958   3.049   1.792   3.478
 3205SOL    HW1 9959   3.073   1.852   3.402
 3205SOL    HW2 9960   3.056   1.697   3.448
 3206SOL     OW 9961   2.179   0.251   3.663
 3206SOL    HW1 9962   2.250   0.322   3.669
 3206SOL    HW2 9963   2.091   0.290   3.691
 3207SOL     OW 9964   3.328   1.417   2.815
 3207SOL    HW1 9965   3.269   1.423   2.895
 3207SOL    HW2 9966   3.313   1.329   2.769
 3208SOL     OW 9967   3.529   1.714   2.434
 3208SOL    HW1 9968   3.488   1.691   2.346
 3208SOL    HW2 9969   3.511   1.640   2.499
 3209SOL     OW 9970   2.460   0.729   2.132
 3209SOL    HW1 9971   2.484   0.798   2.064
 3209SOL    HW2 9972   2.382   0.762   2.186
 3210SOL     OW 9973   3.143   0.345   2.806
 3210SOL    HW1 9974   3.057   0.295   2.793
 3210SOL    HW2 9975   3.205   0.291   2.862
 3211SOL     OW 9976   3.438   1.662   2.169
 3211SOL    HW1 9977   3.527   1.708   2.172
 3211SOL    HW2 9978   3.417   1.638   2.074
 3212SOL     OW 9979   2.669   0.605   3.327
 3212SOL    HW1 9980   2.622   0.602   3.416
 3212SOL    HW2 9981   2.618   0.550   3.261
 3213SOL     OW 9982   3.256   0.469   3.536
 3213SOL    HW1 9983   3.236   0.512   3.624
 3213SOL    HW2 9984   3.334   0.407   3.545
 3214SOL     OW 9985   2.835   0.890   3.434
 3214SOL    HW1 9986   2.881   0.806   3.405
 3214SOL    HW2 9987   2.779   0.924   3.359
 3215SOL     OW 9988   2.853   0.410   3.104
 3215SOL    HW1 9989   2.776   0.444   3.158
 3215SOL    HW2 9990   2.819   0.359   3.025
 3216SOL     OW 9991   2.903   0.701   2.291
 3216SOL    HW1 9992   2.929   0.697   2.387
 3216SOL    HW2 9993   2.818   0.650   2.277
 3217SOL     OW 9994   1.938   0.811   2.651
 3217SOL    HW1 9995   2.037   0.799   2.660
 3217SOL    HW2 9996   1.914   0.906   2.672
 3218SOL     OW 9997   1.992   1.821   3.433
 3218SOL    HW1 9998   1.982   1.806   3.532
 3218SOL    HW2 9999   1.906   1.857   3.397
 3219SOL     OW10000   2.727   0.348   2.057
 3219SOL    HW110001   2.786   0.411   2.008
 3219SOL    HW210002   2.746   0.254   2.028
 3220SOL     OW10003   3.581   0.585   3.693
 3220SOL    HW110004   3.555   0.674   3.657
 3220SOL    HW210005   3.579   0.517   3.620
 3221SOL     OW10006   3.224   1.144   2.407
 3221SOL    HW110007   3.307   1.115   2.359
 3221SOL    HW210008   3.175   1.211   2.351
 3222SOL     OW10009   2.412   0.196   2.747
 3222SOL    HW110010   2.407   0.191   2.847
 3222SOL    HW210011   2.414   0.292   2.718
 3223SOL     OW10012   2.870   1.456   2.339
 3223SOL    HW110013   2.824   1.528   2.287
 3223SOL    HW210014   2.866   1.476   2.437
 3224SOL     OW10015   2.213   1.801   2.715
 3224SOL    HW110016   2.263   1.715   2.721
 3224SOL    HW210017   2.278   1.878   2.712
 3225SOL     OW10018   3.657   1.066   2.735
 3225SOL    HW110019   3.595   1.051   2.659
 3225SOL    HW210020   3.605   1.077   2.820
 3226SOL     OW10021   3.089   1.550   3.368
 3226SOL    HW110022   3.095   1.473   3.432
 3226SOL    HW210023   3.037   1.524   3.288
 3227SOL     OW10024   2.183   0.943   2.104
 3227SOL    HW110025   2.265   0.982   2.062
 3227SOL    HW210026   2.156   0.861   2.055
 3228SOL     OW10027   3.320   0.735   2.590
 3228SOL    HW110028   3.315   0.670   2.665
 3228SOL    HW210029   3.400   0.794   2.603
 3229SOL     OW10030   2.323   1.266   3.589
 3229SOL    HW110031   2.273   1.267   3.503
 3229SOL    HW210032   2.260   1.248   3.665
 3230SOL     OW10033   2.973   1.776   2.099
 3230SOL    HW110034   2.913   1.714   2.149
 3230SOL    HW210035   3.004   1.732   2.014
 3231SOL     OW10036   2.064   0.285   3.360
 3231SOL    HW110037   1.984   0.345   3.347
 3231SOL    HW210038   2.054   0.236   3.446
 3232SOL     OW10039   3.494   1.377   1.943
 3232SOL    HW110040   3.462   1.471   1.933
 3232SOL    HW210041   3.418   1.314   1.931
 3233SOL     OW10042   2.326   1.743   2.185
 3233SOL    HW110043   2.359   1.782   2.271
 3233SOL    HW210044   2.402   1.736   2.120
 3234SOL     OW10045   3.262   0.107   2.288
 3234SOL    HW110046   3.238   0.070   2.198
 3234SOL    HW210047   3.361   0.123   2.292
 3235SOL     OW10048   2.111   1.785   3.103
 3235SOL    HW110049   2.168   1.720   3.153
 3235SOL    HW210050   2.095   1.752   3.010
 3236SOL     OW10051   2.802   1.698   2.766
 3236SOL    HW110052   2.882   1.641   2.787
 3236SOL    HW210053   2.753   1.658   2.689
 3237SOL     OW10054   2.244   0.700   2.342
 3237SOL    HW110055   2.289   0.610   2.339
 3237SOL    HW210056   2.150   0.689   2.375
 3238SOL     OW10057   3.409   0.222   3.591
 3238SOL    HW110058   3.404   0.259   3.683
 3238SOL    HW210059   3.337   0.153   3.579
 3239SOL     OW10060   2.476   0.122   1.979
 3239SOL    HW110061   2.574   0.100   1.986
 3239SOL    HW210062   2.445   0.105   1.886
 3240SOL     OW10063   2.643   0.264   3.611
 3240SOL    HW110064   2.710   0.203   3.654
 3240SOL    HW210065   2.570   0.283   3.676
 3241SOL     OW10066   2.750   1.514   3.057
 3241SOL    HW110067   2.727   1.489   2.963
 3241SOL    HW210068   2.811   1.445   3.096
 3242SOL     OW10069   3.213   0.590   3.295
 3242SOL    HW110070   3.241   0.547   3.380
 3242SOL    HW210071   3.238   0.686   3.296
 3243SOL     OW10072   2.665   1.402   2.786
 3243SOL    HW110073   2.755   1.416   2.744
 3243SOL    HW210074   2.594   1.404   2.715
 3244SOL     OW10075   2.784   0.503   2.761
 3244SOL    HW110076   2.759   0.494   2.665
 3244SOL    HW210077   2.832   0.421   2.792
 3245SOL     OW10078   2.401   0.064   2.374
 3245SOL    HW110079   2.320   0.065   2.432
 3245SOL    HW210080   2.404   0.147   2.319
 3246SOL     OW10081   3.296   1.188   1.903
 3246SOL    HW110082   3.328   1.112   1.960
 3246SOL    HW210083   3.204   1.215   1.933
 3247SOL     OW10084   2.159   0.035   2.033
 3247SOL    HW110085   2.208   0.119   2.012
 3247SOL    HW210086   2.221  -0.030   2.078
 3248SOL     OW10087   2.797   0.236   2.342
 3248SOL    HW110088   2.749   0.277   2.264
 3248SOL    HW210089   2.896   0.234   2.323
 3249SOL     OW10090   2.938   0.683   3.326
 3249SOL    HW110091   2.858   0.622   3.329
 3249SOL    HW210092   3.019   0.630   3.302
 3250SOL     OW10093   3.089   1.570   2.655
 3250SOL    HW110094   3.110   1.644   2.590
 3250SOL    HW210095   3.157   1.570   2.728
 3251SOL     OW10096   2.321   1.152   2.603
 3251SOL    HW110097   2.250   1.125   2.668
 3251SOL    HW210098   2.295   1.124   2.510
 3252SOL     OW10099   3.133   1.797   2.453
 3252SOL    HW110100   3.177   1.861   2.389
 3252SOL    HW210101   3.083   1.849   2.523
 3253SOL     OW10102   2.894   0.549   1.878
 3253SOL    HW110103   2.853   0.631   1.839
 3253SOL    HW210104   2.958   0.575   1.951
 3254SOL     OW10105   1.940   0.556   3.248
 3254SOL    HW110106   2.032   0.555   3.207
 3254SOL    HW210107   1.934   0.630   3.315
 3255SOL     OW10108   2.423   0.222   3.009
 3255SOL    HW110109   2.461   0.138   3.046
 3255SOL    HW210110   2.335   0.241   3.053
 3256SOL     OW10111   2.728   0.454   2.504
 3256SOL    HW110112   2.696   0.526   2.442
 3256SOL    HW210113   2.752   0.373   2.451
 3257SOL     OW10114   2.879   0.039   2.615
 3257SOL    HW110115   2.807   0.044   2.546
 3257SOL    HW210116   2.855  -0.030   2.684
 3258SOL     OW10117   3.291   1.173   2.729
 3258SOL    HW110118   3.236   1.089   2.722
 3258SOL    HW210119   3.317   1.202   2.637
 3259SOL     OW10120   3.328   0.590   2.854
 3259SOL    HW110121   3.298   0.495   2.861
 3259SOL    HW210122   3.401   0.606   2.920
 3260SOL     OW10123   3.719   0.833   2.239
 3260SOL    HW110124   3.761   0.769   2.303
 3260SOL    HW210125   3.681   0.782   2.161
 3261SOL     OW10126   2.350   1.385   2.036
 3261SOL    HW110127   2.263   1.370   2.083
 3261SOL    HW210128   2.333   1.411   1.941
 3262SOL     OW10129   3.526   1.280   2.519
 3262SOL    HW110130   3.625   1.288   2.533
 3262SOL    HW210131   3.481   1.364   2.550
 3263SOL     OW10132   3.252   0.575   1.940
 3263SOL    HW110133   3.198   0.554   2.021
 3263SOL    HW210134   3.343   0.534   1.949
 3264SOL     OW10135   2.389   0.256   2.190
 3264SOL    HW110136   2.416   0.197   2.115
 3264SOL    HW210137   2.389   0.351   2.159
 3265SOL     OW10138   3.616   1.223   3.450
 3265SOL    HW110139   3.707   1.184   3.437
 3265SOL    HW210140   3.624   1.319   3.474
 3266SOL     OW10141   2.926   1.347   3.202
 3266SOL    HW110142   2.846   1.324   3.257
 3266SOL    HW210143   3.009   1.321   3.251
 3267SOL     OW10144   3.454   1.629   3.487
 3267SOL    HW110145   3.481   1.663   3.397
 3267SOL    HW210146   3.533   1.591   3.533
 3268SOL     OW10147   2.973   1.195   2.962
 3268SOL    HW110148   2.933   1.239   3.043
 3268SOL    HW210149   2.932   1.232   2.879
 3269SOL     OW10150   3.500   1.099   2.941
 3269SOL    HW110151   3.505   1.180   3.000
 3269SOL    HW210152   3.414   1.101   2.890
 3270SOL     OW10153   2.777   0.089   3.264
 3270SOL    HW110154   2.802   0.069   3.169
 3270SOL    HW210155   2.849   0.145   3.306
 3271SOL     OW10156   2.842   1.116   3.581
 3271SOL    HW110157   2.743   1.122   3.591
 3271SOL    HW210158   2.865   1.036   3.525
 3272SOL     OW10159   2.567   1.050   2.230
 3272SOL    HW110160   2.553   1.057   2.329
 3272SOL    HW210161   2.651   0.999   2.212
 3273SOL     OW10162   2.272   0.813   3.113
 3273SOL    HW110163   2.358   0.825   3.163
 3273SOL    HW210164   2.230   0.726   3.140
 3274SOL     OW10165   3.136   0.386   3.124
 3274SOL    HW110166   3.157   0.460   3.188
 3274SOL    HW210167   3.047   0.403   3.081
 3275SOL     OW10168   1.926   1.564   3.193
 3275SOL    HW110169   1.880   1.646   3.159
 3275SOL    HW210170   2.024   1.583   3.202
 3276SOL     OW10171   2.229   1.100   2.363
 3276SOL    HW110172   2.222   1.183   2.307
 3276SOL    HW210173   2.233   1.020   2.303
 3277SOL     OW10174   2.428   0.537   2.727
 3277SOL    HW110175   2.440   0.603   2.653
 3277SOL    HW210176   2.474   0.571   2.810
 3278SOL     OW10177   3.114   1.348   2.250
 3278SOL    HW110178   3.164   1.425   2.290
 3278SOL    HW210179   3.019   1.350   2.282
 3279SOL     OW10180   3.134   1.445   3.004
 3279SOL    HW110181   3.181   1.458   3.091
 3279SOL    HW210182   3.068   1.371   3.013
 3280SOL     OW10183   3.444   0.639   2.334
 3280SOL    HW110184   3.413   0.700   2.407
 3280SOL    HW210185   3.494   0.691   2.265
 3281SOL     OW10186   2.216   1.510   3.191
 3281SOL    HW110187   2.195   1.466   3.104
 3281SOL    HW210188   2.313   1.536   3.194
 3282SOL     OW10189   2.264   0.751   3.460
 3282SOL    HW110190   2.332   0.806   3.413
 3282SOL    HW210191   2.304   0.663   3.487
 3283SOL     OW10192   3.449   0.779   3.532
 3283SOL    HW110193   3.357   0.817   3.527
 3283SOL    HW210194   3.509   0.826   3.467
 3284SOL     OW10195   2.875   0.105   3.632
 3284SOL    HW110196   2.881   0.190   3.580
 3284SOL    HW210197   2.907   0.029   3.575
 3285SOL     OW10198   2.366   0.050   3.602
 3285SOL    HW110199   2.324  -0.007   3.532
 3285SOL    HW210200   2.300   0.119   3.634
 3286SOL     OW10201   2.435   0.870   2.891
 3286SOL    HW110202   2.479   0.959   2.882
 3286SOL    HW210203   2.372   0.870   2.968
 3287SOL     OW10204   3.222   0.862   2.907
 3287SOL    HW110205   3.147   0.862   2.841
 3287SOL    HW210206   3.259   0.770   2.916
 3288SOL     OW10207   3.071   0.525   2.137
 3288SOL    HW110208   3.084   0.441   2.191
 3288SOL    HW210209   3.042   0.599   2.197
 3289SOL     OW10210   2.169   0.213   3.093
 3289SOL    HW110211   2.146   0.250   3.183
 3289SOL    HW210212   2.139   0.118   3.087
 3290SOL     OW10213   1.899   1.310   3.144
 3290SOL    HW110214   1.952   1.261   3.212
 3290SOL    HW210215   1.921   1.408   3.149
 3291SOL     OW10216   2.594   0.634   2.926
 3291SOL    HW110217   2.653   0.608   2.850
 3291SOL    HW210218   2.566   0.730   2.915
 3292SOL     OW10219   3.590   0.935   3.716
 3292SOL    HW110220   3.544   0.928   3.627
 3292SOL    HW210221   3.528   0.979   3.782
 3293SOL     OW10222   2.169   0.063   2.480
 3293SOL    HW110223   2.158   0.157   2.513
 3293SOL    HW210224   2.164   0.000   2.557
 3294SOL     OW10225   3.484   0.367   2.236
 3294SOL    HW110226   3.486   0.291   2.300
 3294SOL    HW210227   3.436   0.444   2.276
 3295SOL     OW10228   2.885   0.766   2.828
 3295SOL    HW110229   2.900   0.787   2.924
 3295SOL    HW210230   2.855   0.671   2.819
 3296SOL     OW10231   2.842   1.573   3.562
 3296SOL    HW110232   2.822   1.617   3.474
 3296SOL    HW210233   2.881   1.482   3.546
 3297SOL     OW10234   3.721   1.518   3.467
 3297SOL    HW110235   3.735   1.545   3.372
 3297SOL    HW210236   3.804   1.540   3.520
 3298SOL     OW10237   2.212   0.898   3.666
 3298SOL    HW110238   2.288   0.942   3.714
 3298SOL    HW210239   2.247   0.851   3.584
 3299SOL     OW10240   3.402   0.274   1.987
 3299SOL    HW110241   3.341   0.199   2.010
 3299SOL    HW210242   3.424   0.326   2.070
 3300SOL     OW10243   3.165   0.838   1.904
 3300SOL    HW110244   3.199   0.745   1.919
 3300SOL    HW210245   3.183   0.865   1.809
 3301SOL     OW10246   2.930   1.333   2.711
 3301SOL    HW110247   2.937   1.249   2.656
 3301SOL    HW210248   2.992   1.402   2.675
 3302SOL     OW10249   2.181   0.810   2.811
 3302SOL    HW110250   2.274   0.846   2.816
 3302SOL    HW210251   2.175   0.725   2.863
 3303SOL     OW10252   2.201   0.509   2.868
 3303SOL    HW110253   2.149   0.426   2.851
 3303SOL    HW210254   2.278   0.514   2.804
 3304SOL     OW10255   3.000   0.380   3.540
 3304SOL    HW110256   2.955   0.443   3.604
 3304SOL    HW210257   3.093   0.411   3.523
 3305SOL     OW10258   3.022   0.207   3.339
 3305SOL    HW110259   3.022   0.271   3.416
 3305SOL    HW210260   3.050   0.255   3.256
 3306SOL     OW10261   1.870   1.326   2.062
 3306SOL    HW110262   1.777   1.347   2.031
 3306SOL    HW210263   1.880   1.227   2.075
 3307SOL     OW10264   1.950   1.801   2.789
 3307SOL    HW110265   1.908   1.715   2.762
 3307SOL    HW210266   2.044   1.804   2.755
 3308SOL     OW10267   2.366   1.568   2.772
 3308SOL    HW110268   2.432   1.642   2.781
 3308SOL    HW210269   2.410   1.489   2.730
 3309SOL     OW10270   2.864   0.796   3.100
 3309SOL    HW110271   2.905   0.764   3.186
 3309SOL    HW210272   2.768   0.769   3.097
 3310SOL     OW10273   1.902   0.544   2.976
 3310SOL    HW110274   1.987   0.511   2.935
 3310SOL    HW210275   1.915   0.559   3.074
 3311SOL     OW10276   2.051   0.520   3.584
 3311SOL    HW110277   2.110   0.480   3.514
 3311SOL    HW210278   1.993   0.591   3.543
 3312SOL     OW10279   3.231   0.950   3.522
 3312SOL    HW110280   3.270   1.039   3.542
 3312SOL    HW210281   3.241   0.930   3.425
 3313SOL     OW10282   2.677   0.572   2.187
 3313SOL    HW110283   2.684   0.483   2.141
 3313SOL    HW210284   2.583   0.606   2.179
 3314SOL     OW10285   3.519   0.604   3.068
 3314SOL    HW110286   3.481   0.535   3.130
 3314SOL    HW210287   3.601   0.568   3.024
 3315SOL     OW10288   2.114   1.564   3.606
 3315SOL    HW110289   2.084   1.621   3.682
 3315SOL    HW210290   2.107   1.467   3.632
 3316SOL     OW10291   2.533   0.464   3.131
 3316SOL    HW110292   2.499   0.375   3.101
 3316SOL    HW210293   2.559   0.518   3.051
 3317SOL     OW10294   2.792   1.678   3.327
 3317SOL    HW110295   2.768   1.660   3.232
 3317SOL    HW210296   2.822   1.772   3.337
 3318SOL     OW10297   2.335   0.500   2.053
 3318SOL    HW110298   2.396   0.580   2.057
 3318SOL    HW210299   2.240   0.531   2.060
 3319SOL     OW10300   2.021   1.137   3.328
 3319SOL    HW110301   2.043   1.076   3.404
 3319SOL    HW210302   2.031   1.088   3.242
 3320SOL     OW10303   3.209   1.059   3.096
 3320SOL    HW110304   3.233   0.996   3.022
 3320SOL    HW210305   3.119   1.099   3.078
 3321SOL     OW10306   3.164   0.855   2.171
 3321SOL    HW110307   3.078   0.824   2.213
 3321SOL    HW210308   3.160   0.841   2.072
 3322SOL     OW10309   3.621   1.747   3.016
 3322SOL    HW110310   3.682   1.777   2.943
 3322SOL    HW210311   3.583   1.658   2.994
 3323SOL     OW10312   3.114   1.731   2.990
 3323SOL    HW110313   3.198   1.736   2.936
 3323SOL    HW210314   3.091   1.635   3.008
 3324SOL     OW10315   1.945   1.258   2.884
 3324SOL    HW110316   1.940   1.257   2.984
 3324SOL    HW210317   1.862   1.217   2.846
 3325SOL     OW10318   2.550   1.662   3.578
 3325SOL    HW110319   2.494   1.743   3.587
 3325SOL    HW210320   2.602   1.666   3.492
 3326SOL     OW10321   3.588   0.135   2.385
 3326SOL    HW110322   3.661   0.118   2.318
 3326SOL    HW210323   3.557   0.048   2.423
 3327SOL     OW10324   3.250   1.573   2.339
 3327SOL    HW110325   3.317   1.585   2.265
 3327SOL    HW210326   3.210   1.662   2.362
 3328SOL     OW10327   1.992   1.794   3.713
 3328SOL    HW110328   1.951   1.720   3.766
 3328SOL    HW210329   2.056   1.845   3.771
 3329SOL     OW10330   3.142   0.927   2.534
 3329SOL    HW110331   3.202   0.846   2.536
 3329SOL    HW210332   3.182   0.996   2.474
 3330SOL     OW10333   2.692   1.273   3.284
 3330SOL    HW110334   2.687   1.306   3.379
 3330SOL    HW210335   2.606   1.292   3.238
 3331SOL     OW10336   2.534   1.616   2.016
 3331SOL    HW110337   2.543   1.626   1.917
 3331SOL    HW210338   2.494   1.527   2.037
 3332SOL     OW10339   3.512   1.720   3.256
 3332SOL    HW110340   3.565   1.730   3.172
 3332SOL    HW210341   3.485   1.810   3.290
 3333SOL     OW10342   3.703   0.175   2.825
 3333SOL    HW110343   3.742   0.090   2.789
 3333SOL    HW210344   3.605   0.177   2.806
 3334SOL     OW10345   2.125   0.326   2.582
 3334SOL    HW110346   2.046   0.377   2.548
 3334SOL    HW210347   2.116   0.311   2.680
 3335SOL     OW10348   3.056   1.612   1.893
 3335SOL    HW110349   3.062   1.519   1.930
 3335SOL    HW210350   2.997   1.612   1.813
 3336SOL     OW10351   2.684   1.002   3.234
 3336SOL    HW110352   2.724   1.001   3.142
 3336SOL    HW210353   2.694   1.094   3.274
 3337SOL     OW10354   2.778   0.910   2.153
 3337SOL    HW110355   2.841   0.948   2.085
 3337SOL    HW210356   2.818   0.827   2.192
 3338SOL     OW10357   3.366   1.607   1.906
 3338SOL    HW110358   3.274   1.644   1.913
 3338SOL    HW210359   3.404   1.627   1.816
 3339SOL     OW10360   2.234   1.288   3.352
 3339SOL    HW110361   2.221   1.381   3.318
 3339SOL    HW210362   2.150   1.236   3.339
 3340SOL     OW10363   3.476   1.292   3.151
 3340SOL    HW110364   3.536   1.295   3.231
 3340SOL    HW210365   3.401   1.356   3.164
 3341SOL     OW10366   2.901   1.098   2.558
 3341SOL    HW110367   2.831   1.051   2.612
 3341SOL    HW210368   2.960   1.030   2.515
 3342SOL     OW10369   2.876   0.236   2.833
 3342SOL    HW110370   2.868   0.200   2.740
 3342SOL    HW210371   2.874   0.160   2.898
 3343SOL     OW10372   2.452   1.487   2.353
 3343SOL    HW110373   2.494   1.429   2.283
 3343SOL    HW210374   2.408   1.566   2.309
 3344SOL     OW10375   3.571   0.385   3.243
 3344SOL    HW110376   3.644   0.454   3.247
 3344SOL    HW210377   3.599   0.310   3.184
 3345SOL     OW10378   2.117   1.348   2.152
 3345SOL    HW110379   2.021   1.349   2.125
 3345SOL    HW210380   2.129   1.401   2.236
 3346SOL     OW10381   1.967   1.013   3.588
 3346SOL    HW110382   1.890   0.980   3.642
 3346SOL    HW210383   2.052   0.983   3.630
 3347SOL     OW10384   2.534   0.203   3.351
 3347SOL    HW110385   2.624   0.187   3.311
 3347SOL    HW210386   2.542   0.208   3.450
 3348SOL     OW10387   1.937   0.345   1.895
 3348SOL    HW110388   1.845   0.317   1.866
 3348SOL    HW210389   1.968   0.422   1.839
 3349SOL     OW10390   3.302   0.856   3.260
 3349SOL    HW110391   3.245   0.908   3.197
 3349SOL    HW210392   3.398   0.868   3.236
 3350SOL     OW10393   1.934   0.166   2.180
 3350SOL    HW110394   1.917   0.249   2.126
 3350SOL    HW210395   2.024   0.129   2.158
 3351SOL     OW10396   3.045   1.335   1.981
 3351SOL    HW110397   2.946   1.324   1.983
 3351SOL    HW210398   3.079   1.350   2.074
 3352SOL     OW10399   2.475   0.842   3.293
 3352SOL    HW110400   2.531   0.923   3.276
 3352SOL    HW210401   2.534   0.762   3.296
 3353SOL     OW10402   3.355   1.767   2.821
 3353SOL    HW110403   3.388   1.831   2.752
 3353SOL    HW210404   3.421   1.761   2.896
 3354SOL     OW10405   2.578   0.565   3.570
 3354SOL    HW110406   2.597   0.630   3.644
 3354SOL    HW210407   2.638   0.485   3.579
 3355SOL     OW10408   3.312   1.220   3.495
 3355SOL    HW110409   3.303   1.210   3.594
 3355SOL    HW210410   3.408   1.213   3.469
 3356SOL     OW10411   2.252   1.741   3.422
 3356SOL    HW110412   2.161   1.782   3.420
 3356SOL    HW210413   2.245   1.647   3.454
 3357SOL     OW10414   3.536   0.883   3.116
 3357SOL    HW110415   3.509   0.794   3.079
 3357SOL    HW210416   3.537   0.951   3.043
 3358SOL     OW10417   3.087   0.325   2.311
 3358SOL    HW110418   3.152   0.251   2.300
 3358SOL    HW210419   3.107   0.375   2.395
 3359SOL     OW10420   2.456   0.745   2.514
 3359SOL    HW110421   2.506   0.830   2.495
 3359SOL    HW210422   2.368   0.747   2.466
 3360SOL     OW10423   3.639   0.342   3.504
 3360SOL    HW110424   3.622   0.373   3.410
 3360SOL    HW210425   3.555   0.305   3.542
 3361SOL     OW10426   3.592   0.934   3.379
 3361SOL    HW110427   3.630   1.025   3.394
 3361SOL    HW210428   3.584   0.917   3.280
 3362SOL     OW10429   2.721   1.374   1.878
 3362SOL    HW110430   2.675   1.389   1.966
 3362SOL    HW210431   2.765   1.459   1.848
 3363SOL     OW10432   2.523   1.790   2.815
 3363SOL    HW110433   2.477   1.878   2.802
 3363SOL    HW210434   2.622   1.802   2.808
 3364SOL     OW10435   2.721   0.956   2.723
 3364SOL    HW110436   2.775   0.887   2.771
 3364SOL    HW210437   2.689   1.025   2.789
 3365SOL     OW10438   2.945   0.984   1.949
 3365SOL    HW110439   2.922   1.037   1.867
 3365SOL    HW210440   3.026   0.928   1.930
 3366SOL     OW10441   3.723   1.569   2.713
 3366SOL    HW110442   3.652   1.557   2.643
 3366SOL    HW210443   3.724   1.490   2.773
 3367SOL     OW10444   2.083   1.314   3.706
 3367SOL    HW110445   2.018   1.241   3.685
 3367SOL    HW210446   2.087   1.328   3.804
 3368SOL     OW10447   1.941   1.240   2.515
 3368SOL    HW110448   1.940   1.193   2.603
 3368SOL    HW210449   2.023   1.212   2.464
 3369SOL     OW10450   2.534   1.391   3.486
 3369SOL    HW110451   2.456   1.341   3.524
 3369SOL    HW210452   2.531   1.486   3.517
 3370SOL     OW10453   3.686   0.192   3.089
 3370SOL    HW110454   3.682   0.102   3.133
 3370SOL    HW210455   3.689   0.181   2.990
 3371SOL     OW10456   2.290   0.424   2.382
 3371SOL    HW110457   2.320   0.352   2.320
 3371SOL    HW210458   2.251   0.384   2.465
 3372SOL     OW10459   3.567   1.487   2.966
 3372SOL    HW110460   3.474   1.462   2.939
 3372SOL    HW210461   3.593   1.437   3.048
 3373SOL     OW10462   2.179   0.547   3.142
 3373SOL    HW110463   2.217   0.488   3.214
 3373SOL    HW210464   2.219   0.521   3.054
 3374SOL     OW10465   2.674   1.586   2.549
 3374SOL    HW110466   2.706   1.596   2.455
 3374SOL    HW210467   2.595   1.524   2.551
 3375SOL     OW10468   3.286   0.214   2.974
 3375SOL    HW110469   3.338   0.149   3.029
 3375SOL    HW210470   3.237   0.277   3.035
 3376SOL     OW10471   2.863   0.034   3.016
 3376SOL    HW110472   2.800  -0.038   2.985
 3376SOL    HW210473   2.956  -0.002   3.016
 3377SOL     OW10474   2.632   1.330   2.163
 3377SOL    HW110475   2.586   1.243   2.180
 3377SOL    HW210476   2.723   1.327   2.204
 3378SOL     OW10477   2.480   1.567   3.146
 3378SOL    HW110478   2.475   1.649   3.203
 3378SOL    HW210479   2.569   1.564   3.101
 3379SOL     OW10480   3.214   0.052   2.030
 3379SOL    HW110481   3.249   0.011   1.946
 3379SOL    HW210482   3.124   0.014   2.050
 3380SOL     OW10483   3.162   0.453   2.553
 3380SOL    HW110484   3.103   0.533   2.557
 3380SOL    HW210485   3.177   0.418   2.646
 3381SOL     OW10486   3.455   0.221   2.744
 3381SOL    HW110487   3.371   0.220   2.798
 3381SOL    HW210488   3.457   0.304   2.688
 3382SOL     OW10489   1.901   1.077   2.162
 3382SOL    HW110490   2.000   1.066   2.153
 3382SOL    HW210491   1.861   0.991   2.194
 3383SOL     OW10492   2.737   1.646   2.199
 3383SOL    HW110493   2.660   1.611   2.145
 3383SOL    HW210494   2.705   1.717   2.261
 3384SOL     OW10495   2.092   0.628   3.837
 3384SOL    HW110496   1.999   0.626   3.874
 3384SOL    HW210497   2.093   0.589   3.745
 3385SOL     OW10498   2.087   0.275   4.720
 3385SOL    HW110499   2.122   0.258   4.812
 3385SOL    HW210500   1.999   0.230   4.708
 3386SOL     OW10501   1.881   0.368   4.371
 3386SOL    HW110502   1.799   0.411   4.410
 3386SOL    HW210503   1.853   0.295   4.308
 3387SOL     OW10504   2.431   1.275   4.889
 3387SOL    HW110505   2.338   1.268   4.852
 3387SOL    HW210506   2.442   1.364   4.933
 3388SOL     OW10507   3.417   1.511   4.427
 3388SOL    HW110508   3.360   1.495   4.508
 3388SOL    HW210509   3.358   1.521   4.347
 3389SOL     OW10510   2.997   0.703   4.441
 3389SOL    HW110511   3.054   0.781   4.416
 3389SOL    HW210512   2.937   0.729   4.517
 3390SOL     OW10513   3.617   0.607   3.955
 3390SOL    HW110514   3.605   0.594   3.856
 3390SOL    HW210515   3.587   0.526   4.004
 3391SOL     OW10516   2.630   1.144   4.747
 3391SOL    HW110517   2.552   1.161   4.807
 3391SOL    HW210518   2.664   1.231   4.711
 3392SOL     OW10519   2.712   0.798   5.547
 3392SOL    HW110520   2.708   0.874   5.612
 3392SOL    HW210521   2.734   0.834   5.456
 3393SOL     OW10522   2.547   1.012   4.389
 3393SOL    HW110523   2.616   0.996   4.459
 3393SOL    HW210524   2.474   1.069   4.427
 3394SOL     OW10525   2.548   1.161   5.527
 3394SOL    HW110526   2.608   1.240   5.541
 3394SOL    HW210527   2.462   1.192   5.486
 3395SOL     OW10528   2.197   1.435   4.785
 3395SOL    HW110529   2.119   1.404   4.732
 3395SOL    HW210530   2.255   1.493   4.728
 3396SOL     OW10531   3.322   1.505   5.063
 3396SOL    HW110532   3.346   1.599   5.089
 3396SOL    HW210533   3.306   1.451   5.145
 3397SOL     OW10534   2.300   0.392   5.223
 3397SOL    HW110535   2.382   0.336   5.232
 3397SOL    HW210536   2.219   0.334   5.227
 3398SOL     OW10537   3.465   0.447   4.461
 3398SOL    HW110538   3.391   0.493   4.411
 3398SOL    HW210539   3.516   0.515   4.514
 3399SOL     OW10540   2.093   1.713   4.207
 3399SOL    HW110541   2.127   1.790   4.261
 3399SOL    HW210542   2.137   1.713   4.117
 3400SOL     OW10543   2.989   1.341   5.414
 3400SOL    HW110544   3.036   1.341   5.502
 3400SOL    HW210545   2.941   1.254   5.403
 3401SOL     OW10546   2.092   1.434   4.262
 3401SOL    HW110547   2.066   1.530   4.262
 3401SOL    HW210548   2.021   1.380   4.307
 3402SOL     OW10549   2.102   1.091   4.610
 3402SOL    HW110550   2.116   1.007   4.662
 3402SOL    HW210551   2.047   1.155   4.665
 3403SOL     OW10552   2.482   1.786   5.163
 3403SOL    HW110553   2.390   1.769   5.198
 3403SOL    HW210554   2.510   1.878   5.189
 3404SOL     OW10555   2.468   0.964   3.847
 3404SOL    HW110556   2.475   1.048   3.793
 3404SOL    HW210557   2.514   0.977   3.935
 3405SOL     OW10558   3.456   0.114   5.204
 3405SOL    HW110559   3.438   0.181   5.132
 3405SOL    HW210560   3.453   0.160   5.293
 3406SOL     OW10561   1.984   0.643   4.287
 3406SOL    HW110562   1.939   0.555   4.304
 3406SOL    HW210563   1.983   0.697   4.371
 3407SOL     OW10564   3.704   1.767   4.083
 3407SOL    HW110565   3.758   1.738   4.163
 3407SOL    HW210566   3.734   1.857   4.054
 3408SOL     OW10567   1.889   1.596   3.841
 3408SOL    HW110568   1.870   1.500   3.862
 3408SOL    HW210569   1.856   1.654   3.916
 3409SOL     OW10570   3.551   0.922   4.336
 3409SOL    HW110571   3.646   0.893   4.344
 3409SOL    HW210572   3.543   0.987   4.261
 3410SOL     OW10573   3.503   1.108   4.156
 3410SOL    HW110574   3.589   1.110   4.104
 3410SOL    HW210575   3.517   1.155   4.244
 3411SOL     OW10576   1.975   0.737   5.321
 3411SOL    HW110577   2.063   0.724   5.366
 3411SOL    HW210578   1.962   0.834   5.299
 3412SOL     OW10579   2.475   1.365   4.450
 3412SOL    HW110580   2.426   1.278   4.459
 3412SOL    HW210581   2.452   1.408   4.363
 3413SOL     OW10582   3.155   1.228   5.147
 3413SOL    HW110583   3.192   1.155   5.089
 3413SOL    HW210584   3.207   1.233   5.232
 3414SOL     OW10585   2.671   0.004   4.226
 3414SOL    HW110586   2.711   0.095   4.217
 3414SOL    HW210587   2.571   0.012   4.232
 3415SOL     OW10588   2.059   0.976   4.988
 3415SOL    HW110589   2.148   0.931   4.974
 3415SOL    HW210590   1.986   0.911   4.969
 3416SOL     OW10591   3.387   0.999   3.914
 3416SOL    HW110592   3.324   0.923   3.927
 3416SOL    HW210593   3.435   1.017   4.000
 3417SOL     OW10594   3.049   1.792   5.340
 3417SOL    HW110595   3.073   1.852   5.264
 3417SOL    HW210596   3.056   1.697   5.310
 3418SOL     OW10597   2.179   0.251   5.525
 3418SOL    HW110598   2.250   0.322   5.531
 3418SOL    HW210599   2.091   0.290   5.553
 3419SOL     OW10600   3.328   1.417   4.677
 3419SOL    HW110601   3.269   1.423   4.757
 3419SOL    HW210602   3.313   1.329   4.631
 3420SOL     OW10603   3.529   1.714   4.296
 3420SOL    HW110604   3.488   1.691   4.208
 3420SOL    HW210605   3.511   1.640   4.361
 3421SOL     OW10606   2.460   0.729   3.994
 3421SOL    HW110607   2.484   0.798   3.926
 3421SOL    HW210608   2.382   0.762   4.048
 3422SOL     OW10609   3.143   0.345   4.668
 3422SOL    HW110610   3.057   0.295   4.655
 3422SOL    HW210611   3.205   0.291   4.724
 3423SOL     OW10612   3.438   1.662   4.031
 3423SOL    HW110613   3.527   1.708   4.034
 3423SOL    HW210614   3.417   1.638   3.936
 3424SOL     OW10615   2.669   0.605   5.189
 3424SOL    HW110616   2.622   0.602   5.278
 3424SOL    HW210617   2.618   0.550   5.123
 3425SOL     OW10618   3.256   0.469   5.398
 3425SOL    HW110619   3.236   0.512   5.486
 3425SOL    HW210620   3.334   0.407   5.407
 3426SOL     OW10621   2.835   0.890   5.296
 3426SOL    HW110622   2.881   0.806   5.267
 3426SOL    HW210623   2.779   0.924   5.221
 3427SOL     OW10624   2.853   0.410   4.966
 3427SOL    HW110625   2.776   0.444   5.020
 3427SOL    HW210626   2.819   0.359   4.887
 3428SOL     OW10627   2.903   0.701   4.153
 3428SOL    HW110628   2.929   0.697   4.249
 3428SOL    HW210629   2.818   0.650   4.139
 3429SOL     OW10630   1.938   0.811   4.513
 3429SOL    HW110631   2.037   0.799   4.522
 3429SOL    HW210632   1.914   0.906   4.534
 3430SOL     OW10633   1.992   1.821   5.295
 3430SOL    HW110634   1.982   1.806   5.394
 3430SOL    HW210635   1.906   1.857   5.259
 3431SOL     OW10636   2.727   0.348   3.919
 3431SOL    HW110637   2.786   0.411   3.870
 3431SOL    HW210638   2.746   0.254   3.890
 3432SOL     OW10639   3.581   0.585   5.555
 3432SOL    HW110640   3.555   0.674   5.519
 3432SOL    HW210641   3.579   0.517   5.482
 3433SOL     OW10642   3.224   1.144   4.269
 3433SOL    HW110643   3.307   1.115   4.221
 3433SOL    HW210644   3.175   1.211   4.213
 3434SOL     OW10645   2.412   0.196   4.609
 3434SOL    HW110646   2.407   0.191   4.709
 3434SOL    HW210647   2.414   0.292   4.580
 3435SOL     OW10648   2.870   1.456   4.201
 3435SOL    HW110649   2.824   1.528   4.149
 3435SOL    HW210650   2.866   1.476   4.299
 3436SOL     OW10651   2.213   1.801   4.577
 3436SOL    HW110652   2.263   1.715   4.583
 3436SOL    HW210653   2.278   1.878   4.574
 3437SOL     OW10654   3.657   1.066   4.597
 3437SOL    HW110655   3.595   1.051   4.521
 3437SOL    HW210656   3.605   1.077   4.682
 3438SOL     OW10657   3.089   1.550   5.230
 3438SOL    HW110658   3.095   1.473   5.294
 3438SOL    HW210659   3.037   1.524   5.150
 3439SOL     OW10660   2.183   0.943   3.966
 3439SOL    HW110661   2.265   0.982   3.924
 3439SOL    HW210662   2.156   0.861   3.917
 3440SOL     OW10663   3.320   0.735   4.452
 3440SOL    HW110664   3.315   0.670   4.527
 3440SOL    HW210665   3.400   0.794   4.465
 3441SOL     OW10666   2.323   1.266   5.451
 3441SOL    HW110667   2.273   1.267   5.365
 3441SOL    HW210668   2.260   1.248   5.527
 3442SOL     OW10669   2.973   1.776   3.961
 3442SOL    HW110670   2.913   1.714   4.011
 3442SOL    HW210671   3.004   1.732   3.876
 3443SOL     OW10672   2.064   0.285   5.222
 3443SOL    HW110673   1.984   0.345   5.209
 3443SOL    HW210674   2.054   0.236   5.308
 3444SOL     OW10675   3.494   1.377   3.805
 3444SOL    HW110676   3.462   1.471   3.795
 3444SOL    HW210677   3.418   1.314   3.793
 3445SOL     OW10678   2.326   1.743   4.047
 3445SOL    HW110679   2.359   1.782   4.133
 3445SOL    HW210680   2.402   1.736   3.982
 3446SOL     OW10681   3.262   0.107   4.150
 3446SOL    HW110682   3.238   0.070   4.060
 3446SOL    HW210683   3.361   0.123   4.154
 3447SOL     OW10684   2.111   1.785   4.965
 3447SOL    HW110685   2.168   1.720   5.015
 3447SOL    HW210686   2.095   1.752   4.872
 3448SOL     OW10687   2.802   1.698   4.628
 3448SOL    HW110688   2.882   1.641   4.649
 3448SOL    HW210689   2.753   1.658   4.551
 3449SOL     OW10690   2.244   0.700   4.204
 3449SOL    HW110691   2.289   0.610   4.201
 3449SOL    HW210692   2.150   0.689   4.237
 3450SOL     OW10693   3.409   0.222   5.453
 3450SOL    HW110694   3.404   0.259   5.545
 3450SOL    HW210695   3.337   0.153   5.441
 3451SOL     OW10696   2.476   0.122   3.841
 3451SOL    HW110697   2.574   0.100   3.848
 3451SOL    HW210698   2.445   0.105   3.748
 3452SOL     OW10699   2.643   0.264   5.473
 3452SOL    HW110700   2.710   0.203   5.516
 3452SOL    HW210701   2.570   0.283   5.538
 3453SOL     OW10702   2.750   1.514   4.919
 3453SOL    HW110703   2.727   1.489   4.825
 3453SOL    HW210704   2.811   1.445   4.958
 3454SOL     OW10705   3.213   0.590   5.157
 3454SOL    HW110706   3.241   0.547   5.242
 3454SOL    HW210707   3.238   0.686   5.158
 3455SOL     OW10708   2.665   1.402   4.648
 3455SOL    HW110709   2.755   1.416   4.606
 3455SOL    HW210710   2.594   1.404   4.577
 3456SOL     OW10711   2.784   0.503   4.623
 3456SOL    HW110712   2.759   0.494   4.527
 3456SOL    HW210713   2.832   0.421   4.654
 3457SOL     OW10714   2.401   0.064   4.236
 3457SOL    HW110715   2.320   0.065   4.294
 3457SOL    HW210716   2.404   0.147   4.181
 3458SOL     OW10717   3.296   1.188   3.765
 3458SOL    HW110718   3.328   1.112   3.822
 3458SOL    HW210719   3.204   1.215   3.795
 3459SOL     OW10720   2.159   0.035   3.895
 3459SOL    HW110721   2.208   0.119   3.874
 3459SOL    HW210722   2.221  -0.030   3.940
 3460SOL     OW10723   2.797   0.236   4.204
 3460SOL    HW110724   2.749   0.277   4.126
 3460SOL    HW210725   2.896   0.234   4.185
 3461SOL     OW10726   2.938   0.683   5.188
 3461SOL    HW110727   2.858   0.622   5.191
 3461SOL    HW210728   3.019   0.630   5.164
 3462SOL     OW10729   3.089   1.570   4.517
 3462SOL    HW110730   3.110   1.644   4.452
 3462SOL    HW210731   3.157   1.570   4.590
 3463SOL     OW10732   2.321   1.152   4.465
 3463SOL    HW110733   2.250   1.125   4.530
 3463SOL    HW210734   2.295   1.124   4.372
 3464SOL     OW10735   3.133   1.797   4.315
 3464SOL    HW110736   3.177   1.861   4.251
 3464SOL    HW210737   3.083   1.849   4.385
 3465SOL     OW10738   2.894   0.549   3.740
 3465SOL    HW110739   2.853   0.631   3.701
 3465SOL    HW210740   2.958   0.575   3.813
 3466SOL     OW10741   1.940   0.556   5.110
 3466SOL    HW110742   2.032   0.555   5.069
 3466SOL    HW210743   1.934   0.630   5.177
 3467SOL     OW10744   2.423   0.222   4.871
 3467SOL    HW110745   2.461   0.138   4.908
 3467SOL    HW210746   2.335   0.241   4.915
 3468SOL     OW10747   2.728   0.454   4.366
 3468SOL    HW110748   2.696   0.526   4.304
 3468SOL    HW210749   2.752   0.373   4.313
 3469SOL     OW10750   2.879   0.039   4.477
 3469SOL    HW110751   2.807   0.044   4.408
 3469SOL    HW210752   2.855  -0.030   4.546
 3470SOL     OW10753   3.291   1.173   4.591
 3470SOL    HW110754   3.236   1.089   4.584
 3470SOL    HW210755   3.317   1.202   4.499
 3471SOL     OW10756   3.328   0.590   4.716
 3471SOL    HW110757   3.298   0.495   4.723
 3471SOL    HW210758   3.401   0.606   4.782
 3472SOL     OW10759   3.719   0.833   4.101
 3472SOL    HW110760   3.761   0.769   4.165
 3472SOL    HW210761   3.681   0.782   4.023
 3473SOL     OW10762   2.350   1.385   3.898
 3473SOL    HW110763   2.263   1.370   3.945
 3473SOL    HW210764   2.333   1.411   3.803
 3474SOL     OW10765   3.526   1.280   4.381
 3474SOL    HW110766   3.625   1.288   4.395
 3474SOL    HW210767   3.481   1.364   4.412
 3475SOL     OW10768   3.252   0.575   3.802
 3475SOL    HW110769   3.198   0.554   3.883
 3475SOL    HW210770   3.343   0.534   3.811
 3476SOL     OW10771   2.389   0.256   4.052
 3476SOL    HW110772   2.416   0.197   3.977
 3476SOL    HW210773   2.389   0.351   4.021
 3477SOL     OW10774   3.616   1.223   5.312
 3477SOL    HW110775   3.707   1.184   5.299
 3477SOL    HW210776   3.624   1.319   5.336
 3478SOL     OW10777   2.926   1.347   5.064
 3478SOL    HW110778   2.846   1.324   5.119
 3478SOL    HW210779   3.009   1.321   5.113
 3479SOL     OW10780   3.454   1.629   5.349
 3479SOL    HW110781   3.481   1.663   5.259
 3479SOL    HW210782   3.533   1.591   5.395
 3480SOL     OW10783   2.973   1.195   4.824
 3480SOL    HW110784   2.933   1.239   4.905
 3480SOL    HW210785   2.932   1.232   4.741
 3481SOL     OW10786   3.500   1.099   4.803
 3481SOL    HW110787   3.505   1.180   4.862
 3481SOL    HW210788   3.414   1.101   4.752
 3482SOL     OW10789   2.777   0.089   5.126
 3482SOL    HW110790   2.802   0.069   5.031
 3482SOL    HW210791   2.849   0.145   5.168
 3483SOL     OW10792   2.842   1.116   5.443
 3483SOL    HW110793   2.743   1.122   5.453
 3483SOL    HW210794   2.865   1.036   5.387
 3484SOL     OW10795   2.567   1.050   4.092
 3484SOL    HW110796   2.553   1.057   4.191
 3484SOL    HW210797   2.651   0.999   4.074
 3485SOL     OW10798   2.272   0.813   4.975
 3485SOL    HW110799   2.358   0.825   5.025
 3485SOL    HW210800   2.230   0.726   5.002
 3486SOL     OW10801   3.136   0.386   4.986
 3486SOL    HW110802   3.157   0.460   5.050
 3486SOL    HW210803   3.047   0.403   4.943
 3487SOL     OW10804   1.926   1.564   5.055
 3487SOL    HW110805   1.880   1.646   5.021
 3487SOL    HW210806   2.024   1.583   5.064
 3488SOL     OW10807   2.229   1.100   4.225
 3488SOL    HW110808   2.222   1.183   4.169
 3488SOL    HW210809   2.233   1.020   4.165
 3489SOL     OW10810   2.428   0.537   4.589
 3489SOL    HW110811   2.440   0.603   4.515
 3489SOL    HW210812   2.474   0.571   4.672
 3490SOL     OW10813   3.114   1.348   4.112
 3490SOL    HW110814   3.164   1.425   4.152
 3490SOL    HW210815   3.019   1.350   4.144
 3491SOL     OW10816   3.134   1.445   4.866
 3491SOL    HW110817   3.181   1.458   4.953
 3491SOL    HW210818   3.068   1.371   4.875
 3492SOL     OW10819   3.444   0.639   4.196
 3492SOL    HW110820   3.413   0.700   4.269
 3492SOL    HW210821   3.494   0.691   4.127
 3493SOL     OW10822   2.216   1.510   5.053
 3493SOL    HW110823   2.195   1.466   4.966
 3493SOL    HW210824   2.313   1.536   5.056
 3494SOL     OW10825   2.264   0.751   5.322
 3494SOL    HW110826   2.332   0.806   5.275
 3494SOL    HW210827   2.304   0.663   5.349
 3495SOL     OW10828   3.449   0.779   5.394
 3495SOL    HW110829   3.357   0.817   5.389
 3495SOL    HW210830   3.509   0.826   5.329
 3496SOL     OW10831   2.875   0.105   5.494
 3496SOL    HW110832   2.881   0.190   5.442
 3496SOL    HW210833   2.907   0.029   5.437
 3497SOL     OW10834   2.366   0.050   5.464
 3497SOL    HW110835   2.324  -0.007   5.394
 3497SOL    HW210836   2.300   0.119   5.496
 3498SOL     OW10837   2.435   0.870   4.753
 3498SOL    HW110838   2.479   0.959   4.744
 3498SOL    HW210839   2.372   0.870   4.830
 3499SOL     OW10840   3.222   0.862   4.769
 3499SOL    HW110841   3.147   0.862   4.703
 3499SOL    HW210842   3.259   0.770   4.778
 3500SOL     OW10843   3.071   0.525   3.999
 3500SOL    HW110844   3.084   0.441   4.053
 3500SOL    HW210845   3.042   0.599   4.059
 3501SOL     OW10846   2.169   0.213   4.955
 3501SOL    HW110847   2.146   0.250   5.045
 3501SOL    HW210848   2.139   0.118   4.949
 3502SOL     OW10849   1.899   1.310   5.006
 3502SOL    HW110850   1.952   1.261   5.074
 3502SOL    HW210851   1.921   1.408   5.011
 3503SOL     OW10852   2.594   0.634   4.788
 3503SOL    HW110853   2.653   0.608   4.712
 3503SOL    HW210854   2.566   0.730   4.777
 3504SOL     OW10855   3.590   0.935   5.578
 3504SOL    HW110856   3.544   0.928   5.489
 3504SOL    HW210857   3.528   0.979   5.644
 3505SOL     OW10858   2.169   0.063   4.342
 3505SOL    HW110859   2.158   0.157   4.375
 3505SOL    HW210860   2.164   0.000   4.419
 3506SOL     OW10861   3.484   0.367   4.098
 3506SOL    HW110862   3.486   0.291   4.162
 3506SOL    HW210863   3.436   0.444   4.138
 3507SOL     OW10864   2.885   0.766   4.690
 3507SOL    HW110865   2.900   0.787   4.786
 3507SOL    HW210866   2.855   0.671   4.681
 3508SOL     OW10867   2.842   1.573   5.424
 3508SOL    HW110868   2.822   1.617   5.336
 3508SOL    HW210869   2.881   1.482   5.408
 3509SOL     OW10870   3.721   1.518   5.329
 3509SOL    HW110871   3.735   1.545   5.234
 3509SOL    HW210872   3.804   1.540   5.382
 3510SOL     OW10873   2.212   0.898   5.528
 3510SOL    HW110874   2.288   0.942   5.576
 3510SOL    HW210875   2.247   0.851   5.446
 3511SOL     OW10876   3.402   0.274   3.849
 3511SOL    HW110877   3.341   0.199   3.872
 3511SOL    HW210878   3.424   0.326   3.932
 3512SOL     OW10879   3.165   0.838   3.766
 3512SOL    HW110880   3.199   0.745   3.781
 3512SOL    HW210881   3.183   0.865   3.671
 3513SOL     OW10882   2.930   1.333   4.573
 3513SOL    HW110883   2.937   1.249   4.518
 3513SOL    HW210884   2.992   1.402   4.537
 3514SOL     OW10885   2.181   0.810   4.673
 3514SOL    HW110886   2.274   0.846   4.678
 3514SOL    HW210887   2.175   0.725   4.725
 3515SOL     OW10888   2.201   0.509   4.730
 3515SOL    HW110889   2.149   0.426   4.713
 3515SOL    HW210890   2.278   0.514   4.666
 3516SOL     OW10891   3.000   0.380   5.402
 3516SOL    HW110892   2.955   0.443   5.466
 3516SOL    HW210893   3.093   0.411   5.385
 3517SOL     OW10894   3.022   0.207   5.201
 3517SOL    HW110895   3.022   0.271   5.278
 3517SOL    HW210896   3.050   0.255   5.118
 3518SOL     OW10897   1.870   1.326   3.924
 3518SOL    HW110898   1.777   1.347   3.893
 3518SOL    HW210899   1.880   1.227   3.937
 3519SOL     OW10900   1.950   1.801   4.651
 3519SOL    HW110901   1.908   1.715   4.624
 3519SOL    HW210902   2.044   1.804   4.617
 3520SOL     OW10903   2.366   1.568   4.634
 3520SOL    HW110904   2.432   1.642   4.643
 3520SOL    HW210905   2.410   1.489   4.592
 3521SOL     OW10906   2.864   0.796   4.962
 3521SOL    HW110907   2.905   0.764   5.048
 3521SOL    HW210908   2.768   0.769   4.959
 3522SOL     OW10909   1.902   0.544   4.838
 3522SOL    HW110910   1.987   0.511   4.797
 3522SOL    HW210911   1.915   0.559   4.936
 3523SOL     OW10912   2.051   0.520   5.446
 3523SOL    HW110913   2.110   0.480   5.376
 3523SOL    HW210914   1.993   0.591   5.405
 3524SOL     OW10915   3.231   0.950   5.384
 3524SOL    HW110916   3.270   1.039   5.404
 3524SOL    HW210917   3.241   0.930   5.287
 3525SOL     OW10918   2.677   0.572   4.049
 3525SOL    HW110919   2.684   0.483   4.003
 3525SOL    HW210920   2.583   0.606   4.041
 3526SOL     OW10921   3.519   0.604   4.930
 3526SOL    HW110922   3.481   0.535   4.992
 3526SOL    HW210923   3.601   0.568   4.886
 3527SOL     OW10924   2.114   1.564   5.468
 3527SOL    HW110925   2.084   1.621   5.544
 3527SOL    HW210926   2.107   1.467   5.494
 3528SOL     OW10927   2.533   0.464   4.993
 3528SOL    HW110928   2.499   0.375   4.963
 3528SOL    HW210929   2.559   0.518   4.913
 3529SOL     OW10930   2.792   1.678   5.189
 3529SOL    HW110931   2.768   1.660   5.094
 3529SOL    HW210932   2.822   1.772   5.199
 3530SOL     OW10933   2.335   0.500   3.915
 3530SOL    HW110934   2.396   0.580   3.919
 3530SOL    HW210935   2.240   0.531   3.922
 3531SOL     OW10936   2.021   1.137   5.190
 3531SOL    HW110937   2.043   1.076   5.266
 3531SOL    HW210938   2.031   1.088   5.104
 3532SOL     OW10939   3.209   1.059   4.958
 3532SOL    HW110940   3.233   0.996   4.884
 3532SOL    HW210941   3.119   1.099   4.940
 3533SOL     OW10942   3.164   0.855   4.033
 3533SOL    HW110943   3.078   0.824   4.075
 3533SOL    HW210944   3.160   0.841   3.934
 3534SOL     OW10945   3.621   1.747   4.878
 3534SOL    HW110946   3.682   1.777   4.805
 3534SOL    HW210947   3.583   1.658   4.856
 3535SOL     OW10948   3.114   1.731   4.852
 3535SOL    HW110949   3.198   1.736   4.798
 3535SOL    HW210950   3.091   1.635   4.870
 3536SOL     OW10951   1.945   1.258   4.746
 3536SOL    HW110952   1.940   1.257   4.846
 3536SOL    HW210953   1.862   1.217   4.708
 3537SOL     OW10954   2.550   1.662   5.440
 3537SOL    HW110955   2.494   1.743   5.449
 3537SOL    HW210956   2.602   1.666   5.354
 3538SOL     OW10957   3.588   0.135   4.247
 3538SOL    HW110958   3.661   0.118   4.180
 3538SOL    HW210959   3.557   0.048   4.285
 3539SOL     OW10960   3.250   1.573   4.201
 3539SOL    HW110961   3.317   1.585   4.127
 3539SOL    HW210962   3.210   1.662   4.224
 3540SOL     OW10963   1.992   1.794   5.575
 3540SOL    HW110964   1.951   1.720   5.628
 3540SOL    HW210965   2.056   1.845   5.633
 3541SOL     OW10966   3.142   0.927   4.396
 3541SOL    HW110967   3.202   0.846   4.398
 3541SOL    HW210968   3.182   0.996   4.336
 3542SOL     OW10969   2.692   1.273   5.146
 3542SOL    HW110970   2.687   1.306   5.241
 3542SOL    HW210971   2.606   1.292   5.100
 3543SOL     OW10972   2.534   1.616   3.878
 3543SOL    HW110973   2.543   1.626   3.779
 3543SOL    HW210974   2.494   1.527   3.899
 3544SOL     OW10975   3.512   1.720   5.118
 3544SOL    HW110976   3.565   1.730   5.034
 3544SOL    HW210977   3.485   1.810   5.152
 3545SOL     OW10978   3.703   0.175   4.687
 3545SOL    HW110979   3.742   0.090   4.651
 3545SOL    HW210980   3.605   0.177   4.668
 3546SOL     OW10981   2.125   0.326   4.444
 3546SOL    HW110982   2.046   0.377   4.410
 3546SOL    HW210983   2.116   0.311   4.542
 3547SOL     OW10984   3.056   1.612   3.755
 3547SOL    HW110985   3.062   1.519   3.792
 3547SOL    HW210986   2.997   1.612   3.675
 3548SOL     OW10987   2.684   1.002   5.096
 3548SOL    HW110988   2.724   1.001   5.004
 3548SOL    HW210989   2.694   1.094   5.136
 3549SOL     OW10990   2.778   0.910   4.015
 3549SOL    HW110991   2.841   0.948   3.947
 3549SOL    HW210992   2.818   0.827   4.054
 3550SOL     OW10993   3.366   1.607   3.768
 3550SOL    HW110994   3.274   1.644   3.775
 3550SOL    HW210995   3.404   1.627   3.678
 3551SOL     OW10996   2.234   1.288   5.214
 3551SOL    HW110997   2.221   1.381   5.180
 3551SOL    HW210998   2.150   1.236   5.201
 3552SOL     OW10999   3.476   1.292   5.013
 3552SOL    HW111000   3.536   1.295   5.093
 3552SOL    HW211001   3.401   1.356   5.026
 3553SOL     OW11002   2.901   1.098   4.420
 3553SOL    HW111003   2.831   1.051   4.474
 3553SOL    HW211004   2.960   1.030   4.377
 3554SOL     OW11005   2.876   0.236   4.695
 3554SOL    HW111006   2.868   0.200   4.602
 3554SOL    HW211007   2.874   0.160   4.760
 3555SOL     OW11008   2.452   1.487   4.215
 3555SOL    HW111009   2.494   1.429   4.145
 3555SOL    HW211010   2.408   1.566   4.171
 3556SOL     OW11011   3.571   0.385   5.105
 3556SOL    HW111012   3.644   0.454   5.109
 3556SOL    HW211013   3.599   0.310   5.046
 3557SOL     OW11014   2.117   1.348   4.014
 3557SOL    HW111015   2.021   1.349   3.987
 3557SOL    HW211016   2.129   1.401   4.098
 3558SOL     OW11017   1.967   1.013   5.450
 3558SOL    HW111018   1.890   0.980   5.504
 3558SOL    HW211019   2.052   0.983   5.492
 3559SOL     OW11020   2.534   0.203   5.213
 3559SOL    HW111021   2.624   0.187   5.173
 3559SOL    HW211022   2.542   0.208   5.312
 3560SOL     OW11023   1.937   0.345   3.757
 3560SOL    HW111024   1.845   0.317   3.728
 3560SOL    HW211025   1.968   0.422   3.701
 3561SOL     OW11026   3.302   0.856   5.122
 3561SOL    HW111027   3.245   0.908   5.059
 3561SOL    HW211028   3.398   0.868   5.098
 3562SOL     OW11029   1.934   0.166   4.042
 3562SOL    HW111030   1.917   0.249   3.988
 3562SOL    HW211031   2.024   0.129   4.020
 3563SOL     OW11032   3.045   1.335   3.843
 3563SOL    HW111033   2.946   1.324   3.845
 3563SOL    HW211034   3.079   1.350   3.936
 3564SOL     OW11035   2.475   0.842   5.155
 3564SOL    HW111036   2.531   0.923   5.138
 3564SOL    HW211037   2.534   0.762   5.158
 3565SOL     OW11038   3.355   1.767   4.683
 3565SOL    HW111039   3.388   1.831   4.614
 3565SOL    HW211040   3.421   1.761   4.758
 3566SOL     OW11041   2.578   0.565   5.432
 3566SOL    HW111042   2.597   0.630   5.506
 3566SOL    HW211043   2.638   0.485   5.441
 3567SOL     OW11044   3.312   1.220   5.357
 3567SOL    HW111045   3.303   1.210   5.456
 3567SOL    HW211046   3.408   1.213   5.331
 3568SOL     OW11047   2.252   1.741   5.284
 3568SOL    HW111048   2.161   1.782   5.282
 3568SOL    HW211049   2.245   1.647   5.316
 3569SOL     OW11050   3.536   0.883   4.978
 3569SOL    HW111051   3.509   0.794   4.941
 3569SOL    HW211052   3.537   0.951   4.905
 3570SOL     OW11053   3.087   0.325   4.173
 3570SOL    HW111054   3.152   0.251   4.162
 3570SOL    HW211055   3.107   0.375   4.257
 3571SOL     OW11056   2.456   0.745   4.376
 3571SOL    HW111057   2.506   0.830   4.357
 3571SOL    HW211058   2.368   0.747   4.328
 3572SOL     OW11059   3.639   0.342   5.366
 3572SOL    HW111060   3.622   0.373   5.272
 3572SOL    HW211061   3.555   0.305   5.404
 3573SOL     OW11062   3.592   0.934   5.241
 3573SOL    HW111063   3.630   1.025   5.256
 3573SOL    HW211064   3.584   0.917   5.142
 3574SOL     OW11065   2.721   1.374   3.740
 3574SOL    HW111066   2.675   1.389   3.828
 3574SOL    HW211067   2.765   1.459   3.710
 3575SOL     OW11068   2.523   1.790   4.677
 3575SOL    HW111069   2.477   1.878   4.664
 3575SOL    HW211070   2.622   1.802   4.670
 3576SOL     OW11071   2.721   0.956   4.585
 3576SOL    HW111072   2.775   0.887   4.633
 3576SOL    HW211073   2.689   1.025   4.651
 3577SOL     OW11074   2.945   0.984   3.811
 3577SOL    HW111075   2.922   1.037   3.729
 3577SOL    HW211076   3.026   0.928   3.792
 3578SOL     OW11077   3.723   1.569   4.575
 3578SOL    HW111078   3.652   1.557   4.505
 3578SOL    HW211079   3.724   1.490   4.635
 3579SOL     OW11080   2.083   1.314   5.568
 3579SOL    HW111081   2.018   1.241   5.547
 3579SOL    HW211082   2.087   1.328   5.666
 3580SOL     OW11083   1.941   1.240   4.377
 3580SOL    HW111084   1.940   1.193   4.465
 3580SOL    HW211085   2.023   1.212   4.326
 3581SOL     OW11086   2.534   1.391   5.348
 3581SOL    HW111087   2.456   1.341   5.386
 3581SOL    HW211088   2.531   1.486   5.379
 3582SOL     OW11089   3.686   0.192   4.951
 3582SOL    HW111090   3.682   0.102   4.995
 3582SOL    HW211091   3.689   0.181   4.852
 3583SOL     OW11092   2.290   0.424   4.244
 3583SOL    HW111093   2.320   0.352   4.182
 3583SOL    HW211094   2.251   0.384   4.327
 3584SOL     OW11095   3.567   1.487   4.828
 3584SOL    HW111096   3.474   1.462   4.801
 3584SOL    HW211097   3.593   1.437   4.910
 3585SOL     OW11098   2.179   0.547   5.004
 3585SOL    HW111099   2.217   0.488   5.076
 3585SOL    HW211100   2.219   0.521   4.916
 3586SOL     OW11101   2.674   1.586   4.411
 3586SOL    HW111102   2.706   1.596   4.317
 3586SOL    HW211103   2.595   1.524   4.413
 3587SOL     OW11104   3.286   0.214   4.836
 3587SOL    HW111105   3.338   0.149   4.891
 3587SOL    HW211106   3.237   0.277   4.897
 3588SOL     OW11107   2.863   0.034   4.878
 3588SOL    HW111108   2.800  -0.038   4.847
 3588SOL    HW211109   2.956  -0.002   4.878
 3589SOL     OW11110   2.632   1.330   4.025
 3589SOL    HW111111   2.586   1.243   4.042
 3589SOL    HW211112   2.723   1.327   4.066
 3590SOL     OW11113   2.480   1.567   5.008
 3590SOL    HW111114   2.475   1.649   5.065
 3590SOL    HW211115   2.569   1.564   4.963
 3591SOL     OW11116   3.214   0.052   3.892
 3591SOL    HW111117   3.249   0.011   3.808
 3591SOL    HW211118   3.124   0.014   3.912
 3592SOL     OW11119   3.162   0.453   4.415
 3592SOL    HW111120   3.103   0.533   4.419
 3592SOL    HW211121   3.177   0.418   4.508
 3593SOL     OW11122   3.455   0.221   4.606
 3593SOL    HW111123   3.371   0.220   4.660
 3593SOL    HW211124   3.457   0.304   4.550
 3594SOL     OW11125   1.901   1.077   4.024
 3594SOL    HW111126   2.000   1.066   4.015
 3594SOL    HW211127   1.861   0.991   4.056
 3595SOL     OW11128   2.737   1.646   4.061
 3595SOL    HW111129   2.660   1.611   4.007
 3595SOL    HW211130   2.705   1.717   4.123
 3596SOL     OW11131   2.092   0.628   5.699
 3596SOL    HW111132   1.999   0.626   5.736
 3596SOL    HW211133   2.093   0.589   5.607
 3597SOL     OW11134   1.881   0.368   6.233
 3597SOL    HW111135   1.799   0.411   6.272
 3597SOL    HW211136   1.853   0.295   6.170
 3598SOL     OW11137   3.617   0.607   5.817
 3598SOL    HW111138   3.605   0.594   5.718
 3598SOL    HW211139   3.587   0.526   5.866
 3599SOL     OW11140   2.547   1.012   6.251
 3599SOL    HW111141   2.616   0.996   6.321
 3599SOL    HW211142   2.474   1.069   6.289
 3600SOL     OW11143   2.093   1.713   6.069
 3600SOL    HW111144   2.127   1.790   6.123
 3600SOL    HW211145   2.137   1.713   5.979
 3601SOL     OW11146   2.092   1.434   6.124
 3601SOL    HW111147   2.066   1.530   6.124
 3601SOL    HW211148   2.021   1.380   6.169
 3602SOL     OW11149   2.102   1.091   6.472
 3602SOL    HW111150   2.116   1.007   6.524
 3602SOL    HW211151   2.047   1.155   6.527
 3603SOL     OW11152   2.468   0.964   5.709
 3603SOL    HW111153   2.475   1.048   5.655
 3603SOL    HW211154   2.514   0.977   5.797
 3604SOL     OW11155   1.984   0.643   6.149
 3604SOL    HW111156   1.939   0.555   6.166
 3604SOL    HW211157   1.983   0.697   6.233
 3605SOL     OW11158   3.704   1.767   5.945
 3605SOL    HW111159   3.758   1.738   6.025
 3605SOL    HW211160   3.734   1.857   5.916
 3606SOL     OW11161   1.889   1.596   5.703
 3606SOL    HW111162   1.870   1.500   5.724
 3606SOL    HW211163   1.856   1.654   5.778
 3607SOL     OW11164   3.551   0.922   6.198
 3607SOL    HW111165   3.646   0.893   6.206
 3607SOL    HW211166   3.543   0.987   6.123
 3608SOL     OW11167   3.503   1.108   6.018
 3608SOL    HW111168   3.589   1.110   5.966
 3608SOL    HW211169   3.517   1.155   6.106
 3609SOL     OW11170   2.671   0.004   6.088
 3609SOL    HW111171   2.711   0.095   6.079
 3609SOL    HW211172   2.571   0.012   6.094
 3610SOL     OW11173   3.387   0.999   5.776
 3610SOL    HW111174   3.324   0.923   5.789
 3610SOL    HW211175   3.435   1.017   5.862
 3611SOL     OW11176   2.460   0.729   5.856
 3611SOL    HW111177   2.484   0.798   5.788
 3611SOL    HW211178   2.382   0.762   5.910
 3612SOL     OW11179   3.438   1.662   5.893
 3612SOL    HW111180   3.527   1.708   5.896
 3612SOL    HW211181   3.417   1.638   5.798
 3613SOL     OW11182   2.903   0.701   6.015
 3613SOL    HW111183   2.929   0.697   6.111
 3613SOL    HW211184   2.818   0.650   6.001
 3614SOL     OW11185   1.938   0.811   6.375
 3614SOL    HW111186   2.037   0.799   6.384
 3614SOL    HW211187   1.914   0.906   6.396
 3615SOL     OW11188   2.727   0.348   5.781
 3615SOL    HW111189   2.786   0.411   5.732
 3615SOL    HW211190   2.746   0.254   5.752
 3616SOL     OW11191   3.224   1.144   6.131
 3616SOL    HW111192   3.307   1.115   6.083
 3616SOL    HW211193   3.175   1.211   6.075
 3617SOL     OW11194   2.412   0.196   6.471
 3617SOL    HW111195   2.407   0.191   6.571
 3617SOL    HW211196   2.414   0.292   6.442
 3618SOL     OW11197   2.870   1.456   6.063
 3618SOL    HW111198   2.824   1.528   6.011
 3618SOL    HW211199   2.866   1.476   6.161
 3619SOL     OW11200   2.213   1.801   6.439
 3619SOL    HW111201   2.263   1.715   6.445
 3619SOL    HW211202   2.278   1.878   6.436
 3620SOL     OW11203   2.183   0.943   5.828
 3620SOL    HW111204   2.265   0.982   5.786
 3620SOL    HW211205   2.156   0.861   5.779
 3621SOL     OW11206   2.973   1.776   5.823
 3621SOL    HW111207   2.913   1.714   5.873
 3621SOL    HW211208   3.004   1.732   5.738
 3622SOL     OW11209   3.494   1.377   5.667
 3622SOL    HW111210   3.462   1.471   5.657
 3622SOL    HW211211   3.418   1.314   5.655
 3623SOL     OW11212   2.326   1.743   5.909
 3623SOL    HW111213   2.359   1.782   5.995
 3623SOL    HW211214   2.402   1.736   5.844
 3624SOL     OW11215   3.262   0.107   6.012
 3624SOL    HW111216   3.238   0.070   5.922
 3624SOL    HW211217   3.361   0.123   6.016
 3625SOL     OW11218   2.802   1.698   6.490
 3625SOL    HW111219   2.882   1.641   6.511
 3625SOL    HW211220   2.753   1.658   6.413
 3626SOL     OW11221   2.244   0.700   6.066
 3626SOL    HW111222   2.289   0.610   6.063
 3626SOL    HW211223   2.150   0.689   6.099
 3627SOL     OW11224   2.476   0.122   5.703
 3627SOL    HW111225   2.574   0.100   5.710
 3627SOL    HW211226   2.445   0.105   5.610
 3628SOL     OW11227   2.784   0.503   6.485
 3628SOL    HW111228   2.759   0.494   6.389
 3628SOL    HW211229   2.832   0.421   6.516
 3629SOL     OW11230   2.401   0.064   6.098
 3629SOL    HW111231   2.320   0.065   6.156
 3629SOL    HW211232   2.404   0.147   6.043
 3630SOL     OW11233   3.296   1.188   5.627
 3630SOL    HW111234   3.328   1.112   5.684
 3630SOL    HW211235   3.204   1.215   5.657
 3631SOL     OW11236   2.159   0.035   5.757
 3631SOL    HW111237   2.208   0.119   5.736
 3631SOL    HW211238   2.221  -0.030   5.802
 3632SOL     OW11239   2.797   0.236   6.066
 3632SOL    HW111240   2.749   0.277   5.988
 3632SOL    HW211241   2.896   0.234   6.047
 3633SOL     OW11242   2.321   1.152   6.327
 3633SOL    HW111243   2.250   1.125   6.392
 3633SOL    HW211244   2.295   1.124   6.234
 3634SOL     OW11245   2.894   0.549   5.602
 3634SOL    HW111246   2.853   0.631   5.563
 3634SOL    HW211247   2.958   0.575   5.675
 3635SOL     OW11248   3.719   0.833   5.963
 3635SOL    HW111249   3.761   0.769   6.027
 3635SOL    HW211250   3.681   0.782   5.885
 3636SOL     OW11251   2.350   1.385   5.760
 3636SOL    HW111252   2.263   1.370   5.807
 3636SOL    HW211253   2.333   1.411   5.665
 3637SOL     OW11254   3.252   0.575   5.664
 3637SOL    HW111255   3.198   0.554   5.745
 3637SOL    HW211256   3.343   0.534   5.673
 3638SOL     OW11257   2.389   0.256   5.914
 3638SOL    HW111258   2.416   0.197   5.839
 3638SOL    HW211259   2.389   0.351   5.883
 3639SOL     OW11260   2.567   1.050   5.954
 3639SOL    HW111261   2.553   1.057   6.053
 3639SOL    HW211262   2.651   0.999   5.936
 3640SOL     OW11263   2.229   1.100   6.087
 3640SOL    HW111264   2.222   1.183   6.031
 3640SOL    HW211265   2.233   1.020   6.027
 3641SOL     OW11266   2.428   0.537   6.451
 3641SOL    HW111267   2.440   0.603   6.377
 3641SOL    HW211268   2.474   0.571   6.534
 3642SOL     OW11269   3.114   1.348   5.974
 3642SOL    HW111270   3.164   1.425   6.014
 3642SOL    HW211271   3.019   1.350   6.006
 3643SOL     OW11272   3.444   0.639   6.058
 3643SOL    HW111273   3.413   0.700   6.131
 3643SOL    HW211274   3.494   0.691   5.989
 3644SOL     OW11275   3.071   0.525   5.861
 3644SOL    HW111276   3.084   0.441   5.915
 3644SOL    HW211277   3.042   0.599   5.921
 3645SOL     OW11278   2.169   0.063   6.204
 3645SOL    HW111279   2.158   0.157   6.237
 3645SOL    HW211280   2.164   0.000   6.281
 3646SOL     OW11281   3.484   0.367   5.960
 3646SOL    HW111282   3.486   0.291   6.024
 3646SOL    HW211283   3.436   0.444   6.000
 3647SOL     OW11284   3.402   0.274   5.711
 3647SOL    HW111285   3.341   0.199   5.734
 3647SOL    HW211286   3.424   0.326   5.794
 3648SOL     OW11287   3.165   0.838   5.628
 3648SOL    HW111288   3.199   0.745   5.643
 3648SOL    HW211289   3.183   0.865   5.533
 3649SOL     OW11290   1.870   1.326   5.786
 3649SOL    HW111291   1.777   1.347   5.755
 3649SOL    HW211292   1.880   1.227   5.799
 3650SOL     OW11293   2.677   0.572   5.911
 3650SOL    HW111294   2.684   0.483   5.865
 3650SOL    HW211295   2.583   0.606   5.903
 3651SOL     OW11296   2.335   0.500   5.777
 3651SOL    HW111297   2.396   0.580   5.781
 3651SOL    HW211298   2.240   0.531   5.784
 3652SOL     OW11299   3.164   0.855   5.895
 3652SOL    HW111300   3.078   0.824   5.937
 3652SOL    HW211301   3.160   0.841   5.796
 3653SOL     OW11302   3.588   0.135   6.109
 3653SOL    HW111303   3.661   0.118   6.042
 3653SOL    HW211304   3.557   0.048   6.147
 3654SOL     OW11305   3.250   1.573   6.063
 3654SOL    HW111306   3.317   1.585   5.989
 3654SOL    HW211307   3.210   1.662   6.086
 3655SOL     OW11308   3.142   0.927   6.258
 3655SOL    HW111309   3.202   0.846   6.260
 3655SOL    HW211310   3.182   0.996   6.198
 3656SOL     OW11311   2.534   1.616   5.740
 3656SOL    HW111312   2.543   1.626   5.641
 3656SOL    HW211313   2.494   1.527   5.761
 3657SOL     OW11314   2.125   0.326   6.306
 3657SOL    HW111315   2.046   0.377   6.272
 3657SOL    HW211316   2.116   0.311   6.404
 3658SOL     OW11317   3.056   1.612   5.617
 3658SOL    HW111318   3.062   1.519   5.654
 3658SOL    HW211319   2.997   1.612   5.537
 3659SOL     OW11320   2.778   0.910   5.877
 3659SOL    HW111321   2.841   0.948   5.809
 3659SOL    HW211322   2.818   0.827   5.916
 3660SOL     OW11323   3.366   1.607   5.630
 3660SOL    HW111324   3.274   1.644   5.637
 3660SOL    HW211325   3.404   1.627   5.540
 3661SOL     OW11326   2.452   1.487   6.077
 3661SOL    HW111327   2.494   1.429   6.007
 3661SOL    HW211328   2.408   1.566   6.033
 3662SOL     OW11329   2.117   1.348   5.876
 3662SOL    HW111330   2.021   1.349   5.849
 3662SOL    HW211331   2.129   1.401   5.960
 3663SOL     OW11332   1.937   0.345   5.619
 3663SOL    HW111333   1.845   0.317   5.590
 3663SOL    HW211334   1.968   0.422   5.563
 3664SOL     OW11335   1.934   0.166   5.904
 3664SOL    HW111336   1.917   0.249   5.850
 3664SOL    HW211337   2.024   0.129   5.882
 3665SOL     OW11338   3.045   1.335   5.705
 3665SOL    HW111339   2.946   1.324   5.707
 3665SOL    HW211340   3.079   1.350   5.798
 3666SOL     OW11341   3.087   0.325   6.035
 3666SOL    HW111342   3.152   0.251   6.024
 3666SOL    HW211343   3.107   0.375   6.119
 3667SOL     OW11344   2.456   0.745   6.238
 3667SOL    HW111345   2.506   0.830   6.219
 3667SOL    HW211346   2.368   0.747   6.190
 3668SOL     OW11347   2.721   1.374   5.602
 3668SOL    HW111348   2.675   1.389   5.690
 3668SOL    HW211349   2.765   1.459   5.572
 3669SOL     OW11350   2.945   0.984   5.673
 3669SOL    HW111351   2.922   1.037   5.591
 3669SOL    HW211352   3.026   0.928   5.654
 3670SOL     OW11353   1.941   1.240   6.239
 3670SOL    HW111354   1.940   1.193   6.327
 3670SOL    HW211355   2.023   1.212   6.188
 3671SOL     OW11356   2.290   0.424   6.106
 3671SOL    HW111357   2.320   0.352   6.044
 3671SOL    HW211358   2.251   0.384   6.189
 3672SOL     OW11359   2.674   1.586   6.273
 3672SOL    HW111360   2.706   1.596   6.179
 3672SOL    HW211361   2.595   1.524   6.275
 3673SOL     OW11362   2.632   1.330   5.887
 3673SOL    HW111363   2.586   1.243   5.904
 3673SOL    HW211364   2.723   1.327   5.928
 3674SOL     OW11365   3.214   0.052   5.754
 3674SOL    HW111366   3.249   0.011   5.670
 3674SOL    HW211367   3.124   0.014   5.774
 3675SOL     OW11368   3.162   0.453   6.277
 3675SOL    HW111369   3.103   0.533   6.281
 3675SOL    HW211370   3.177   0.418   6.370
 3676SOL     OW11371   1.901   1.077   5.886
 3676SOL    HW111372   2.000   1.066   5.877
 3676SOL    HW211373   1.861   0.991   5.918
 3677SOL     OW11374   2.737   1.646   5.923
 3677SOL    HW111375   2.660   1.611   5.869
 3677SOL    HW211376   2.705   1.717   5.985
 3678SOL     OW11377   2.092   2.490   0.113
 3678SOL    HW111378   1.999   2.488   0.150
 3678SOL    HW211379   2.093   2.451   0.021
 3679SOL     OW11380   2.087   2.137   0.996
 3679SOL    HW111381   2.122   2.120   1.088
 3679SOL    HW211382   1.999   2.092   0.984
 3680SOL     OW11383   1.881   2.230   0.647
 3680SOL    HW111384   1.799   2.273   0.686
 3680SOL    HW211385   1.853   2.157   0.584
 3681SOL     OW11386   2.431   3.137   1.165
 3681SOL    HW111387   2.338   3.130   1.128
 3681SOL    HW211388   2.442   3.226   1.209
 3682SOL     OW11389   3.417   3.373   0.703
 3682SOL    HW111390   3.360   3.357   0.784
 3682SOL    HW211391   3.358   3.383   0.623
 3683SOL     OW11392   2.997   2.565   0.717
 3683SOL    HW111393   3.054   2.643   0.692
 3683SOL    HW211394   2.937   2.591   0.793
 3684SOL     OW11395   2.630   3.006   1.023
 3684SOL    HW111396   2.552   3.023   1.083
 3684SOL    HW211397   2.664   3.093   0.987
 3685SOL     OW11398   2.712   2.660   1.823
 3685SOL    HW111399   2.708   2.736   1.888
 3685SOL    HW211400   2.734   2.696   1.732
 3686SOL     OW11401   2.547   2.874   0.665
 3686SOL    HW111402   2.616   2.858   0.735
 3686SOL    HW211403   2.474   2.931   0.703
 3687SOL     OW11404   2.548   3.023   1.803
 3687SOL    HW111405   2.608   3.102   1.817
 3687SOL    HW211406   2.462   3.054   1.762
 3688SOL     OW11407   2.197   3.297   1.061
 3688SOL    HW111408   2.119   3.266   1.008
 3688SOL    HW211409   2.255   3.355   1.004
 3689SOL     OW11410   3.322   3.367   1.339
 3689SOL    HW111411   3.346   3.461   1.365
 3689SOL    HW211412   3.306   3.313   1.421
 3690SOL     OW11413   2.300   2.254   1.499
 3690SOL    HW111414   2.382   2.198   1.508
 3690SOL    HW211415   2.219   2.196   1.503
 3691SOL     OW11416   3.465   2.309   0.737
 3691SOL    HW111417   3.391   2.355   0.687
 3691SOL    HW211418   3.516   2.377   0.790
 3692SOL     OW11419   2.093   3.575   0.483
 3692SOL    HW111420   2.127   3.652   0.537
 3692SOL    HW211421   2.137   3.575   0.393
 3693SOL     OW11422   2.989   3.203   1.690
 3693SOL    HW111423   3.036   3.203   1.778
 3693SOL    HW211424   2.941   3.116   1.679
 3694SOL     OW11425   2.092   3.296   0.538
 3694SOL    HW111426   2.066   3.392   0.538
 3694SOL    HW211427   2.021   3.242   0.583
 3695SOL     OW11428   2.102   2.953   0.886
 3695SOL    HW111429   2.116   2.869   0.938
 3695SOL    HW211430   2.047   3.017   0.941
 3696SOL     OW11431   2.482   3.648   1.439
 3696SOL    HW111432   2.390   3.631   1.474
 3696SOL    HW211433   2.510   3.740   1.465
 3697SOL     OW11434   3.456   1.976   1.480
 3697SOL    HW111435   3.438   2.043   1.408
 3697SOL    HW211436   3.453   2.022   1.569
 3698SOL     OW11437   1.984   2.505   0.563
 3698SOL    HW111438   1.939   2.417   0.580
 3698SOL    HW211439   1.983   2.559   0.647
 3699SOL     OW11440   3.704   3.629   0.359
 3699SOL    HW111441   3.758   3.600   0.439
 3699SOL    HW211442   3.734   3.719   0.330
 3700SOL     OW11443   1.889   3.458   0.117
 3700SOL    HW111444   1.870   3.362   0.138
 3700SOL    HW211445   1.856   3.516   0.192
 3701SOL     OW11446   3.551   2.784   0.612
 3701SOL    HW111447   3.646   2.755   0.620
 3701SOL    HW211448   3.543   2.849   0.537
 3702SOL     OW11449   3.503   2.970   0.432
 3702SOL    HW111450   3.589   2.972   0.380
 3702SOL    HW211451   3.517   3.017   0.520
 3703SOL     OW11452   1.975   2.599   1.597
 3703SOL    HW111453   2.063   2.586   1.642
 3703SOL    HW211454   1.962   2.696   1.575
 3704SOL     OW11455   2.475   3.227   0.726
 3704SOL    HW111456   2.426   3.140   0.735
 3704SOL    HW211457   2.452   3.270   0.639
 3705SOL     OW11458   3.155   3.090   1.423
 3705SOL    HW111459   3.192   3.017   1.365
 3705SOL    HW211460   3.207   3.095   1.508
 3706SOL     OW11461   2.671   1.866   0.502
 3706SOL    HW111462   2.711   1.957   0.493
 3706SOL    HW211463   2.571   1.874   0.508
 3707SOL     OW11464   2.059   2.838   1.264
 3707SOL    HW111465   2.148   2.793   1.250
 3707SOL    HW211466   1.986   2.773   1.245
 3708SOL     OW11467   3.049   3.654   1.616
 3708SOL    HW111468   3.073   3.714   1.540
 3708SOL    HW211469   3.056   3.559   1.586
 3709SOL     OW11470   2.179   2.113   1.801
 3709SOL    HW111471   2.250   2.184   1.807
 3709SOL    HW211472   2.091   2.152   1.829
 3710SOL     OW11473   3.328   3.279   0.953
 3710SOL    HW111474   3.269   3.285   1.033
 3710SOL    HW211475   3.313   3.191   0.907
 3711SOL     OW11476   3.529   3.576   0.572
 3711SOL    HW111477   3.488   3.553   0.484
 3711SOL    HW211478   3.511   3.502   0.637
 3712SOL     OW11479   2.460   2.591   0.270
 3712SOL    HW111480   2.484   2.660   0.202
 3712SOL    HW211481   2.382   2.624   0.324
 3713SOL     OW11482   3.143   2.207   0.944
 3713SOL    HW111483   3.057   2.157   0.931
 3713SOL    HW211484   3.205   2.153   1.000
 3714SOL     OW11485   2.669   2.467   1.465
 3714SOL    HW111486   2.622   2.464   1.554
 3714SOL    HW211487   2.618   2.412   1.399
 3715SOL     OW11488   3.256   2.331   1.674
 3715SOL    HW111489   3.236   2.374   1.762
 3715SOL    HW211490   3.334   2.269   1.683
 3716SOL     OW11491   2.835   2.752   1.572
 3716SOL    HW111492   2.881   2.668   1.543
 3716SOL    HW211493   2.779   2.786   1.497
 3717SOL     OW11494   2.853   2.272   1.242
 3717SOL    HW111495   2.776   2.306   1.296
 3717SOL    HW211496   2.819   2.221   1.163
 3718SOL     OW11497   2.903   2.563   0.429
 3718SOL    HW111498   2.929   2.559   0.525
 3718SOL    HW211499   2.818   2.512   0.415
 3719SOL     OW11500   1.938   2.673   0.789
 3719SOL    HW111501   2.037   2.661   0.798
 3719SOL    HW211502   1.914   2.768   0.810
 3720SOL     OW11503   1.992   3.683   1.571
 3720SOL    HW111504   1.982   3.668   1.670
 3720SOL    HW211505   1.906   3.719   1.535
 3721SOL     OW11506   3.581   2.447   1.831
 3721SOL    HW111507   3.555   2.536   1.795
 3721SOL    HW211508   3.579   2.379   1.758
 3722SOL     OW11509   3.224   3.006   0.545
 3722SOL    HW111510   3.307   2.977   0.497
 3722SOL    HW211511   3.175   3.073   0.489
 3723SOL     OW11512   2.412   2.058   0.885
 3723SOL    HW111513   2.407   2.053   0.985
 3723SOL    HW211514   2.414   2.154   0.856
 3724SOL     OW11515   2.870   3.318   0.477
 3724SOL    HW111516   2.824   3.390   0.425
 3724SOL    HW211517   2.866   3.338   0.575
 3725SOL     OW11518   2.213   3.663   0.853
 3725SOL    HW111519   2.263   3.577   0.859
 3725SOL    HW211520   2.278   3.740   0.850
 3726SOL     OW11521   3.657   2.928   0.873
 3726SOL    HW111522   3.595   2.913   0.797
 3726SOL    HW211523   3.605   2.939   0.958
 3727SOL     OW11524   3.089   3.412   1.506
 3727SOL    HW111525   3.095   3.335   1.570
 3727SOL    HW211526   3.037   3.386   1.426
 3728SOL     OW11527   2.183   2.805   0.242
 3728SOL    HW111528   2.265   2.844   0.200
 3728SOL    HW211529   2.156   2.723   0.193
 3729SOL     OW11530   3.320   2.597   0.728
 3729SOL    HW111531   3.315   2.532   0.803
 3729SOL    HW211532   3.400   2.656   0.741
 3730SOL     OW11533   2.323   3.128   1.727
 3730SOL    HW111534   2.273   3.129   1.641
 3730SOL    HW211535   2.260   3.110   1.803
 3731SOL     OW11536   2.064   2.147   1.498
 3731SOL    HW111537   1.984   2.207   1.485
 3731SOL    HW211538   2.054   2.098   1.584
 3732SOL     OW11539   2.326   3.605   0.323
 3732SOL    HW111540   2.359   3.644   0.409
 3732SOL    HW211541   2.402   3.598   0.258
 3733SOL     OW11542   3.262   1.969   0.426
 3733SOL    HW111543   3.238   1.932   0.336
 3733SOL    HW211544   3.361   1.985   0.430
 3734SOL     OW11545   2.111   3.647   1.241
 3734SOL    HW111546   2.168   3.582   1.291
 3734SOL    HW211547   2.095   3.614   1.148
 3735SOL     OW11548   2.802   3.560   0.904
 3735SOL    HW111549   2.882   3.503   0.925
 3735SOL    HW211550   2.753   3.520   0.827
 3736SOL     OW11551   2.244   2.562   0.480
 3736SOL    HW111552   2.289   2.472   0.477
 3736SOL    HW211553   2.150   2.551   0.513
 3737SOL     OW11554   3.409   2.084   1.729
 3737SOL    HW111555   3.404   2.121   1.821
 3737SOL    HW211556   3.337   2.015   1.717
 3738SOL     OW11557   2.476   1.984   0.117
 3738SOL    HW111558   2.574   1.962   0.124
 3738SOL    HW211559   2.445   1.967   0.024
 3739SOL     OW11560   2.643   2.126   1.749
 3739SOL    HW111561   2.710   2.065   1.792
 3739SOL    HW211562   2.570   2.145   1.814
 3740SOL     OW11563   2.750   3.376   1.195
 3740SOL    HW111564   2.727   3.351   1.101
 3740SOL    HW211565   2.811   3.307   1.234
 3741SOL     OW11566   3.213   2.452   1.433
 3741SOL    HW111567   3.241   2.409   1.518
 3741SOL    HW211568   3.238   2.548   1.434
 3742SOL     OW11569   2.665   3.264   0.924
 3742SOL    HW111570   2.755   3.278   0.882
 3742SOL    HW211571   2.594   3.266   0.853
 3743SOL     OW11572   2.784   2.365   0.899
 3743SOL    HW111573   2.759   2.356   0.803
 3743SOL    HW211574   2.832   2.283   0.930
 3744SOL     OW11575   2.401   1.926   0.512
 3744SOL    HW111576   2.320   1.927   0.570
 3744SOL    HW211577   2.404   2.009   0.457
 3745SOL     OW11578   2.159   1.897   0.171
 3745SOL    HW111579   2.208   1.981   0.150
 3745SOL    HW211580   2.221   1.832   0.216
 3746SOL     OW11581   2.797   2.098   0.480
 3746SOL    HW111582   2.749   2.139   0.402
 3746SOL    HW211583   2.896   2.096   0.461
 3747SOL     OW11584   2.938   2.545   1.464
 3747SOL    HW111585   2.858   2.484   1.467
 3747SOL    HW211586   3.019   2.492   1.440
 3748SOL     OW11587   3.089   3.432   0.793
 3748SOL    HW111588   3.110   3.506   0.728
 3748SOL    HW211589   3.157   3.432   0.866
 3749SOL     OW11590   2.321   3.014   0.741
 3749SOL    HW111591   2.250   2.987   0.806
 3749SOL    HW211592   2.295   2.986   0.648
 3750SOL     OW11593   3.133   3.659   0.591
 3750SOL    HW111594   3.177   3.723   0.527
 3750SOL    HW211595   3.083   3.711   0.661
 3751SOL     OW11596   1.940   2.418   1.386
 3751SOL    HW111597   2.032   2.417   1.345
 3751SOL    HW211598   1.934   2.492   1.453
 3752SOL     OW11599   2.423   2.084   1.147
 3752SOL    HW111600   2.461   2.000   1.184
 3752SOL    HW211601   2.335   2.103   1.191
 3753SOL     OW11602   2.728   2.316   0.642
 3753SOL    HW111603   2.696   2.388   0.580
 3753SOL    HW211604   2.752   2.235   0.589
 3754SOL     OW11605   2.879   1.901   0.753
 3754SOL    HW111606   2.807   1.906   0.684
 3754SOL    HW211607   2.855   1.832   0.822
 3755SOL     OW11608   3.291   3.035   0.867
 3755SOL    HW111609   3.236   2.951   0.860
 3755SOL    HW211610   3.317   3.064   0.775
 3756SOL     OW11611   3.328   2.452   0.992
 3756SOL    HW111612   3.298   2.357   0.999
 3756SOL    HW211613   3.401   2.468   1.058
 3757SOL     OW11614   3.719   2.695   0.377
 3757SOL    HW111615   3.761   2.631   0.441
 3757SOL    HW211616   3.681   2.644   0.299
 3758SOL     OW11617   2.350   3.247   0.174
 3758SOL    HW111618   2.263   3.232   0.221
 3758SOL    HW211619   2.333   3.273   0.079
 3759SOL     OW11620   3.526   3.142   0.657
 3759SOL    HW111621   3.625   3.150   0.671
 3759SOL    HW211622   3.481   3.226   0.688
 3760SOL     OW11623   2.389   2.118   0.328
 3760SOL    HW111624   2.416   2.059   0.253
 3760SOL    HW211625   2.389   2.213   0.297
 3761SOL     OW11626   3.616   3.085   1.588
 3761SOL    HW111627   3.707   3.046   1.575
 3761SOL    HW211628   3.624   3.181   1.612
 3762SOL     OW11629   2.926   3.209   1.340
 3762SOL    HW111630   2.846   3.186   1.395
 3762SOL    HW211631   3.009   3.183   1.389
 3763SOL     OW11632   3.454   3.491   1.625
 3763SOL    HW111633   3.481   3.525   1.535
 3763SOL    HW211634   3.533   3.453   1.671
 3764SOL     OW11635   2.973   3.057   1.100
 3764SOL    HW111636   2.933   3.101   1.181
 3764SOL    HW211637   2.932   3.094   1.017
 3765SOL     OW11638   3.500   2.961   1.079
 3765SOL    HW111639   3.505   3.042   1.138
 3765SOL    HW211640   3.414   2.963   1.028
 3766SOL     OW11641   2.777   1.951   1.402
 3766SOL    HW111642   2.802   1.931   1.307
 3766SOL    HW211643   2.849   2.007   1.444
 3767SOL     OW11644   2.842   2.978   1.719
 3767SOL    HW111645   2.743   2.984   1.729
 3767SOL    HW211646   2.865   2.898   1.663
 3768SOL     OW11647   2.567   2.912   0.368
 3768SOL    HW111648   2.553   2.919   0.467
 3768SOL    HW211649   2.651   2.861   0.350
 3769SOL     OW11650   2.272   2.675   1.251
 3769SOL    HW111651   2.358   2.687   1.301
 3769SOL    HW211652   2.230   2.588   1.278
 3770SOL     OW11653   3.136   2.248   1.262
 3770SOL    HW111654   3.157   2.322   1.326
 3770SOL    HW211655   3.047   2.265   1.219
 3771SOL     OW11656   1.926   3.426   1.331
 3771SOL    HW111657   1.880   3.508   1.297
 3771SOL    HW211658   2.024   3.445   1.340
 3772SOL     OW11659   2.229   2.962   0.501
 3772SOL    HW111660   2.222   3.045   0.445
 3772SOL    HW211661   2.233   2.882   0.441
 3773SOL     OW11662   2.428   2.399   0.865
 3773SOL    HW111663   2.440   2.465   0.791
 3773SOL    HW211664   2.474   2.433   0.948
 3774SOL     OW11665   3.114   3.210   0.388
 3774SOL    HW111666   3.164   3.287   0.428
 3774SOL    HW211667   3.019   3.212   0.420
 3775SOL     OW11668   3.134   3.307   1.142
 3775SOL    HW111669   3.181   3.320   1.229
 3775SOL    HW211670   3.068   3.233   1.151
 3776SOL     OW11671   2.216   3.372   1.329
 3776SOL    HW111672   2.195   3.328   1.242
 3776SOL    HW211673   2.313   3.398   1.332
 3777SOL     OW11674   2.264   2.613   1.598
 3777SOL    HW111675   2.332   2.668   1.551
 3777SOL    HW211676   2.304   2.525   1.625
 3778SOL     OW11677   3.449   2.641   1.670
 3778SOL    HW111678   3.357   2.679   1.665
 3778SOL    HW211679   3.509   2.688   1.605
 3779SOL     OW11680   2.875   1.967   1.770
 3779SOL    HW111681   2.881   2.052   1.718
 3779SOL    HW211682   2.907   1.891   1.713
 3780SOL     OW11683   2.366   1.912   1.740
 3780SOL    HW111684   2.324   1.855   1.670
 3780SOL    HW211685   2.300   1.981   1.772
 3781SOL     OW11686   2.435   2.732   1.029
 3781SOL    HW111687   2.479   2.821   1.020
 3781SOL    HW211688   2.372   2.732   1.106
 3782SOL     OW11689   3.222   2.724   1.045
 3782SOL    HW111690   3.147   2.724   0.979
 3782SOL    HW211691   3.259   2.632   1.054
 3783SOL     OW11692   2.169   2.075   1.231
 3783SOL    HW111693   2.146   2.112   1.321
 3783SOL    HW211694   2.139   1.980   1.225
 3784SOL     OW11695   1.899   3.172   1.282
 3784SOL    HW111696   1.952   3.123   1.350
 3784SOL    HW211697   1.921   3.270   1.287
 3785SOL     OW11698   2.594   2.496   1.064
 3785SOL    HW111699   2.653   2.470   0.988
 3785SOL    HW211700   2.566   2.592   1.053
 3786SOL     OW11701   3.590   2.797   1.854
 3786SOL    HW111702   3.544   2.790   1.765
 3786SOL    HW211703   3.528   2.841   1.920
 3787SOL     OW11704   2.169   1.925   0.618
 3787SOL    HW111705   2.158   2.019   0.651
 3787SOL    HW211706   2.164   1.862   0.695
 3788SOL     OW11707   2.885   2.628   0.966
 3788SOL    HW111708   2.900   2.649   1.062
 3788SOL    HW211709   2.855   2.533   0.957
 3789SOL     OW11710   2.842   3.435   1.700
 3789SOL    HW111711   2.822   3.479   1.612
 3789SOL    HW211712   2.881   3.344   1.684
 3790SOL     OW11713   3.721   3.380   1.605
 3790SOL    HW111714   3.735   3.407   1.510
 3790SOL    HW211715   3.804   3.402   1.658
 3791SOL     OW11716   2.212   2.760   1.804
 3791SOL    HW111717   2.288   2.804   1.852
 3791SOL    HW211718   2.247   2.713   1.722
 3792SOL     OW11719   2.930   3.195   0.849
 3792SOL    HW111720   2.937   3.111   0.794
 3792SOL    HW211721   2.992   3.264   0.813
 3793SOL     OW11722   2.181   2.672   0.949
 3793SOL    HW111723   2.274   2.708   0.954
 3793SOL    HW211724   2.175   2.587   1.001
 3794SOL     OW11725   2.201   2.371   1.006
 3794SOL    HW111726   2.149   2.288   0.989
 3794SOL    HW211727   2.278   2.376   0.942
 3795SOL     OW11728   3.000   2.242   1.678
 3795SOL    HW111729   2.955   2.305   1.742
 3795SOL    HW211730   3.093   2.273   1.661
 3796SOL     OW11731   3.022   2.069   1.477
 3796SOL    HW111732   3.022   2.133   1.554
 3796SOL    HW211733   3.050   2.117   1.394
 3797SOL     OW11734   1.870   3.188   0.200
 3797SOL    HW111735   1.777   3.209   0.169
 3797SOL    HW211736   1.880   3.089   0.213
 3798SOL     OW11737   1.950   3.663   0.927
 3798SOL    HW111738   1.908   3.577   0.900
 3798SOL    HW211739   2.044   3.666   0.893
 3799SOL     OW11740   2.366   3.430   0.910
 3799SOL    HW111741   2.432   3.504   0.919
 3799SOL    HW211742   2.410   3.351   0.868
 3800SOL     OW11743   2.864   2.658   1.238
 3800SOL    HW111744   2.905   2.626   1.324
 3800SOL    HW211745   2.768   2.631   1.235
 3801SOL     OW11746   1.902   2.406   1.114
 3801SOL    HW111747   1.987   2.373   1.073
 3801SOL    HW211748   1.915   2.421   1.212
 3802SOL     OW11749   2.051   2.382   1.722
 3802SOL    HW111750   2.110   2.342   1.652
 3802SOL    HW211751   1.993   2.453   1.681
 3803SOL     OW11752   3.231   2.812   1.660
 3803SOL    HW111753   3.270   2.901   1.680
 3803SOL    HW211754   3.241   2.792   1.563
 3804SOL     OW11755   2.677   2.434   0.325
 3804SOL    HW111756   2.684   2.345   0.279
 3804SOL    HW211757   2.583   2.468   0.317
 3805SOL     OW11758   3.519   2.466   1.206
 3805SOL    HW111759   3.481   2.397   1.268
 3805SOL    HW211760   3.601   2.430   1.162
 3806SOL     OW11761   2.114   3.426   1.744
 3806SOL    HW111762   2.084   3.483   1.820
 3806SOL    HW211763   2.107   3.329   1.770
 3807SOL     OW11764   2.533   2.326   1.269
 3807SOL    HW111765   2.499   2.237   1.239
 3807SOL    HW211766   2.559   2.380   1.189
 3808SOL     OW11767   2.792   3.540   1.465
 3808SOL    HW111768   2.768   3.522   1.370
 3808SOL    HW211769   2.822   3.634   1.475
 3809SOL     OW11770   2.335   2.362   0.191
 3809SOL    HW111771   2.396   2.442   0.195
 3809SOL    HW211772   2.240   2.393   0.198
 3810SOL     OW11773   2.021   2.999   1.466
 3810SOL    HW111774   2.043   2.938   1.542
 3810SOL    HW211775   2.031   2.950   1.380
 3811SOL     OW11776   3.209   2.921   1.234
 3811SOL    HW111777   3.233   2.858   1.160
 3811SOL    HW211778   3.119   2.961   1.216
 3812SOL     OW11779   3.621   3.609   1.154
 3812SOL    HW111780   3.682   3.639   1.081
 3812SOL    HW211781   3.583   3.520   1.132
 3813SOL     OW11782   3.114   3.593   1.128
 3813SOL    HW111783   3.198   3.598   1.074
 3813SOL    HW211784   3.091   3.497   1.146
 3814SOL     OW11785   1.945   3.120   1.022
 3814SOL    HW111786   1.940   3.119   1.122
 3814SOL    HW211787   1.862   3.079   0.984
 3815SOL     OW11788   2.550   3.524   1.716
 3815SOL    HW111789   2.494   3.605   1.725
 3815SOL    HW211790   2.602   3.528   1.630
 3816SOL     OW11791   3.588   1.997   0.523
 3816SOL    HW111792   3.661   1.980   0.456
 3816SOL    HW211793   3.557   1.910   0.561
 3817SOL     OW11794   1.992   3.656   1.851
 3817SOL    HW111795   1.951   3.582   1.904
 3817SOL    HW211796   2.056   3.707   1.909
 3818SOL     OW11797   3.142   2.789   0.672
 3818SOL    HW111798   3.202   2.708   0.674
 3818SOL    HW211799   3.182   2.858   0.612
 3819SOL     OW11800   2.692   3.135   1.422
 3819SOL    HW111801   2.687   3.168   1.517
 3819SOL    HW211802   2.606   3.154   1.376
 3820SOL     OW11803   2.534   3.478   0.154
 3820SOL    HW111804   2.543   3.488   0.055
 3820SOL    HW211805   2.494   3.389   0.175
 3821SOL     OW11806   3.512   3.582   1.394
 3821SOL    HW111807   3.565   3.592   1.310
 3821SOL    HW211808   3.485   3.672   1.428
 3822SOL     OW11809   3.703   2.037   0.963
 3822SOL    HW111810   3.742   1.952   0.927
 3822SOL    HW211811   3.605   2.039   0.944
 3823SOL     OW11812   2.125   2.188   0.720
 3823SOL    HW111813   2.046   2.239   0.686
 3823SOL    HW211814   2.116   2.173   0.818
 3824SOL     OW11815   2.684   2.864   1.372
 3824SOL    HW111816   2.724   2.863   1.280
 3824SOL    HW211817   2.694   2.956   1.412
 3825SOL     OW11818   2.234   3.150   1.490
 3825SOL    HW111819   2.221   3.243   1.456
 3825SOL    HW211820   2.150   3.098   1.477
 3826SOL     OW11821   3.476   3.154   1.289
 3826SOL    HW111822   3.536   3.157   1.369
 3826SOL    HW211823   3.401   3.218   1.302
 3827SOL     OW11824   2.901   2.960   0.696
 3827SOL    HW111825   2.831   2.913   0.750
 3827SOL    HW211826   2.960   2.892   0.653
 3828SOL     OW11827   2.876   2.098   0.971
 3828SOL    HW111828   2.868   2.062   0.878
 3828SOL    HW211829   2.874   2.022   1.036
 3829SOL     OW11830   2.452   3.349   0.491
 3829SOL    HW111831   2.494   3.291   0.421
 3829SOL    HW211832   2.408   3.428   0.447
 3830SOL     OW11833   3.571   2.247   1.381
 3830SOL    HW111834   3.644   2.316   1.385
 3830SOL    HW211835   3.599   2.172   1.322
 3831SOL     OW11836   2.117   3.210   0.290
 3831SOL    HW111837   2.021   3.211   0.263
 3831SOL    HW211838   2.129   3.263   0.374
 3832SOL     OW11839   1.967   2.875   1.726
 3832SOL    HW111840   1.890   2.842   1.780
 3832SOL    HW211841   2.052   2.845   1.768
 3833SOL     OW11842   2.534   2.065   1.489
 3833SOL    HW111843   2.624   2.049   1.449
 3833SOL    HW211844   2.542   2.070   1.588
 3834SOL     OW11845   1.937   2.207   0.033
 3834SOL    HW111846   1.845   2.179   0.004
 3834SOL    HW211847   1.968   2.284  -0.023
 3835SOL     OW11848   3.302   2.718   1.398
 3835SOL    HW111849   3.245   2.770   1.335
 3835SOL    HW211850   3.398   2.730   1.374
 3836SOL     OW11851   1.934   2.028   0.318
 3836SOL    HW111852   1.917   2.111   0.264
 3836SOL    HW211853   2.024   1.991   0.296
 3837SOL     OW11854   2.475   2.704   1.431
 3837SOL    HW111855   2.531   2.785   1.414
 3837SOL    HW211856   2.534   2.624   1.434
 3838SOL     OW11857   3.355   3.629   0.959
 3838SOL    HW111858   3.388   3.693   0.890
 3838SOL    HW211859   3.421   3.623   1.034
 3839SOL     OW11860   2.578   2.427   1.708
 3839SOL    HW111861   2.597   2.492   1.782
 3839SOL    HW211862   2.638   2.347   1.717
 3840SOL     OW11863   3.312   3.082   1.633
 3840SOL    HW111864   3.303   3.072   1.732
 3840SOL    HW211865   3.408   3.075   1.607
 3841SOL     OW11866   2.252   3.603   1.560
 3841SOL    HW111867   2.161   3.644   1.558
 3841SOL    HW211868   2.245   3.509   1.592
 3842SOL     OW11869   3.536   2.745   1.254
 3842SOL    HW111870   3.509   2.656   1.217
 3842SOL    HW211871   3.537   2.813   1.181
 3843SOL     OW11872   2.456   2.607   0.652
 3843SOL    HW111873   2.506   2.692   0.633
 3843SOL    HW211874   2.368   2.609   0.604
 3844SOL     OW11875   3.639   2.204   1.642
 3844SOL    HW111876   3.622   2.235   1.548
 3844SOL    HW211877   3.555   2.167   1.680
 3845SOL     OW11878   3.592   2.796   1.517
 3845SOL    HW111879   3.630   2.887   1.532
 3845SOL    HW211880   3.584   2.779   1.418
 3846SOL     OW11881   2.523   3.652   0.953
 3846SOL    HW111882   2.477   3.740   0.940
 3846SOL    HW211883   2.622   3.664   0.946
 3847SOL     OW11884   2.721   2.818   0.861
 3847SOL    HW111885   2.775   2.749   0.909
 3847SOL    HW211886   2.689   2.887   0.927
 3848SOL     OW11887   3.723   3.431   0.851
 3848SOL    HW111888   3.652   3.419   0.781
 3848SOL    HW211889   3.724   3.352   0.911
 3849SOL     OW11890   2.083   3.176   1.844
 3849SOL    HW111891   2.018   3.103   1.823
 3849SOL    HW211892   2.087   3.190   1.942
 3850SOL     OW11893   1.941   3.102   0.653
 3850SOL    HW111894   1.940   3.055   0.741
 3850SOL    HW211895   2.023   3.074   0.602
 3851SOL     OW11896   2.534   3.253   1.624
 3851SOL    HW111897   2.456   3.203   1.662
 3851SOL    HW211898   2.531   3.348   1.655
 3852SOL     OW11899   3.686   2.054   1.227
 3852SOL    HW111900   3.682   1.964   1.271
 3852SOL    HW211901   3.689   2.043   1.128
 3853SOL     OW11902   2.290   2.286   0.520
 3853SOL    HW111903   2.320   2.214   0.458
 3853SOL    HW211904   2.251   2.246   0.603
 3854SOL     OW11905   3.567   3.349   1.104
 3854SOL    HW111906   3.474   3.324   1.077
 3854SOL    HW211907   3.593   3.299   1.186
 3855SOL     OW11908   2.179   2.409   1.280
 3855SOL    HW111909   2.217   2.350   1.352
 3855SOL    HW211910   2.219   2.383   1.192
 3856SOL     OW11911   2.674   3.448   0.687
 3856SOL    HW111912   2.706   3.458   0.593
 3856SOL    HW211913   2.595   3.386   0.689
 3857SOL     OW11914   3.286   2.076   1.112
 3857SOL    HW111915   3.338   2.011   1.167
 3857SOL    HW211916   3.237   2.139   1.173
 3858SOL     OW11917   2.863   1.896   1.154
 3858SOL    HW111918   2.800   1.824   1.123
 3858SOL    HW211919   2.956   1.860   1.154
 3859SOL     OW11920   2.480   3.429   1.284
 3859SOL    HW111921   2.475   3.511   1.341
 3859SOL    HW211922   2.569   3.426   1.239
 3860SOL     OW11923   3.214   1.914   0.168
 3860SOL    HW111924   3.249   1.873   0.084
 3860SOL    HW211925   3.124   1.876   0.188
 3861SOL     OW11926   3.162   2.315   0.691
 3861SOL    HW111927   3.103   2.395   0.695
 3861SOL    HW211928   3.177   2.280   0.784
 3862SOL     OW11929   3.455   2.083   0.882
 3862SOL    HW111930   3.371   2.082   0.936
 3862SOL    HW211931   3.457   2.166   0.826
 3863SOL     OW11932   1.901   2.939   0.300
 3863SOL    HW111933   2.000   2.928   0.291
 3863SOL    HW211934   1.861   2.853   0.332
 3864SOL     OW11935   2.737   3.508   0.337
 3864SOL    HW111936   2.660   3.473   0.283
 3864SOL    HW211937   2.705   3.579   0.399
 3865SOL     OW11938   2.092   2.490   1.975
 3865SOL    HW111939   1.999   2.488   2.012
 3865SOL    HW211940   2.093   2.451   1.883
 3866SOL     OW11941   2.087   2.137   2.858
 3866SOL    HW111942   2.122   2.120   2.950
 3866SOL    HW211943   1.999   2.092   2.846
 3867SOL     OW11944   1.881   2.230   2.509
 3867SOL    HW111945   1.799   2.273   2.548
 3867SOL    HW211946   1.853   2.157   2.446
 3868SOL     OW11947   2.431   3.137   3.027
 3868SOL    HW111948   2.338   3.130   2.990
 3868SOL    HW211949   2.442   3.226   3.071
 3869SOL     OW11950   3.417   3.373   2.565
 3869SOL    HW111951   3.360   3.357   2.646
 3869SOL    HW211952   3.358   3.383   2.485
 3870SOL     OW11953   2.997   2.565   2.579
 3870SOL    HW111954   3.054   2.643   2.554
 3870SOL    HW211955   2.937   2.591   2.655
 3871SOL     OW11956   3.617   2.469   2.093
 3871SOL    HW111957   3.605   2.456   1.994
 3871SOL    HW211958   3.587   2.388   2.142
 3872SOL     OW11959   2.630   3.006   2.885
 3872SOL    HW111960   2.552   3.023   2.945
 3872SOL    HW211961   2.664   3.093   2.849
 3873SOL     OW11962   2.712   2.660   3.685
 3873SOL    HW111963   2.708   2.736   3.750
 3873SOL    HW211964   2.734   2.696   3.594
 3874SOL     OW11965   2.547   2.874   2.527
 3874SOL    HW111966   2.616   2.858   2.597
 3874SOL    HW211967   2.474   2.931   2.565
 3875SOL     OW11968   2.548   3.023   3.665
 3875SOL    HW111969   2.608   3.102   3.679
 3875SOL    HW211970   2.462   3.054   3.624
 3876SOL     OW11971   2.197   3.297   2.923
 3876SOL    HW111972   2.119   3.266   2.870
 3876SOL    HW211973   2.255   3.355   2.866
 3877SOL     OW11974   3.322   3.367   3.201
 3877SOL    HW111975   3.346   3.461   3.227
 3877SOL    HW211976   3.306   3.313   3.283
 3878SOL     OW11977   2.300   2.254   3.361
 3878SOL    HW111978   2.382   2.198   3.370
 3878SOL    HW211979   2.219   2.196   3.365
 3879SOL     OW11980   3.465   2.309   2.599
 3879SOL    HW111981   3.391   2.355   2.549
 3879SOL    HW211982   3.516   2.377   2.652
 3880SOL     OW11983   2.093   3.575   2.345
 3880SOL    HW111984   2.127   3.652   2.399
 3880SOL    HW211985   2.137   3.575   2.255
 3881SOL     OW11986   2.989   3.203   3.552
 3881SOL    HW111987   3.036   3.203   3.640
 3881SOL    HW211988   2.941   3.116   3.541
 3882SOL     OW11989   2.092   3.296   2.400
 3882SOL    HW111990   2.066   3.392   2.400
 3882SOL    HW211991   2.021   3.242   2.445
 3883SOL     OW11992   2.102   2.953   2.748
 3883SOL    HW111993   2.116   2.869   2.800
 3883SOL    HW211994   2.047   3.017   2.803
 3884SOL     OW11995   2.482   3.648   3.301
 3884SOL    HW111996   2.390   3.631   3.336
 3884SOL    HW211997   2.510   3.740   3.327
 3885SOL     OW11998   2.468   2.826   1.985
 3885SOL    HW111999   2.475   2.910   1.931
 3885SOL    HW212000   2.514   2.839   2.073
 3886SOL     OW12001   3.456   1.976   3.342
 3886SOL    HW112002   3.438   2.043   3.270
 3886SOL    HW212003   3.453   2.022   3.431
 3887SOL     OW12004   1.984   2.505   2.425
 3887SOL    HW112005   1.939   2.417   2.442
 3887SOL    HW212006   1.983   2.559   2.509
 3888SOL     OW12007   3.704   3.629   2.221
 3888SOL    HW112008   3.758   3.600   2.301
 3888SOL    HW212009   3.734   3.719   2.192
 3889SOL     OW12010   1.889   3.458   1.979
 3889SOL    HW112011   1.870   3.362   2.000
 3889SOL    HW212012   1.856   3.516   2.054
 3890SOL     OW12013   3.551   2.784   2.474
 3890SOL    HW112014   3.646   2.755   2.482
 3890SOL    HW212015   3.543   2.849   2.399
 3891SOL     OW12016   3.503   2.970   2.294
 3891SOL    HW112017   3.589   2.972   2.242
 3891SOL    HW212018   3.517   3.017   2.382
 3892SOL     OW12019   1.975   2.599   3.459
 3892SOL    HW112020   2.063   2.586   3.504
 3892SOL    HW212021   1.962   2.696   3.437
 3893SOL     OW12022   2.475   3.227   2.588
 3893SOL    HW112023   2.426   3.140   2.597
 3893SOL    HW212024   2.452   3.270   2.501
 3894SOL     OW12025   3.155   3.090   3.285
 3894SOL    HW112026   3.192   3.017   3.227
 3894SOL    HW212027   3.207   3.095   3.370
 3895SOL     OW12028   2.671   1.866   2.364
 3895SOL    HW112029   2.711   1.957   2.355
 3895SOL    HW212030   2.571   1.874   2.370
 3896SOL     OW12031   2.059   2.838   3.126
 3896SOL    HW112032   2.148   2.793   3.112
 3896SOL    HW212033   1.986   2.773   3.107
 3897SOL     OW12034   3.387   2.861   2.052
 3897SOL    HW112035   3.324   2.785   2.065
 3897SOL    HW212036   3.435   2.879   2.138
 3898SOL     OW12037   3.049   3.654   3.478
 3898SOL    HW112038   3.073   3.714   3.402
 3898SOL    HW212039   3.056   3.559   3.448
 3899SOL     OW12040   2.179   2.113   3.663
 3899SOL    HW112041   2.250   2.184   3.669
 3899SOL    HW212042   2.091   2.152   3.691
 3900SOL     OW12043   3.328   3.279   2.815
 3900SOL    HW112044   3.269   3.285   2.895
 3900SOL    HW212045   3.313   3.191   2.769
 3901SOL     OW12046   3.529   3.576   2.434
 3901SOL    HW112047   3.488   3.553   2.346
 3901SOL    HW212048   3.511   3.502   2.499
 3902SOL     OW12049   2.460   2.591   2.132
 3902SOL    HW112050   2.484   2.660   2.064
 3902SOL    HW212051   2.382   2.624   2.186
 3903SOL     OW12052   3.143   2.207   2.806
 3903SOL    HW112053   3.057   2.157   2.793
 3903SOL    HW212054   3.205   2.153   2.862
 3904SOL     OW12055   3.438   3.524   2.169
 3904SOL    HW112056   3.527   3.570   2.172
 3904SOL    HW212057   3.417   3.500   2.074
 3905SOL     OW12058   2.669   2.467   3.327
 3905SOL    HW112059   2.622   2.464   3.416
 3905SOL    HW212060   2.618   2.412   3.261
 3906SOL     OW12061   3.256   2.331   3.536
 3906SOL    HW112062   3.236   2.374   3.624
 3906SOL    HW212063   3.334   2.269   3.545
 3907SOL     OW12064   2.835   2.752   3.434
 3907SOL    HW112065   2.881   2.668   3.405
 3907SOL    HW212066   2.779   2.786   3.359
 3908SOL     OW12067   2.853   2.272   3.104
 3908SOL    HW112068   2.776   2.306   3.158
 3908SOL    HW212069   2.819   2.221   3.025
 3909SOL     OW12070   2.903   2.563   2.291
 3909SOL    HW112071   2.929   2.559   2.387
 3909SOL    HW212072   2.818   2.512   2.277
 3910SOL     OW12073   1.938   2.673   2.651
 3910SOL    HW112074   2.037   2.661   2.660
 3910SOL    HW212075   1.914   2.768   2.672
 3911SOL     OW12076   1.992   3.683   3.433
 3911SOL    HW112077   1.982   3.668   3.532
 3911SOL    HW212078   1.906   3.719   3.397
 3912SOL     OW12079   2.727   2.210   2.057
 3912SOL    HW112080   2.786   2.273   2.008
 3912SOL    HW212081   2.746   2.116   2.028
 3913SOL     OW12082   3.581   2.447   3.693
 3913SOL    HW112083   3.555   2.536   3.657
 3913SOL    HW212084   3.579   2.379   3.620
 3914SOL     OW12085   3.224   3.006   2.407
 3914SOL    HW112086   3.307   2.977   2.359
 3914SOL    HW212087   3.175   3.073   2.351
 3915SOL     OW12088   2.412   2.058   2.747
 3915SOL    HW112089   2.407   2.053   2.847
 3915SOL    HW212090   2.414   2.154   2.718
 3916SOL     OW12091   2.870   3.318   2.339
 3916SOL    HW112092   2.824   3.390   2.287
 3916SOL    HW212093   2.866   3.338   2.437
 3917SOL     OW12094   2.213   3.663   2.715
 3917SOL    HW112095   2.263   3.577   2.721
 3917SOL    HW212096   2.278   3.740   2.712
 3918SOL     OW12097   3.657   2.928   2.735
 3918SOL    HW112098   3.595   2.913   2.659
 3918SOL    HW212099   3.605   2.939   2.820
 3919SOL     OW12100   3.089   3.412   3.368
 3919SOL    HW112101   3.095   3.335   3.432
 3919SOL    HW212102   3.037   3.386   3.288
 3920SOL     OW12103   2.183   2.805   2.104
 3920SOL    HW112104   2.265   2.844   2.062
 3920SOL    HW212105   2.156   2.723   2.055
 3921SOL     OW12106   3.320   2.597   2.590
 3921SOL    HW112107   3.315   2.532   2.665
 3921SOL    HW212108   3.400   2.656   2.603
 3922SOL     OW12109   2.323   3.128   3.589
 3922SOL    HW112110   2.273   3.129   3.503
 3922SOL    HW212111   2.260   3.110   3.665
 3923SOL     OW12112   2.973   3.638   2.099
 3923SOL    HW112113   2.913   3.576   2.149
 3923SOL    HW212114   3.004   3.594   2.014
 3924SOL     OW12115   2.064   2.147   3.360
 3924SOL    HW112116   1.984   2.207   3.347
 3924SOL    HW212117   2.054   2.098   3.446
 3925SOL     OW12118   3.494   3.239   1.943
 3925SOL    HW112119   3.462   3.333   1.933
 3925SOL    HW212120   3.418   3.176   1.931
 3926SOL     OW12121   2.326   3.605   2.185
 3926SOL    HW112122   2.359   3.644   2.271
 3926SOL    HW212123   2.402   3.598   2.120
 3927SOL     OW12124   3.262   1.969   2.288
 3927SOL    HW112125   3.238   1.932   2.198
 3927SOL    HW212126   3.361   1.985   2.292
 3928SOL     OW12127   2.111   3.647   3.103
 3928SOL    HW112128   2.168   3.582   3.153
 3928SOL    HW212129   2.095   3.614   3.010
 3929SOL     OW12130   2.802   3.560   2.766
 3929SOL    HW112131   2.882   3.503   2.787
 3929SOL    HW212132   2.753   3.520   2.689
 3930SOL     OW12133   2.244   2.562   2.342
 3930SOL    HW112134   2.289   2.472   2.339
 3930SOL    HW212135   2.150   2.551   2.375
 3931SOL     OW12136   3.409   2.084   3.591
 3931SOL    HW112137   3.404   2.121   3.683
 3931SOL    HW212138   3.337   2.015   3.579
 3932SOL     OW12139   2.476   1.984   1.979
 3932SOL    HW112140   2.574   1.962   1.986
 3932SOL    HW212141   2.445   1.967   1.886
 3933SOL     OW12142   2.643   2.126   3.611
 3933SOL    HW112143   2.710   2.065   3.654
 3933SOL    HW212144   2.570   2.145   3.676
 3934SOL     OW12145   2.750   3.376   3.057
 3934SOL    HW112146   2.727   3.351   2.963
 3934SOL    HW212147   2.811   3.307   3.096
 3935SOL     OW12148   3.213   2.452   3.295
 3935SOL    HW112149   3.241   2.409   3.380
 3935SOL    HW212150   3.238   2.548   3.296
 3936SOL     OW12151   2.665   3.264   2.786
 3936SOL    HW112152   2.755   3.278   2.744
 3936SOL    HW212153   2.594   3.266   2.715
 3937SOL     OW12154   2.784   2.365   2.761
 3937SOL    HW112155   2.759   2.356   2.665
 3937SOL    HW212156   2.832   2.283   2.792
 3938SOL     OW12157   2.401   1.926   2.374
 3938SOL    HW112158   2.320   1.927   2.432
 3938SOL    HW212159   2.404   2.009   2.319
 3939SOL     OW12160   3.296   3.050   1.903
 3939SOL    HW112161   3.328   2.974   1.960
 3939SOL    HW212162   3.204   3.077   1.933
 3940SOL     OW12163   2.159   1.897   2.033
 3940SOL    HW112164   2.208   1.981   2.012
 3940SOL    HW212165   2.221   1.832   2.078
 3941SOL     OW12166   2.797   2.098   2.342
 3941SOL    HW112167   2.749   2.139   2.264
 3941SOL    HW212168   2.896   2.096   2.323
 3942SOL     OW12169   2.938   2.545   3.326
 3942SOL    HW112170   2.858   2.484   3.329
 3942SOL    HW212171   3.019   2.492   3.302
 3943SOL     OW12172   3.089   3.432   2.655
 3943SOL    HW112173   3.110   3.506   2.590
 3943SOL    HW212174   3.157   3.432   2.728
 3944SOL     OW12175   2.321   3.014   2.603
 3944SOL    HW112176   2.250   2.987   2.668
 3944SOL    HW212177   2.295   2.986   2.510
 3945SOL     OW12178   3.133   3.659   2.453
 3945SOL    HW112179   3.177   3.723   2.389
 3945SOL    HW212180   3.083   3.711   2.523
 3946SOL     OW12181   2.894   2.411   1.878
 3946SOL    HW112182   2.853   2.493   1.839
 3946SOL    HW212183   2.958   2.437   1.951
 3947SOL     OW12184   1.940   2.418   3.248
 3947SOL    HW112185   2.032   2.417   3.207
 3947SOL    HW212186   1.934   2.492   3.315
 3948SOL     OW12187   2.423   2.084   3.009
 3948SOL    HW112188   2.461   2.000   3.046
 3948SOL    HW212189   2.335   2.103   3.053
 3949SOL     OW12190   2.728   2.316   2.504
 3949SOL    HW112191   2.696   2.388   2.442
 3949SOL    HW212192   2.752   2.235   2.451
 3950SOL     OW12193   2.879   1.901   2.615
 3950SOL    HW112194   2.807   1.906   2.546
 3950SOL    HW212195   2.855   1.832   2.684
 3951SOL     OW12196   3.291   3.035   2.729
 3951SOL    HW112197   3.236   2.951   2.722
 3951SOL    HW212198   3.317   3.064   2.637
 3952SOL     OW12199   3.328   2.452   2.854
 3952SOL    HW112200   3.298   2.357   2.861
 3952SOL    HW212201   3.401   2.468   2.920
 3953SOL     OW12202   3.719   2.695   2.239
 3953SOL    HW112203   3.761   2.631   2.303
 3953SOL    HW212204   3.681   2.644   2.161
 3954SOL     OW12205   2.350   3.247   2.036
 3954SOL    HW112206   2.263   3.232   2.083
 3954SOL    HW212207   2.333   3.273   1.941
 3955SOL     OW12208   3.526   3.142   2.519
 3955SOL    HW112209   3.625   3.150   2.533
 3955SOL    HW212210   3.481   3.226   2.550
 3956SOL     OW12211   3.252   2.437   1.940
 3956SOL    HW112212   3.198   2.416   2.021
 3956SOL    HW212213   3.343   2.396   1.949
 3957SOL     OW12214   2.389   2.118   2.190
 3957SOL    HW112215   2.416   2.059   2.115
 3957SOL    HW212216   2.389   2.213   2.159
 3958SOL     OW12217   3.616   3.085   3.450
 3958SOL    HW112218   3.707   3.046   3.437
 3958SOL    HW212219   3.624   3.181   3.474
 3959SOL     OW12220   2.926   3.209   3.202
 3959SOL    HW112221   2.846   3.186   3.257
 3959SOL    HW212222   3.009   3.183   3.251
 3960SOL     OW12223   3.454   3.491   3.487
 3960SOL    HW112224   3.481   3.525   3.397
 3960SOL    HW212225   3.533   3.453   3.533
 3961SOL     OW12226   2.973   3.057   2.962
 3961SOL    HW112227   2.933   3.101   3.043
 3961SOL    HW212228   2.932   3.094   2.879
 3962SOL     OW12229   3.500   2.961   2.941
 3962SOL    HW112230   3.505   3.042   3.000
 3962SOL    HW212231   3.414   2.963   2.890
 3963SOL     OW12232   2.777   1.951   3.264
 3963SOL    HW112233   2.802   1.931   3.169
 3963SOL    HW212234   2.849   2.007   3.306
 3964SOL     OW12235   2.842   2.978   3.581
 3964SOL    HW112236   2.743   2.984   3.591
 3964SOL    HW212237   2.865   2.898   3.525
 3965SOL     OW12238   2.567   2.912   2.230
 3965SOL    HW112239   2.553   2.919   2.329
 3965SOL    HW212240   2.651   2.861   2.212
 3966SOL     OW12241   2.272   2.675   3.113
 3966SOL    HW112242   2.358   2.687   3.163
 3966SOL    HW212243   2.230   2.588   3.140
 3967SOL     OW12244   3.136   2.248   3.124
 3967SOL    HW112245   3.157   2.322   3.188
 3967SOL    HW212246   3.047   2.265   3.081
 3968SOL     OW12247   1.926   3.426   3.193
 3968SOL    HW112248   1.880   3.508   3.159
 3968SOL    HW212249   2.024   3.445   3.202
 3969SOL     OW12250   2.229   2.962   2.363
 3969SOL    HW112251   2.222   3.045   2.307
 3969SOL    HW212252   2.233   2.882   2.303
 3970SOL     OW12253   2.428   2.399   2.727
 3970SOL    HW112254   2.440   2.465   2.653
 3970SOL    HW212255   2.474   2.433   2.810
 3971SOL     OW12256   3.114   3.210   2.250
 3971SOL    HW112257   3.164   3.287   2.290
 3971SOL    HW212258   3.019   3.212   2.282
 3972SOL     OW12259   3.134   3.307   3.004
 3972SOL    HW112260   3.181   3.320   3.091
 3972SOL    HW212261   3.068   3.233   3.013
 3973SOL     OW12262   3.444   2.501   2.334
 3973SOL    HW112263   3.413   2.562   2.407
 3973SOL    HW212264   3.494   2.553   2.265
 3974SOL     OW12265   2.216   3.372   3.191
 3974SOL    HW112266   2.195   3.328   3.104
 3974SOL    HW212267   2.313   3.398   3.194
 3975SOL     OW12268   2.264   2.613   3.460
 3975SOL    HW112269   2.332   2.668   3.413
 3975SOL    HW212270   2.304   2.525   3.487
 3976SOL     OW12271   3.449   2.641   3.532
 3976SOL    HW112272   3.357   2.679   3.527
 3976SOL    HW212273   3.509   2.688   3.467
 3977SOL     OW12274   2.875   1.967   3.632
 3977SOL    HW112275   2.881   2.052   3.580
 3977SOL    HW212276   2.907   1.891   3.575
 3978SOL     OW12277   2.366   1.912   3.602
 3978SOL    HW112278   2.324   1.855   3.532
 3978SOL    HW212279   2.300   1.981   3.634
 3979SOL     OW12280   2.435   2.732   2.891
 3979SOL    HW112281   2.479   2.821   2.882
 3979SOL    HW212282   2.372   2.732   2.968
 3980SOL     OW12283   3.222   2.724   2.907
 3980SOL    HW112284   3.147   2.724   2.841
 3980SOL    HW212285   3.259   2.632   2.916
 3981SOL     OW12286   3.071   2.387   2.137
 3981SOL    HW112287   3.084   2.303   2.191
 3981SOL    HW212288   3.042   2.461   2.197
 3982SOL     OW12289   2.169   2.075   3.093
 3982SOL    HW112290   2.146   2.112   3.183
 3982SOL    HW212291   2.139   1.980   3.087
 3983SOL     OW12292   1.899   3.172   3.144
 3983SOL    HW112293   1.952   3.123   3.212
 3983SOL    HW212294   1.921   3.270   3.149
 3984SOL     OW12295   2.594   2.496   2.926
 3984SOL    HW112296   2.653   2.470   2.850
 3984SOL    HW212297   2.566   2.592   2.915
 3985SOL     OW12298   3.590   2.797   3.716
 3985SOL    HW112299   3.544   2.790   3.627
 3985SOL    HW212300   3.528   2.841   3.782
 3986SOL     OW12301   2.169   1.925   2.480
 3986SOL    HW112302   2.158   2.019   2.513
 3986SOL    HW212303   2.164   1.862   2.557
 3987SOL     OW12304   3.484   2.229   2.236
 3987SOL    HW112305   3.486   2.153   2.300
 3987SOL    HW212306   3.436   2.306   2.276
 3988SOL     OW12307   2.885   2.628   2.828
 3988SOL    HW112308   2.900   2.649   2.924
 3988SOL    HW212309   2.855   2.533   2.819
 3989SOL     OW12310   2.842   3.435   3.562
 3989SOL    HW112311   2.822   3.479   3.474
 3989SOL    HW212312   2.881   3.344   3.546
 3990SOL     OW12313   3.721   3.380   3.467
 3990SOL    HW112314   3.735   3.407   3.372
 3990SOL    HW212315   3.804   3.402   3.520
 3991SOL     OW12316   2.212   2.760   3.666
 3991SOL    HW112317   2.288   2.804   3.714
 3991SOL    HW212318   2.247   2.713   3.584
 3992SOL     OW12319   3.402   2.136   1.987
 3992SOL    HW112320   3.341   2.061   2.010
 3992SOL    HW212321   3.424   2.188   2.070
 3993SOL     OW12322   3.165   2.700   1.904
 3993SOL    HW112323   3.199   2.607   1.919
 3993SOL    HW212324   3.183   2.727   1.809
 3994SOL     OW12325   2.930   3.195   2.711
 3994SOL    HW112326   2.937   3.111   2.656
 3994SOL    HW212327   2.992   3.264   2.675
 3995SOL     OW12328   2.181   2.672   2.811
 3995SOL    HW112329   2.274   2.708   2.816
 3995SOL    HW212330   2.175   2.587   2.863
 3996SOL     OW12331   2.201   2.371   2.868
 3996SOL    HW112332   2.149   2.288   2.851
 3996SOL    HW212333   2.278   2.376   2.804
 3997SOL     OW12334   3.000   2.242   3.540
 3997SOL    HW112335   2.955   2.305   3.604
 3997SOL    HW212336   3.093   2.273   3.523
 3998SOL     OW12337   3.022   2.069   3.339
 3998SOL    HW112338   3.022   2.133   3.416
 3998SOL    HW212339   3.050   2.117   3.256
 3999SOL     OW12340   1.870   3.188   2.062
 3999SOL    HW112341   1.777   3.209   2.031
 3999SOL    HW212342   1.880   3.089   2.075
 4000SOL     OW12343   1.950   3.663   2.789
 4000SOL    HW112344   1.908   3.577   2.762
 4000SOL    HW212345   2.044   3.666   2.755
 4001SOL     OW12346   2.366   3.430   2.772
 4001SOL    HW112347   2.432   3.504   2.781
 4001SOL    HW212348   2.410   3.351   2.730
 4002SOL     OW12349   2.864   2.658   3.100
 4002SOL    HW112350   2.905   2.626   3.186
 4002SOL    HW212351   2.768   2.631   3.097
 4003SOL     OW12352   1.902   2.406   2.976
 4003SOL    HW112353   1.987   2.373   2.935
 4003SOL    HW212354   1.915   2.421   3.074
 4004SOL     OW12355   2.051   2.382   3.584
 4004SOL    HW112356   2.110   2.342   3.514
 4004SOL    HW212357   1.993   2.453   3.543
 4005SOL     OW12358   3.231   2.812   3.522
 4005SOL    HW112359   3.270   2.901   3.542
 4005SOL    HW212360   3.241   2.792   3.425
 4006SOL     OW12361   2.677   2.434   2.187
 4006SOL    HW112362   2.684   2.345   2.141
 4006SOL    HW212363   2.583   2.468   2.179
 4007SOL     OW12364   3.519   2.466   3.068
 4007SOL    HW112365   3.481   2.397   3.130
 4007SOL    HW212366   3.601   2.430   3.024
 4008SOL     OW12367   2.114   3.426   3.606
 4008SOL    HW112368   2.084   3.483   3.682
 4008SOL    HW212369   2.107   3.329   3.632
 4009SOL     OW12370   2.533   2.326   3.131
 4009SOL    HW112371   2.499   2.237   3.101
 4009SOL    HW212372   2.559   2.380   3.051
 4010SOL     OW12373   2.792   3.540   3.327
 4010SOL    HW112374   2.768   3.522   3.232
 4010SOL    HW212375   2.822   3.634   3.337
 4011SOL     OW12376   2.335   2.362   2.053
 4011SOL    HW112377   2.396   2.442   2.057
 4011SOL    HW212378   2.240   2.393   2.060
 4012SOL     OW12379   2.021   2.999   3.328
 4012SOL    HW112380   2.043   2.938   3.404
 4012SOL    HW212381   2.031   2.950   3.242
 4013SOL     OW12382   3.209   2.921   3.096
 4013SOL    HW112383   3.233   2.858   3.022
 4013SOL    HW212384   3.119   2.961   3.078
 4014SOL     OW12385   3.164   2.717   2.171
 4014SOL    HW112386   3.078   2.686   2.213
 4014SOL    HW212387   3.160   2.703   2.072
 4015SOL     OW12388   3.621   3.609   3.016
 4015SOL    HW112389   3.682   3.639   2.943
 4015SOL    HW212390   3.583   3.520   2.994
 4016SOL     OW12391   3.114   3.593   2.990
 4016SOL    HW112392   3.198   3.598   2.936
 4016SOL    HW212393   3.091   3.497   3.008
 4017SOL     OW12394   1.945   3.120   2.884
 4017SOL    HW112395   1.940   3.119   2.984
 4017SOL    HW212396   1.862   3.079   2.846
 4018SOL     OW12397   2.550   3.524   3.578
 4018SOL    HW112398   2.494   3.605   3.587
 4018SOL    HW212399   2.602   3.528   3.492
 4019SOL     OW12400   3.588   1.997   2.385
 4019SOL    HW112401   3.661   1.980   2.318
 4019SOL    HW212402   3.557   1.910   2.423
 4020SOL     OW12403   3.250   3.435   2.339
 4020SOL    HW112404   3.317   3.447   2.265
 4020SOL    HW212405   3.210   3.524   2.362
 4021SOL     OW12406   1.992   3.656   3.713
 4021SOL    HW112407   1.951   3.582   3.766
 4021SOL    HW212408   2.056   3.707   3.771
 4022SOL     OW12409   3.142   2.789   2.534
 4022SOL    HW112410   3.202   2.708   2.536
 4022SOL    HW212411   3.182   2.858   2.474
 4023SOL     OW12412   2.692   3.135   3.284
 4023SOL    HW112413   2.687   3.168   3.379
 4023SOL    HW212414   2.606   3.154   3.238
 4024SOL     OW12415   2.534   3.478   2.016
 4024SOL    HW112416   2.543   3.488   1.917
 4024SOL    HW212417   2.494   3.389   2.037
 4025SOL     OW12418   3.512   3.582   3.256
 4025SOL    HW112419   3.565   3.592   3.172
 4025SOL    HW212420   3.485   3.672   3.290
 4026SOL     OW12421   3.703   2.037   2.825
 4026SOL    HW112422   3.742   1.952   2.789
 4026SOL    HW212423   3.605   2.039   2.806
 4027SOL     OW12424   2.125   2.188   2.582
 4027SOL    HW112425   2.046   2.239   2.548
 4027SOL    HW212426   2.116   2.173   2.680
 4028SOL     OW12427   3.056   3.474   1.893
 4028SOL    HW112428   3.062   3.381   1.930
 4028SOL    HW212429   2.997   3.474   1.813
 4029SOL     OW12430   2.684   2.864   3.234
 4029SOL    HW112431   2.724   2.863   3.142
 4029SOL    HW212432   2.694   2.956   3.274
 4030SOL     OW12433   2.778   2.772   2.153
 4030SOL    HW112434   2.841   2.810   2.085
 4030SOL    HW212435   2.818   2.689   2.192
 4031SOL     OW12436   3.366   3.469   1.906
 4031SOL    HW112437   3.274   3.506   1.913
 4031SOL    HW212438   3.404   3.489   1.816
 4032SOL     OW12439   2.234   3.150   3.352
 4032SOL    HW112440   2.221   3.243   3.318
 4032SOL    HW212441   2.150   3.098   3.339
 4033SOL     OW12442   3.476   3.154   3.151
 4033SOL    HW112443   3.536   3.157   3.231
 4033SOL    HW212444   3.401   3.218   3.164
 4034SOL     OW12445   2.901   2.960   2.558
 4034SOL    HW112446   2.831   2.913   2.612
 4034SOL    HW212447   2.960   2.892   2.515
 4035SOL     OW12448   2.876   2.098   2.833
 4035SOL    HW112449   2.868   2.062   2.740
 4035SOL    HW212450   2.874   2.022   2.898
 4036SOL     OW12451   2.452   3.349   2.353
 4036SOL    HW112452   2.494   3.291   2.283
 4036SOL    HW212453   2.408   3.428   2.309
 4037SOL     OW12454   3.571   2.247   3.243
 4037SOL    HW112455   3.644   2.316   3.247
 4037SOL    HW212456   3.599   2.172   3.184
 4038SOL     OW12457   2.117   3.210   2.152
 4038SOL    HW112458   2.021   3.211   2.125
 4038SOL    HW212459   2.129   3.263   2.236
 4039SOL     OW12460   1.967   2.875   3.588
 4039SOL    HW112461   1.890   2.842   3.642
 4039SOL    HW212462   2.052   2.845   3.630
 4040SOL     OW12463   2.534   2.065   3.351
 4040SOL    HW112464   2.624   2.049   3.311
 4040SOL    HW212465   2.542   2.070   3.450
 4041SOL     OW12466   1.937   2.207   1.895
 4041SOL    HW112467   1.845   2.179   1.866
 4041SOL    HW212468   1.968   2.284   1.839
 4042SOL     OW12469   3.302   2.718   3.260
 4042SOL    HW112470   3.245   2.770   3.197
 4042SOL    HW212471   3.398   2.730   3.236
 4043SOL     OW12472   1.934   2.028   2.180
 4043SOL    HW112473   1.917   2.111   2.126
 4043SOL    HW212474   2.024   1.991   2.158
 4044SOL     OW12475   3.045   3.197   1.981
 4044SOL    HW112476   2.946   3.186   1.983
 4044SOL    HW212477   3.079   3.212   2.074
 4045SOL     OW12478   2.475   2.704   3.293
 4045SOL    HW112479   2.531   2.785   3.276
 4045SOL    HW212480   2.534   2.624   3.296
 4046SOL     OW12481   3.355   3.629   2.821
 4046SOL    HW112482   3.388   3.693   2.752
 4046SOL    HW212483   3.421   3.623   2.896
 4047SOL     OW12484   2.578   2.427   3.570
 4047SOL    HW112485   2.597   2.492   3.644
 4047SOL    HW212486   2.638   2.347   3.579
 4048SOL     OW12487   3.312   3.082   3.495
 4048SOL    HW112488   3.303   3.072   3.594
 4048SOL    HW212489   3.408   3.075   3.469
 4049SOL     OW12490   2.252   3.603   3.422
 4049SOL    HW112491   2.161   3.644   3.420
 4049SOL    HW212492   2.245   3.509   3.454
 4050SOL     OW12493   3.536   2.745   3.116
 4050SOL    HW112494   3.509   2.656   3.079
 4050SOL    HW212495   3.537   2.813   3.043
 4051SOL     OW12496   3.087   2.187   2.311
 4051SOL    HW112497   3.152   2.113   2.300
 4051SOL    HW212498   3.107   2.237   2.395
 4052SOL     OW12499   2.456   2.607   2.514
 4052SOL    HW112500   2.506   2.692   2.495
 4052SOL    HW212501   2.368   2.609   2.466
 4053SOL     OW12502   3.639   2.204   3.504
 4053SOL    HW112503   3.622   2.235   3.410
 4053SOL    HW212504   3.555   2.167   3.542
 4054SOL     OW12505   3.592   2.796   3.379
 4054SOL    HW112506   3.630   2.887   3.394
 4054SOL    HW212507   3.584   2.779   3.280
 4055SOL     OW12508   2.721   3.236   1.878
 4055SOL    HW112509   2.675   3.251   1.966
 4055SOL    HW212510   2.765   3.321   1.848
 4056SOL     OW12511   2.523   3.652   2.815
 4056SOL    HW112512   2.477   3.740   2.802
 4056SOL    HW212513   2.622   3.664   2.808
 4057SOL     OW12514   2.721   2.818   2.723
 4057SOL    HW112515   2.775   2.749   2.771
 4057SOL    HW212516   2.689   2.887   2.789
 4058SOL     OW12517   2.945   2.846   1.949
 4058SOL    HW112518   2.922   2.899   1.867
 4058SOL    HW212519   3.026   2.790   1.930
 4059SOL     OW12520   3.723   3.431   2.713
 4059SOL    HW112521   3.652   3.419   2.643
 4059SOL    HW212522   3.724   3.352   2.773
 4060SOL     OW12523   2.083   3.176   3.706
 4060SOL    HW112524   2.018   3.103   3.685
 4060SOL    HW212525   2.087   3.190   3.804
 4061SOL     OW12526   1.941   3.102   2.515
 4061SOL    HW112527   1.940   3.055   2.603
 4061SOL    HW212528   2.023   3.074   2.464
 4062SOL     OW12529   2.534   3.253   3.486
 4062SOL    HW112530   2.456   3.203   3.524
 4062SOL    HW212531   2.531   3.348   3.517
 4063SOL     OW12532   3.686   2.054   3.089
 4063SOL    HW112533   3.682   1.964   3.133
 4063SOL    HW212534   3.689   2.043   2.990
 4064SOL     OW12535   2.290   2.286   2.382
 4064SOL    HW112536   2.320   2.214   2.320
 4064SOL    HW212537   2.251   2.246   2.465
 4065SOL     OW12538   3.567   3.349   2.966
 4065SOL    HW112539   3.474   3.324   2.939
 4065SOL    HW212540   3.593   3.299   3.048
 4066SOL     OW12541   2.179   2.409   3.142
 4066SOL    HW112542   2.217   2.350   3.214
 4066SOL    HW212543   2.219   2.383   3.054
 4067SOL     OW12544   2.674   3.448   2.549
 4067SOL    HW112545   2.706   3.458   2.455
 4067SOL    HW212546   2.595   3.386   2.551
 4068SOL     OW12547   3.286   2.076   2.974
 4068SOL    HW112548   3.338   2.011   3.029
 4068SOL    HW212549   3.237   2.139   3.035
 4069SOL     OW12550   2.863   1.896   3.016
 4069SOL    HW112551   2.800   1.824   2.985
 4069SOL    HW212552   2.956   1.860   3.016
 4070SOL     OW12553   2.632   3.192   2.163
 4070SOL    HW112554   2.586   3.105   2.180
 4070SOL    HW212555   2.723   3.189   2.204
 4071SOL     OW12556   2.480   3.429   3.146
 4071SOL    HW112557   2.475   3.511   3.203
 4071SOL    HW212558   2.569   3.426   3.101
 4072SOL     OW12559   3.214   1.914   2.030
 4072SOL    HW112560   3.249   1.873   1.946
 4072SOL    HW212561   3.124   1.876   2.050
 4073SOL     OW12562   3.162   2.315   2.553
 4073SOL    HW112563   3.103   2.395   2.557
 4073SOL    HW212564   3.177   2.280   2.646
 4074SOL     OW12565   3.455   2.083   2.744
 4074SOL    HW112566   3.371   2.082   2.798
 4074SOL    HW212567   3.457   2.166   2.688
 4075SOL     OW12568   1.901   2.939   2.162
 4075SOL    HW112569   2.000   2.928   2.153
 4075SOL    HW212570   1.861   2.853   2.194
 4076SOL     OW12571   2.737   3.508   2.199
 4076SOL    HW112572   2.660   3.473   2.145
 4076SOL    HW212573   2.705   3.579   2.261
 4077SOL     OW12574   2.092   2.490   3.837
 4077SOL    HW112575   1.999   2.488   3.874
 4077SOL    HW212576   2.093   2.451   3.745
 4078SOL     OW12577   2.087   2.137   4.720
 4078SOL    HW112578   2.122   2.120   4.812
 4078SOL    HW212579   1.999   2.092   4.708
 4079SOL     OW12580   1.881   2.230   4.371
 4079SOL    HW112581   1.799   2.273   4.410
 4079SOL    HW212582   1.853   2.157   4.308
 4080SOL     OW12583   2.431   3.137   4.889
 4080SOL    HW112584   2.338   3.130   4.852
 4080SOL    HW212585   2.442   3.226   4.933
 4081SOL     OW12586   3.417   3.373   4.427
 4081SOL    HW112587   3.360   3.357   4.508
 4081SOL    HW212588   3.358   3.383   4.347
 4082SOL     OW12589   2.997   2.565   4.441
 4082SOL    HW112590   3.054   2.643   4.416
 4082SOL    HW212591   2.937   2.591   4.517
 4083SOL     OW12592   3.617   2.469   3.955
 4083SOL    HW112593   3.605   2.456   3.856
 4083SOL    HW212594   3.587   2.388   4.004
 4084SOL     OW12595   2.630   3.006   4.747
 4084SOL    HW112596   2.552   3.023   4.807
 4084SOL    HW212597   2.664   3.093   4.711
 4085SOL     OW12598   2.712   2.660   5.547
 4085SOL    HW112599   2.708   2.736   5.612
 4085SOL    HW212600   2.734   2.696   5.456
 4086SOL     OW12601   2.547   2.874   4.389
 4086SOL    HW112602   2.616   2.858   4.459
 4086SOL    HW212603   2.474   2.931   4.427
 4087SOL     OW12604   2.548   3.023   5.527
 4087SOL    HW112605   2.608   3.102   5.541
 4087SOL    HW212606   2.462   3.054   5.486
 4088SOL     OW12607   2.197   3.297   4.785
 4088SOL    HW112608   2.119   3.266   4.732
 4088SOL    HW212609   2.255   3.355   4.728
 4089SOL     OW12610   3.322   3.367   5.063
 4089SOL    HW112611   3.346   3.461   5.089
 4089SOL    HW212612   3.306   3.313   5.145
 4090SOL     OW12613   2.300   2.254   5.223
 4090SOL    HW112614   2.382   2.198   5.232
 4090SOL    HW212615   2.219   2.196   5.227
 4091SOL     OW12616   3.465   2.309   4.461
 4091SOL    HW112617   3.391   2.355   4.411
 4091SOL    HW212618   3.516   2.377   4.514
 4092SOL     OW12619   2.093   3.575   4.207
 4092SOL    HW112620   2.127   3.652   4.261
 4092SOL    HW212621   2.137   3.575   4.117
 4093SOL     OW12622   2.989   3.203   5.414
 4093SOL    HW112623   3.036   3.203   5.502
 4093SOL    HW212624   2.941   3.116   5.403
 4094SOL     OW12625   2.092   3.296   4.262
 4094SOL    HW112626   2.066   3.392   4.262
 4094SOL    HW212627   2.021   3.242   4.307
 4095SOL     OW12628   2.102   2.953   4.610
 4095SOL    HW112629   2.116   2.869   4.662
 4095SOL    HW212630   2.047   3.017   4.665
 4096SOL     OW12631   2.482   3.648   5.163
 4096SOL    HW112632   2.390   3.631   5.198
 4096SOL    HW212633   2.510   3.740   5.189
 4097SOL     OW12634   2.468   2.826   3.847
 4097SOL    HW112635   2.475   2.910   3.793
 4097SOL    HW212636   2.514   2.839   3.935
 4098SOL     OW12637   3.456   1.976   5.204
 4098SOL    HW112638   3.438   2.043   5.132
 4098SOL    HW212639   3.453   2.022   5.293
 4099SOL     OW12640   1.984   2.505   4.287
 4099SOL    HW112641   1.939   2.417   4.304
 4099SOL    HW212642   1.983   2.559   4.371
 4100SOL     OW12643   3.704   3.629   4.083
 4100SOL    HW112644   3.758   3.600   4.163
 4100SOL    HW212645   3.734   3.719   4.054
 4101SOL     OW12646   1.889   3.458   3.841
 4101SOL    HW112647   1.870   3.362   3.862
 4101SOL    HW212648   1.856   3.516   3.916
 4102SOL     OW12649   3.551   2.784   4.336
 4102SOL    HW112650   3.646   2.755   4.344
 4102SOL    HW212651   3.543   2.849   4.261
 4103SOL     OW12652   3.503   2.970   4.156
 4103SOL    HW112653   3.589   2.972   4.104
 4103SOL    HW212654   3.517   3.017   4.244
 4104SOL     OW12655   1.975   2.599   5.321
 4104SOL    HW112656   2.063   2.586   5.366
 4104SOL    HW212657   1.962   2.696   5.299
 4105SOL     OW12658   2.475   3.227   4.450
 4105SOL    HW112659   2.426   3.140   4.459
 4105SOL    HW212660   2.452   3.270   4.363
 4106SOL     OW12661   3.155   3.090   5.147
 4106SOL    HW112662   3.192   3.017   5.089
 4106SOL    HW212663   3.207   3.095   5.232
 4107SOL     OW12664   2.671   1.866   4.226
 4107SOL    HW112665   2.711   1.957   4.217
 4107SOL    HW212666   2.571   1.874   4.232
 4108SOL     OW12667   2.059   2.838   4.988
 4108SOL    HW112668   2.148   2.793   4.974
 4108SOL    HW212669   1.986   2.773   4.969
 4109SOL     OW12670   3.387   2.861   3.914
 4109SOL    HW112671   3.324   2.785   3.927
 4109SOL    HW212672   3.435   2.879   4.000
 4110SOL     OW12673   3.049   3.654   5.340
 4110SOL    HW112674   3.073   3.714   5.264
 4110SOL    HW212675   3.056   3.559   5.310
 4111SOL     OW12676   2.179   2.113   5.525
 4111SOL    HW112677   2.250   2.184   5.531
 4111SOL    HW212678   2.091   2.152   5.553
 4112SOL     OW12679   3.328   3.279   4.677
 4112SOL    HW112680   3.269   3.285   4.757
 4112SOL    HW212681   3.313   3.191   4.631
 4113SOL     OW12682   3.529   3.576   4.296
 4113SOL    HW112683   3.488   3.553   4.208
 4113SOL    HW212684   3.511   3.502   4.361
 4114SOL     OW12685   2.460   2.591   3.994
 4114SOL    HW112686   2.484   2.660   3.926
 4114SOL    HW212687   2.382   2.624   4.048
 4115SOL     OW12688   3.143   2.207   4.668
 4115SOL    HW112689   3.057   2.157   4.655
 4115SOL    HW212690   3.205   2.153   4.724
 4116SOL     OW12691   3.438   3.524   4.031
 4116SOL    HW112692   3.527   3.570   4.034
 4116SOL    HW212693   3.417   3.500   3.936
 4117SOL     OW12694   2.669   2.467   5.189
 4117SOL    HW112695   2.622   2.464   5.278
 4117SOL    HW212696   2.618   2.412   5.123
 4118SOL     OW12697   3.256   2.331   5.398
 4118SOL    HW112698   3.236   2.374   5.486
 4118SOL    HW212699   3.334   2.269   5.407
 4119SOL     OW12700   2.835   2.752   5.296
 4119SOL    HW112701   2.881   2.668   5.267
 4119SOL    HW212702   2.779   2.786   5.221
 4120SOL     OW12703   2.853   2.272   4.966
 4120SOL    HW112704   2.776   2.306   5.020
 4120SOL    HW212705   2.819   2.221   4.887
 4121SOL     OW12706   2.903   2.563   4.153
 4121SOL    HW112707   2.929   2.559   4.249
 4121SOL    HW212708   2.818   2.512   4.139
 4122SOL     OW12709   1.938   2.673   4.513
 4122SOL    HW112710   2.037   2.661   4.522
 4122SOL    HW212711   1.914   2.768   4.534
 4123SOL     OW12712   1.992   3.683   5.295
 4123SOL    HW112713   1.982   3.668   5.394
 4123SOL    HW212714   1.906   3.719   5.259
 4124SOL     OW12715   2.727   2.210   3.919
 4124SOL    HW112716   2.786   2.273   3.870
 4124SOL    HW212717   2.746   2.116   3.890
 4125SOL     OW12718   3.581   2.447   5.555
 4125SOL    HW112719   3.555   2.536   5.519
 4125SOL    HW212720   3.579   2.379   5.482
 4126SOL     OW12721   3.224   3.006   4.269
 4126SOL    HW112722   3.307   2.977   4.221
 4126SOL    HW212723   3.175   3.073   4.213
 4127SOL     OW12724   2.412   2.058   4.609
 4127SOL    HW112725   2.407   2.053   4.709
 4127SOL    HW212726   2.414   2.154   4.580
 4128SOL     OW12727   2.870   3.318   4.201
 4128SOL    HW112728   2.824   3.390   4.149
 4128SOL    HW212729   2.866   3.338   4.299
 4129SOL     OW12730   2.213   3.663   4.577
 4129SOL    HW112731   2.263   3.577   4.583
 4129SOL    HW212732   2.278   3.740   4.574
 4130SOL     OW12733   3.657   2.928   4.597
 4130SOL    HW112734   3.595   2.913   4.521
 4130SOL    HW212735   3.605   2.939   4.682
 4131SOL     OW12736   3.089   3.412   5.230
 4131SOL    HW112737   3.095   3.335   5.294
 4131SOL    HW212738   3.037   3.386   5.150
 4132SOL     OW12739   2.183   2.805   3.966
 4132SOL    HW112740   2.265   2.844   3.924
 4132SOL    HW212741   2.156   2.723   3.917
 4133SOL     OW12742   3.320   2.597   4.452
 4133SOL    HW112743   3.315   2.532   4.527
 4133SOL    HW212744   3.400   2.656   4.465
 4134SOL     OW12745   2.323   3.128   5.451
 4134SOL    HW112746   2.273   3.129   5.365
 4134SOL    HW212747   2.260   3.110   5.527
 4135SOL     OW12748   2.973   3.638   3.961
 4135SOL    HW112749   2.913   3.576   4.011
 4135SOL    HW212750   3.004   3.594   3.876
 4136SOL     OW12751   2.064   2.147   5.222
 4136SOL    HW112752   1.984   2.207   5.209
 4136SOL    HW212753   2.054   2.098   5.308
 4137SOL     OW12754   3.494   3.239   3.805
 4137SOL    HW112755   3.462   3.333   3.795
 4137SOL    HW212756   3.418   3.176   3.793
 4138SOL     OW12757   2.326   3.605   4.047
 4138SOL    HW112758   2.359   3.644   4.133
 4138SOL    HW212759   2.402   3.598   3.982
 4139SOL     OW12760   3.262   1.969   4.150
 4139SOL    HW112761   3.238   1.932   4.060
 4139SOL    HW212762   3.361   1.985   4.154
 4140SOL     OW12763   2.111   3.647   4.965
 4140SOL    HW112764   2.168   3.582   5.015
 4140SOL    HW212765   2.095   3.614   4.872
 4141SOL     OW12766   2.802   3.560   4.628
 4141SOL    HW112767   2.882   3.503   4.649
 4141SOL    HW212768   2.753   3.520   4.551
 4142SOL     OW12769   2.244   2.562   4.204
 4142SOL    HW112770   2.289   2.472   4.201
 4142SOL    HW212771   2.150   2.551   4.237
 4143SOL     OW12772   3.409   2.084   5.453
 4143SOL    HW112773   3.404   2.121   5.545
 4143SOL    HW212774   3.337   2.015   5.441
 4144SOL     OW12775   2.476   1.984   3.841
 4144SOL    HW112776   2.574   1.962   3.848
 4144SOL    HW212777   2.445   1.967   3.748
 4145SOL     OW12778   2.643   2.126   5.473
 4145SOL    HW112779   2.710   2.065   5.516
 4145SOL    HW212780   2.570   2.145   5.538
 4146SOL     OW12781   2.750   3.376   4.919
 4146SOL    HW112782   2.727   3.351   4.825
 4146SOL    HW212783   2.811   3.307   4.958
 4147SOL     OW12784   3.213   2.452   5.157
 4147SOL    HW112785   3.241   2.409   5.242
 4147SOL    HW212786   3.238   2.548   5.158
 4148SOL     OW12787   2.665   3.264   4.648
 4148SOL    HW112788   2.755   3.278   4.606
 4148SOL    HW212789   2.594   3.266   4.577
 4149SOL     OW12790   2.784   2.365   4.623
 4149SOL    HW112791   2.759   2.356   4.527
 4149SOL    HW212792   2.832   2.283   4.654
 4150SOL     OW12793   2.401   1.926   4.236
 4150SOL    HW112794   2.320   1.927   4.294
 4150SOL    HW212795   2.404   2.009   4.181
 4151SOL     OW12796   3.296   3.050   3.765
 4151SOL    HW112797   3.328   2.974   3.822
 4151SOL    HW212798   3.204   3.077   3.795
 4152SOL     OW12799   2.159   1.897   3.895
 4152SOL    HW112800   2.208   1.981   3.874
 4152SOL    HW212801   2.221   1.832   3.940
 4153SOL     OW12802   2.797   2.098   4.204
 4153SOL    HW112803   2.749   2.139   4.126
 4153SOL    HW212804   2.896   2.096   4.185
 4154SOL     OW12805   2.938   2.545   5.188
 4154SOL    HW112806   2.858   2.484   5.191
 4154SOL    HW212807   3.019   2.492   5.164
 4155SOL     OW12808   3.089   3.432   4.517
 4155SOL    HW112809   3.110   3.506   4.452
 4155SOL    HW212810   3.157   3.432   4.590
 4156SOL     OW12811   2.321   3.014   4.465
 4156SOL    HW112812   2.250   2.987   4.530
 4156SOL    HW212813   2.295   2.986   4.372
 4157SOL     OW12814   3.133   3.659   4.315
 4157SOL    HW112815   3.177   3.723   4.251
 4157SOL    HW212816   3.083   3.711   4.385
 4158SOL     OW12817   2.894   2.411   3.740
 4158SOL    HW112818   2.853   2.493   3.701
 4158SOL    HW212819   2.958   2.437   3.813
 4159SOL     OW12820   1.940   2.418   5.110
 4159SOL    HW112821   2.032   2.417   5.069
 4159SOL    HW212822   1.934   2.492   5.177
 4160SOL     OW12823   2.423   2.084   4.871
 4160SOL    HW112824   2.461   2.000   4.908
 4160SOL    HW212825   2.335   2.103   4.915
 4161SOL     OW12826   2.728   2.316   4.366
 4161SOL    HW112827   2.696   2.388   4.304
 4161SOL    HW212828   2.752   2.235   4.313
 4162SOL     OW12829   2.879   1.901   4.477
 4162SOL    HW112830   2.807   1.906   4.408
 4162SOL    HW212831   2.855   1.832   4.546
 4163SOL     OW12832   3.291   3.035   4.591
 4163SOL    HW112833   3.236   2.951   4.584
 4163SOL    HW212834   3.317   3.064   4.499
 4164SOL     OW12835   3.328   2.452   4.716
 4164SOL    HW112836   3.298   2.357   4.723
 4164SOL    HW212837   3.401   2.468   4.782
 4165SOL     OW12838   3.719   2.695   4.101
 4165SOL    HW112839   3.761   2.631   4.165
 4165SOL    HW212840   3.681   2.644   4.023
 4166SOL     OW12841   2.350   3.247   3.898
 4166SOL    HW112842   2.263   3.232   3.945
 4166SOL    HW212843   2.333   3.273   3.803
 4167SOL     OW12844   3.526   3.142   4.381
 4167SOL    HW112845   3.625   3.150   4.395
 4167SOL    HW212846   3.481   3.226   4.412
 4168SOL     OW12847   3.252   2.437   3.802
 4168SOL    HW112848   3.198   2.416   3.883
 4168SOL    HW212849   3.343   2.396   3.811
 4169SOL     OW12850   2.389   2.118   4.052
 4169SOL    HW112851   2.416   2.059   3.977
 4169SOL    HW212852   2.389   2.213   4.021
 4170SOL     OW12853   3.616   3.085   5.312
 4170SOL    HW112854   3.707   3.046   5.299
 4170SOL    HW212855   3.624   3.181   5.336
 4171SOL     OW12856   2.926   3.209   5.064
 4171SOL    HW112857   2.846   3.186   5.119
 4171SOL    HW212858   3.009   3.183   5.113
 4172SOL     OW12859   3.454   3.491   5.349
 4172SOL    HW112860   3.481   3.525   5.259
 4172SOL    HW212861   3.533   3.453   5.395
 4173SOL     OW12862   2.973   3.057   4.824
 4173SOL    HW112863   2.933   3.101   4.905
 4173SOL    HW212864   2.932   3.094   4.741
 4174SOL     OW12865   3.500   2.961   4.803
 4174SOL    HW112866   3.505   3.042   4.862
 4174SOL    HW212867   3.414   2.963   4.752
 4175SOL     OW12868   2.777   1.951   5.126
 4175SOL    HW112869   2.802   1.931   5.031
 4175SOL    HW212870   2.849   2.007   5.168
 4176SOL     OW12871   2.842   2.978   5.443
 4176SOL    HW112872   2.743   2.984   5.453
 4176SOL    HW212873   2.865   2.898   5.387
 4177SOL     OW12874   2.567   2.912   4.092
 4177SOL    HW112875   2.553   2.919   4.191
 4177SOL    HW212876   2.651   2.861   4.074
 4178SOL     OW12877   2.272   2.675   4.975
 4178SOL    HW112878   2.358   2.687   5.025
 4178SOL    HW212879   2.230   2.588   5.002
 4179SOL     OW12880   3.136   2.248   4.986
 4179SOL    HW112881   3.157   2.322   5.050
 4179SOL    HW212882   3.047   2.265   4.943
 4180SOL     OW12883   1.926   3.426   5.055
 4180SOL    HW112884   1.880   3.508   5.021
 4180SOL    HW212885   2.024   3.445   5.064
 4181SOL     OW12886   2.229   2.962   4.225
 4181SOL    HW112887   2.222   3.045   4.169
 4181SOL    HW212888   2.233   2.882   4.165
 4182SOL     OW12889   2.428   2.399   4.589
 4182SOL    HW112890   2.440   2.465   4.515
 4182SOL    HW212891   2.474   2.433   4.672
 4183SOL     OW12892   3.114   3.210   4.112
 4183SOL    HW112893   3.164   3.287   4.152
 4183SOL    HW212894   3.019   3.212   4.144
 4184SOL     OW12895   3.134   3.307   4.866
 4184SOL    HW112896   3.181   3.320   4.953
 4184SOL    HW212897   3.068   3.233   4.875
 4185SOL     OW12898   3.444   2.501   4.196
 4185SOL    HW112899   3.413   2.562   4.269
 4185SOL    HW212900   3.494   2.553   4.127
 4186SOL     OW12901   2.216   3.372   5.053
 4186SOL    HW112902   2.195   3.328   4.966
 4186SOL    HW212903   2.313   3.398   5.056
 4187SOL     OW12904   2.264   2.613   5.322
 4187SOL    HW112905   2.332   2.668   5.275
 4187SOL    HW212906   2.304   2.525   5.349
 4188SOL     OW12907   3.449   2.641   5.394
 4188SOL    HW112908   3.357   2.679   5.389
 4188SOL    HW212909   3.509   2.688   5.329
 4189SOL     OW12910   2.875   1.967   5.494
 4189SOL    HW112911   2.881   2.052   5.442
 4189SOL    HW212912   2.907   1.891   5.437
 4190SOL     OW12913   2.366   1.912   5.464
 4190SOL    HW112914   2.324   1.855   5.394
 4190SOL    HW212915   2.300   1.981   5.496
 4191SOL     OW12916   2.435   2.732   4.753
 4191SOL    HW112917   2.479   2.821   4.744
 4191SOL    HW212918   2.372   2.732   4.830
 4192SOL     OW12919   3.222   2.724   4.769
 4192SOL    HW112920   3.147   2.724   4.703
 4192SOL    HW212921   3.259   2.632   4.778
 4193SOL     OW12922   3.071   2.387   3.999
 4193SOL    HW112923   3.084   2.303   4.053
 4193SOL    HW212924   3.042   2.461   4.059
 4194SOL     OW12925   2.169   2.075   4.955
 4194SOL    HW112926   2.146   2.112   5.045
 4194SOL    HW212927   2.139   1.980   4.949
 4195SOL     OW12928   1.899   3.172   5.006
 4195SOL    HW112929   1.952   3.123   5.074
 4195SOL    HW212930   1.921   3.270   5.011
 4196SOL     OW12931   2.594   2.496   4.788
 4196SOL    HW112932   2.653   2.470   4.712
 4196SOL    HW212933   2.566   2.592   4.777
 4197SOL     OW12934   3.590   2.797   5.578
 4197SOL    HW112935   3.544   2.790   5.489
 4197SOL    HW212936   3.528   2.841   5.644
 4198SOL     OW12937   2.169   1.925   4.342
 4198SOL    HW112938   2.158   2.019   4.375
 4198SOL    HW212939   2.164   1.862   4.419
 4199SOL     OW12940   3.484   2.229   4.098
 4199SOL    HW112941   3.486   2.153   4.162
 4199SOL    HW212942   3.436   2.306   4.138
 4200SOL     OW12943   2.885   2.628   4.690
 4200SOL    HW112944   2.900   2.649   4.786
 4200SOL    HW212945   2.855   2.533   4.681
 4201SOL     OW12946   2.842   3.435   5.424
 4201SOL    HW112947   2.822   3.479   5.336
 4201SOL    HW212948   2.881   3.344   5.408
 4202SOL     OW12949   3.721   3.380   5.329
 4202SOL    HW112950   3.735   3.407   5.234
 4202SOL    HW212951   3.804   3.402   5.382
 4203SOL     OW12952   2.212   2.760   5.528
 4203SOL    HW112953   2.288   2.804   5.576
 4203SOL    HW212954   2.247   2.713   5.446
 4204SOL     OW12955   3.402   2.136   3.849
 4204SOL    HW112956   3.341   2.061   3.872
 4204SOL    HW212957   3.424   2.188   3.932
 4205SOL     OW12958   3.165   2.700   3.766
 4205SOL    HW112959   3.199   2.607   3.781
 4205SOL    HW212960   3.183   2.727   3.671
 4206SOL     OW12961   2.930   3.195   4.573
 4206SOL    HW112962   2.937   3.111   4.518
 4206SOL    HW212963   2.992   3.264   4.537
 4207SOL     OW12964   2.181   2.672   4.673
 4207SOL    HW112965   2.274   2.708   4.678
 4207SOL    HW212966   2.175   2.587   4.725
 4208SOL     OW12967   2.201   2.371   4.730
 4208SOL    HW112968   2.149   2.288   4.713
 4208SOL    HW212969   2.278   2.376   4.666
 4209SOL     OW12970   3.000   2.242   5.402
 4209SOL    HW112971   2.955   2.305   5.466
 4209SOL    HW212972   3.093   2.273   5.385
 4210SOL     OW12973   3.022   2.069   5.201
 4210SOL    HW112974   3.022   2.133   5.278
 4210SOL    HW212975   3.050   2.117   5.118
 4211SOL     OW12976   1.870   3.188   3.924
 4211SOL    HW112977   1.777   3.209   3.893
 4211SOL    HW212978   1.880   3.089   3.937
 4212SOL     OW12979   1.950   3.663   4.651
 4212SOL    HW112980   1.908   3.577   4.624
 4212SOL    HW212981   2.044   3.666   4.617
 4213SOL     OW12982   2.366   3.430   4.634
 4213SOL    HW112983   2.432   3.504   4.643
 4213SOL    HW212984   2.410   3.351   4.592
 4214SOL     OW12985   2.864   2.658   4.962
 4214SOL    HW112986   2.905   2.626   5.048
 4214SOL    HW212987   2.768   2.631   4.959
 4215SOL     OW12988   1.902   2.406   4.838
 4215SOL    HW112989   1.987   2.373   4.797
 4215SOL    HW212990   1.915   2.421   4.936
 4216SOL     OW12991   2.051   2.382   5.446
 4216SOL    HW112992   2.110   2.342   5.376
 4216SOL    HW212993   1.993   2.453   5.405
 4217SOL     OW12994   3.231   2.812   5.384
 4217SOL    HW112995   3.270   2.901   5.404
 4217SOL    HW212996   3.241   2.792   5.287
 4218SOL     OW12997   2.677   2.434   4.049
 4218SOL    HW112998   2.684   2.345   4.003
 4218SOL    HW212999   2.583   2.468   4.041
 4219SOL     OW13000   3.519   2.466   4.930
 4219SOL    HW113001   3.481   2.397   4.992
 4219SOL    HW213002   3.601   2.430   4.886
 4220SOL     OW13003   2.114   3.426   5.468
 4220SOL    HW113004   2.084   3.483   5.544
 4220SOL    HW213005   2.107   3.329   5.494
 4221SOL     OW13006   2.533   2.326   4.993
 4221SOL    HW113007   2.499   2.237   4.963
 4221SOL    HW213008   2.559   2.380   4.913
 4222SOL     OW13009   2.792   3.540   5.189
 4222SOL    HW113010   2.768   3.522   5.094
 4222SOL    HW213011   2.822   3.634   5.199
 4223SOL     OW13012   2.335   2.362   3.915
 4223SOL    HW113013   2.396   2.442   3.919
 4223SOL    HW213014   2.240   2.393   3.922
 4224SOL     OW13015   2.021   2.999   5.190
 4224SOL    HW113016   2.043   2.938   5.266
 4224SOL    HW213017   2.031   2.950   5.104
 4225SOL     OW13018   3.209   2.921   4.958
 4225SOL    HW113019   3.233   2.858   4.884
 4225SOL    HW213020   3.119   2.961   4.940
 4226SOL     OW13021   3.164   2.717   4.033
 4226SOL    HW113022   3.078   2.686   4.075
 4226SOL    HW213023   3.160   2.703   3.934
 4227SOL     OW13024   3.621   3.609   4.878
 4227SOL    HW113025   3.682   3.639   4.805
 4227SOL    HW213026   3.583   3.520   4.856
 4228SOL     OW13027   3.114   3.593   4.852
 4228SOL    HW113028   3.198   3.598   4.798
 4228SOL    HW213029   3.091   3.497   4.870
 4229SOL     OW13030   1.945   3.120   4.746
 4229SOL    HW113031   1.940   3.119   4.846
 4229SOL    HW213032   1.862   3.079   4.708
 4230SOL     OW13033   2.550   3.524   5.440
 4230SOL    HW113034   2.494   3.605   5.449
 4230SOL    HW213035   2.602   3.528   5.354
 4231SOL     OW13036   3.588   1.997   4.247
 4231SOL    HW113037   3.661   1.980   4.180
 4231SOL    HW213038   3.557   1.910   4.285
 4232SOL     OW13039   3.250   3.435   4.201
 4232SOL    HW113040   3.317   3.447   4.127
 4232SOL    HW213041   3.210   3.524   4.224
 4233SOL     OW13042   1.992   3.656   5.575
 4233SOL    HW113043   1.951   3.582   5.628
 4233SOL    HW213044   2.056   3.707   5.633
 4234SOL     OW13045   3.142   2.789   4.396
 4234SOL    HW113046   3.202   2.708   4.398
 4234SOL    HW213047   3.182   2.858   4.336
 4235SOL     OW13048   2.692   3.135   5.146
 4235SOL    HW113049   2.687   3.168   5.241
 4235SOL    HW213050   2.606   3.154   5.100
 4236SOL     OW13051   2.534   3.478   3.878
 4236SOL    HW113052   2.543   3.488   3.779
 4236SOL    HW213053   2.494   3.389   3.899
 4237SOL     OW13054   3.512   3.582   5.118
 4237SOL    HW113055   3.565   3.592   5.034
 4237SOL    HW213056   3.485   3.672   5.152
 4238SOL     OW13057   3.703   2.037   4.687
 4238SOL    HW113058   3.742   1.952   4.651
 4238SOL    HW213059   3.605   2.039   4.668
 4239SOL     OW13060   2.125   2.188   4.444
 4239SOL    HW113061   2.046   2.239   4.410
 4239SOL    HW213062   2.116   2.173   4.542
 4240SOL     OW13063   3.056   3.474   3.755
 4240SOL    HW113064   3.062   3.381   3.792
 4240SOL    HW213065   2.997   3.474   3.675
 4241SOL     OW13066   2.684   2.864   5.096
 4241SOL    HW113067   2.724   2.863   5.004
 4241SOL    HW213068   2.694   2.956   5.136
 4242SOL     OW13069   2.778   2.772   4.015
 4242SOL    HW113070   2.841   2.810   3.947
 4242SOL    HW213071   2.818   2.689   4.054
 4243SOL     OW13072   3.366   3.469   3.768
 4243SOL    HW113073   3.274   3.506   3.775
 4243SOL    HW213074   3.404   3.489   3.678
 4244SOL     OW13075   2.234   3.150   5.214
 4244SOL    HW113076   2.221   3.243   5.180
 4244SOL    HW213077   2.150   3.098   5.201
 4245SOL     OW13078   3.476   3.154   5.013
 4245SOL    HW113079   3.536   3.157   5.093
 4245SOL    HW213080   3.401   3.218   5.026
 4246SOL     OW13081   2.901   2.960   4.420
 4246SOL    HW113082   2.831   2.913   4.474
 4246SOL    HW213083   2.960   2.892   4.377
 4247SOL     OW13084   2.876   2.098   4.695
 4247SOL    HW113085   2.868   2.062   4.602
 4247SOL    HW213086   2.874   2.022   4.760
 4248SOL     OW13087   2.452   3.349   4.215
 4248SOL    HW113088   2.494   3.291   4.145
 4248SOL    HW213089   2.408   3.428   4.171
 4249SOL     OW13090   3.571   2.247   5.105
 4249SOL    HW113091   3.644   2.316   5.109
 4249SOL    HW213092   3.599   2.172   5.046
 4250SOL     OW13093   2.117   3.210   4.014
 4250SOL    HW113094   2.021   3.211   3.987
 4250SOL    HW213095   2.129   3.263   4.098
 4251SOL     OW13096   1.967   2.875   5.450
 4251SOL    HW113097   1.890   2.842   5.504
 4251SOL    HW213098   2.052   2.845   5.492
 4252SOL     OW13099   2.534   2.065   5.213
 4252SOL    HW113100   2.624   2.049   5.173
 4252SOL    HW213101   2.542   2.070   5.312
 4253SOL     OW13102   1.937   2.207   3.757
 4253SOL    HW113103   1.845   2.179   3.728
 4253SOL    HW213104   1.968   2.284   3.701
 4254SOL     OW13105   3.302   2.718   5.122
 4254SOL    HW113106   3.245   2.770   5.059
 4254SOL    HW213107   3.398   2.730   5.098
 4255SOL     OW13108   1.934   2.028   4.042
 4255SOL    HW113109   1.917   2.111   3.988
 4255SOL    HW213110   2.024   1.991   4.020
 4256SOL     OW13111   3.045   3.197   3.843
 4256SOL    HW113112   2.946   3.186   3.845
 4256SOL    HW213113   3.079   3.212   3.936
 4257SOL     OW13114   2.475   2.704   5.155
 4257SOL    HW113115   2.531   2.785   5.138
 4257SOL    HW213116   2.534   2.624   5.158
 4258SOL     OW13117   3.355   3.629   4.683
 4258SOL    HW113118   3.388   3.693   4.614
 4258SOL    HW213119   3.421   3.623   4.758
 4259SOL     OW13120   2.578   2.427   5.432
 4259SOL    HW113121   2.597   2.492   5.506
 4259SOL    HW213122   2.638   2.347   5.441
 4260SOL     OW13123   3.312   3.082   5.357
 4260SOL    HW113124   3.303   3.072   5.456
 4260SOL    HW213125   3.408   3.075   5.331
 4261SOL     OW13126   2.252   3.603   5.284
 4261SOL    HW113127   2.161   3.644   5.282
 4261SOL    HW213128   2.245   3.509   5.316
 4262SOL     OW13129   3.536   2.745   4.978
 4262SOL    HW113130   3.509   2.656   4.941
 4262SOL    HW213131   3.537   2.813   4.905
 4263SOL     OW13132   3.087   2.187   4.173
 4263SOL    HW113133   3.152   2.113   4.162
 4263SOL    HW213134   3.107   2.237   4.257
 4264SOL     OW13135   2.456   2.607   4.376
 4264SOL    HW113136   2.506   2.692   4.357
 4264SOL    HW213137   2.368   2.609   4.328
 4265SOL     OW13138   3.639   2.204   5.366
 4265SOL    HW113139   3.622   2.235   5.272
 4265SOL    HW213140   3.555   2.167   5.404
 4266SOL     OW13141   3.592   2.796   5.241
 4266SOL    HW113142   3.630   2.887   5.256
 4266SOL    HW213143   3.584   2.779   5.142
 4267SOL     OW13144   2.721   3.236   3.740
 4267SOL    HW113145   2.675   3.251   3.828
 4267SOL    HW213146   2.765   3.321   3.710
 4268SOL     OW13147   2.523   3.652   4.677
 4268SOL    HW113148   2.477   3.740   4.664
 4268SOL    HW213149   2.622   3.664   4.670
 4269SOL     OW13150   2.721   2.818   4.585
 4269SOL    HW113151   2.775   2.749   4.633
 4269SOL    HW213152   2.689   2.887   4.651
 4270SOL     OW13153   2.945   2.846   3.811
 4270SOL    HW113154   2.922   2.899   3.729
 4270SOL    HW213155   3.026   2.790   3.792
 4271SOL     OW13156   3.723   3.431   4.575
 4271SOL    HW113157   3.652   3.419   4.505
 4271SOL    HW213158   3.724   3.352   4.635
 4272SOL     OW13159   2.083   3.176   5.568
 4272SOL    HW113160   2.018   3.103   5.547
 4272SOL    HW213161   2.087   3.190   5.666
 4273SOL     OW13162   1.941   3.102   4.377
 4273SOL    HW113163   1.940   3.055   4.465
 4273SOL    HW213164   2.023   3.074   4.326
 4274SOL     OW13165   2.534   3.253   5.348
 4274SOL    HW113166   2.456   3.203   5.386
 4274SOL    HW213167   2.531   3.348   5.379
 4275SOL     OW13168   3.686   2.054   4.951
 4275SOL    HW113169   3.682   1.964   4.995
 4275SOL    HW213170   3.689   2.043   4.852
 4276SOL     OW13171   2.290   2.286   4.244
 4276SOL    HW113172   2.320   2.214   4.182
 4276SOL    HW213173   2.251   2.246   4.327
 4277SOL     OW13174   3.567   3.349   4.828
 4277SOL    HW113175   3.474   3.324   4.801
 4277SOL    HW213176   3.593   3.299   4.910
 4278SOL     OW13177   2.179   2.409   5.004
 4278SOL    HW113178   2.217   2.350   5.076
 4278SOL    HW213179   2.219   2.383   4.916
 4279SOL     OW13180   2.674   3.448   4.411
 4279SOL    HW113181   2.706   3.458   4.317
 4279SOL    HW213182   2.595   3.386   4.413
 4280SOL     OW13183   3.286   2.076   4.836
 4280SOL    HW113184   3.338   2.011   4.891
 4280SOL    HW213185   3.237   2.139   4.897
 4281SOL     OW13186   2.863   1.896   4.878
 4281SOL    HW113187   2.800   1.824   4.847
 4281SOL    HW213188   2.956   1.860   4.878
 4282SOL     OW13189   2.632   3.192   4.025
 4282SOL    HW113190   2.586   3.105   4.042
 4282SOL    HW213191   2.723   3.189   4.066
 4283SOL     OW13192   2.480   3.429   5.008
 4283SOL    HW113193   2.475   3.511   5.065
 4283SOL    HW213194   2.569   3.426   4.963
 4284SOL     OW13195   3.214   1.914   3.892
 4284SOL    HW113196   3.249   1.873   3.808
 4284SOL    HW213197   3.124   1.876   3.912
 4285SOL     OW13198   3.162   2.315   4.415
 4285SOL    HW113199   3.103   2.395   4.419
 4285SOL    HW213200   3.177   2.280   4.508
 4286SOL     OW13201   3.455   2.083   4.606
 4286SOL    HW113202   3.371   2.082   4.660
 4286SOL    HW213203   3.457   2.166   4.550
 4287SOL     OW13204   1.901   2.939   4.024
 4287SOL    HW113205   2.000   2.928   4.015
 4287SOL    HW213206   1.861   2.853   4.056
 4288SOL     OW13207   2.737   3.508   4.061
 4288SOL    HW113208   2.660   3.473   4.007
 4288SOL    HW213209   2.705   3.579   4.123
 4289SOL     OW13210   2.092   2.490   5.699
 4289SOL    HW113211   1.999   2.488   5.736
 4289SOL    HW213212   2.093   2.451   5.607
 4290SOL     OW13213   1.881   2.230   6.233
 4290SOL    HW113214   1.799   2.273   6.272
 4290SOL    HW213215   1.853   2.157   6.170
 4291SOL     OW13216   3.617   2.469   5.817
 4291SOL    HW113217   3.605   2.456   5.718
 4291SOL    HW213218   3.587   2.388   5.866
 4292SOL     OW13219   2.547   2.874   6.251
 4292SOL    HW113220   2.616   2.858   6.321
 4292SOL    HW213221   2.474   2.931   6.289
 4293SOL     OW13222   2.093   3.575   6.069
 4293SOL    HW113223   2.127   3.652   6.123
 4293SOL    HW213224   2.137   3.575   5.979
 4294SOL     OW13225   2.092   3.296   6.124
 4294SOL    HW113226   2.066   3.392   6.124
 4294SOL    HW213227   2.021   3.242   6.169
 4295SOL     OW13228   2.102   2.953   6.472
 4295SOL    HW113229   2.116   2.869   6.524
 4295SOL    HW213230   2.047   3.017   6.527
 4296SOL     OW13231   2.468   2.826   5.709
 4296SOL    HW113232   2.475   2.910   5.655
 4296SOL    HW213233   2.514   2.839   5.797
 4297SOL     OW13234   1.984   2.505   6.149
 4297SOL    HW113235   1.939   2.417   6.166
 4297SOL    HW213236   1.983   2.559   6.233
 4298SOL     OW13237   3.704   3.629   5.945
 4298SOL    HW113238   3.758   3.600   6.025
 4298SOL    HW213239   3.734   3.719   5.916
 4299SOL     OW13240   1.889   3.458   5.703
 4299SOL    HW113241   1.870   3.362   5.724
 4299SOL    HW213242   1.856   3.516   5.778
 4300SOL     OW13243   3.551   2.784   6.198
 4300SOL    HW113244   3.646   2.755   6.206
 4300SOL    HW213245   3.543   2.849   6.123
 4301SOL     OW13246   3.503   2.970   6.018
 4301SOL    HW113247   3.589   2.972   5.966
 4301SOL    HW213248   3.517   3.017   6.106
 4302SOL     OW13249   2.671   1.866   6.088
 4302SOL    HW113250   2.711   1.957   6.079
 4302SOL    HW213251   2.571   1.874   6.094
 4303SOL     OW13252   3.387   2.861   5.776
 4303SOL    HW113253   3.324   2.785   5.789
 4303SOL    HW213254   3.435   2.879   5.862
 4304SOL     OW13255   2.460   2.591   5.856
 4304SOL    HW113256   2.484   2.660   5.788
 4304SOL    HW213257   2.382   2.624   5.910
 4305SOL     OW13258   3.438   3.524   5.893
 4305SOL    HW113259   3.527   3.570   5.896
 4305SOL    HW213260   3.417   3.500   5.798
 4306SOL     OW13261   2.903   2.563   6.015
 4306SOL    HW113262   2.929   2.559   6.111
 4306SOL    HW213263   2.818   2.512   6.001
 4307SOL     OW13264   1.938   2.673   6.375
 4307SOL    HW113265   2.037   2.661   6.384
 4307SOL    HW213266   1.914   2.768   6.396
 4308SOL     OW13267   2.727   2.210   5.781
 4308SOL    HW113268   2.786   2.273   5.732
 4308SOL    HW213269   2.746   2.116   5.752
 4309SOL     OW13270   3.224   3.006   6.131
 4309SOL    HW113271   3.307   2.977   6.083
 4309SOL    HW213272   3.175   3.073   6.075
 4310SOL     OW13273   2.412   2.058   6.471
 4310SOL    HW113274   2.407   2.053   6.571
 4310SOL    HW213275   2.414   2.154   6.442
 4311SOL     OW13276   2.870   3.318   6.063
 4311SOL    HW113277   2.824   3.390   6.011
 4311SOL    HW213278   2.866   3.338   6.161
 4312SOL     OW13279   2.213   3.663   6.439
 4312SOL    HW113280   2.263   3.577   6.445
 4312SOL    HW213281   2.278   3.740   6.436
 4313SOL     OW13282   2.183   2.805   5.828
 4313SOL    HW113283   2.265   2.844   5.786
 4313SOL    HW213284   2.156   2.723   5.779
 4314SOL     OW13285   2.973   3.638   5.823
 4314SOL    HW113286   2.913   3.576   5.873
 4314SOL    HW213287   3.004   3.594   5.738
 4315SOL     OW13288   3.494   3.239   5.667
 4315SOL    HW113289   3.462   3.333   5.657
 4315SOL    HW213290   3.418   3.176   5.655
 4316SOL     OW13291   2.326   3.605   5.909
 4316SOL    HW113292   2.359   3.644   5.995
 4316SOL    HW213293   2.402   3.598   5.844
 4317SOL     OW13294   3.262   1.969   6.012
 4317SOL    HW113295   3.238   1.932   5.922
 4317SOL    HW213296   3.361   1.985   6.016
 4318SOL     OW13297   2.802   3.560   6.490
 4318SOL    HW113298   2.882   3.503   6.511
 4318SOL    HW213299   2.753   3.520   6.413
 4319SOL     OW13300   2.244   2.562   6.066
 4319SOL    HW113301   2.289   2.472   6.063
 4319SOL    HW213302   2.150   2.551   6.099
 4320SOL     OW13303   2.476   1.984   5.703
 4320SOL    HW113304   2.574   1.962   5.710
 4320SOL    HW213305   2.445   1.967   5.610
 4321SOL     OW13306   2.784   2.365   6.485
 4321SOL    HW113307   2.759   2.356   6.389
 4321SOL    HW213308   2.832   2.283   6.516
 4322SOL     OW13309   2.401   1.926   6.098
 4322SOL    HW113310   2.320   1.927   6.156
 4322SOL    HW213311   2.404   2.009   6.043
 4323SOL     OW13312   3.296   3.050   5.627
 4323SOL    HW113313   3.328   2.974   5.684
 4323SOL    HW213314   3.204   3.077   5.657
 4324SOL     OW13315   2.159   1.897   5.757
 4324SOL    HW113316   2.208   1.981   5.736
 4324SOL    HW213317   2.221   1.832   5.802
 4325SOL     OW13318   2.797   2.098   6.066
 4325SOL    HW113319   2.749   2.139   5.988
 4325SOL    HW213320   2.896   2.096   6.047
 4326SOL     OW13321   2.321   3.014   6.327
 4326SOL    HW113322   2.250   2.987   6.392
 4326SOL    HW213323   2.295   2.986   6.234
 4327SOL     OW13324   2.894   2.411   5.602
 4327SOL    HW113325   2.853   2.493   5.563
 4327SOL    HW213326   2.958   2.437   5.675
 4328SOL     OW13327   3.719   2.695   5.963
 4328SOL    HW113328   3.761   2.631   6.027
 4328SOL    HW213329   3.681   2.644   5.885
 4329SOL     OW13330   2.350   3.247   5.760
 4329SOL    HW113331   2.263   3.232   5.807
 4329SOL    HW213332   2.333   3.273   5.665
 4330SOL     OW13333   3.252   2.437   5.664
 4330SOL    HW113334   3.198   2.416   5.745
 4330SOL    HW213335   3.343   2.396   5.673
 4331SOL     OW13336   2.389   2.118   5.914
 4331SOL    HW113337   2.416   2.059   5.839
 4331SOL    HW213338   2.389   2.213   5.883
 4332SOL     OW13339   2.567   2.912   5.954
 4332SOL    HW113340   2.553   2.919   6.053
 4332SOL    HW213341   2.651   2.861   5.936
 4333SOL     OW13342   2.229   2.962   6.087
 4333SOL    HW113343   2.222   3.045   6.031
 4333SOL    HW213344   2.233   2.882   6.027
 4334SOL     OW13345   2.428   2.399   6.451
 4334SOL    HW113346   2.440   2.465   6.377
 4334SOL    HW213347   2.474   2.433   6.534
 4335SOL     OW13348   3.114   3.210   5.974
 4335SOL    HW113349   3.164   3.287   6.014
 4335SOL    HW213350   3.019   3.212   6.006
 4336SOL     OW13351   3.444   2.501   6.058
 4336SOL    HW113352   3.413   2.562   6.131
 4336SOL    HW213353   3.494   2.553   5.989
 4337SOL     OW13354   3.071   2.387   5.861
 4337SOL    HW113355   3.084   2.303   5.915
 4337SOL    HW213356   3.042   2.461   5.921
 4338SOL     OW13357   2.169   1.925   6.204
 4338SOL    HW113358   2.158   2.019   6.237
 4338SOL    HW213359   2.164   1.862   6.281
 4339SOL     OW13360   3.484   2.229   5.960
 4339SOL    HW113361   3.486   2.153   6.024
 4339SOL    HW213362   3.436   2.306   6.000
 4340SOL     OW13363   3.402   2.136   5.711
 4340SOL    HW113364   3.341   2.061   5.734
 4340SOL    HW213365   3.424   2.188   5.794
 4341SOL     OW13366   3.165   2.700   5.628
 4341SOL    HW113367   3.199   2.607   5.643
 4341SOL    HW213368   3.183   2.727   5.533
 4342SOL     OW13369   1.870   3.188   5.786
 4342SOL    HW113370   1.777   3.209   5.755
 4342SOL    HW213371   1.880   3.089   5.799
 4343SOL     OW13372   2.677   2.434   5.911
 4343SOL    HW113373   2.684   2.345   5.865
 4343SOL    HW213374   2.583   2.468   5.903
 4344SOL     OW13375   2.335   2.362   5.777
 4344SOL    HW113376   2.396   2.442   5.781
 4344SOL    HW213377   2.240   2.393   5.784
 4345SOL     OW13378   3.164   2.717   5.895
 4345SOL    HW113379   3.078   2.686   5.937
 4345SOL    HW213380   3.160   2.703   5.796
 4346SOL     OW13381   3.588   1.997   6.109
 4346SOL    HW113382   3.661   1.980   6.042
 4346SOL    HW213383   3.557   1.910   6.147
 4347SOL     OW13384   3.250   3.435   6.063
 4347SOL    HW113385   3.317   3.447   5.989
 4347SOL    HW213386   3.210   3.524   6.086
 4348SOL     OW13387   3.142   2.789   6.258
 4348SOL    HW113388   3.202   2.708   6.260
 4348SOL    HW213389   3.182   2.858   6.198
 4349SOL     OW13390   2.534   3.478   5.740
 4349SOL    HW113391   2.543   3.488   5.641
 4349SOL    HW213392   2.494   3.389   5.761
 4350SOL     OW13393   2.125   2.188   6.306
 4350SOL    HW113394   2.046   2.239   6.272
 4350SOL    HW213395   2.116   2.173   6.404
 4351SOL     OW13396   3.056   3.474   5.617
 4351SOL    HW113397   3.062   3.381   5.654
 4351SOL    HW213398   2.997   3.474   5.537
 4352SOL     OW13399   2.778   2.772   5.877
 4352SOL    HW113400   2.841   2.810   5.809
 4352SOL    HW213401   2.818   2.689   5.916
 4353SOL     OW13402   3.366   3.469   5.630
 4353SOL    HW113403   3.274   3.506   5.637
 4353SOL    HW213404   3.404   3.489   5.540
 4354SOL     OW13405   2.452   3.349   6.077
 4354SOL    HW113406   2.494   3.291   6.007
 4354SOL    HW213407   2.408   3.428   6.033
 4355SOL     OW13408   2.117   3.210   5.876
 4355SOL    HW113409   2.021   3.211   5.849
 4355SOL    HW213410   2.129   3.263   5.960
 4356SOL     OW13411   1.937   2.207   5.619
 4356SOL    HW113412   1.845   2.179   5.590
 4356SOL    HW213413   1.968   2.284   5.563
 4357SOL     OW13414   1.934   2.028   5.904
 4357SOL    HW113415   1.917   2.111   5.850
 4357SOL    HW213416   2.024   1.991   5.882
 4358SOL     OW13417   3.045   3.197   5.705
 4358SOL    HW113418   2.946   3.186   5.707
 4358SOL    HW213419   3.079   3.212   5.798
 4359SOL     OW13420   3.087   2.187   6.035
 4359SOL    HW113421   3.152   2.113   6.024
 4359SOL    HW213422   3.107   2.237   6.119
 4360SOL     OW13423   2.456   2.607   6.238
 4360SOL    HW113424   2.506   2.692   6.219
 4360SOL    HW213425   2.368   2.609   6.190
 4361SOL     OW13426   2.721   3.236   5.602
 4361SOL    HW113427   2.675   3.251   5.690
 4361SOL    HW213428   2.765   3.321   5.572
 4362SOL     OW13429   2.945   2.846   5.673
 4362SOL    HW113430   2.922   2.899   5.591
 4362SOL    HW213431   3.026   2.790   5.654
 4363SOL     OW13432   1.941   3.102   6.239
 4363SOL    HW113433   1.940   3.055   6.327
 4363SOL    HW213434   2.023   3.074   6.188
 4364SOL     OW13435   2.290   2.286   6.106
 4364SOL    HW113436   2.320   2.214   6.044
 4364SOL    HW213437   2.251   2.246   6.189
 4365SOL     OW13438   2.674   3.448   6.273
 4365SOL    HW113439   2.706   3.458   6.179
 4365SOL    HW213440   2.595   3.386   6.275
 4366SOL     OW13441   2.632   3.192   5.887
 4366SOL    HW113442   2.586   3.105   5.904
 4366SOL    HW213443   2.723   3.189   5.928
 4367SOL     OW13444   3.214   1.914   5.754
 4367SOL    HW113445   3.249   1.873   5.670
 4367SOL    HW213446   3.124   1.876   5.774
 4368SOL     OW13447   3.162   2.315   6.277
 4368SOL    HW113448   3.103   2.395   6.281
 4368SOL    HW213449   3.177   2.280   6.370
 4369SOL     OW13450   1.901   2.939   5.886
 4369SOL    HW113451   2.000   2.928   5.877
 4369SOL    HW213452   1.861   2.853   5.918
 4370SOL     OW13453   2.737   3.508   5.923
 4370SOL    HW113454   2.660   3.473   5.869
 4370SOL    HW213455   2.705   3.579   5.985
 4371SOL     OW13456   2.092   4.352   0.113
 4371SOL    HW113457   1.999   4.350   0.150
 4371SOL    HW213458   2.093   4.313   0.021
 4372SOL     OW13459   2.087   3.999   0.996
 4372SOL    HW113460   2.122   3.982   1.088
 4372SOL    HW213461   1.999   3.954   0.984
 4373SOL     OW13462   1.881   4.092   0.647
 4373SOL    HW113463   1.799   4.135   0.686
 4373SOL    HW213464   1.853   4.019   0.584
 4374SOL     OW13465   2.431   4.999   1.165
 4374SOL    HW113466   2.338   4.992   1.128
 4374SOL    HW213467   2.442   5.088   1.209
 4375SOL     OW13468   3.417   5.235   0.703
 4375SOL    HW113469   3.360   5.219   0.784
 4375SOL    HW213470   3.358   5.245   0.623
 4376SOL     OW13471   2.997   4.427   0.717
 4376SOL    HW113472   3.054   4.505   0.692
 4376SOL    HW213473   2.937   4.453   0.793
 4377SOL     OW13474   3.617   4.331   0.231
 4377SOL    HW113475   3.605   4.318   0.132
 4377SOL    HW213476   3.587   4.250   0.280
 4378SOL     OW13477   2.630   4.868   1.023
 4378SOL    HW113478   2.552   4.885   1.083
 4378SOL    HW213479   2.664   4.955   0.987
 4379SOL     OW13480   2.712   4.522   1.823
 4379SOL    HW113481   2.708   4.598   1.888
 4379SOL    HW213482   2.734   4.558   1.732
 4380SOL     OW13483   2.547   4.736   0.665
 4380SOL    HW113484   2.616   4.720   0.735
 4380SOL    HW213485   2.474   4.793   0.703
 4381SOL     OW13486   2.548   4.885   1.803
 4381SOL    HW113487   2.608   4.964   1.817
 4381SOL    HW213488   2.462   4.916   1.762
 4382SOL     OW13489   2.197   5.159   1.061
 4382SOL    HW113490   2.119   5.128   1.008
 4382SOL    HW213491   2.255   5.217   1.004
 4383SOL     OW13492   3.322   5.229   1.339
 4383SOL    HW113493   3.346   5.323   1.365
 4383SOL    HW213494   3.306   5.175   1.421
 4384SOL     OW13495   2.300   4.116   1.499
 4384SOL    HW113496   2.382   4.060   1.508
 4384SOL    HW213497   2.219   4.058   1.503
 4385SOL     OW13498   3.465   4.171   0.737
 4385SOL    HW113499   3.391   4.217   0.687
 4385SOL    HW213500   3.516   4.239   0.790
 4386SOL     OW13501   2.093   5.437   0.483
 4386SOL    HW113502   2.127   5.514   0.537
 4386SOL    HW213503   2.137   5.437   0.393
 4387SOL     OW13504   2.989   5.065   1.690
 4387SOL    HW113505   3.036   5.065   1.778
 4387SOL    HW213506   2.941   4.978   1.679
 4388SOL     OW13507   2.092   5.158   0.538
 4388SOL    HW113508   2.066   5.254   0.538
 4388SOL    HW213509   2.021   5.104   0.583
 4389SOL     OW13510   2.102   4.815   0.886
 4389SOL    HW113511   2.116   4.731   0.938
 4389SOL    HW213512   2.047   4.879   0.941
 4390SOL     OW13513   2.482   5.510   1.439
 4390SOL    HW113514   2.390   5.493   1.474
 4390SOL    HW213515   2.510   5.602   1.465
 4391SOL     OW13516   2.468   4.688   0.123
 4391SOL    HW113517   2.475   4.772   0.069
 4391SOL    HW213518   2.514   4.701   0.211
 4392SOL     OW13519   3.456   3.838   1.480
 4392SOL    HW113520   3.438   3.905   1.408
 4392SOL    HW213521   3.453   3.884   1.569
 4393SOL     OW13522   1.984   4.367   0.563
 4393SOL    HW113523   1.939   4.279   0.580
 4393SOL    HW213524   1.983   4.421   0.647
 4394SOL     OW13525   3.704   5.491   0.359
 4394SOL    HW113526   3.758   5.462   0.439
 4394SOL    HW213527   3.734   5.581   0.330
 4395SOL     OW13528   1.889   5.320   0.117
 4395SOL    HW113529   1.870   5.224   0.138
 4395SOL    HW213530   1.856   5.378   0.192
 4396SOL     OW13531   3.551   4.646   0.612
 4396SOL    HW113532   3.646   4.617   0.620
 4396SOL    HW213533   3.543   4.711   0.537
 4397SOL     OW13534   3.503   4.832   0.432
 4397SOL    HW113535   3.589   4.834   0.380
 4397SOL    HW213536   3.517   4.879   0.520
 4398SOL     OW13537   1.975   4.461   1.597
 4398SOL    HW113538   2.063   4.448   1.642
 4398SOL    HW213539   1.962   4.558   1.575
 4399SOL     OW13540   2.475   5.089   0.726
 4399SOL    HW113541   2.426   5.002   0.735
 4399SOL    HW213542   2.452   5.132   0.639
 4400SOL     OW13543   3.155   4.952   1.423
 4400SOL    HW113544   3.192   4.879   1.365
 4400SOL    HW213545   3.207   4.957   1.508
 4401SOL     OW13546   2.671   3.728   0.502
 4401SOL    HW113547   2.711   3.819   0.493
 4401SOL    HW213548   2.571   3.736   0.508
 4402SOL     OW13549   2.059   4.700   1.264
 4402SOL    HW113550   2.148   4.655   1.250
 4402SOL    HW213551   1.986   4.635   1.245
 4403SOL     OW13552   3.387   4.723   0.190
 4403SOL    HW113553   3.324   4.647   0.203
 4403SOL    HW213554   3.435   4.741   0.276
 4404SOL     OW13555   3.049   5.516   1.616
 4404SOL    HW113556   3.073   5.576   1.540
 4404SOL    HW213557   3.056   5.421   1.586
 4405SOL     OW13558   2.179   3.975   1.801
 4405SOL    HW113559   2.250   4.046   1.807
 4405SOL    HW213560   2.091   4.014   1.829
 4406SOL     OW13561   3.328   5.141   0.953
 4406SOL    HW113562   3.269   5.147   1.033
 4406SOL    HW213563   3.313   5.053   0.907
 4407SOL     OW13564   3.529   5.438   0.572
 4407SOL    HW113565   3.488   5.415   0.484
 4407SOL    HW213566   3.511   5.364   0.637
 4408SOL     OW13567   2.460   4.453   0.270
 4408SOL    HW113568   2.484   4.522   0.202
 4408SOL    HW213569   2.382   4.486   0.324
 4409SOL     OW13570   3.143   4.069   0.944
 4409SOL    HW113571   3.057   4.019   0.931
 4409SOL    HW213572   3.205   4.015   1.000
 4410SOL     OW13573   3.438   5.386   0.307
 4410SOL    HW113574   3.527   5.432   0.310
 4410SOL    HW213575   3.417   5.362   0.212
 4411SOL     OW13576   2.669   4.329   1.465
 4411SOL    HW113577   2.622   4.326   1.554
 4411SOL    HW213578   2.618   4.274   1.399
 4412SOL     OW13579   3.256   4.193   1.674
 4412SOL    HW113580   3.236   4.236   1.762
 4412SOL    HW213581   3.334   4.131   1.683
 4413SOL     OW13582   2.835   4.614   1.572
 4413SOL    HW113583   2.881   4.530   1.543
 4413SOL    HW213584   2.779   4.648   1.497
 4414SOL     OW13585   2.853   4.134   1.242
 4414SOL    HW113586   2.776   4.168   1.296
 4414SOL    HW213587   2.819   4.083   1.163
 4415SOL     OW13588   2.903   4.425   0.429
 4415SOL    HW113589   2.929   4.421   0.525
 4415SOL    HW213590   2.818   4.374   0.415
 4416SOL     OW13591   1.938   4.535   0.789
 4416SOL    HW113592   2.037   4.523   0.798
 4416SOL    HW213593   1.914   4.630   0.810
 4417SOL     OW13594   1.992   5.545   1.571
 4417SOL    HW113595   1.982   5.530   1.670
 4417SOL    HW213596   1.906   5.581   1.535
 4418SOL     OW13597   2.727   4.072   0.195
 4418SOL    HW113598   2.786   4.135   0.146
 4418SOL    HW213599   2.746   3.978   0.166
 4419SOL     OW13600   3.581   4.309   1.831
 4419SOL    HW113601   3.555   4.398   1.795
 4419SOL    HW213602   3.579   4.241   1.758
 4420SOL     OW13603   3.224   4.868   0.545
 4420SOL    HW113604   3.307   4.839   0.497
 4420SOL    HW213605   3.175   4.935   0.489
 4421SOL     OW13606   2.412   3.920   0.885
 4421SOL    HW113607   2.407   3.915   0.985
 4421SOL    HW213608   2.414   4.016   0.856
 4422SOL     OW13609   2.870   5.180   0.477
 4422SOL    HW113610   2.824   5.252   0.425
 4422SOL    HW213611   2.866   5.200   0.575
 4423SOL     OW13612   2.213   5.525   0.853
 4423SOL    HW113613   2.263   5.439   0.859
 4423SOL    HW213614   2.278   5.602   0.850
 4424SOL     OW13615   3.657   4.790   0.873
 4424SOL    HW113616   3.595   4.775   0.797
 4424SOL    HW213617   3.605   4.801   0.958
 4425SOL     OW13618   3.089   5.274   1.506
 4425SOL    HW113619   3.095   5.197   1.570
 4425SOL    HW213620   3.037   5.248   1.426
 4426SOL     OW13621   2.183   4.667   0.242
 4426SOL    HW113622   2.265   4.706   0.200
 4426SOL    HW213623   2.156   4.585   0.193
 4427SOL     OW13624   3.320   4.459   0.728
 4427SOL    HW113625   3.315   4.394   0.803
 4427SOL    HW213626   3.400   4.518   0.741
 4428SOL     OW13627   2.323   4.990   1.727
 4428SOL    HW113628   2.273   4.991   1.641
 4428SOL    HW213629   2.260   4.972   1.803
 4429SOL     OW13630   2.973   5.500   0.237
 4429SOL    HW113631   2.913   5.438   0.287
 4429SOL    HW213632   3.004   5.456   0.152
 4430SOL     OW13633   2.064   4.009   1.498
 4430SOL    HW113634   1.984   4.069   1.485
 4430SOL    HW213635   2.054   3.960   1.584
 4431SOL     OW13636   3.494   5.101   0.081
 4431SOL    HW113637   3.462   5.195   0.071
 4431SOL    HW213638   3.418   5.038   0.069
 4432SOL     OW13639   2.326   5.467   0.323
 4432SOL    HW113640   2.359   5.506   0.409
 4432SOL    HW213641   2.402   5.460   0.258
 4433SOL     OW13642   3.262   3.831   0.426
 4433SOL    HW113643   3.238   3.794   0.336
 4433SOL    HW213644   3.361   3.847   0.430
 4434SOL     OW13645   2.111   5.509   1.241
 4434SOL    HW113646   2.168   5.444   1.291
 4434SOL    HW213647   2.095   5.476   1.148
 4435SOL     OW13648   2.802   5.422   0.904
 4435SOL    HW113649   2.882   5.365   0.925
 4435SOL    HW213650   2.753   5.382   0.827
 4436SOL     OW13651   2.244   4.424   0.480
 4436SOL    HW113652   2.289   4.334   0.477
 4436SOL    HW213653   2.150   4.413   0.513
 4437SOL     OW13654   3.409   3.946   1.729
 4437SOL    HW113655   3.404   3.983   1.821
 4437SOL    HW213656   3.337   3.877   1.717
 4438SOL     OW13657   2.476   3.846   0.117
 4438SOL    HW113658   2.574   3.824   0.124
 4438SOL    HW213659   2.445   3.829   0.024
 4439SOL     OW13660   2.643   3.988   1.749
 4439SOL    HW113661   2.710   3.927   1.792
 4439SOL    HW213662   2.570   4.007   1.814
 4440SOL     OW13663   2.750   5.238   1.195
 4440SOL    HW113664   2.727   5.213   1.101
 4440SOL    HW213665   2.811   5.169   1.234
 4441SOL     OW13666   3.213   4.314   1.433
 4441SOL    HW113667   3.241   4.271   1.518
 4441SOL    HW213668   3.238   4.410   1.434
 4442SOL     OW13669   2.665   5.126   0.924
 4442SOL    HW113670   2.755   5.140   0.882
 4442SOL    HW213671   2.594   5.128   0.853
 4443SOL     OW13672   2.784   4.227   0.899
 4443SOL    HW113673   2.759   4.218   0.803
 4443SOL    HW213674   2.832   4.145   0.930
 4444SOL     OW13675   2.401   3.788   0.512
 4444SOL    HW113676   2.320   3.789   0.570
 4444SOL    HW213677   2.404   3.871   0.457
 4445SOL     OW13678   3.296   4.912   0.041
 4445SOL    HW113679   3.328   4.836   0.098
 4445SOL    HW213680   3.204   4.939   0.071
 4446SOL     OW13681   2.159   3.759   0.171
 4446SOL    HW113682   2.208   3.843   0.150
 4446SOL    HW213683   2.221   3.694   0.216
 4447SOL     OW13684   2.797   3.960   0.480
 4447SOL    HW113685   2.749   4.001   0.402
 4447SOL    HW213686   2.896   3.958   0.461
 4448SOL     OW13687   2.938   4.407   1.464
 4448SOL    HW113688   2.858   4.346   1.467
 4448SOL    HW213689   3.019   4.354   1.440
 4449SOL     OW13690   3.089   5.294   0.793
 4449SOL    HW113691   3.110   5.368   0.728
 4449SOL    HW213692   3.157   5.294   0.866
 4450SOL     OW13693   2.321   4.876   0.741
 4450SOL    HW113694   2.250   4.849   0.806
 4450SOL    HW213695   2.295   4.848   0.648
 4451SOL     OW13696   3.133   5.521   0.591
 4451SOL    HW113697   3.177   5.585   0.527
 4451SOL    HW213698   3.083   5.573   0.661
 4452SOL     OW13699   2.894   4.273   0.016
 4452SOL    HW113700   2.853   4.355  -0.023
 4452SOL    HW213701   2.958   4.299   0.089
 4453SOL     OW13702   1.940   4.280   1.386
 4453SOL    HW113703   2.032   4.279   1.345
 4453SOL    HW213704   1.934   4.354   1.453
 4454SOL     OW13705   2.423   3.946   1.147
 4454SOL    HW113706   2.461   3.862   1.184
 4454SOL    HW213707   2.335   3.965   1.191
 4455SOL     OW13708   2.728   4.178   0.642
 4455SOL    HW113709   2.696   4.250   0.580
 4455SOL    HW213710   2.752   4.097   0.589
 4456SOL     OW13711   2.879   3.763   0.753
 4456SOL    HW113712   2.807   3.768   0.684
 4456SOL    HW213713   2.855   3.694   0.822
 4457SOL     OW13714   3.291   4.897   0.867
 4457SOL    HW113715   3.236   4.813   0.860
 4457SOL    HW213716   3.317   4.926   0.775
 4458SOL     OW13717   3.328   4.314   0.992
 4458SOL    HW113718   3.298   4.219   0.999
 4458SOL    HW213719   3.401   4.330   1.058
 4459SOL     OW13720   3.719   4.557   0.377
 4459SOL    HW113721   3.761   4.493   0.441
 4459SOL    HW213722   3.681   4.506   0.299
 4460SOL     OW13723   2.350   5.109   0.174
 4460SOL    HW113724   2.263   5.094   0.221
 4460SOL    HW213725   2.333   5.135   0.079
 4461SOL     OW13726   3.526   5.004   0.657
 4461SOL    HW113727   3.625   5.012   0.671
 4461SOL    HW213728   3.481   5.088   0.688
 4462SOL     OW13729   3.252   4.299   0.078
 4462SOL    HW113730   3.198   4.278   0.159
 4462SOL    HW213731   3.343   4.258   0.087
 4463SOL     OW13732   2.389   3.980   0.328
 4463SOL    HW113733   2.416   3.921   0.253
 4463SOL    HW213734   2.389   4.075   0.297
 4464SOL     OW13735   3.616   4.947   1.588
 4464SOL    HW113736   3.707   4.908   1.575
 4464SOL    HW213737   3.624   5.043   1.612
 4465SOL     OW13738   2.926   5.071   1.340
 4465SOL    HW113739   2.846   5.048   1.395
 4465SOL    HW213740   3.009   5.045   1.389
 4466SOL     OW13741   3.454   5.353   1.625
 4466SOL    HW113742   3.481   5.387   1.535
 4466SOL    HW213743   3.533   5.315   1.671
 4467SOL     OW13744   2.973   4.919   1.100
 4467SOL    HW113745   2.933   4.963   1.181
 4467SOL    HW213746   2.932   4.956   1.017
 4468SOL     OW13747   3.500   4.823   1.079
 4468SOL    HW113748   3.505   4.904   1.138
 4468SOL    HW213749   3.414   4.825   1.028
 4469SOL     OW13750   2.777   3.813   1.402
 4469SOL    HW113751   2.802   3.793   1.307
 4469SOL    HW213752   2.849   3.869   1.444
 4470SOL     OW13753   2.842   4.840   1.719
 4470SOL    HW113754   2.743   4.846   1.729
 4470SOL    HW213755   2.865   4.760   1.663
 4471SOL     OW13756   2.567   4.774   0.368
 4471SOL    HW113757   2.553   4.781   0.467
 4471SOL    HW213758   2.651   4.723   0.350
 4472SOL     OW13759   2.272   4.537   1.251
 4472SOL    HW113760   2.358   4.549   1.301
 4472SOL    HW213761   2.230   4.450   1.278
 4473SOL     OW13762   3.136   4.110   1.262
 4473SOL    HW113763   3.157   4.184   1.326
 4473SOL    HW213764   3.047   4.127   1.219
 4474SOL     OW13765   1.926   5.288   1.331
 4474SOL    HW113766   1.880   5.370   1.297
 4474SOL    HW213767   2.024   5.307   1.340
 4475SOL     OW13768   2.229   4.824   0.501
 4475SOL    HW113769   2.222   4.907   0.445
 4475SOL    HW213770   2.233   4.744   0.441
 4476SOL     OW13771   2.428   4.261   0.865
 4476SOL    HW113772   2.440   4.327   0.791
 4476SOL    HW213773   2.474   4.295   0.948
 4477SOL     OW13774   3.114   5.072   0.388
 4477SOL    HW113775   3.164   5.149   0.428
 4477SOL    HW213776   3.019   5.074   0.420
 4478SOL     OW13777   3.134   5.169   1.142
 4478SOL    HW113778   3.181   5.182   1.229
 4478SOL    HW213779   3.068   5.095   1.151
 4479SOL     OW13780   3.444   4.363   0.472
 4479SOL    HW113781   3.413   4.424   0.545
 4479SOL    HW213782   3.494   4.415   0.403
 4480SOL     OW13783   2.216   5.234   1.329
 4480SOL    HW113784   2.195   5.190   1.242
 4480SOL    HW213785   2.313   5.260   1.332
 4481SOL     OW13786   2.264   4.475   1.598
 4481SOL    HW113787   2.332   4.530   1.551
 4481SOL    HW213788   2.304   4.387   1.625
 4482SOL     OW13789   3.449   4.503   1.670
 4482SOL    HW113790   3.357   4.541   1.665
 4482SOL    HW213791   3.509   4.550   1.605
 4483SOL     OW13792   2.875   3.829   1.770
 4483SOL    HW113793   2.881   3.914   1.718
 4483SOL    HW213794   2.907   3.753   1.713
 4484SOL     OW13795   2.366   3.774   1.740
 4484SOL    HW113796   2.324   3.717   1.670
 4484SOL    HW213797   2.300   3.843   1.772
 4485SOL     OW13798   2.435   4.594   1.029
 4485SOL    HW113799   2.479   4.683   1.020
 4485SOL    HW213800   2.372   4.594   1.106
 4486SOL     OW13801   3.222   4.586   1.045
 4486SOL    HW113802   3.147   4.586   0.979
 4486SOL    HW213803   3.259   4.494   1.054
 4487SOL     OW13804   3.071   4.249   0.275
 4487SOL    HW113805   3.084   4.165   0.329
 4487SOL    HW213806   3.042   4.323   0.335
 4488SOL     OW13807   2.169   3.937   1.231
 4488SOL    HW113808   2.146   3.974   1.321
 4488SOL    HW213809   2.139   3.842   1.225
 4489SOL     OW13810   1.899   5.034   1.282
 4489SOL    HW113811   1.952   4.985   1.350
 4489SOL    HW213812   1.921   5.132   1.287
 4490SOL     OW13813   2.594   4.358   1.064
 4490SOL    HW113814   2.653   4.332   0.988
 4490SOL    HW213815   2.566   4.454   1.053
 4491SOL     OW13816   3.590   4.659   1.854
 4491SOL    HW113817   3.544   4.652   1.765
 4491SOL    HW213818   3.528   4.703   1.920
 4492SOL     OW13819   2.169   3.787   0.618
 4492SOL    HW113820   2.158   3.881   0.651
 4492SOL    HW213821   2.164   3.724   0.695
 4493SOL     OW13822   3.484   4.091   0.374
 4493SOL    HW113823   3.486   4.015   0.438
 4493SOL    HW213824   3.436   4.168   0.414
 4494SOL     OW13825   2.885   4.490   0.966
 4494SOL    HW113826   2.900   4.511   1.062
 4494SOL    HW213827   2.855   4.395   0.957
 4495SOL     OW13828   2.842   5.297   1.700
 4495SOL    HW113829   2.822   5.341   1.612
 4495SOL    HW213830   2.881   5.206   1.684
 4496SOL     OW13831   3.721   5.242   1.605
 4496SOL    HW113832   3.735   5.269   1.510
 4496SOL    HW213833   3.804   5.264   1.658
 4497SOL     OW13834   2.212   4.622   1.804
 4497SOL    HW113835   2.288   4.666   1.852
 4497SOL    HW213836   2.247   4.575   1.722
 4498SOL     OW13837   3.402   3.998   0.125
 4498SOL    HW113838   3.341   3.923   0.148
 4498SOL    HW213839   3.424   4.050   0.208
 4499SOL     OW13840   3.165   4.562   0.042
 4499SOL    HW113841   3.199   4.469   0.057
 4499SOL    HW213842   3.183   4.589  -0.053
 4500SOL     OW13843   2.930   5.057   0.849
 4500SOL    HW113844   2.937   4.973   0.794
 4500SOL    HW213845   2.992   5.126   0.813
 4501SOL     OW13846   2.181   4.534   0.949
 4501SOL    HW113847   2.274   4.570   0.954
 4501SOL    HW213848   2.175   4.449   1.001
 4502SOL     OW13849   2.201   4.233   1.006
 4502SOL    HW113850   2.149   4.150   0.989
 4502SOL    HW213851   2.278   4.238   0.942
 4503SOL     OW13852   3.000   4.104   1.678
 4503SOL    HW113853   2.955   4.167   1.742
 4503SOL    HW213854   3.093   4.135   1.661
 4504SOL     OW13855   3.022   3.931   1.477
 4504SOL    HW113856   3.022   3.995   1.554
 4504SOL    HW213857   3.050   3.979   1.394
 4505SOL     OW13858   1.870   5.050   0.200
 4505SOL    HW113859   1.777   5.071   0.169
 4505SOL    HW213860   1.880   4.951   0.213
 4506SOL     OW13861   1.950   5.525   0.927
 4506SOL    HW113862   1.908   5.439   0.900
 4506SOL    HW213863   2.044   5.528   0.893
 4507SOL     OW13864   2.366   5.292   0.910
 4507SOL    HW113865   2.432   5.366   0.919
 4507SOL    HW213866   2.410   5.213   0.868
 4508SOL     OW13867   2.864   4.520   1.238
 4508SOL    HW113868   2.905   4.488   1.324
 4508SOL    HW213869   2.768   4.493   1.235
 4509SOL     OW13870   1.902   4.268   1.114
 4509SOL    HW113871   1.987   4.235   1.073
 4509SOL    HW213872   1.915   4.283   1.212
 4510SOL     OW13873   2.051   4.244   1.722
 4510SOL    HW113874   2.110   4.204   1.652
 4510SOL    HW213875   1.993   4.315   1.681
 4511SOL     OW13876   3.231   4.674   1.660
 4511SOL    HW113877   3.270   4.763   1.680
 4511SOL    HW213878   3.241   4.654   1.563
 4512SOL     OW13879   2.677   4.296   0.325
 4512SOL    HW113880   2.684   4.207   0.279
 4512SOL    HW213881   2.583   4.330   0.317
 4513SOL     OW13882   3.519   4.328   1.206
 4513SOL    HW113883   3.481   4.259   1.268
 4513SOL    HW213884   3.601   4.292   1.162
 4514SOL     OW13885   2.114   5.288   1.744
 4514SOL    HW113886   2.084   5.345   1.820
 4514SOL    HW213887   2.107   5.191   1.770
 4515SOL     OW13888   2.533   4.188   1.269
 4515SOL    HW113889   2.499   4.099   1.239
 4515SOL    HW213890   2.559   4.242   1.189
 4516SOL     OW13891   2.792   5.402   1.465
 4516SOL    HW113892   2.768   5.384   1.370
 4516SOL    HW213893   2.822   5.496   1.475
 4517SOL     OW13894   2.335   4.224   0.191
 4517SOL    HW113895   2.396   4.304   0.195
 4517SOL    HW213896   2.240   4.255   0.198
 4518SOL     OW13897   2.021   4.861   1.466
 4518SOL    HW113898   2.043   4.800   1.542
 4518SOL    HW213899   2.031   4.812   1.380
 4519SOL     OW13900   3.209   4.783   1.234
 4519SOL    HW113901   3.233   4.720   1.160
 4519SOL    HW213902   3.119   4.823   1.216
 4520SOL     OW13903   3.164   4.579   0.309
 4520SOL    HW113904   3.078   4.548   0.351
 4520SOL    HW213905   3.160   4.565   0.210
 4521SOL     OW13906   3.621   5.471   1.154
 4521SOL    HW113907   3.682   5.501   1.081
 4521SOL    HW213908   3.583   5.382   1.132
 4522SOL     OW13909   3.114   5.455   1.128
 4522SOL    HW113910   3.198   5.460   1.074
 4522SOL    HW213911   3.091   5.359   1.146
 4523SOL     OW13912   1.945   4.982   1.022
 4523SOL    HW113913   1.940   4.981   1.122
 4523SOL    HW213914   1.862   4.941   0.984
 4524SOL     OW13915   2.550   5.386   1.716
 4524SOL    HW113916   2.494   5.467   1.725
 4524SOL    HW213917   2.602   5.390   1.630
 4525SOL     OW13918   3.588   3.859   0.523
 4525SOL    HW113919   3.661   3.842   0.456
 4525SOL    HW213920   3.557   3.772   0.561
 4526SOL     OW13921   3.250   5.297   0.477
 4526SOL    HW113922   3.317   5.309   0.403
 4526SOL    HW213923   3.210   5.386   0.500
 4527SOL     OW13924   1.992   5.518   1.851
 4527SOL    HW113925   1.951   5.444   1.904
 4527SOL    HW213926   2.056   5.569   1.909
 4528SOL     OW13927   3.142   4.651   0.672
 4528SOL    HW113928   3.202   4.570   0.674
 4528SOL    HW213929   3.182   4.720   0.612
 4529SOL     OW13930   2.692   4.997   1.422
 4529SOL    HW113931   2.687   5.030   1.517
 4529SOL    HW213932   2.606   5.016   1.376
 4530SOL     OW13933   2.534   5.340   0.154
 4530SOL    HW113934   2.543   5.350   0.055
 4530SOL    HW213935   2.494   5.251   0.175
 4531SOL     OW13936   3.512   5.444   1.394
 4531SOL    HW113937   3.565   5.454   1.310
 4531SOL    HW213938   3.485   5.534   1.428
 4532SOL     OW13939   3.703   3.899   0.963
 4532SOL    HW113940   3.742   3.814   0.927
 4532SOL    HW213941   3.605   3.901   0.944
 4533SOL     OW13942   2.125   4.050   0.720
 4533SOL    HW113943   2.046   4.101   0.686
 4533SOL    HW213944   2.116   4.035   0.818
 4534SOL     OW13945   3.056   5.336   0.031
 4534SOL    HW113946   3.062   5.243   0.068
 4534SOL    HW213947   2.997   5.336  -0.049
 4535SOL     OW13948   2.684   4.726   1.372
 4535SOL    HW113949   2.724   4.725   1.280
 4535SOL    HW213950   2.694   4.818   1.412
 4536SOL     OW13951   2.778   4.634   0.291
 4536SOL    HW113952   2.841   4.672   0.223
 4536SOL    HW213953   2.818   4.551   0.330
 4537SOL     OW13954   3.366   5.331   0.044
 4537SOL    HW113955   3.274   5.368   0.051
 4537SOL    HW213956   3.404   5.351  -0.046
 4538SOL     OW13957   2.234   5.012   1.490
 4538SOL    HW113958   2.221   5.105   1.456
 4538SOL    HW213959   2.150   4.960   1.477
 4539SOL     OW13960   3.476   5.016   1.289
 4539SOL    HW113961   3.536   5.019   1.369
 4539SOL    HW213962   3.401   5.080   1.302
 4540SOL     OW13963   2.901   4.822   0.696
 4540SOL    HW113964   2.831   4.775   0.750
 4540SOL    HW213965   2.960   4.754   0.653
 4541SOL     OW13966   2.876   3.960   0.971
 4541SOL    HW113967   2.868   3.924   0.878
 4541SOL    HW213968   2.874   3.884   1.036
 4542SOL     OW13969   2.452   5.211   0.491
 4542SOL    HW113970   2.494   5.153   0.421
 4542SOL    HW213971   2.408   5.290   0.447
 4543SOL     OW13972   3.571   4.109   1.381
 4543SOL    HW113973   3.644   4.178   1.385
 4543SOL    HW213974   3.599   4.034   1.322
 4544SOL     OW13975   2.117   5.072   0.290
 4544SOL    HW113976   2.021   5.073   0.263
 4544SOL    HW213977   2.129   5.125   0.374
 4545SOL     OW13978   1.967   4.737   1.726
 4545SOL    HW113979   1.890   4.704   1.780
 4545SOL    HW213980   2.052   4.707   1.768
 4546SOL     OW13981   2.534   3.927   1.489
 4546SOL    HW113982   2.624   3.911   1.449
 4546SOL    HW213983   2.542   3.932   1.588
 4547SOL     OW13984   1.937   4.069   0.033
 4547SOL    HW113985   1.845   4.041   0.004
 4547SOL    HW213986   1.968   4.146  -0.023
 4548SOL     OW13987   3.302   4.580   1.398
 4548SOL    HW113988   3.245   4.632   1.335
 4548SOL    HW213989   3.398   4.592   1.374
 4549SOL     OW13990   1.934   3.890   0.318
 4549SOL    HW113991   1.917   3.973   0.264
 4549SOL    HW213992   2.024   3.853   0.296
 4550SOL     OW13993   3.045   5.059   0.119
 4550SOL    HW113994   2.946   5.048   0.121
 4550SOL    HW213995   3.079   5.074   0.212
 4551SOL     OW13996   2.475   4.566   1.431
 4551SOL    HW113997   2.531   4.647   1.414
 4551SOL    HW213998   2.534   4.486   1.434
 4552SOL     OW13999   3.355   5.491   0.959
 4552SOL    HW114000   3.388   5.555   0.890
 4552SOL    HW214001   3.421   5.485   1.034
 4553SOL     OW14002   2.578   4.289   1.708
 4553SOL    HW114003   2.597   4.354   1.782
 4553SOL    HW214004   2.638   4.209   1.717
 4554SOL     OW14005   3.312   4.944   1.633
 4554SOL    HW114006   3.303   4.934   1.732
 4554SOL    HW214007   3.408   4.937   1.607
 4555SOL     OW14008   2.252   5.465   1.560
 4555SOL    HW114009   2.161   5.506   1.558
 4555SOL    HW214010   2.245   5.371   1.592
 4556SOL     OW14011   3.536   4.607   1.254
 4556SOL    HW114012   3.509   4.518   1.217
 4556SOL    HW214013   3.537   4.675   1.181
 4557SOL     OW14014   3.087   4.049   0.449
 4557SOL    HW114015   3.152   3.975   0.438
 4557SOL    HW214016   3.107   4.099   0.533
 4558SOL     OW14017   2.456   4.469   0.652
 4558SOL    HW114018   2.506   4.554   0.633
 4558SOL    HW214019   2.368   4.471   0.604
 4559SOL     OW14020   3.639   4.066   1.642
 4559SOL    HW114021   3.622   4.097   1.548
 4559SOL    HW214022   3.555   4.029   1.680
 4560SOL     OW14023   3.592   4.658   1.517
 4560SOL    HW114024   3.630   4.749   1.532
 4560SOL    HW214025   3.584   4.641   1.418
 4561SOL     OW14026   2.721   5.098   0.016
 4561SOL    HW114027   2.675   5.113   0.104
 4561SOL    HW214028   2.765   5.183  -0.014
 4562SOL     OW14029   2.523   5.514   0.953
 4562SOL    HW114030   2.477   5.602   0.940
 4562SOL    HW214031   2.622   5.526   0.946
 4563SOL     OW14032   2.721   4.680   0.861
 4563SOL    HW114033   2.775   4.611   0.909
 4563SOL    HW214034   2.689   4.749   0.927
 4564SOL     OW14035   2.945   4.708   0.087
 4564SOL    HW114036   2.922   4.761   0.005
 4564SOL    HW214037   3.026   4.652   0.068
 4565SOL     OW14038   3.723   5.293   0.851
 4565SOL    HW114039   3.652   5.281   0.781
 4565SOL    HW214040   3.724   5.214   0.911
 4566SOL     OW14041   2.083   5.038   1.844
 4566SOL    HW114042   2.018   4.965   1.823
 4566SOL    HW214043   2.087   5.052   1.942
 4567SOL     OW14044   1.941   4.964   0.653
 4567SOL    HW114045   1.940   4.917   0.741
 4567SOL    HW214046   2.023   4.936   0.602
 4568SOL     OW14047   2.534   5.115   1.624
 4568SOL    HW114048   2.456   5.065   1.662
 4568SOL    HW214049   2.531   5.210   1.655
 4569SOL     OW14050   3.686   3.916   1.227
 4569SOL    HW114051   3.682   3.826   1.271
 4569SOL    HW214052   3.689   3.905   1.128
 4570SOL     OW14053   2.290   4.148   0.520
 4570SOL    HW114054   2.320   4.076   0.458
 4570SOL    HW214055   2.251   4.108   0.603
 4571SOL     OW14056   3.567   5.211   1.104
 4571SOL    HW114057   3.474   5.186   1.077
 4571SOL    HW214058   3.593   5.161   1.186
 4572SOL     OW14059   2.179   4.271   1.280
 4572SOL    HW114060   2.217   4.212   1.352
 4572SOL    HW214061   2.219   4.245   1.192
 4573SOL     OW14062   2.674   5.310   0.687
 4573SOL    HW114063   2.706   5.320   0.593
 4573SOL    HW214064   2.595   5.248   0.689
 4574SOL     OW14065   3.286   3.938   1.112
 4574SOL    HW114066   3.338   3.873   1.167
 4574SOL    HW214067   3.237   4.001   1.173
 4575SOL     OW14068   2.863   3.758   1.154
 4575SOL    HW114069   2.800   3.686   1.123
 4575SOL    HW214070   2.956   3.722   1.154
 4576SOL     OW14071   2.632   5.054   0.301
 4576SOL    HW114072   2.586   4.967   0.318
 4576SOL    HW214073   2.723   5.051   0.342
 4577SOL     OW14074   2.480   5.291   1.284
 4577SOL    HW114075   2.475   5.373   1.341
 4577SOL    HW214076   2.569   5.288   1.239
 4578SOL     OW14077   3.214   3.776   0.168
 4578SOL    HW114078   3.249   3.735   0.084
 4578SOL    HW214079   3.124   3.738   0.188
 4579SOL     OW14080   3.162   4.177   0.691
 4579SOL    HW114081   3.103   4.257   0.695
 4579SOL    HW214082   3.177   4.142   0.784
 4580SOL     OW14083   3.455   3.945   0.882
 4580SOL    HW114084   3.371   3.944   0.936
 4580SOL    HW214085   3.457   4.028   0.826
 4581SOL     OW14086   1.901   4.801   0.300
 4581SOL    HW114087   2.000   4.790   0.291
 4581SOL    HW214088   1.861   4.715   0.332
 4582SOL     OW14089   2.737   5.370   0.337
 4582SOL    HW114090   2.660   5.335   0.283
 4582SOL    HW214091   2.705   5.441   0.399
 4583SOL     OW14092   2.092   4.352   1.975
 4583SOL    HW114093   1.999   4.350   2.012
 4583SOL    HW214094   2.093   4.313   1.883
 4584SOL     OW14095   2.087   3.999   2.858
 4584SOL    HW114096   2.122   3.982   2.950
 4584SOL    HW214097   1.999   3.954   2.846
 4585SOL     OW14098   1.881   4.092   2.509
 4585SOL    HW114099   1.799   4.135   2.548
 4585SOL    HW214100   1.853   4.019   2.446
 4586SOL     OW14101   2.431   4.999   3.027
 4586SOL    HW114102   2.338   4.992   2.990
 4586SOL    HW214103   2.442   5.088   3.071
 4587SOL     OW14104   2.997   4.427   2.579
 4587SOL    HW114105   3.054   4.505   2.554
 4587SOL    HW214106   2.937   4.453   2.655
 4588SOL     OW14107   3.617   4.331   2.093
 4588SOL    HW114108   3.605   4.318   1.994
 4588SOL    HW214109   3.587   4.250   2.142
 4589SOL     OW14110   2.630   4.868   2.885
 4589SOL    HW114111   2.552   4.885   2.945
 4589SOL    HW214112   2.664   4.955   2.849
 4590SOL     OW14113   2.712   4.522   3.685
 4590SOL    HW114114   2.708   4.598   3.750
 4590SOL    HW214115   2.734   4.558   3.594
 4591SOL     OW14116   2.547   4.736   2.527
 4591SOL    HW114117   2.616   4.720   2.597
 4591SOL    HW214118   2.474   4.793   2.565
 4592SOL     OW14119   2.548   4.885   3.665
 4592SOL    HW114120   2.608   4.964   3.679
 4592SOL    HW214121   2.462   4.916   3.624
 4593SOL     OW14122   2.197   5.159   2.923
 4593SOL    HW114123   2.119   5.128   2.870
 4593SOL    HW214124   2.255   5.217   2.866
 4594SOL     OW14125   2.300   4.116   3.361
 4594SOL    HW114126   2.382   4.060   3.370
 4594SOL    HW214127   2.219   4.058   3.365
 4595SOL     OW14128   3.465   4.171   2.599
 4595SOL    HW114129   3.391   4.217   2.549
 4595SOL    HW214130   3.516   4.239   2.652
 4596SOL     OW14131   2.093   5.437   2.345
 4596SOL    HW114132   2.127   5.514   2.399
 4596SOL    HW214133   2.137   5.437   2.255
 4597SOL     OW14134   2.989   5.065   3.552
 4597SOL    HW114135   3.036   5.065   3.640
 4597SOL    HW214136   2.941   4.978   3.541
 4598SOL     OW14137   2.092   5.158   2.400
 4598SOL    HW114138   2.066   5.254   2.400
 4598SOL    HW214139   2.021   5.104   2.445
 4599SOL     OW14140   2.102   4.815   2.748
 4599SOL    HW114141   2.116   4.731   2.800
 4599SOL    HW214142   2.047   4.879   2.803
 4600SOL     OW14143   2.482   5.510   3.301
 4600SOL    HW114144   2.390   5.493   3.336
 4600SOL    HW214145   2.510   5.602   3.327
 4601SOL     OW14146   2.468   4.688   1.985
 4601SOL    HW114147   2.475   4.772   1.931
 4601SOL    HW214148   2.514   4.701   2.073
 4602SOL     OW14149   3.456   3.838   3.342
 4602SOL    HW114150   3.438   3.905   3.270
 4602SOL    HW214151   3.453   3.884   3.431
 4603SOL     OW14152   1.984   4.367   2.425
 4603SOL    HW114153   1.939   4.279   2.442
 4603SOL    HW214154   1.983   4.421   2.509
 4604SOL     OW14155   3.704   5.491   2.221
 4604SOL    HW114156   3.758   5.462   2.301
 4604SOL    HW214157   3.734   5.581   2.192
 4605SOL     OW14158   1.889   5.320   1.979
 4605SOL    HW114159   1.870   5.224   2.000
 4605SOL    HW214160   1.856   5.378   2.054
 4606SOL     OW14161   3.551   4.646   2.474
 4606SOL    HW114162   3.646   4.617   2.482
 4606SOL    HW214163   3.543   4.711   2.399
 4607SOL     OW14164   3.503   4.832   2.294
 4607SOL    HW114165   3.589   4.834   2.242
 4607SOL    HW214166   3.517   4.879   2.382
 4608SOL     OW14167   1.975   4.461   3.459
 4608SOL    HW114168   2.063   4.448   3.504
 4608SOL    HW214169   1.962   4.558   3.437
 4609SOL     OW14170   2.475   5.089   2.588
 4609SOL    HW114171   2.426   5.002   2.597
 4609SOL    HW214172   2.452   5.132   2.501
 4610SOL     OW14173   2.671   3.728   2.364
 4610SOL    HW114174   2.711   3.819   2.355
 4610SOL    HW214175   2.571   3.736   2.370
 4611SOL     OW14176   2.059   4.700   3.126
 4611SOL    HW114177   2.148   4.655   3.112
 4611SOL    HW214178   1.986   4.635   3.107
 4612SOL     OW14179   3.387   4.723   2.052
 4612SOL    HW114180   3.324   4.647   2.065
 4612SOL    HW214181   3.435   4.741   2.138
 4613SOL     OW14182   3.049   5.516   3.478
 4613SOL    HW114183   3.073   5.576   3.402
 4613SOL    HW214184   3.056   5.421   3.448
 4614SOL     OW14185   2.179   3.975   3.663
 4614SOL    HW114186   2.250   4.046   3.669
 4614SOL    HW214187   2.091   4.014   3.691
 4615SOL     OW14188   3.328   5.141   2.815
 4615SOL    HW114189   3.269   5.147   2.895
 4615SOL    HW214190   3.313   5.053   2.769
 4616SOL     OW14191   2.460   4.453   2.132
 4616SOL    HW114192   2.484   4.522   2.064
 4616SOL    HW214193   2.382   4.486   2.186
 4617SOL     OW14194   3.143   4.069   2.806
 4617SOL    HW114195   3.057   4.019   2.793
 4617SOL    HW214196   3.205   4.015   2.862
 4618SOL     OW14197   3.438   5.386   2.169
 4618SOL    HW114198   3.527   5.432   2.172
 4618SOL    HW214199   3.417   5.362   2.074
 4619SOL     OW14200   2.669   4.329   3.327
 4619SOL    HW114201   2.622   4.326   3.416
 4619SOL    HW214202   2.618   4.274   3.261
 4620SOL     OW14203   3.256   4.193   3.536
 4620SOL    HW114204   3.236   4.236   3.624
 4620SOL    HW214205   3.334   4.131   3.545
 4621SOL     OW14206   2.835   4.614   3.434
 4621SOL    HW114207   2.881   4.530   3.405
 4621SOL    HW214208   2.779   4.648   3.359
 4622SOL     OW14209   2.853   4.134   3.104
 4622SOL    HW114210   2.776   4.168   3.158
 4622SOL    HW214211   2.819   4.083   3.025
 4623SOL     OW14212   2.903   4.425   2.291
 4623SOL    HW114213   2.929   4.421   2.387
 4623SOL    HW214214   2.818   4.374   2.277
 4624SOL     OW14215   1.938   4.535   2.651
 4624SOL    HW114216   2.037   4.523   2.660
 4624SOL    HW214217   1.914   4.630   2.672
 4625SOL     OW14218   1.992   5.545   3.433
 4625SOL    HW114219   1.982   5.530   3.532
 4625SOL    HW214220   1.906   5.581   3.397
 4626SOL     OW14221   2.727   4.072   2.057
 4626SOL    HW114222   2.786   4.135   2.008
 4626SOL    HW214223   2.746   3.978   2.028
 4627SOL     OW14224   3.581   4.309   3.693
 4627SOL    HW114225   3.555   4.398   3.657
 4627SOL    HW214226   3.579   4.241   3.620
 4628SOL     OW14227   2.412   3.920   2.747
 4628SOL    HW114228   2.407   3.915   2.847
 4628SOL    HW214229   2.414   4.016   2.718
 4629SOL     OW14230   2.870   5.180   2.339
 4629SOL    HW114231   2.824   5.252   2.287
 4629SOL    HW214232   2.866   5.200   2.437
 4630SOL     OW14233   2.213   5.525   2.715
 4630SOL    HW114234   2.263   5.439   2.721
 4630SOL    HW214235   2.278   5.602   2.712
 4631SOL     OW14236   3.657   4.790   2.735
 4631SOL    HW114237   3.595   4.775   2.659
 4631SOL    HW214238   3.605   4.801   2.820
 4632SOL     OW14239   2.183   4.667   2.104
 4632SOL    HW114240   2.265   4.706   2.062
 4632SOL    HW214241   2.156   4.585   2.055
 4633SOL     OW14242   3.320   4.459   2.590
 4633SOL    HW114243   3.315   4.394   2.665
 4633SOL    HW214244   3.400   4.518   2.603
 4634SOL     OW14245   2.323   4.990   3.589
 4634SOL    HW114246   2.273   4.991   3.503
 4634SOL    HW214247   2.260   4.972   3.665
 4635SOL     OW14248   2.973   5.500   2.099
 4635SOL    HW114249   2.913   5.438   2.149
 4635SOL    HW214250   3.004   5.456   2.014
 4636SOL     OW14251   2.064   4.009   3.360
 4636SOL    HW114252   1.984   4.069   3.347
 4636SOL    HW214253   2.054   3.960   3.446
 4637SOL     OW14254   3.494   5.101   1.943
 4637SOL    HW114255   3.462   5.195   1.933
 4637SOL    HW214256   3.418   5.038   1.931
 4638SOL     OW14257   2.326   5.467   2.185
 4638SOL    HW114258   2.359   5.506   2.271
 4638SOL    HW214259   2.402   5.460   2.120
 4639SOL     OW14260   3.262   3.831   2.288
 4639SOL    HW114261   3.238   3.794   2.198
 4639SOL    HW214262   3.361   3.847   2.292
 4640SOL     OW14263   2.111   5.509   3.103
 4640SOL    HW114264   2.168   5.444   3.153
 4640SOL    HW214265   2.095   5.476   3.010
 4641SOL     OW14266   2.802   5.422   2.766
 4641SOL    HW114267   2.882   5.365   2.787
 4641SOL    HW214268   2.753   5.382   2.689
 4642SOL     OW14269   2.244   4.424   2.342
 4642SOL    HW114270   2.289   4.334   2.339
 4642SOL    HW214271   2.150   4.413   2.375
 4643SOL     OW14272   3.409   3.946   3.591
 4643SOL    HW114273   3.404   3.983   3.683
 4643SOL    HW214274   3.337   3.877   3.579
 4644SOL     OW14275   2.476   3.846   1.979
 4644SOL    HW114276   2.574   3.824   1.986
 4644SOL    HW214277   2.445   3.829   1.886
 4645SOL     OW14278   2.643   3.988   3.611
 4645SOL    HW114279   2.710   3.927   3.654
 4645SOL    HW214280   2.570   4.007   3.676
 4646SOL     OW14281   2.750   5.238   3.057
 4646SOL    HW114282   2.727   5.213   2.963
 4646SOL    HW214283   2.811   5.169   3.096
 4647SOL     OW14284   3.213   4.314   3.295
 4647SOL    HW114285   3.241   4.271   3.380
 4647SOL    HW214286   3.238   4.410   3.296
 4648SOL     OW14287   2.665   5.126   2.786
 4648SOL    HW114288   2.755   5.140   2.744
 4648SOL    HW214289   2.594   5.128   2.715
 4649SOL     OW14290   2.784   4.227   2.761
 4649SOL    HW114291   2.759   4.218   2.665
 4649SOL    HW214292   2.832   4.145   2.792
 4650SOL     OW14293   2.401   3.788   2.374
 4650SOL    HW114294   2.320   3.789   2.432
 4650SOL    HW214295   2.404   3.871   2.319
 4651SOL     OW14296   3.296   4.912   1.903
 4651SOL    HW114297   3.328   4.836   1.960
 4651SOL    HW214298   3.204   4.939   1.933
 4652SOL     OW14299   2.159   3.759   2.033
 4652SOL    HW114300   2.208   3.843   2.012
 4652SOL    HW214301   2.221   3.694   2.078
 4653SOL     OW14302   2.797   3.960   2.342
 4653SOL    HW114303   2.749   4.001   2.264
 4653SOL    HW214304   2.896   3.958   2.323
 4654SOL     OW14305   2.938   4.407   3.326
 4654SOL    HW114306   2.858   4.346   3.329
 4654SOL    HW214307   3.019   4.354   3.302
 4655SOL     OW14308   3.089   5.294   2.655
 4655SOL    HW114309   3.110   5.368   2.590
 4655SOL    HW214310   3.157   5.294   2.728
 4656SOL     OW14311   2.321   4.876   2.603
 4656SOL    HW114312   2.250   4.849   2.668
 4656SOL    HW214313   2.295   4.848   2.510
 4657SOL     OW14314   3.133   5.521   2.453
 4657SOL    HW114315   3.177   5.585   2.389
 4657SOL    HW214316   3.083   5.573   2.523
 4658SOL     OW14317   2.894   4.273   1.878
 4658SOL    HW114318   2.853   4.355   1.839
 4658SOL    HW214319   2.958   4.299   1.951
 4659SOL     OW14320   1.940   4.280   3.248
 4659SOL    HW114321   2.032   4.279   3.207
 4659SOL    HW214322   1.934   4.354   3.315
 4660SOL     OW14323   2.423   3.946   3.009
 4660SOL    HW114324   2.461   3.862   3.046
 4660SOL    HW214325   2.335   3.965   3.053
 4661SOL     OW14326   2.728   4.178   2.504
 4661SOL    HW114327   2.696   4.250   2.442
 4661SOL    HW214328   2.752   4.097   2.451
 4662SOL     OW14329   2.879   3.763   2.615
 4662SOL    HW114330   2.807   3.768   2.546
 4662SOL    HW214331   2.855   3.694   2.684
 4663SOL     OW14332   3.328   4.314   2.854
 4663SOL    HW114333   3.298   4.219   2.861
 4663SOL    HW214334   3.401   4.330   2.920
 4664SOL     OW14335   3.719   4.557   2.239
 4664SOL    HW114336   3.761   4.493   2.303
 4664SOL    HW214337   3.681   4.506   2.161
 4665SOL     OW14338   2.350   5.109   2.036
 4665SOL    HW114339   2.263   5.094   2.083
 4665SOL    HW214340   2.333   5.135   1.941
 4666SOL     OW14341   3.252   4.299   1.940
 4666SOL    HW114342   3.198   4.278   2.021
 4666SOL    HW214343   3.343   4.258   1.949
 4667SOL     OW14344   2.389   3.980   2.190
 4667SOL    HW114345   2.416   3.921   2.115
 4667SOL    HW214346   2.389   4.075   2.159
 4668SOL     OW14347   2.926   5.071   3.202
 4668SOL    HW114348   2.846   5.048   3.257
 4668SOL    HW214349   3.009   5.045   3.251
 4669SOL     OW14350   2.973   4.919   2.962
 4669SOL    HW114351   2.933   4.963   3.043
 4669SOL    HW214352   2.932   4.956   2.879
 4670SOL     OW14353   3.500   4.823   2.941
 4670SOL    HW114354   3.505   4.904   3.000
 4670SOL    HW214355   3.414   4.825   2.890
 4671SOL     OW14356   2.777   3.813   3.264
 4671SOL    HW114357   2.802   3.793   3.169
 4671SOL    HW214358   2.849   3.869   3.306
 4672SOL     OW14359   2.842   4.840   3.581
 4672SOL    HW114360   2.743   4.846   3.591
 4672SOL    HW214361   2.865   4.760   3.525
 4673SOL     OW14362   2.567   4.774   2.230
 4673SOL    HW114363   2.553   4.781   2.329
 4673SOL    HW214364   2.651   4.723   2.212
 4674SOL     OW14365   2.272   4.537   3.113
 4674SOL    HW114366   2.358   4.549   3.163
 4674SOL    HW214367   2.230   4.450   3.140
 4675SOL     OW14368   3.136   4.110   3.124
 4675SOL    HW114369   3.157   4.184   3.188
 4675SOL    HW214370   3.047   4.127   3.081
 4676SOL     OW14371   1.926   5.288   3.193
 4676SOL    HW114372   1.880   5.370   3.159
 4676SOL    HW214373   2.024   5.307   3.202
 4677SOL     OW14374   2.229   4.824   2.363
 4677SOL    HW114375   2.222   4.907   2.307
 4677SOL    HW214376   2.233   4.744   2.303
 4678SOL     OW14377   2.428   4.261   2.727
 4678SOL    HW114378   2.440   4.327   2.653
 4678SOL    HW214379   2.474   4.295   2.810
 4679SOL     OW14380   3.114   5.072   2.250
 4679SOL    HW114381   3.164   5.149   2.290
 4679SOL    HW214382   3.019   5.074   2.282
 4680SOL     OW14383   3.444   4.363   2.334
 4680SOL    HW114384   3.413   4.424   2.407
 4680SOL    HW214385   3.494   4.415   2.265
 4681SOL     OW14386   2.216   5.234   3.191
 4681SOL    HW114387   2.195   5.190   3.104
 4681SOL    HW214388   2.313   5.260   3.194
 4682SOL     OW14389   2.264   4.475   3.460
 4682SOL    HW114390   2.332   4.530   3.413
 4682SOL    HW214391   2.304   4.387   3.487
 4683SOL     OW14392   3.449   4.503   3.532
 4683SOL    HW114393   3.357   4.541   3.527
 4683SOL    HW214394   3.509   4.550   3.467
 4684SOL     OW14395   2.875   3.829   3.632
 4684SOL    HW114396   2.881   3.914   3.580
 4684SOL    HW214397   2.907   3.753   3.575
 4685SOL     OW14398   2.366   3.774   3.602
 4685SOL    HW114399   2.324   3.717   3.532
 4685SOL    HW214400   2.300   3.843   3.634
 4686SOL     OW14401   2.435   4.594   2.891
 4686SOL    HW114402   2.479   4.683   2.882
 4686SOL    HW214403   2.372   4.594   2.968
 4687SOL     OW14404   3.222   4.586   2.907
 4687SOL    HW114405   3.147   4.586   2.841
 4687SOL    HW214406   3.259   4.494   2.916
 4688SOL     OW14407   3.071   4.249   2.137
 4688SOL    HW114408   3.084   4.165   2.191
 4688SOL    HW214409   3.042   4.323   2.197
 4689SOL     OW14410   2.169   3.937   3.093
 4689SOL    HW114411   2.146   3.974   3.183
 4689SOL    HW214412   2.139   3.842   3.087
 4690SOL     OW14413   1.899   5.034   3.144
 4690SOL    HW114414   1.952   4.985   3.212
 4690SOL    HW214415   1.921   5.132   3.149
 4691SOL     OW14416   2.594   4.358   2.926
 4691SOL    HW114417   2.653   4.332   2.850
 4691SOL    HW214418   2.566   4.454   2.915
 4692SOL     OW14419   3.590   4.659   3.716
 4692SOL    HW114420   3.544   4.652   3.627
 4692SOL    HW214421   3.528   4.703   3.782
 4693SOL     OW14422   2.169   3.787   2.480
 4693SOL    HW114423   2.158   3.881   2.513
 4693SOL    HW214424   2.164   3.724   2.557
 4694SOL     OW14425   3.484   4.091   2.236
 4694SOL    HW114426   3.486   4.015   2.300
 4694SOL    HW214427   3.436   4.168   2.276
 4695SOL     OW14428   2.885   4.490   2.828
 4695SOL    HW114429   2.900   4.511   2.924
 4695SOL    HW214430   2.855   4.395   2.819
 4696SOL     OW14431   2.842   5.297   3.562
 4696SOL    HW114432   2.822   5.341   3.474
 4696SOL    HW214433   2.881   5.206   3.546
 4697SOL     OW14434   2.212   4.622   3.666
 4697SOL    HW114435   2.288   4.666   3.714
 4697SOL    HW214436   2.247   4.575   3.584
 4698SOL     OW14437   3.402   3.998   1.987
 4698SOL    HW114438   3.341   3.923   2.010
 4698SOL    HW214439   3.424   4.050   2.070
 4699SOL     OW14440   3.165   4.562   1.904
 4699SOL    HW114441   3.199   4.469   1.919
 4699SOL    HW214442   3.183   4.589   1.809
 4700SOL     OW14443   2.930   5.057   2.711
 4700SOL    HW114444   2.937   4.973   2.656
 4700SOL    HW214445   2.992   5.126   2.675
 4701SOL     OW14446   2.181   4.534   2.811
 4701SOL    HW114447   2.274   4.570   2.816
 4701SOL    HW214448   2.175   4.449   2.863
 4702SOL     OW14449   2.201   4.233   2.868
 4702SOL    HW114450   2.149   4.150   2.851
 4702SOL    HW214451   2.278   4.238   2.804
 4703SOL     OW14452   3.000   4.104   3.540
 4703SOL    HW114453   2.955   4.167   3.604
 4703SOL    HW214454   3.093   4.135   3.523
 4704SOL     OW14455   3.022   3.931   3.339
 4704SOL    HW114456   3.022   3.995   3.416
 4704SOL    HW214457   3.050   3.979   3.256
 4705SOL     OW14458   1.870   5.050   2.062
 4705SOL    HW114459   1.777   5.071   2.031
 4705SOL    HW214460   1.880   4.951   2.075
 4706SOL     OW14461   1.950   5.525   2.789
 4706SOL    HW114462   1.908   5.439   2.762
 4706SOL    HW214463   2.044   5.528   2.755
 4707SOL     OW14464   2.366   5.292   2.772
 4707SOL    HW114465   2.432   5.366   2.781
 4707SOL    HW214466   2.410   5.213   2.730
 4708SOL     OW14467   2.864   4.520   3.100
 4708SOL    HW114468   2.905   4.488   3.186
 4708SOL    HW214469   2.768   4.493   3.097
 4709SOL     OW14470   1.902   4.268   2.976
 4709SOL    HW114471   1.987   4.235   2.935
 4709SOL    HW214472   1.915   4.283   3.074
 4710SOL     OW14473   2.051   4.244   3.584
 4710SOL    HW114474   2.110   4.204   3.514
 4710SOL    HW214475   1.993   4.315   3.543
 4711SOL     OW14476   3.231   4.674   3.522
 4711SOL    HW114477   3.270   4.763   3.542
 4711SOL    HW214478   3.241   4.654   3.425
 4712SOL     OW14479   2.677   4.296   2.187
 4712SOL    HW114480   2.684   4.207   2.141
 4712SOL    HW214481   2.583   4.330   2.179
 4713SOL     OW14482   3.519   4.328   3.068
 4713SOL    HW114483   3.481   4.259   3.130
 4713SOL    HW214484   3.601   4.292   3.024
 4714SOL     OW14485   2.114   5.288   3.606
 4714SOL    HW114486   2.084   5.345   3.682
 4714SOL    HW214487   2.107   5.191   3.632
 4715SOL     OW14488   2.533   4.188   3.131
 4715SOL    HW114489   2.499   4.099   3.101
 4715SOL    HW214490   2.559   4.242   3.051
 4716SOL     OW14491   2.792   5.402   3.327
 4716SOL    HW114492   2.768   5.384   3.232
 4716SOL    HW214493   2.822   5.496   3.337
 4717SOL     OW14494   2.335   4.224   2.053
 4717SOL    HW114495   2.396   4.304   2.057
 4717SOL    HW214496   2.240   4.255   2.060
 4718SOL     OW14497   2.021   4.861   3.328
 4718SOL    HW114498   2.043   4.800   3.404
 4718SOL    HW214499   2.031   4.812   3.242
 4719SOL     OW14500   3.209   4.783   3.096
 4719SOL    HW114501   3.233   4.720   3.022
 4719SOL    HW214502   3.119   4.823   3.078
 4720SOL     OW14503   3.164   4.579   2.171
 4720SOL    HW114504   3.078   4.548   2.213
 4720SOL    HW214505   3.160   4.565   2.072
 4721SOL     OW14506   3.114   5.455   2.990
 4721SOL    HW114507   3.198   5.460   2.936
 4721SOL    HW214508   3.091   5.359   3.008
 4722SOL     OW14509   1.945   4.982   2.884
 4722SOL    HW114510   1.940   4.981   2.984
 4722SOL    HW214511   1.862   4.941   2.846
 4723SOL     OW14512   2.550   5.386   3.578
 4723SOL    HW114513   2.494   5.467   3.587
 4723SOL    HW214514   2.602   5.390   3.492
 4724SOL     OW14515   3.588   3.859   2.385
 4724SOL    HW114516   3.661   3.842   2.318
 4724SOL    HW214517   3.557   3.772   2.423
 4725SOL     OW14518   3.250   5.297   2.339
 4725SOL    HW114519   3.317   5.309   2.265
 4725SOL    HW214520   3.210   5.386   2.362
 4726SOL     OW14521   1.992   5.518   3.713
 4726SOL    HW114522   1.951   5.444   3.766
 4726SOL    HW214523   2.056   5.569   3.771
 4727SOL     OW14524   3.142   4.651   2.534
 4727SOL    HW114525   3.202   4.570   2.536
 4727SOL    HW214526   3.182   4.720   2.474
 4728SOL     OW14527   2.692   4.997   3.284
 4728SOL    HW114528   2.687   5.030   3.379
 4728SOL    HW214529   2.606   5.016   3.238
 4729SOL     OW14530   2.534   5.340   2.016
 4729SOL    HW114531   2.543   5.350   1.917
 4729SOL    HW214532   2.494   5.251   2.037
 4730SOL     OW14533   3.703   3.899   2.825
 4730SOL    HW114534   3.742   3.814   2.789
 4730SOL    HW214535   3.605   3.901   2.806
 4731SOL     OW14536   2.125   4.050   2.582
 4731SOL    HW114537   2.046   4.101   2.548
 4731SOL    HW214538   2.116   4.035   2.680
 4732SOL     OW14539   3.056   5.336   1.893
 4732SOL    HW114540   3.062   5.243   1.930
 4732SOL    HW214541   2.997   5.336   1.813
 4733SOL     OW14542   2.684   4.726   3.234
 4733SOL    HW114543   2.724   4.725   3.142
 4733SOL    HW214544   2.694   4.818   3.274
 4734SOL     OW14545   2.778   4.634   2.153
 4734SOL    HW114546   2.841   4.672   2.085
 4734SOL    HW214547   2.818   4.551   2.192
 4735SOL     OW14548   3.366   5.331   1.906
 4735SOL    HW114549   3.274   5.368   1.913
 4735SOL    HW214550   3.404   5.351   1.816
 4736SOL     OW14551   2.234   5.012   3.352
 4736SOL    HW114552   2.221   5.105   3.318
 4736SOL    HW214553   2.150   4.960   3.339
 4737SOL     OW14554   2.901   4.822   2.558
 4737SOL    HW114555   2.831   4.775   2.612
 4737SOL    HW214556   2.960   4.754   2.515
 4738SOL     OW14557   2.876   3.960   2.833
 4738SOL    HW114558   2.868   3.924   2.740
 4738SOL    HW214559   2.874   3.884   2.898
 4739SOL     OW14560   2.452   5.211   2.353
 4739SOL    HW114561   2.494   5.153   2.283
 4739SOL    HW214562   2.408   5.290   2.309
 4740SOL     OW14563   3.571   4.109   3.243
 4740SOL    HW114564   3.644   4.178   3.247
 4740SOL    HW214565   3.599   4.034   3.184
 4741SOL     OW14566   2.117   5.072   2.152
 4741SOL    HW114567   2.021   5.073   2.125
 4741SOL    HW214568   2.129   5.125   2.236
 4742SOL     OW14569   1.967   4.737   3.588
 4742SOL    HW114570   1.890   4.704   3.642
 4742SOL    HW214571   2.052   4.707   3.630
 4743SOL     OW14572   2.534   3.927   3.351
 4743SOL    HW114573   2.624   3.911   3.311
 4743SOL    HW214574   2.542   3.932   3.450
 4744SOL     OW14575   1.937   4.069   1.895
 4744SOL    HW114576   1.845   4.041   1.866
 4744SOL    HW214577   1.968   4.146   1.839
 4745SOL     OW14578   3.302   4.580   3.260
 4745SOL    HW114579   3.245   4.632   3.197
 4745SOL    HW214580   3.398   4.592   3.236
 4746SOL     OW14581   1.934   3.890   2.180
 4746SOL    HW114582   1.917   3.973   2.126
 4746SOL    HW214583   2.024   3.853   2.158
 4747SOL     OW14584   3.045   5.059   1.981
 4747SOL    HW114585   2.946   5.048   1.983
 4747SOL    HW214586   3.079   5.074   2.074
 4748SOL     OW14587   2.475   4.566   3.293
 4748SOL    HW114588   2.531   4.647   3.276
 4748SOL    HW214589   2.534   4.486   3.296
 4749SOL     OW14590   2.578   4.289   3.570
 4749SOL    HW114591   2.597   4.354   3.644
 4749SOL    HW214592   2.638   4.209   3.579
 4750SOL     OW14593   3.312   4.944   3.495
 4750SOL    HW114594   3.303   4.934   3.594
 4750SOL    HW214595   3.408   4.937   3.469
 4751SOL     OW14596   2.252   5.465   3.422
 4751SOL    HW114597   2.161   5.506   3.420
 4751SOL    HW214598   2.245   5.371   3.454
 4752SOL     OW14599   3.536   4.607   3.116
 4752SOL    HW114600   3.509   4.518   3.079
 4752SOL    HW214601   3.537   4.675   3.043
 4753SOL     OW14602   3.087   4.049   2.311
 4753SOL    HW114603   3.152   3.975   2.300
 4753SOL    HW214604   3.107   4.099   2.395
 4754SOL     OW14605   2.456   4.469   2.514
 4754SOL    HW114606   2.506   4.554   2.495
 4754SOL    HW214607   2.368   4.471   2.466
 4755SOL     OW14608   3.639   4.066   3.504
 4755SOL    HW114609   3.622   4.097   3.410
 4755SOL    HW214610   3.555   4.029   3.542
 4756SOL     OW14611   2.721   5.098   1.878
 4756SOL    HW114612   2.675   5.113   1.966
 4756SOL    HW214613   2.765   5.183   1.848
 4757SOL     OW14614   2.523   5.514   2.815
 4757SOL    HW114615   2.477   5.602   2.802
 4757SOL    HW214616   2.622   5.526   2.808
 4758SOL     OW14617   2.721   4.680   2.723
 4758SOL    HW114618   2.775   4.611   2.771
 4758SOL    HW214619   2.689   4.749   2.789
 4759SOL     OW14620   2.945   4.708   1.949
 4759SOL    HW114621   2.922   4.761   1.867
 4759SOL    HW214622   3.026   4.652   1.930
 4760SOL     OW14623   2.083   5.038   3.706
 4760SOL    HW114624   2.018   4.965   3.685
 4760SOL    HW214625   2.087   5.052   3.804
 4761SOL     OW14626   1.941   4.964   2.515
 4761SOL    HW114627   1.940   4.917   2.603
 4761SOL    HW214628   2.023   4.936   2.464
 4762SOL     OW14629   2.534   5.115   3.486
 4762SOL    HW114630   2.456   5.065   3.524
 4762SOL    HW214631   2.531   5.210   3.517
 4763SOL     OW14632   3.686   3.916   3.089
 4763SOL    HW114633   3.682   3.826   3.133
 4763SOL    HW214634   3.689   3.905   2.990
 4764SOL     OW14635   2.290   4.148   2.382
 4764SOL    HW114636   2.320   4.076   2.320
 4764SOL    HW214637   2.251   4.108   2.465
 4765SOL     OW14638   2.179   4.271   3.142
 4765SOL    HW114639   2.217   4.212   3.214
 4765SOL    HW214640   2.219   4.245   3.054
 4766SOL     OW14641   2.674   5.310   2.549
 4766SOL    HW114642   2.706   5.320   2.455
 4766SOL    HW214643   2.595   5.248   2.551
 4767SOL     OW14644   3.286   3.938   2.974
 4767SOL    HW114645   3.338   3.873   3.029
 4767SOL    HW214646   3.237   4.001   3.035
 4768SOL     OW14647   2.863   3.758   3.016
 4768SOL    HW114648   2.800   3.686   2.985
 4768SOL    HW214649   2.956   3.722   3.016
 4769SOL     OW14650   2.632   5.054   2.163
 4769SOL    HW114651   2.586   4.967   2.180
 4769SOL    HW214652   2.723   5.051   2.204
 4770SOL     OW14653   2.480   5.291   3.146
 4770SOL    HW114654   2.475   5.373   3.203
 4770SOL    HW214655   2.569   5.288   3.101
 4771SOL     OW14656   3.214   3.776   2.030
 4771SOL    HW114657   3.249   3.735   1.946
 4771SOL    HW214658   3.124   3.738   2.050
 4772SOL     OW14659   3.162   4.177   2.553
 4772SOL    HW114660   3.103   4.257   2.557
 4772SOL    HW214661   3.177   4.142   2.646
 4773SOL     OW14662   3.455   3.945   2.744
 4773SOL    HW114663   3.371   3.944   2.798
 4773SOL    HW214664   3.457   4.028   2.688
 4774SOL     OW14665   1.901   4.801   2.162
 4774SOL    HW114666   2.000   4.790   2.153
 4774SOL    HW214667   1.861   4.715   2.194
 4775SOL     OW14668   2.737   5.370   2.199
 4775SOL    HW114669   2.660   5.335   2.145
 4775SOL    HW214670   2.705   5.441   2.261
 4776SOL     OW14671   2.092   4.352   3.837
 4776SOL    HW114672   1.999   4.350   3.874
 4776SOL    HW214673   2.093   4.313   3.745
 4777SOL     OW14674   2.087   3.999   4.720
 4777SOL    HW114675   2.122   3.982   4.812
 4777SOL    HW214676   1.999   3.954   4.708
 4778SOL     OW14677   1.881   4.092   4.371
 4778SOL    HW114678   1.799   4.135   4.410
 4778SOL    HW214679   1.853   4.019   4.308
 4779SOL     OW14680   2.431   4.999   4.889
 4779SOL    HW114681   2.338   4.992   4.852
 4779SOL    HW214682   2.442   5.088   4.933
 4780SOL     OW14683   3.417   5.235   4.427
 4780SOL    HW114684   3.360   5.219   4.508
 4780SOL    HW214685   3.358   5.245   4.347
 4781SOL     OW14686   2.997   4.427   4.441
 4781SOL    HW114687   3.054   4.505   4.416
 4781SOL    HW214688   2.937   4.453   4.517
 4782SOL     OW14689   3.617   4.331   3.955
 4782SOL    HW114690   3.605   4.318   3.856
 4782SOL    HW214691   3.587   4.250   4.004
 4783SOL     OW14692   2.630   4.868   4.747
 4783SOL    HW114693   2.552   4.885   4.807
 4783SOL    HW214694   2.664   4.955   4.711
 4784SOL     OW14695   2.712   4.522   5.547
 4784SOL    HW114696   2.708   4.598   5.612
 4784SOL    HW214697   2.734   4.558   5.456
 4785SOL     OW14698   2.547   4.736   4.389
 4785SOL    HW114699   2.616   4.720   4.459
 4785SOL    HW214700   2.474   4.793   4.427
 4786SOL     OW14701   2.548   4.885   5.527
 4786SOL    HW114702   2.608   4.964   5.541
 4786SOL    HW214703   2.462   4.916   5.486
 4787SOL     OW14704   3.322   5.229   5.063
 4787SOL    HW114705   3.346   5.323   5.089
 4787SOL    HW214706   3.306   5.175   5.145
 4788SOL     OW14707   2.300   4.116   5.223
 4788SOL    HW114708   2.382   4.060   5.232
 4788SOL    HW214709   2.219   4.058   5.227
 4789SOL     OW14710   3.465   4.171   4.461
 4789SOL    HW114711   3.391   4.217   4.411
 4789SOL    HW214712   3.516   4.239   4.514
 4790SOL     OW14713   2.093   5.437   4.207
 4790SOL    HW114714   2.127   5.514   4.261
 4790SOL    HW214715   2.137   5.437   4.117
 4791SOL     OW14716   2.989   5.065   5.414
 4791SOL    HW114717   3.036   5.065   5.502
 4791SOL    HW214718   2.941   4.978   5.403
 4792SOL     OW14719   2.092   5.158   4.262
 4792SOL    HW114720   2.066   5.254   4.262
 4792SOL    HW214721   2.021   5.104   4.307
 4793SOL     OW14722   2.102   4.815   4.610
 4793SOL    HW114723   2.116   4.731   4.662
 4793SOL    HW214724   2.047   4.879   4.665
 4794SOL     OW14725   2.482   5.510   5.163
 4794SOL    HW114726   2.390   5.493   5.198
 4794SOL    HW214727   2.510   5.602   5.189
 4795SOL     OW14728   2.468   4.688   3.847
 4795SOL    HW114729   2.475   4.772   3.793
 4795SOL    HW214730   2.514   4.701   3.935
 4796SOL     OW14731   3.456   3.838   5.204
 4796SOL    HW114732   3.438   3.905   5.132
 4796SOL    HW214733   3.453   3.884   5.293
 4797SOL     OW14734   1.984   4.367   4.287
 4797SOL    HW114735   1.939   4.279   4.304
 4797SOL    HW214736   1.983   4.421   4.371
 4798SOL     OW14737   1.889   5.320   3.841
 4798SOL    HW114738   1.870   5.224   3.862
 4798SOL    HW214739   1.856   5.378   3.916
 4799SOL     OW14740   3.551   4.646   4.336
 4799SOL    HW114741   3.646   4.617   4.344
 4799SOL    HW214742   3.543   4.711   4.261
 4800SOL     OW14743   1.975   4.461   5.321
 4800SOL    HW114744   2.063   4.448   5.366
 4800SOL    HW214745   1.962   4.558   5.299
 4801SOL     OW14746   2.475   5.089   4.450
 4801SOL    HW114747   2.426   5.002   4.459
 4801SOL    HW214748   2.452   5.132   4.363
 4802SOL     OW14749   3.155   4.952   5.147
 4802SOL    HW114750   3.192   4.879   5.089
 4802SOL    HW214751   3.207   4.957   5.232
 4803SOL     OW14752   2.671   3.728   4.226
 4803SOL    HW114753   2.711   3.819   4.217
 4803SOL    HW214754   2.571   3.736   4.232
 4804SOL     OW14755   2.059   4.700   4.988
 4804SOL    HW114756   2.148   4.655   4.974
 4804SOL    HW214757   1.986   4.635   4.969
 4805SOL     OW14758   3.387   4.723   3.914
 4805SOL    HW114759   3.324   4.647   3.927
 4805SOL    HW214760   3.435   4.741   4.000
 4806SOL     OW14761   3.049   5.516   5.340
 4806SOL    HW114762   3.073   5.576   5.264
 4806SOL    HW214763   3.056   5.421   5.310
 4807SOL     OW14764   2.179   3.975   5.525
 4807SOL    HW114765   2.250   4.046   5.531
 4807SOL    HW214766   2.091   4.014   5.553
 4808SOL     OW14767   3.328   5.141   4.677
 4808SOL    HW114768   3.269   5.147   4.757
 4808SOL    HW214769   3.313   5.053   4.631
 4809SOL     OW14770   3.529   5.438   4.296
 4809SOL    HW114771   3.488   5.415   4.208
 4809SOL    HW214772   3.511   5.364   4.361
 4810SOL     OW14773   2.460   4.453   3.994
 4810SOL    HW114774   2.484   4.522   3.926
 4810SOL    HW214775   2.382   4.486   4.048
 4811SOL     OW14776   3.143   4.069   4.668
 4811SOL    HW114777   3.057   4.019   4.655
 4811SOL    HW214778   3.205   4.015   4.724
 4812SOL     OW14779   2.669   4.329   5.189
 4812SOL    HW114780   2.622   4.326   5.278
 4812SOL    HW214781   2.618   4.274   5.123
 4813SOL     OW14782   3.256   4.193   5.398
 4813SOL    HW114783   3.236   4.236   5.486
 4813SOL    HW214784   3.334   4.131   5.407
 4814SOL     OW14785   2.835   4.614   5.296
 4814SOL    HW114786   2.881   4.530   5.267
 4814SOL    HW214787   2.779   4.648   5.221
 4815SOL     OW14788   2.853   4.134   4.966
 4815SOL    HW114789   2.776   4.168   5.020
 4815SOL    HW214790   2.819   4.083   4.887
 4816SOL     OW14791   2.903   4.425   4.153
 4816SOL    HW114792   2.929   4.421   4.249
 4816SOL    HW214793   2.818   4.374   4.139
 4817SOL     OW14794   1.938   4.535   4.513
 4817SOL    HW114795   2.037   4.523   4.522
 4817SOL    HW214796   1.914   4.630   4.534
 4818SOL     OW14797   1.992   5.545   5.295
 4818SOL    HW114798   1.982   5.530   5.394
 4818SOL    HW214799   1.906   5.581   5.259
 4819SOL     OW14800   2.727   4.072   3.919
 4819SOL    HW114801   2.786   4.135   3.870
 4819SOL    HW214802   2.746   3.978   3.890
 4820SOL     OW14803   3.581   4.309   5.555
 4820SOL    HW114804   3.555   4.398   5.519
 4820SOL    HW214805   3.579   4.241   5.482
 4821SOL     OW14806   3.224   4.868   4.269
 4821SOL    HW114807   3.307   4.839   4.221
 4821SOL    HW214808   3.175   4.935   4.213
 4822SOL     OW14809   2.412   3.920   4.609
 4822SOL    HW114810   2.407   3.915   4.709
 4822SOL    HW214811   2.414   4.016   4.580
 4823SOL     OW14812   3.657   4.790   4.597
 4823SOL    HW114813   3.595   4.775   4.521
 4823SOL    HW214814   3.605   4.801   4.682
 4824SOL     OW14815   3.089   5.274   5.230
 4824SOL    HW114816   3.095   5.197   5.294
 4824SOL    HW214817   3.037   5.248   5.150
 4825SOL     OW14818   2.183   4.667   3.966
 4825SOL    HW114819   2.265   4.706   3.924
 4825SOL    HW214820   2.156   4.585   3.917
 4826SOL     OW14821   3.320   4.459   4.452
 4826SOL    HW114822   3.315   4.394   4.527
 4826SOL    HW214823   3.400   4.518   4.465
 4827SOL     OW14824   2.323   4.990   5.451
 4827SOL    HW114825   2.273   4.991   5.365
 4827SOL    HW214826   2.260   4.972   5.527
 4828SOL     OW14827   2.064   4.009   5.222
 4828SOL    HW114828   1.984   4.069   5.209
 4828SOL    HW214829   2.054   3.960   5.308
 4829SOL     OW14830   2.326   5.467   4.047
 4829SOL    HW114831   2.359   5.506   4.133
 4829SOL    HW214832   2.402   5.460   3.982
 4830SOL     OW14833   3.262   3.831   4.150
 4830SOL    HW114834   3.238   3.794   4.060
 4830SOL    HW214835   3.361   3.847   4.154
 4831SOL     OW14836   2.802   5.422   4.628
 4831SOL    HW114837   2.882   5.365   4.649
 4831SOL    HW214838   2.753   5.382   4.551
 4832SOL     OW14839   2.244   4.424   4.204
 4832SOL    HW114840   2.289   4.334   4.201
 4832SOL    HW214841   2.150   4.413   4.237
 4833SOL     OW14842   3.409   3.946   5.453
 4833SOL    HW114843   3.404   3.983   5.545
 4833SOL    HW214844   3.337   3.877   5.441
 4834SOL     OW14845   2.476   3.846   3.841
 4834SOL    HW114846   2.574   3.824   3.848
 4834SOL    HW214847   2.445   3.829   3.748
 4835SOL     OW14848   2.643   3.988   5.473
 4835SOL    HW114849   2.710   3.927   5.516
 4835SOL    HW214850   2.570   4.007   5.538
 4836SOL     OW14851   2.750   5.238   4.919
 4836SOL    HW114852   2.727   5.213   4.825
 4836SOL    HW214853   2.811   5.169   4.958
 4837SOL     OW14854   3.213   4.314   5.157
 4837SOL    HW114855   3.241   4.271   5.242
 4837SOL    HW214856   3.238   4.410   5.158
 4838SOL     OW14857   2.665   5.126   4.648
 4838SOL    HW114858   2.755   5.140   4.606
 4838SOL    HW214859   2.594   5.128   4.577
 4839SOL     OW14860   2.784   4.227   4.623
 4839SOL    HW114861   2.759   4.218   4.527
 4839SOL    HW214862   2.832   4.145   4.654
 4840SOL     OW14863   2.401   3.788   4.236
 4840SOL    HW114864   2.320   3.789   4.294
 4840SOL    HW214865   2.404   3.871   4.181
 4841SOL     OW14866   3.296   4.912   3.765
 4841SOL    HW114867   3.328   4.836   3.822
 4841SOL    HW214868   3.204   4.939   3.795
 4842SOL     OW14869   2.159   3.759   3.895
 4842SOL    HW114870   2.208   3.843   3.874
 4842SOL    HW214871   2.221   3.694   3.940
 4843SOL     OW14872   2.797   3.960   4.204
 4843SOL    HW114873   2.749   4.001   4.126
 4843SOL    HW214874   2.896   3.958   4.185
 4844SOL     OW14875   2.938   4.407   5.188
 4844SOL    HW114876   2.858   4.346   5.191
 4844SOL    HW214877   3.019   4.354   5.164
 4845SOL     OW14878   2.321   4.876   4.465
 4845SOL    HW114879   2.250   4.849   4.530
 4845SOL    HW214880   2.295   4.848   4.372
 4846SOL     OW14881   2.894   4.273   3.740
 4846SOL    HW114882   2.853   4.355   3.701
 4846SOL    HW214883   2.958   4.299   3.813
 4847SOL     OW14884   1.940   4.280   5.110
 4847SOL    HW114885   2.032   4.279   5.069
 4847SOL    HW214886   1.934   4.354   5.177
 4848SOL     OW14887   2.423   3.946   4.871
 4848SOL    HW114888   2.461   3.862   4.908
 4848SOL    HW214889   2.335   3.965   4.915
 4849SOL     OW14890   2.728   4.178   4.366
 4849SOL    HW114891   2.696   4.250   4.304
 4849SOL    HW214892   2.752   4.097   4.313
 4850SOL     OW14893   2.879   3.763   4.477
 4850SOL    HW114894   2.807   3.768   4.408
 4850SOL    HW214895   2.855   3.694   4.546
 4851SOL     OW14896   3.291   4.897   4.591
 4851SOL    HW114897   3.236   4.813   4.584
 4851SOL    HW214898   3.317   4.926   4.499
 4852SOL     OW14899   3.328   4.314   4.716
 4852SOL    HW114900   3.298   4.219   4.723
 4852SOL    HW214901   3.401   4.330   4.782
 4853SOL     OW14902   3.719   4.557   4.101
 4853SOL    HW114903   3.761   4.493   4.165
 4853SOL    HW214904   3.681   4.506   4.023
 4854SOL     OW14905   2.350   5.109   3.898
 4854SOL    HW114906   2.263   5.094   3.945
 4854SOL    HW214907   2.333   5.135   3.803
 4855SOL     OW14908   3.526   5.004   4.381
 4855SOL    HW114909   3.625   5.012   4.395
 4855SOL    HW214910   3.481   5.088   4.412
 4856SOL     OW14911   3.252   4.299   3.802
 4856SOL    HW114912   3.198   4.278   3.883
 4856SOL    HW214913   3.343   4.258   3.811
 4857SOL     OW14914   2.389   3.980   4.052
 4857SOL    HW114915   2.416   3.921   3.977
 4857SOL    HW214916   2.389   4.075   4.021
 4858SOL     OW14917   3.616   4.947   5.312
 4858SOL    HW114918   3.707   4.908   5.299
 4858SOL    HW214919   3.624   5.043   5.336
 4859SOL     OW14920   2.926   5.071   5.064
 4859SOL    HW114921   2.846   5.048   5.119
 4859SOL    HW214922   3.009   5.045   5.113
 4860SOL     OW14923   3.454   5.353   5.349
 4860SOL    HW114924   3.481   5.387   5.259
 4860SOL    HW214925   3.533   5.315   5.395
 4861SOL     OW14926   2.973   4.919   4.824
 4861SOL    HW114927   2.933   4.963   4.905
 4861SOL    HW214928   2.932   4.956   4.741
 4862SOL     OW14929   3.500   4.823   4.803
 4862SOL    HW114930   3.505   4.904   4.862
 4862SOL    HW214931   3.414   4.825   4.752
 4863SOL     OW14932   2.777   3.813   5.126
 4863SOL    HW114933   2.802   3.793   5.031
 4863SOL    HW214934   2.849   3.869   5.168
 4864SOL     OW14935   2.842   4.840   5.443
 4864SOL    HW114936   2.743   4.846   5.453
 4864SOL    HW214937   2.865   4.760   5.387
 4865SOL     OW14938   2.567   4.774   4.092
 4865SOL    HW114939   2.553   4.781   4.191
 4865SOL    HW214940   2.651   4.723   4.074
 4866SOL     OW14941   2.272   4.537   4.975
 4866SOL    HW114942   2.358   4.549   5.025
 4866SOL    HW214943   2.230   4.450   5.002
 4867SOL     OW14944   3.136   4.110   4.986
 4867SOL    HW114945   3.157   4.184   5.050
 4867SOL    HW214946   3.047   4.127   4.943
 4868SOL     OW14947   1.926   5.288   5.055
 4868SOL    HW114948   1.880   5.370   5.021
 4868SOL    HW214949   2.024   5.307   5.064
 4869SOL     OW14950   2.229   4.824   4.225
 4869SOL    HW114951   2.222   4.907   4.169
 4869SOL    HW214952   2.233   4.744   4.165
 4870SOL     OW14953   2.428   4.261   4.589
 4870SOL    HW114954   2.440   4.327   4.515
 4870SOL    HW214955   2.474   4.295   4.672
 4871SOL     OW14956   3.114   5.072   4.112
 4871SOL    HW114957   3.164   5.149   4.152
 4871SOL    HW214958   3.019   5.074   4.144
 4872SOL     OW14959   3.134   5.169   4.866
 4872SOL    HW114960   3.181   5.182   4.953
 4872SOL    HW214961   3.068   5.095   4.875
 4873SOL     OW14962   3.444   4.363   4.196
 4873SOL    HW114963   3.413   4.424   4.269
 4873SOL    HW214964   3.494   4.415   4.127
 4874SOL     OW14965   2.216   5.234   5.053
 4874SOL    HW114966   2.195   5.190   4.966
 4874SOL    HW214967   2.313   5.260   5.056
 4875SOL     OW14968   2.264   4.475   5.322
 4875SOL    HW114969   2.332   4.530   5.275
 4875SOL    HW214970   2.304   4.387   5.349
 4876SOL     OW14971   3.449   4.503   5.394
 4876SOL    HW114972   3.357   4.541   5.389
 4876SOL    HW214973   3.509   4.550   5.329
 4877SOL     OW14974   2.875   3.829   5.494
 4877SOL    HW114975   2.881   3.914   5.442
 4877SOL    HW214976   2.907   3.753   5.437
 4878SOL     OW14977   2.366   3.774   5.464
 4878SOL    HW114978   2.324   3.717   5.394
 4878SOL    HW214979   2.300   3.843   5.496
 4879SOL     OW14980   2.435   4.594   4.753
 4879SOL    HW114981   2.479   4.683   4.744
 4879SOL    HW214982   2.372   4.594   4.830
 4880SOL     OW14983   3.222   4.586   4.769
 4880SOL    HW114984   3.147   4.586   4.703
 4880SOL    HW214985   3.259   4.494   4.778
 4881SOL     OW14986   3.071   4.249   3.999
 4881SOL    HW114987   3.084   4.165   4.053
 4881SOL    HW214988   3.042   4.323   4.059
 4882SOL     OW14989   2.169   3.937   4.955
 4882SOL    HW114990   2.146   3.974   5.045
 4882SOL    HW214991   2.139   3.842   4.949
 4883SOL     OW14992   1.899   5.034   5.006
 4883SOL    HW114993   1.952   4.985   5.074
 4883SOL    HW214994   1.921   5.132   5.011
 4884SOL     OW14995   2.594   4.358   4.788
 4884SOL    HW114996   2.653   4.332   4.712
 4884SOL    HW214997   2.566   4.454   4.777
 4885SOL     OW14998   3.590   4.659   5.578
 4885SOL    HW114999   3.544   4.652   5.489
 4885SOL    HW215000   3.528   4.703   5.644
 4886SOL     OW15001   2.169   3.787   4.342
 4886SOL    HW115002   2.158   3.881   4.375
 4886SOL    HW215003   2.164   3.724   4.419
 4887SOL     OW15004   3.484   4.091   4.098
 4887SOL    HW115005   3.486   4.015   4.162
 4887SOL    HW215006   3.436   4.168   4.138
 4888SOL     OW15007   2.885   4.490   4.690
 4888SOL    HW115008   2.900   4.511   4.786
 4888SOL    HW215009   2.855   4.395   4.681
 4889SOL     OW15010   2.842   5.297   5.424
 4889SOL    HW115011   2.822   5.341   5.336
 4889SOL    HW215012   2.881   5.206   5.408
 4890SOL     OW15013   3.721   5.242   5.329
 4890SOL    HW115014   3.735   5.269   5.234
 4890SOL    HW215015   3.804   5.264   5.382
 4891SOL     OW15016   2.212   4.622   5.528
 4891SOL    HW115017   2.288   4.666   5.576
 4891SOL    HW215018   2.247   4.575   5.446
 4892SOL     OW15019   3.402   3.998   3.849
 4892SOL    HW115020   3.341   3.923   3.872
 4892SOL    HW215021   3.424   4.050   3.932
 4893SOL     OW15022   3.165   4.562   3.766
 4893SOL    HW115023   3.199   4.469   3.781
 4893SOL    HW215024   3.183   4.589   3.671
 4894SOL     OW15025   2.930   5.057   4.573
 4894SOL    HW115026   2.937   4.973   4.518
 4894SOL    HW215027   2.992   5.126   4.537
 4895SOL     OW15028   2.181   4.534   4.673
 4895SOL    HW115029   2.274   4.570   4.678
 4895SOL    HW215030   2.175   4.449   4.725
 4896SOL     OW15031   2.201   4.233   4.730
 4896SOL    HW115032   2.149   4.150   4.713
 4896SOL    HW215033   2.278   4.238   4.666
 4897SOL     OW15034   3.000   4.104   5.402
 4897SOL    HW115035   2.955   4.167   5.466
 4897SOL    HW215036   3.093   4.135   5.385
 4898SOL     OW15037   3.022   3.931   5.201
 4898SOL    HW115038   3.022   3.995   5.278
 4898SOL    HW215039   3.050   3.979   5.118
 4899SOL     OW15040   1.870   5.050   3.924
 4899SOL    HW115041   1.777   5.071   3.893
 4899SOL    HW215042   1.880   4.951   3.937
 4900SOL     OW15043   1.950   5.525   4.651
 4900SOL    HW115044   1.908   5.439   4.624
 4900SOL    HW215045   2.044   5.528   4.617
 4901SOL     OW15046   2.864   4.520   4.962
 4901SOL    HW115047   2.905   4.488   5.048
 4901SOL    HW215048   2.768   4.493   4.959
 4902SOL     OW15049   1.902   4.268   4.838
 4902SOL    HW115050   1.987   4.235   4.797
 4902SOL    HW215051   1.915   4.283   4.936
 4903SOL     OW15052   2.051   4.244   5.446
 4903SOL    HW115053   2.110   4.204   5.376
 4903SOL    HW215054   1.993   4.315   5.405
 4904SOL     OW15055   3.231   4.674   5.384
 4904SOL    HW115056   3.270   4.763   5.404
 4904SOL    HW215057   3.241   4.654   5.287
 4905SOL     OW15058   2.677   4.296   4.049
 4905SOL    HW115059   2.684   4.207   4.003
 4905SOL    HW215060   2.583   4.330   4.041
 4906SOL     OW15061   3.519   4.328   4.930
 4906SOL    HW115062   3.481   4.259   4.992
 4906SOL    HW215063   3.601   4.292   4.886
 4907SOL     OW15064   2.114   5.288   5.468
 4907SOL    HW115065   2.084   5.345   5.544
 4907SOL    HW215066   2.107   5.191   5.494
 4908SOL     OW15067   2.533   4.188   4.993
 4908SOL    HW115068   2.499   4.099   4.963
 4908SOL    HW215069   2.559   4.242   4.913
 4909SOL     OW15070   2.792   5.402   5.189
 4909SOL    HW115071   2.768   5.384   5.094
 4909SOL    HW215072   2.822   5.496   5.199
 4910SOL     OW15073   2.335   4.224   3.915
 4910SOL    HW115074   2.396   4.304   3.919
 4910SOL    HW215075   2.240   4.255   3.922
 4911SOL     OW15076   2.021   4.861   5.190
 4911SOL    HW115077   2.043   4.800   5.266
 4911SOL    HW215078   2.031   4.812   5.104
 4912SOL     OW15079   3.209   4.783   4.958
 4912SOL    HW115080   3.233   4.720   4.884
 4912SOL    HW215081   3.119   4.823   4.940
 4913SOL     OW15082   3.164   4.579   4.033
 4913SOL    HW115083   3.078   4.548   4.075
 4913SOL    HW215084   3.160   4.565   3.934
 4914SOL     OW15085   3.621   5.471   4.878
 4914SOL    HW115086   3.682   5.501   4.805
 4914SOL    HW215087   3.583   5.382   4.856
 4915SOL     OW15088   1.945   4.982   4.746
 4915SOL    HW115089   1.940   4.981   4.846
 4915SOL    HW215090   1.862   4.941   4.708
 4916SOL     OW15091   2.550   5.386   5.440
 4916SOL    HW115092   2.494   5.467   5.449
 4916SOL    HW215093   2.602   5.390   5.354
 4917SOL     OW15094   3.588   3.859   4.247
 4917SOL    HW115095   3.661   3.842   4.180
 4917SOL    HW215096   3.557   3.772   4.285
 4918SOL     OW15097   1.992   5.518   5.575
 4918SOL    HW115098   1.951   5.444   5.628
 4918SOL    HW215099   2.056   5.569   5.633
 4919SOL     OW15100   3.142   4.651   4.396
 4919SOL    HW115101   3.202   4.570   4.398
 4919SOL    HW215102   3.182   4.720   4.336
 4920SOL     OW15103   2.692   4.997   5.146
 4920SOL    HW115104   2.687   5.030   5.241
 4920SOL    HW215105   2.606   5.016   5.100
 4921SOL     OW15106   2.534   5.340   3.878
 4921SOL    HW115107   2.543   5.350   3.779
 4921SOL    HW215108   2.494   5.251   3.899
 4922SOL     OW15109   3.512   5.444   5.118
 4922SOL    HW115110   3.565   5.454   5.034
 4922SOL    HW215111   3.485   5.534   5.152
 4923SOL     OW15112   3.703   3.899   4.687
 4923SOL    HW115113   3.742   3.814   4.651
 4923SOL    HW215114   3.605   3.901   4.668
 4924SOL     OW15115   2.125   4.050   4.444
 4924SOL    HW115116   2.046   4.101   4.410
 4924SOL    HW215117   2.116   4.035   4.542
 4925SOL     OW15118   2.684   4.726   5.096
 4925SOL    HW115119   2.724   4.725   5.004
 4925SOL    HW215120   2.694   4.818   5.136
 4926SOL     OW15121   2.778   4.634   4.015
 4926SOL    HW115122   2.841   4.672   3.947
 4926SOL    HW215123   2.818   4.551   4.054
 4927SOL     OW15124   2.234   5.012   5.214
 4927SOL    HW115125   2.221   5.105   5.180
 4927SOL    HW215126   2.150   4.960   5.201
 4928SOL     OW15127   3.476   5.016   5.013
 4928SOL    HW115128   3.536   5.019   5.093
 4928SOL    HW215129   3.401   5.080   5.026
 4929SOL     OW15130   2.901   4.822   4.420
 4929SOL    HW115131   2.831   4.775   4.474
 4929SOL    HW215132   2.960   4.754   4.377
 4930SOL     OW15133   2.876   3.960   4.695
 4930SOL    HW115134   2.868   3.924   4.602
 4930SOL    HW215135   2.874   3.884   4.760
 4931SOL     OW15136   2.452   5.211   4.215
 4931SOL    HW115137   2.494   5.153   4.145
 4931SOL    HW215138   2.408   5.290   4.171
 4932SOL     OW15139   3.571   4.109   5.105
 4932SOL    HW115140   3.644   4.178   5.109
 4932SOL    HW215141   3.599   4.034   5.046
 4933SOL     OW15142   2.117   5.072   4.014
 4933SOL    HW115143   2.021   5.073   3.987
 4933SOL    HW215144   2.129   5.125   4.098
 4934SOL     OW15145   1.967   4.737   5.450
 4934SOL    HW115146   1.890   4.704   5.504
 4934SOL    HW215147   2.052   4.707   5.492
 4935SOL     OW15148   2.534   3.927   5.213
 4935SOL    HW115149   2.624   3.911   5.173
 4935SOL    HW215150   2.542   3.932   5.312
 4936SOL     OW15151   1.937   4.069   3.757
 4936SOL    HW115152   1.845   4.041   3.728
 4936SOL    HW215153   1.968   4.146   3.701
 4937SOL     OW15154   3.302   4.580   5.122
 4937SOL    HW115155   3.245   4.632   5.059
 4937SOL    HW215156   3.398   4.592   5.098
 4938SOL     OW15157   1.934   3.890   4.042
 4938SOL    HW115158   1.917   3.973   3.988
 4938SOL    HW215159   2.024   3.853   4.020
 4939SOL     OW15160   2.475   4.566   5.155
 4939SOL    HW115161   2.531   4.647   5.138
 4939SOL    HW215162   2.534   4.486   5.158
 4940SOL     OW15163   2.578   4.289   5.432
 4940SOL    HW115164   2.597   4.354   5.506
 4940SOL    HW215165   2.638   4.209   5.441
 4941SOL     OW15166   3.312   4.944   5.357
 4941SOL    HW115167   3.303   4.934   5.456
 4941SOL    HW215168   3.408   4.937   5.331
 4942SOL     OW15169   2.252   5.465   5.284
 4942SOL    HW115170   2.161   5.506   5.282
 4942SOL    HW215171   2.245   5.371   5.316
 4943SOL     OW15172   3.536   4.607   4.978
 4943SOL    HW115173   3.509   4.518   4.941
 4943SOL    HW215174   3.537   4.675   4.905
 4944SOL     OW15175   3.087   4.049   4.173
 4944SOL    HW115176   3.152   3.975   4.162
 4944SOL    HW215177   3.107   4.099   4.257
 4945SOL     OW15178   2.456   4.469   4.376
 4945SOL    HW115179   2.506   4.554   4.357
 4945SOL    HW215180   2.368   4.471   4.328
 4946SOL     OW15181   3.639   4.066   5.366
 4946SOL    HW115182   3.622   4.097   5.272
 4946SOL    HW215183   3.555   4.029   5.404
 4947SOL     OW15184   3.592   4.658   5.241
 4947SOL    HW115185   3.630   4.749   5.256
 4947SOL    HW215186   3.584   4.641   5.142
 4948SOL     OW15187   2.721   5.098   3.740
 4948SOL    HW115188   2.675   5.113   3.828
 4948SOL    HW215189   2.765   5.183   3.710
 4949SOL     OW15190   2.721   4.680   4.585
 4949SOL    HW115191   2.775   4.611   4.633
 4949SOL    HW215192   2.689   4.749   4.651
 4950SOL     OW15193   2.945   4.708   3.811
 4950SOL    HW115194   2.922   4.761   3.729
 4950SOL    HW215195   3.026   4.652   3.792
 4951SOL     OW15196   3.723   5.293   4.575
 4951SOL    HW115197   3.652   5.281   4.505
 4951SOL    HW215198   3.724   5.214   4.635
 4952SOL     OW15199   2.083   5.038   5.568
 4952SOL    HW115200   2.018   4.965   5.547
 4952SOL    HW215201   2.087   5.052   5.666
 4953SOL     OW15202   1.941   4.964   4.377
 4953SOL    HW115203   1.940   4.917   4.465
 4953SOL    HW215204   2.023   4.936   4.326
 4954SOL     OW15205   2.534   5.115   5.348
 4954SOL    HW115206   2.456   5.065   5.386
 4954SOL    HW215207   2.531   5.210   5.379
 4955SOL     OW15208   3.686   3.916   4.951
 4955SOL    HW115209   3.682   3.826   4.995
 4955SOL    HW215210   3.689   3.905   4.852
 4956SOL     OW15211   2.290   4.148   4.244
 4956SOL    HW115212   2.320   4.076   4.182
 4956SOL    HW215213   2.251   4.108   4.327
 4957SOL     OW15214   3.567   5.211   4.828
 4957SOL    HW115215   3.474   5.186   4.801
 4957SOL    HW215216   3.593   5.161   4.910
 4958SOL     OW15217   2.179   4.271   5.004
 4958SOL    HW115218   2.217   4.212   5.076
 4958SOL    HW215219   2.219   4.245   4.916
 4959SOL     OW15220   2.674   5.310   4.411
 4959SOL    HW115221   2.706   5.320   4.317
 4959SOL    HW215222   2.595   5.248   4.413
 4960SOL     OW15223   3.286   3.938   4.836
 4960SOL    HW115224   3.338   3.873   4.891
 4960SOL    HW215225   3.237   4.001   4.897
 4961SOL     OW15226   2.863   3.758   4.878
 4961SOL    HW115227   2.800   3.686   4.847
 4961SOL    HW215228   2.956   3.722   4.878
 4962SOL     OW15229   2.632   5.054   4.025
 4962SOL    HW115230   2.586   4.967   4.042
 4962SOL    HW215231   2.723   5.051   4.066
 4963SOL     OW15232   2.480   5.291   5.008
 4963SOL    HW115233   2.475   5.373   5.065
 4963SOL    HW215234   2.569   5.288   4.963
 4964SOL     OW15235   3.214   3.776   3.892
 4964SOL    HW115236   3.249   3.735   3.808
 4964SOL    HW215237   3.124   3.738   3.912
 4965SOL     OW15238   3.162   4.177   4.415
 4965SOL    HW115239   3.103   4.257   4.419
 4965SOL    HW215240   3.177   4.142   4.508
 4966SOL     OW15241   3.455   3.945   4.606
 4966SOL    HW115242   3.371   3.944   4.660
 4966SOL    HW215243   3.457   4.028   4.550
 4967SOL     OW15244   1.901   4.801   4.024
 4967SOL    HW115245   2.000   4.790   4.015
 4967SOL    HW215246   1.861   4.715   4.056
 4968SOL     OW15247   2.737   5.370   4.061
 4968SOL    HW115248   2.660   5.335   4.007
 4968SOL    HW215249   2.705   5.441   4.123
 4969SOL     OW15250   2.092   4.352   5.699
 4969SOL    HW115251   1.999   4.350   5.736
 4969SOL    HW215252   2.093   4.313   5.607
 4970SOL     OW15253   1.881   4.092   6.233
 4970SOL    HW115254   1.799   4.135   6.272
 4970SOL    HW215255   1.853   4.019   6.170
 4971SOL     OW15256   3.417   5.235   6.289
 4971SOL    HW115257   3.360   5.219   6.370
 4971SOL    HW215258   3.358   5.245   6.209
 4972SOL     OW15259   2.997   4.427   6.303
 4972SOL    HW115260   3.054   4.505   6.278
 4972SOL    HW215261   2.937   4.453   6.379
 4973SOL     OW15262   3.617   4.331   5.817
 4973SOL    HW115263   3.605   4.318   5.718
 4973SOL    HW215264   3.587   4.250   5.866
 4974SOL     OW15265   2.547   4.736   6.251
 4974SOL    HW115266   2.616   4.720   6.321
 4974SOL    HW215267   2.474   4.793   6.289
 4975SOL     OW15268   3.465   4.171   6.323
 4975SOL    HW115269   3.391   4.217   6.273
 4975SOL    HW215270   3.516   4.239   6.376
 4976SOL     OW15271   2.093   5.437   6.069
 4976SOL    HW115272   2.127   5.514   6.123
 4976SOL    HW215273   2.137   5.437   5.979
 4977SOL     OW15274   2.092   5.158   6.124
 4977SOL    HW115275   2.066   5.254   6.124
 4977SOL    HW215276   2.021   5.104   6.169
 4978SOL     OW15277   2.102   4.815   6.472
 4978SOL    HW115278   2.116   4.731   6.524
 4978SOL    HW215279   2.047   4.879   6.527
 4979SOL     OW15280   2.468   4.688   5.709
 4979SOL    HW115281   2.475   4.772   5.655
 4979SOL    HW215282   2.514   4.701   5.797
 4980SOL     OW15283   1.984   4.367   6.149
 4980SOL    HW115284   1.939   4.279   6.166
 4980SOL    HW215285   1.983   4.421   6.233
 4981SOL     OW15286   3.704   5.491   5.945
 4981SOL    HW115287   3.758   5.462   6.025
 4981SOL    HW215288   3.734   5.581   5.916
 4982SOL     OW15289   1.889   5.320   5.703
 4982SOL    HW115290   1.870   5.224   5.724
 4982SOL    HW215291   1.856   5.378   5.778
 4983SOL     OW15292   3.551   4.646   6.198
 4983SOL    HW115293   3.646   4.617   6.206
 4983SOL    HW215294   3.543   4.711   6.123
 4984SOL     OW15295   3.503   4.832   6.018
 4984SOL    HW115296   3.589   4.834   5.966
 4984SOL    HW215297   3.517   4.879   6.106
 4985SOL     OW15298   2.475   5.089   6.312
 4985SOL    HW115299   2.426   5.002   6.321
 4985SOL    HW215300   2.452   5.132   6.225
 4986SOL     OW15301   2.671   3.728   6.088
 4986SOL    HW115302   2.711   3.819   6.079
 4986SOL    HW215303   2.571   3.736   6.094
 4987SOL     OW15304   3.387   4.723   5.776
 4987SOL    HW115305   3.324   4.647   5.789
 4987SOL    HW215306   3.435   4.741   5.862
 4988SOL     OW15307   3.529   5.438   6.158
 4988SOL    HW115308   3.488   5.415   6.070
 4988SOL    HW215309   3.511   5.364   6.223
 4989SOL     OW15310   2.460   4.453   5.856
 4989SOL    HW115311   2.484   4.522   5.788
 4989SOL    HW215312   2.382   4.486   5.910
 4990SOL     OW15313   3.438   5.386   5.893
 4990SOL    HW115314   3.527   5.432   5.896
 4990SOL    HW215315   3.417   5.362   5.798
 4991SOL     OW15316   2.903   4.425   6.015
 4991SOL    HW115317   2.929   4.421   6.111
 4991SOL    HW215318   2.818   4.374   6.001
 4992SOL     OW15319   1.938   4.535   6.375
 4992SOL    HW115320   2.037   4.523   6.384
 4992SOL    HW215321   1.914   4.630   6.396
 4993SOL     OW15322   2.727   4.072   5.781
 4993SOL    HW115323   2.786   4.135   5.732
 4993SOL    HW215324   2.746   3.978   5.752
 4994SOL     OW15325   3.224   4.868   6.131
 4994SOL    HW115326   3.307   4.839   6.083
 4994SOL    HW215327   3.175   4.935   6.075
 4995SOL     OW15328   2.412   3.920   6.471
 4995SOL    HW115329   2.407   3.915   6.571
 4995SOL    HW215330   2.414   4.016   6.442
 4996SOL     OW15331   2.870   5.180   6.063
 4996SOL    HW115332   2.824   5.252   6.011
 4996SOL    HW215333   2.866   5.200   6.161
 4997SOL     OW15334   2.213   5.525   6.439
 4997SOL    HW115335   2.263   5.439   6.445
 4997SOL    HW215336   2.278   5.602   6.436
 4998SOL     OW15337   3.657   4.790   6.459
 4998SOL    HW115338   3.595   4.775   6.383
 4998SOL    HW215339   3.605   4.801   6.544
 4999SOL     OW15340   2.183   4.667   5.828
 4999SOL    HW115341   2.265   4.706   5.786
 4999SOL    HW215342   2.156   4.585   5.779
 5000SOL     OW15343   3.320   4.459   6.314
 5000SOL    HW115344   3.315   4.394   6.389
 5000SOL    HW215345   3.400   4.518   6.327
 5001SOL     OW15346   2.973   5.500   5.823
 5001SOL    HW115347   2.913   5.438   5.873
 5001SOL    HW215348   3.004   5.456   5.738
 5002SOL     OW15349   3.494   5.101   5.667
 5002SOL    HW115350   3.462   5.195   5.657
 5002SOL    HW215351   3.418   5.038   5.655
 5003SOL     OW15352   2.326   5.467   5.909
 5003SOL    HW115353   2.359   5.506   5.995
 5003SOL    HW215354   2.402   5.460   5.844
 5004SOL     OW15355   3.262   3.831   6.012
 5004SOL    HW115356   3.238   3.794   5.922
 5004SOL    HW215357   3.361   3.847   6.016
 5005SOL     OW15358   2.802   5.422   6.490
 5005SOL    HW115359   2.882   5.365   6.511
 5005SOL    HW215360   2.753   5.382   6.413
 5006SOL     OW15361   2.244   4.424   6.066
 5006SOL    HW115362   2.289   4.334   6.063
 5006SOL    HW215363   2.150   4.413   6.099
 5007SOL     OW15364   2.476   3.846   5.703
 5007SOL    HW115365   2.574   3.824   5.710
 5007SOL    HW215366   2.445   3.829   5.610
 5008SOL     OW15367   2.665   5.126   6.510
 5008SOL    HW115368   2.755   5.140   6.468
 5008SOL    HW215369   2.594   5.128   6.439
 5009SOL     OW15370   2.784   4.227   6.485
 5009SOL    HW115371   2.759   4.218   6.389
 5009SOL    HW215372   2.832   4.145   6.516
 5010SOL     OW15373   2.401   3.788   6.098
 5010SOL    HW115374   2.320   3.789   6.156
 5010SOL    HW215375   2.404   3.871   6.043
 5011SOL     OW15376   3.296   4.912   5.627
 5011SOL    HW115377   3.328   4.836   5.684
 5011SOL    HW215378   3.204   4.939   5.657
 5012SOL     OW15379   2.159   3.759   5.757
 5012SOL    HW115380   2.208   3.843   5.736
 5012SOL    HW215381   2.221   3.694   5.802
 5013SOL     OW15382   2.797   3.960   6.066
 5013SOL    HW115383   2.749   4.001   5.988
 5013SOL    HW215384   2.896   3.958   6.047
 5014SOL     OW15385   3.089   5.294   6.379
 5014SOL    HW115386   3.110   5.368   6.314
 5014SOL    HW215387   3.157   5.294   6.452
 5015SOL     OW15388   2.321   4.876   6.327
 5015SOL    HW115389   2.250   4.849   6.392
 5015SOL    HW215390   2.295   4.848   6.234
 5016SOL     OW15391   3.133   5.521   6.177
 5016SOL    HW115392   3.177   5.585   6.113
 5016SOL    HW215393   3.083   5.573   6.247
 5017SOL     OW15394   2.894   4.273   5.602
 5017SOL    HW115395   2.853   4.355   5.563
 5017SOL    HW215396   2.958   4.299   5.675
 5018SOL     OW15397   2.728   4.178   6.228
 5018SOL    HW115398   2.696   4.250   6.166
 5018SOL    HW215399   2.752   4.097   6.175
 5019SOL     OW15400   2.879   3.763   6.339
 5019SOL    HW115401   2.807   3.768   6.270
 5019SOL    HW215402   2.855   3.694   6.408
 5020SOL     OW15403   3.291   4.897   6.453
 5020SOL    HW115404   3.236   4.813   6.446
 5020SOL    HW215405   3.317   4.926   6.361
 5021SOL     OW15406   3.719   4.557   5.963
 5021SOL    HW115407   3.761   4.493   6.027
 5021SOL    HW215408   3.681   4.506   5.885
 5022SOL     OW15409   2.350   5.109   5.760
 5022SOL    HW115410   2.263   5.094   5.807
 5022SOL    HW215411   2.333   5.135   5.665
 5023SOL     OW15412   3.526   5.004   6.243
 5023SOL    HW115413   3.625   5.012   6.257
 5023SOL    HW215414   3.481   5.088   6.274
 5024SOL     OW15415   3.252   4.299   5.664
 5024SOL    HW115416   3.198   4.278   5.745
 5024SOL    HW215417   3.343   4.258   5.673
 5025SOL     OW15418   2.389   3.980   5.914
 5025SOL    HW115419   2.416   3.921   5.839
 5025SOL    HW215420   2.389   4.075   5.883
 5026SOL     OW15421   2.567   4.774   5.954
 5026SOL    HW115422   2.553   4.781   6.053
 5026SOL    HW215423   2.651   4.723   5.936
 5027SOL     OW15424   2.229   4.824   6.087
 5027SOL    HW115425   2.222   4.907   6.031
 5027SOL    HW215426   2.233   4.744   6.027
 5028SOL     OW15427   2.428   4.261   6.451
 5028SOL    HW115428   2.440   4.327   6.377
 5028SOL    HW215429   2.474   4.295   6.534
 5029SOL     OW15430   3.114   5.072   5.974
 5029SOL    HW115431   3.164   5.149   6.014
 5029SOL    HW215432   3.019   5.074   6.006
 5030SOL     OW15433   3.444   4.363   6.058
 5030SOL    HW115434   3.413   4.424   6.131
 5030SOL    HW215435   3.494   4.415   5.989
 5031SOL     OW15436   3.071   4.249   5.861
 5031SOL    HW115437   3.084   4.165   5.915
 5031SOL    HW215438   3.042   4.323   5.921
 5032SOL     OW15439   2.169   3.787   6.204
 5032SOL    HW115440   2.158   3.881   6.237
 5032SOL    HW215441   2.164   3.724   6.281
 5033SOL     OW15442   3.484   4.091   5.960
 5033SOL    HW115443   3.486   4.015   6.024
 5033SOL    HW215444   3.436   4.168   6.000
 5034SOL     OW15445   3.402   3.998   5.711
 5034SOL    HW115446   3.341   3.923   5.734
 5034SOL    HW215447   3.424   4.050   5.794
 5035SOL     OW15448   3.165   4.562   5.628
 5035SOL    HW115449   3.199   4.469   5.643
 5035SOL    HW215450   3.183   4.589   5.533
 5036SOL     OW15451   2.930   5.057   6.435
 5036SOL    HW115452   2.937   4.973   6.380
 5036SOL    HW215453   2.992   5.126   6.399
 5037SOL     OW15454   1.870   5.050   5.786
 5037SOL    HW115455   1.777   5.071   5.755
 5037SOL    HW215456   1.880   4.951   5.799
 5038SOL     OW15457   2.366   5.292   6.496
 5038SOL    HW115458   2.432   5.366   6.505
 5038SOL    HW215459   2.410   5.213   6.454
 5039SOL     OW15460   2.677   4.296   5.911
 5039SOL    HW115461   2.684   4.207   5.865
 5039SOL    HW215462   2.583   4.330   5.903
 5040SOL     OW15463   2.335   4.224   5.777
 5040SOL    HW115464   2.396   4.304   5.781
 5040SOL    HW215465   2.240   4.255   5.784
 5041SOL     OW15466   3.164   4.579   5.895
 5041SOL    HW115467   3.078   4.548   5.937
 5041SOL    HW215468   3.160   4.565   5.796
 5042SOL     OW15469   3.588   3.859   6.109
 5042SOL    HW115470   3.661   3.842   6.042
 5042SOL    HW215471   3.557   3.772   6.147
 5043SOL     OW15472   3.250   5.297   6.063
 5043SOL    HW115473   3.317   5.309   5.989
 5043SOL    HW215474   3.210   5.386   6.086
 5044SOL     OW15475   3.142   4.651   6.258
 5044SOL    HW115476   3.202   4.570   6.260
 5044SOL    HW215477   3.182   4.720   6.198
 5045SOL     OW15478   2.534   5.340   5.740
 5045SOL    HW115479   2.543   5.350   5.641
 5045SOL    HW215480   2.494   5.251   5.761
 5046SOL     OW15481   2.125   4.050   6.306
 5046SOL    HW115482   2.046   4.101   6.272
 5046SOL    HW215483   2.116   4.035   6.404
 5047SOL     OW15484   3.056   5.336   5.617
 5047SOL    HW115485   3.062   5.243   5.654
 5047SOL    HW215486   2.997   5.336   5.537
 5048SOL     OW15487   2.778   4.634   5.877
 5048SOL    HW115488   2.841   4.672   5.809
 5048SOL    HW215489   2.818   4.551   5.916
 5049SOL     OW15490   3.366   5.331   5.630
 5049SOL    HW115491   3.274   5.368   5.637
 5049SOL    HW215492   3.404   5.351   5.540
 5050SOL     OW15493   2.901   4.822   6.282
 5050SOL    HW115494   2.831   4.775   6.336
 5050SOL    HW215495   2.960   4.754   6.239
 5051SOL     OW15496   2.876   3.960   6.557
 5051SOL    HW115497   2.868   3.924   6.464
 5051SOL    HW215498   2.874   3.884   6.622
 5052SOL     OW15499   2.452   5.211   6.077
 5052SOL    HW115500   2.494   5.153   6.007
 5052SOL    HW215501   2.408   5.290   6.033
 5053SOL     OW15502   2.117   5.072   5.876
 5053SOL    HW115503   2.021   5.073   5.849
 5053SOL    HW215504   2.129   5.125   5.960
 5054SOL     OW15505   1.937   4.069   5.619
 5054SOL    HW115506   1.845   4.041   5.590
 5054SOL    HW215507   1.968   4.146   5.563
 5055SOL     OW15508   1.934   3.890   5.904
 5055SOL    HW115509   1.917   3.973   5.850
 5055SOL    HW215510   2.024   3.853   5.882
 5056SOL     OW15511   3.045   5.059   5.705
 5056SOL    HW115512   2.946   5.048   5.707
 5056SOL    HW215513   3.079   5.074   5.798
 5057SOL     OW15514   3.087   4.049   6.035
 5057SOL    HW115515   3.152   3.975   6.024
 5057SOL    HW215516   3.107   4.099   6.119
 5058SOL     OW15517   2.456   4.469   6.238
 5058SOL    HW115518   2.506   4.554   6.219
 5058SOL    HW215519   2.368   4.471   6.190
 5059SOL     OW15520   2.721   5.098   5.602
 5059SOL    HW115521   2.675   5.113   5.690
 5059SOL    HW215522   2.765   5.183   5.572
 5060SOL     OW15523   2.721   4.680   6.447
 5060SOL    HW115524   2.775   4.611   6.495
 5060SOL    HW215525   2.689   4.749   6.513
 5061SOL     OW15526   2.945   4.708   5.673
 5061SOL    HW115527   2.922   4.761   5.591
 5061SOL    HW215528   3.026   4.652   5.654
 5062SOL     OW15529   3.723   5.293   6.437
 5062SOL    HW115530   3.652   5.281   6.367
 5062SOL    HW215531   3.724   5.214   6.497
 5063SOL     OW15532   1.941   4.964   6.239
 5063SOL    HW115533   1.940   4.917   6.327
 5063SOL    HW215534   2.023   4.936   6.188
 5064SOL     OW15535   2.290   4.148   6.106
 5064SOL    HW115536   2.320   4.076   6.044
 5064SOL    HW215537   2.251   4.108   6.189
 5065SOL     OW15538   2.674   5.310   6.273
 5065SOL    HW115539   2.706   5.320   6.179
 5065SOL    HW215540   2.595   5.248   6.275
 5066SOL     OW15541   2.632   5.054   5.887
 5066SOL    HW115542   2.586   4.967   5.904
 5066SOL    HW215543   2.723   5.051   5.928
 5067SOL     OW15544   3.214   3.776   5.754
 5067SOL    HW115545   3.249   3.735   5.670
 5067SOL    HW215546   3.124   3.738   5.774
 5068SOL     OW15547   3.162   4.177   6.277
 5068SOL    HW115548   3.103   4.257   6.281
 5068SOL    HW215549   3.177   4.142   6.370
 5069SOL     OW15550   3.455   3.945   6.468
 5069SOL    HW115551   3.371   3.944   6.522
 5069SOL    HW215552   3.457   4.028   6.412
 5070SOL     OW15553   1.901   4.801   5.886
 5070SOL    HW115554   2.000   4.790   5.877
 5070SOL    HW215555   1.861   4.715   5.918
 5071SOL     OW15556   2.737   5.370   5.923
 5071SOL    HW115557   2.660   5.335   5.869
 5071SOL    HW215558   2.705   5.441   5.985
 5072SOL     OW15559   2.092   6.214   0.113
 5072SOL    HW115560   1.999   6.212   0.150
 5072SOL    HW215561   2.093   6.175   0.021
 5073SOL     OW15562   2.087   5.861   0.996
 5073SOL    HW115563   2.122   5.844   1.088
 5073SOL    HW215564   1.999   5.816   0.984
 5074SOL     OW15565   1.881   5.954   0.647
 5074SOL    HW115566   1.799   5.997   0.686
 5074SOL    HW215567   1.853   5.881   0.584
 5075SOL     OW15568   2.431   6.861   1.165
 5075SOL    HW115569   2.338   6.854   1.128
 5075SOL    HW215570   2.442   6.950   1.209
 5076SOL     OW15571   2.997   6.289   0.717
 5076SOL    HW115572   3.054   6.367   0.692
 5076SOL    HW215573   2.937   6.315   0.793
 5077SOL     OW15574   3.617   6.193   0.231
 5077SOL    HW115575   3.605   6.180   0.132
 5077SOL    HW215576   3.587   6.112   0.280
 5078SOL     OW15577   2.630   6.730   1.023
 5078SOL    HW115578   2.552   6.747   1.083
 5078SOL    HW215579   2.664   6.817   0.987
 5079SOL     OW15580   2.712   6.384   1.823
 5079SOL    HW115581   2.708   6.460   1.888
 5079SOL    HW215582   2.734   6.420   1.732
 5080SOL     OW15583   2.547   6.598   0.665
 5080SOL    HW115584   2.616   6.582   0.735
 5080SOL    HW215585   2.474   6.655   0.703
 5081SOL     OW15586   2.548   6.747   1.803
 5081SOL    HW115587   2.608   6.826   1.817
 5081SOL    HW215588   2.462   6.778   1.762
 5082SOL     OW15589   2.197   7.021   1.061
 5082SOL    HW115590   2.119   6.990   1.008
 5082SOL    HW215591   2.255   7.079   1.004
 5083SOL     OW15592   2.300   5.978   1.499
 5083SOL    HW115593   2.382   5.922   1.508
 5083SOL    HW215594   2.219   5.920   1.503
 5084SOL     OW15595   3.465   6.033   0.737
 5084SOL    HW115596   3.391   6.079   0.687
 5084SOL    HW215597   3.516   6.101   0.790
 5085SOL     OW15598   2.093   7.299   0.483
 5085SOL    HW115599   2.127   7.376   0.537
 5085SOL    HW215600   2.137   7.299   0.393
 5086SOL     OW15601   2.989   6.927   1.690
 5086SOL    HW115602   3.036   6.927   1.778
 5086SOL    HW215603   2.941   6.840   1.679
 5087SOL     OW15604   2.092   7.020   0.538
 5087SOL    HW115605   2.066   7.116   0.538
 5087SOL    HW215606   2.021   6.966   0.583
 5088SOL     OW15607   2.102   6.677   0.886
 5088SOL    HW115608   2.116   6.593   0.938
 5088SOL    HW215609   2.047   6.741   0.941
 5089SOL     OW15610   2.482   7.372   1.439
 5089SOL    HW115611   2.390   7.355   1.474
 5089SOL    HW215612   2.510   7.464   1.465
 5090SOL     OW15613   2.468   6.550   0.123
 5090SOL    HW115614   2.475   6.634   0.069
 5090SOL    HW215615   2.514   6.563   0.211
 5091SOL     OW15616   3.456   5.700   1.480
 5091SOL    HW115617   3.438   5.767   1.408
 5091SOL    HW215618   3.453   5.746   1.569
 5092SOL     OW15619   1.984   6.229   0.563
 5092SOL    HW115620   1.939   6.141   0.580
 5092SOL    HW215621   1.983   6.283   0.647
 5093SOL     OW15622   1.889   7.182   0.117
 5093SOL    HW115623   1.870   7.086   0.138
 5093SOL    HW215624   1.856   7.240   0.192
 5094SOL     OW15625   3.551   6.508   0.612
 5094SOL    HW115626   3.646   6.479   0.620
 5094SOL    HW215627   3.543   6.573   0.537
 5095SOL     OW15628   3.503   6.694   0.432
 5095SOL    HW115629   3.589   6.696   0.380
 5095SOL    HW215630   3.517   6.741   0.520
 5096SOL     OW15631   1.975   6.323   1.597
 5096SOL    HW115632   2.063   6.310   1.642
 5096SOL    HW215633   1.962   6.420   1.575
 5097SOL     OW15634   2.475   6.951   0.726
 5097SOL    HW115635   2.426   6.864   0.735
 5097SOL    HW215636   2.452   6.994   0.639
 5098SOL     OW15637   3.155   6.814   1.423
 5098SOL    HW115638   3.192   6.741   1.365
 5098SOL    HW215639   3.207   6.819   1.508
 5099SOL     OW15640   2.671   5.590   0.502
 5099SOL    HW115641   2.711   5.681   0.493
 5099SOL    HW215642   2.571   5.598   0.508
 5100SOL     OW15643   2.059   6.562   1.264
 5100SOL    HW115644   2.148   6.517   1.250
 5100SOL    HW215645   1.986   6.497   1.245
 5101SOL     OW15646   3.387   6.585   0.190
 5101SOL    HW115647   3.324   6.509   0.203
 5101SOL    HW215648   3.435   6.603   0.276
 5102SOL     OW15649   2.179   5.837   1.801
 5102SOL    HW115650   2.250   5.908   1.807
 5102SOL    HW215651   2.091   5.876   1.829
 5103SOL     OW15652   3.328   7.003   0.953
 5103SOL    HW115653   3.269   7.009   1.033
 5103SOL    HW215654   3.313   6.915   0.907
 5104SOL     OW15655   2.460   6.315   0.270
 5104SOL    HW115656   2.484   6.384   0.202
 5104SOL    HW215657   2.382   6.348   0.324
 5105SOL     OW15658   3.143   5.931   0.944
 5105SOL    HW115659   3.057   5.881   0.931
 5105SOL    HW215660   3.205   5.877   1.000
 5106SOL     OW15661   2.669   6.191   1.465
 5106SOL    HW115662   2.622   6.188   1.554
 5106SOL    HW215663   2.618   6.136   1.399
 5107SOL     OW15664   3.256   6.055   1.674
 5107SOL    HW115665   3.236   6.098   1.762
 5107SOL    HW215666   3.334   5.993   1.683
 5108SOL     OW15667   2.835   6.476   1.572
 5108SOL    HW115668   2.881   6.392   1.543
 5108SOL    HW215669   2.779   6.510   1.497
 5109SOL     OW15670   2.853   5.996   1.242
 5109SOL    HW115671   2.776   6.030   1.296
 5109SOL    HW215672   2.819   5.945   1.163
 5110SOL     OW15673   2.903   6.287   0.429
 5110SOL    HW115674   2.929   6.283   0.525
 5110SOL    HW215675   2.818   6.236   0.415
 5111SOL     OW15676   1.938   6.397   0.789
 5111SOL    HW115677   2.037   6.385   0.798
 5111SOL    HW215678   1.914   6.492   0.810
 5112SOL     OW15679   1.992   7.407   1.571
 5112SOL    HW115680   1.982   7.392   1.670
 5112SOL    HW215681   1.906   7.443   1.535
 5113SOL     OW15682   2.727   5.934   0.195
 5113SOL    HW115683   2.786   5.997   0.146
 5113SOL    HW215684   2.746   5.840   0.166
 5114SOL     OW15685   3.581   6.171   1.831
 5114SOL    HW115686   3.555   6.260   1.795
 5114SOL    HW215687   3.579   6.103   1.758
 5115SOL     OW15688   3.224   6.730   0.545
 5115SOL    HW115689   3.307   6.701   0.497
 5115SOL    HW215690   3.175   6.797   0.489
 5116SOL     OW15691   2.412   5.782   0.885
 5116SOL    HW115692   2.407   5.777   0.985
 5116SOL    HW215693   2.414   5.878   0.856
 5117SOL     OW15694   2.870   7.042   0.477
 5117SOL    HW115695   2.824   7.114   0.425
 5117SOL    HW215696   2.866   7.062   0.575
 5118SOL     OW15697   2.213   7.387   0.853
 5118SOL    HW115698   2.263   7.301   0.859
 5118SOL    HW215699   2.278   7.464   0.850
 5119SOL     OW15700   3.657   6.652   0.873
 5119SOL    HW115701   3.595   6.637   0.797
 5119SOL    HW215702   3.605   6.663   0.958
 5120SOL     OW15703   3.089   7.136   1.506
 5120SOL    HW115704   3.095   7.059   1.570
 5120SOL    HW215705   3.037   7.110   1.426
 5121SOL     OW15706   2.183   6.529   0.242
 5121SOL    HW115707   2.265   6.568   0.200
 5121SOL    HW215708   2.156   6.447   0.193
 5122SOL     OW15709   3.320   6.321   0.728
 5122SOL    HW115710   3.315   6.256   0.803
 5122SOL    HW215711   3.400   6.380   0.741
 5123SOL     OW15712   2.323   6.852   1.727
 5123SOL    HW115713   2.273   6.853   1.641
 5123SOL    HW215714   2.260   6.834   1.803
 5124SOL     OW15715   2.064   5.871   1.498
 5124SOL    HW115716   1.984   5.931   1.485
 5124SOL    HW215717   2.054   5.822   1.584
 5125SOL     OW15718   3.494   6.963   0.081
 5125SOL    HW115719   3.462   7.057   0.071
 5125SOL    HW215720   3.418   6.900   0.069
 5126SOL     OW15721   2.326   7.329   0.323
 5126SOL    HW115722   2.359   7.368   0.409
 5126SOL    HW215723   2.402   7.322   0.258
 5127SOL     OW15724   3.262   5.693   0.426
 5127SOL    HW115725   3.238   5.656   0.336
 5127SOL    HW215726   3.361   5.709   0.430
 5128SOL     OW15727   2.111   7.371   1.241
 5128SOL    HW115728   2.168   7.306   1.291
 5128SOL    HW215729   2.095   7.338   1.148
 5129SOL     OW15730   2.802   7.284   0.904
 5129SOL    HW115731   2.882   7.227   0.925
 5129SOL    HW215732   2.753   7.244   0.827
 5130SOL     OW15733   2.244   6.286   0.480
 5130SOL    HW115734   2.289   6.196   0.477
 5130SOL    HW215735   2.150   6.275   0.513
 5131SOL     OW15736   3.409   5.808   1.729
 5131SOL    HW115737   3.404   5.845   1.821
 5131SOL    HW215738   3.337   5.739   1.717
 5132SOL     OW15739   2.476   5.708   0.117
 5132SOL    HW115740   2.574   5.686   0.124
 5132SOL    HW215741   2.445   5.691   0.024
 5133SOL     OW15742   2.643   5.850   1.749
 5133SOL    HW115743   2.710   5.789   1.792
 5133SOL    HW215744   2.570   5.869   1.814
 5134SOL     OW15745   2.750   7.100   1.195
 5134SOL    HW115746   2.727   7.075   1.101
 5134SOL    HW215747   2.811   7.031   1.234
 5135SOL     OW15748   3.213   6.176   1.433
 5135SOL    HW115749   3.241   6.133   1.518
 5135SOL    HW215750   3.238   6.272   1.434
 5136SOL     OW15751   2.665   6.988   0.924
 5136SOL    HW115752   2.755   7.002   0.882
 5136SOL    HW215753   2.594   6.990   0.853
 5137SOL     OW15754   2.784   6.089   0.899
 5137SOL    HW115755   2.759   6.080   0.803
 5137SOL    HW215756   2.832   6.007   0.930
 5138SOL     OW15757   2.401   5.650   0.512
 5138SOL    HW115758   2.320   5.651   0.570
 5138SOL    HW215759   2.404   5.733   0.457
 5139SOL     OW15760   3.296   6.774   0.041
 5139SOL    HW115761   3.328   6.698   0.098
 5139SOL    HW215762   3.204   6.801   0.071
 5140SOL     OW15763   2.159   5.621   0.171
 5140SOL    HW115764   2.208   5.705   0.150
 5140SOL    HW215765   2.221   5.556   0.216
 5141SOL     OW15766   2.797   5.822   0.480
 5141SOL    HW115767   2.749   5.863   0.402
 5141SOL    HW215768   2.896   5.820   0.461
 5142SOL     OW15769   2.938   6.269   1.464
 5142SOL    HW115770   2.858   6.208   1.467
 5142SOL    HW215771   3.019   6.216   1.440
 5143SOL     OW15772   3.089   7.156   0.793
 5143SOL    HW115773   3.110   7.230   0.728
 5143SOL    HW215774   3.157   7.156   0.866
 5144SOL     OW15775   2.321   6.738   0.741
 5144SOL    HW115776   2.250   6.711   0.806
 5144SOL    HW215777   2.295   6.710   0.648
 5145SOL     OW15778   3.133   7.383   0.591
 5145SOL    HW115779   3.177   7.447   0.527
 5145SOL    HW215780   3.083   7.435   0.661
 5146SOL     OW15781   2.894   6.135   0.016
 5146SOL    HW115782   2.853   6.217  -0.023
 5146SOL    HW215783   2.958   6.161   0.089
 5147SOL     OW15784   1.940   6.142   1.386
 5147SOL    HW115785   2.032   6.141   1.345
 5147SOL    HW215786   1.934   6.216   1.453
 5148SOL     OW15787   2.423   5.808   1.147
 5148SOL    HW115788   2.461   5.724   1.184
 5148SOL    HW215789   2.335   5.827   1.191
 5149SOL     OW15790   2.728   6.040   0.642
 5149SOL    HW115791   2.696   6.112   0.580
 5149SOL    HW215792   2.752   5.959   0.589
 5150SOL     OW15793   2.879   5.625   0.753
 5150SOL    HW115794   2.807   5.630   0.684
 5150SOL    HW215795   2.855   5.556   0.822
 5151SOL     OW15796   3.291   6.759   0.867
 5151SOL    HW115797   3.236   6.675   0.860
 5151SOL    HW215798   3.317   6.788   0.775
 5152SOL     OW15799   3.328   6.176   0.992
 5152SOL    HW115800   3.298   6.081   0.999
 5152SOL    HW215801   3.401   6.192   1.058
 5153SOL     OW15802   3.719   6.419   0.377
 5153SOL    HW115803   3.761   6.355   0.441
 5153SOL    HW215804   3.681   6.368   0.299
 5154SOL     OW15805   2.350   6.971   0.174
 5154SOL    HW115806   2.263   6.956   0.221
 5154SOL    HW215807   2.333   6.997   0.079
 5155SOL     OW15808   3.526   6.866   0.657
 5155SOL    HW115809   3.625   6.874   0.671
 5155SOL    HW215810   3.481   6.950   0.688
 5156SOL     OW15811   3.252   6.161   0.078
 5156SOL    HW115812   3.198   6.140   0.159
 5156SOL    HW215813   3.343   6.120   0.087
 5157SOL     OW15814   2.389   5.842   0.328
 5157SOL    HW115815   2.416   5.783   0.253
 5157SOL    HW215816   2.389   5.937   0.297
 5158SOL     OW15817   3.616   6.809   1.588
 5158SOL    HW115818   3.707   6.770   1.575
 5158SOL    HW215819   3.624   6.905   1.612
 5159SOL     OW15820   2.926   6.933   1.340
 5159SOL    HW115821   2.846   6.910   1.395
 5159SOL    HW215822   3.009   6.907   1.389
 5160SOL     OW15823   2.973   6.781   1.100
 5160SOL    HW115824   2.933   6.825   1.181
 5160SOL    HW215825   2.932   6.818   1.017
 5161SOL     OW15826   3.500   6.685   1.079
 5161SOL    HW115827   3.505   6.766   1.138
 5161SOL    HW215828   3.414   6.687   1.028
 5162SOL     OW15829   2.777   5.675   1.402
 5162SOL    HW115830   2.802   5.655   1.307
 5162SOL    HW215831   2.849   5.731   1.444
 5163SOL     OW15832   2.842   6.702   1.719
 5163SOL    HW115833   2.743   6.708   1.729
 5163SOL    HW215834   2.865   6.622   1.663
 5164SOL     OW15835   2.567   6.636   0.368
 5164SOL    HW115836   2.553   6.643   0.467
 5164SOL    HW215837   2.651   6.585   0.350
 5165SOL     OW15838   2.272   6.399   1.251
 5165SOL    HW115839   2.358   6.411   1.301
 5165SOL    HW215840   2.230   6.312   1.278
 5166SOL     OW15841   3.136   5.972   1.262
 5166SOL    HW115842   3.157   6.046   1.326
 5166SOL    HW215843   3.047   5.989   1.219
 5167SOL     OW15844   1.926   7.150   1.331
 5167SOL    HW115845   1.880   7.232   1.297
 5167SOL    HW215846   2.024   7.169   1.340
 5168SOL     OW15847   2.229   6.686   0.501
 5168SOL    HW115848   2.222   6.769   0.445
 5168SOL    HW215849   2.233   6.606   0.441
 5169SOL     OW15850   2.428   6.123   0.865
 5169SOL    HW115851   2.440   6.189   0.791
 5169SOL    HW215852   2.474   6.157   0.948
 5170SOL     OW15853   3.114   6.934   0.388
 5170SOL    HW115854   3.164   7.011   0.428
 5170SOL    HW215855   3.019   6.936   0.420
 5171SOL     OW15856   3.134   7.031   1.142
 5171SOL    HW115857   3.181   7.044   1.229
 5171SOL    HW215858   3.068   6.957   1.151
 5172SOL     OW15859   3.444   6.225   0.472
 5172SOL    HW115860   3.413   6.286   0.545
 5172SOL    HW215861   3.494   6.277   0.403
 5173SOL     OW15862   2.216   7.096   1.329
 5173SOL    HW115863   2.195   7.052   1.242
 5173SOL    HW215864   2.313   7.122   1.332
 5174SOL     OW15865   2.264   6.337   1.598
 5174SOL    HW115866   2.332   6.392   1.551
 5174SOL    HW215867   2.304   6.249   1.625
 5175SOL     OW15868   3.449   6.365   1.670
 5175SOL    HW115869   3.357   6.403   1.665
 5175SOL    HW215870   3.509   6.412   1.605
 5176SOL     OW15871   2.875   5.691   1.770
 5176SOL    HW115872   2.881   5.776   1.718
 5176SOL    HW215873   2.907   5.615   1.713
 5177SOL     OW15874   2.366   5.636   1.740
 5177SOL    HW115875   2.324   5.579   1.670
 5177SOL    HW215876   2.300   5.705   1.772
 5178SOL     OW15877   2.435   6.456   1.029
 5178SOL    HW115878   2.479   6.545   1.020
 5178SOL    HW215879   2.372   6.456   1.106
 5179SOL     OW15880   3.222   6.448   1.045
 5179SOL    HW115881   3.147   6.448   0.979
 5179SOL    HW215882   3.259   6.356   1.054
 5180SOL     OW15883   3.071   6.111   0.275
 5180SOL    HW115884   3.084   6.027   0.329
 5180SOL    HW215885   3.042   6.185   0.335
 5181SOL     OW15886   2.169   5.799   1.231
 5181SOL    HW115887   2.146   5.836   1.321
 5181SOL    HW215888   2.139   5.704   1.225
 5182SOL     OW15889   1.899   6.896   1.282
 5182SOL    HW115890   1.952   6.847   1.350
 5182SOL    HW215891   1.921   6.994   1.287
 5183SOL     OW15892   2.594   6.220   1.064
 5183SOL    HW115893   2.653   6.194   0.988
 5183SOL    HW215894   2.566   6.316   1.053
 5184SOL     OW15895   3.590   6.521   1.854
 5184SOL    HW115896   3.544   6.514   1.765
 5184SOL    HW215897   3.528   6.565   1.920
 5185SOL     OW15898   2.169   5.649   0.618
 5185SOL    HW115899   2.158   5.743   0.651
 5185SOL    HW215900   2.164   5.586   0.695
 5186SOL     OW15901   3.484   5.953   0.374
 5186SOL    HW115902   3.486   5.877   0.438
 5186SOL    HW215903   3.436   6.030   0.414
 5187SOL     OW15904   2.885   6.352   0.966
 5187SOL    HW115905   2.900   6.373   1.062
 5187SOL    HW215906   2.855   6.257   0.957
 5188SOL     OW15907   2.842   7.159   1.700
 5188SOL    HW115908   2.822   7.203   1.612
 5188SOL    HW215909   2.881   7.068   1.684
 5189SOL     OW15910   3.721   7.104   1.605
 5189SOL    HW115911   3.735   7.131   1.510
 5189SOL    HW215912   3.804   7.126   1.658
 5190SOL     OW15913   2.212   6.484   1.804
 5190SOL    HW115914   2.288   6.528   1.852
 5190SOL    HW215915   2.247   6.437   1.722
 5191SOL     OW15916   3.402   5.860   0.125
 5191SOL    HW115917   3.341   5.785   0.148
 5191SOL    HW215918   3.424   5.912   0.208
 5192SOL     OW15919   3.165   6.424   0.042
 5192SOL    HW115920   3.199   6.331   0.057
 5192SOL    HW215921   3.183   6.451  -0.053
 5193SOL     OW15922   2.930   6.919   0.849
 5193SOL    HW115923   2.937   6.835   0.794
 5193SOL    HW215924   2.992   6.988   0.813
 5194SOL     OW15925   2.181   6.396   0.949
 5194SOL    HW115926   2.274   6.432   0.954
 5194SOL    HW215927   2.175   6.311   1.001
 5195SOL     OW15928   2.201   6.095   1.006
 5195SOL    HW115929   2.149   6.012   0.989
 5195SOL    HW215930   2.278   6.100   0.942
 5196SOL     OW15931   3.000   5.966   1.678
 5196SOL    HW115932   2.955   6.029   1.742
 5196SOL    HW215933   3.093   5.997   1.661
 5197SOL     OW15934   3.022   5.793   1.477
 5197SOL    HW115935   3.022   5.857   1.554
 5197SOL    HW215936   3.050   5.841   1.394
 5198SOL     OW15937   1.870   6.912   0.200
 5198SOL    HW115938   1.777   6.933   0.169
 5198SOL    HW215939   1.880   6.813   0.213
 5199SOL     OW15940   1.950   7.387   0.927
 5199SOL    HW115941   1.908   7.301   0.900
 5199SOL    HW215942   2.044   7.390   0.893
 5200SOL     OW15943   2.366   7.154   0.910
 5200SOL    HW115944   2.432   7.228   0.919
 5200SOL    HW215945   2.410   7.075   0.868
 5201SOL     OW15946   2.864   6.382   1.238
 5201SOL    HW115947   2.905   6.350   1.324
 5201SOL    HW215948   2.768   6.355   1.235
 5202SOL     OW15949   1.902   6.130   1.114
 5202SOL    HW115950   1.987   6.097   1.073
 5202SOL    HW215951   1.915   6.145   1.212
 5203SOL     OW15952   2.051   6.106   1.722
 5203SOL    HW115953   2.110   6.066   1.652
 5203SOL    HW215954   1.993   6.177   1.681
 5204SOL     OW15955   3.231   6.536   1.660
 5204SOL    HW115956   3.270   6.625   1.680
 5204SOL    HW215957   3.241   6.516   1.563
 5205SOL     OW15958   2.677   6.158   0.325
 5205SOL    HW115959   2.684   6.069   0.279
 5205SOL    HW215960   2.583   6.192   0.317
 5206SOL     OW15961   3.519   6.190   1.206
 5206SOL    HW115962   3.481   6.121   1.268
 5206SOL    HW215963   3.601   6.154   1.162
 5207SOL     OW15964   2.114   7.150   1.744
 5207SOL    HW115965   2.084   7.207   1.820
 5207SOL    HW215966   2.107   7.053   1.770
 5208SOL     OW15967   2.533   6.050   1.269
 5208SOL    HW115968   2.499   5.961   1.239
 5208SOL    HW215969   2.559   6.104   1.189
 5209SOL     OW15970   2.335   6.086   0.191
 5209SOL    HW115971   2.396   6.166   0.195
 5209SOL    HW215972   2.240   6.117   0.198
 5210SOL     OW15973   2.021   6.723   1.466
 5210SOL    HW115974   2.043   6.662   1.542
 5210SOL    HW215975   2.031   6.674   1.380
 5211SOL     OW15976   3.209   6.645   1.234
 5211SOL    HW115977   3.233   6.582   1.160
 5211SOL    HW215978   3.119   6.685   1.216
 5212SOL     OW15979   3.164   6.441   0.309
 5212SOL    HW115980   3.078   6.410   0.351
 5212SOL    HW215981   3.160   6.427   0.210
 5213SOL     OW15982   1.945   6.844   1.022
 5213SOL    HW115983   1.940   6.843   1.122
 5213SOL    HW215984   1.862   6.803   0.984
 5214SOL     OW15985   2.550   7.248   1.716
 5214SOL    HW115986   2.494   7.329   1.725
 5214SOL    HW215987   2.602   7.252   1.630
 5215SOL     OW15988   2.765   5.672   0.133
 5215SOL    HW115989   2.816   5.673   0.047
 5215SOL    HW215990   2.821   5.630   0.204
 5216SOL     OW15991   3.588   5.721   0.523
 5216SOL    HW115992   3.661   5.704   0.456
 5216SOL    HW215993   3.557   5.634   0.561
 5217SOL     OW15994   1.992   7.380   1.851
 5217SOL    HW115995   1.951   7.306   1.904
 5217SOL    HW215996   2.056   7.431   1.909
 5218SOL     OW15997   3.142   6.513   0.672
 5218SOL    HW115998   3.202   6.432   0.674
 5218SOL    HW215999   3.182   6.582   0.612
 5219SOL     OW16000   2.692   6.859   1.422
 5219SOL    HW116001   2.687   6.892   1.517
 5219SOL    HW216002   2.606   6.878   1.376
 5220SOL     OW16003   2.534   7.202   0.154
 5220SOL    HW116004   2.543   7.212   0.055
 5220SOL    HW216005   2.494   7.113   0.175
 5221SOL     OW16006   3.703   5.761   0.963
 5221SOL    HW116007   3.742   5.676   0.927
 5221SOL    HW216008   3.605   5.763   0.944
 5222SOL     OW16009   2.125   5.912   0.720
 5222SOL    HW116010   2.046   5.963   0.686
 5222SOL    HW216011   2.116   5.897   0.818
 5223SOL     OW16012   2.684   6.588   1.372
 5223SOL    HW116013   2.724   6.587   1.280
 5223SOL    HW216014   2.694   6.680   1.412
 5224SOL     OW16015   2.778   6.496   0.291
 5224SOL    HW116016   2.841   6.534   0.223
 5224SOL    HW216017   2.818   6.413   0.330
 5225SOL     OW16018   2.234   6.874   1.490
 5225SOL    HW116019   2.221   6.967   1.456
 5225SOL    HW216020   2.150   6.822   1.477
 5226SOL     OW16021   3.476   6.878   1.289
 5226SOL    HW116022   3.536   6.881   1.369
 5226SOL    HW216023   3.401   6.942   1.302
 5227SOL     OW16024   2.901   6.684   0.696
 5227SOL    HW116025   2.831   6.637   0.750
 5227SOL    HW216026   2.960   6.616   0.653
 5228SOL     OW16027   2.876   5.822   0.971
 5228SOL    HW116028   2.868   5.786   0.878
 5228SOL    HW216029   2.874   5.746   1.036
 5229SOL     OW16030   2.452   7.073   0.491
 5229SOL    HW116031   2.494   7.015   0.421
 5229SOL    HW216032   2.408   7.152   0.447
 5230SOL     OW16033   3.571   5.971   1.381
 5230SOL    HW116034   3.644   6.040   1.385
 5230SOL    HW216035   3.599   5.896   1.322
 5231SOL     OW16036   2.117   6.934   0.290
 5231SOL    HW116037   2.021   6.935   0.263
 5231SOL    HW216038   2.129   6.987   0.374
 5232SOL     OW16039   1.967   6.599   1.726
 5232SOL    HW116040   1.890   6.566   1.780
 5232SOL    HW216041   2.052   6.569   1.768
 5233SOL     OW16042   2.534   5.789   1.489
 5233SOL    HW116043   2.624   5.773   1.449
 5233SOL    HW216044   2.542   5.794   1.588
 5234SOL     OW16045   1.937   5.931   0.033
 5234SOL    HW116046   1.845   5.903   0.004
 5234SOL    HW216047   1.968   6.008  -0.023
 5235SOL     OW16048   3.302   6.442   1.398
 5235SOL    HW116049   3.245   6.494   1.335
 5235SOL    HW216050   3.398   6.454   1.374
 5236SOL     OW16051   1.934   5.752   0.318
 5236SOL    HW116052   1.917   5.835   0.264
 5236SOL    HW216053   2.024   5.715   0.296
 5237SOL     OW16054   3.045   6.921   0.119
 5237SOL    HW116055   2.946   6.910   0.121
 5237SOL    HW216056   3.079   6.936   0.212
 5238SOL     OW16057   2.475   6.428   1.431
 5238SOL    HW116058   2.531   6.509   1.414
 5238SOL    HW216059   2.534   6.348   1.434
 5239SOL     OW16060   2.578   6.151   1.708
 5239SOL    HW116061   2.597   6.216   1.782
 5239SOL    HW216062   2.638   6.071   1.717
 5240SOL     OW16063   3.312   6.806   1.633
 5240SOL    HW116064   3.303   6.796   1.732
 5240SOL    HW216065   3.408   6.799   1.607
 5241SOL     OW16066   2.252   7.327   1.560
 5241SOL    HW116067   2.161   7.368   1.558
 5241SOL    HW216068   2.245   7.233   1.592
 5242SOL     OW16069   3.536   6.469   1.254
 5242SOL    HW116070   3.509   6.380   1.217
 5242SOL    HW216071   3.537   6.537   1.181
 5243SOL     OW16072   3.087   5.911   0.449
 5243SOL    HW116073   3.152   5.837   0.438
 5243SOL    HW216074   3.107   5.961   0.533
 5244SOL     OW16075   2.456   6.331   0.652
 5244SOL    HW116076   2.506   6.416   0.633
 5244SOL    HW216077   2.368   6.333   0.604
 5245SOL     OW16078   3.639   5.928   1.642
 5245SOL    HW116079   3.622   5.959   1.548
 5245SOL    HW216080   3.555   5.891   1.680
 5246SOL     OW16081   3.592   6.520   1.517
 5246SOL    HW116082   3.630   6.611   1.532
 5246SOL    HW216083   3.584   6.503   1.418
 5247SOL     OW16084   2.721   6.960   0.016
 5247SOL    HW116085   2.675   6.975   0.104
 5247SOL    HW216086   2.765   7.045  -0.014
 5248SOL     OW16087   2.721   6.542   0.861
 5248SOL    HW116088   2.775   6.473   0.909
 5248SOL    HW216089   2.689   6.611   0.927
 5249SOL     OW16090   2.945   6.570   0.087
 5249SOL    HW116091   2.922   6.623   0.005
 5249SOL    HW216092   3.026   6.514   0.068
 5250SOL     OW16093   2.083   6.900   1.844
 5250SOL    HW116094   2.018   6.827   1.823
 5250SOL    HW216095   2.087   6.914   1.942
 5251SOL     OW16096   1.941   6.826   0.653
 5251SOL    HW116097   1.940   6.779   0.741
 5251SOL    HW216098   2.023   6.798   0.602
 5252SOL     OW16099   2.534   6.977   1.624
 5252SOL    HW116100   2.456   6.927   1.662
 5252SOL    HW216101   2.531   7.072   1.655
 5253SOL     OW16102   3.686   5.778   1.227
 5253SOL    HW116103   3.682   5.688   1.271
 5253SOL    HW216104   3.689   5.767   1.128
 5254SOL     OW16105   2.290   6.010   0.520
 5254SOL    HW116106   2.320   5.938   0.458
 5254SOL    HW216107   2.251   5.970   0.603
 5255SOL     OW16108   2.179   6.133   1.280
 5255SOL    HW116109   2.217   6.074   1.352
 5255SOL    HW216110   2.219   6.107   1.192
 5256SOL     OW16111   3.286   5.800   1.112
 5256SOL    HW116112   3.338   5.735   1.167
 5256SOL    HW216113   3.237   5.863   1.173
 5257SOL     OW16114   2.863   5.620   1.154
 5257SOL    HW116115   2.800   5.548   1.123
 5257SOL    HW216116   2.956   5.584   1.154
 5258SOL     OW16117   2.632   6.916   0.301
 5258SOL    HW116118   2.586   6.829   0.318
 5258SOL    HW216119   2.723   6.913   0.342
 5259SOL     OW16120   2.480   7.153   1.284
 5259SOL    HW116121   2.475   7.235   1.341
 5259SOL    HW216122   2.569   7.150   1.239
 5260SOL     OW16123   3.214   5.638   0.168
 5260SOL    HW116124   3.249   5.597   0.084
 5260SOL    HW216125   3.124   5.600   0.188
 5261SOL     OW16126   3.162   6.039   0.691
 5261SOL    HW116127   3.103   6.119   0.695
 5261SOL    HW216128   3.177   6.004   0.784
 5262SOL     OW16129   3.455   5.807   0.882
 5262SOL    HW116130   3.371   5.806   0.936
 5262SOL    HW216131   3.457   5.890   0.826
 5263SOL     OW16132   1.901   6.663   0.300
 5263SOL    HW116133   2.000   6.652   0.291
 5263SOL    HW216134   1.861   6.577   0.332
 5264SOL     OW16135   2.092   6.214   1.975
 5264SOL    HW116136   1.999   6.212   2.012
 5264SOL    HW216137   2.093   6.175   1.883
 5265SOL     OW16138   2.087   5.861   2.858
 5265SOL    HW116139   2.122   5.844   2.950
 5265SOL    HW216140   1.999   5.816   2.846
 5266SOL     OW16141   1.881   5.954   2.509
 5266SOL    HW116142   1.799   5.997   2.548
 5266SOL    HW216143   1.853   5.881   2.446
 5267SOL     OW16144   2.431   6.861   3.027
 5267SOL    HW116145   2.338   6.854   2.990
 5267SOL    HW216146   2.442   6.950   3.071
 5268SOL     OW16147   2.997   6.289   2.579
 5268SOL    HW116148   3.054   6.367   2.554
 5268SOL    HW216149   2.937   6.315   2.655
 5269SOL     OW16150   3.617   6.193   2.093
 5269SOL    HW116151   3.605   6.180   1.994
 5269SOL    HW216152   3.587   6.112   2.142
 5270SOL     OW16153   2.630   6.730   2.885
 5270SOL    HW116154   2.552   6.747   2.945
 5270SOL    HW216155   2.664   6.817   2.849
 5271SOL     OW16156   2.712   6.384   3.685
 5271SOL    HW116157   2.708   6.460   3.750
 5271SOL    HW216158   2.734   6.420   3.594
 5272SOL     OW16159   2.547   6.598   2.527
 5272SOL    HW116160   2.616   6.582   2.597
 5272SOL    HW216161   2.474   6.655   2.565
 5273SOL     OW16162   2.548   6.747   3.665
 5273SOL    HW116163   2.608   6.826   3.679
 5273SOL    HW216164   2.462   6.778   3.624
 5274SOL     OW16165   2.197   7.021   2.923
 5274SOL    HW116166   2.119   6.990   2.870
 5274SOL    HW216167   2.255   7.079   2.866
 5275SOL     OW16168   2.300   5.978   3.361
 5275SOL    HW116169   2.382   5.922   3.370
 5275SOL    HW216170   2.219   5.920   3.365
 5276SOL     OW16171   3.465   6.033   2.599
 5276SOL    HW116172   3.391   6.079   2.549
 5276SOL    HW216173   3.516   6.101   2.652
 5277SOL     OW16174   2.093   7.299   2.345
 5277SOL    HW116175   2.127   7.376   2.399
 5277SOL    HW216176   2.137   7.299   2.255
 5278SOL     OW16177   2.989   6.927   3.552
 5278SOL    HW116178   3.036   6.927   3.640
 5278SOL    HW216179   2.941   6.840   3.541
 5279SOL     OW16180   2.092   7.020   2.400
 5279SOL    HW116181   2.066   7.116   2.400
 5279SOL    HW216182   2.021   6.966   2.445
 5280SOL     OW16183   2.102   6.677   2.748
 5280SOL    HW116184   2.116   6.593   2.800
 5280SOL    HW216185   2.047   6.741   2.803
 5281SOL     OW16186   2.482   7.372   3.301
 5281SOL    HW116187   2.390   7.355   3.336
 5281SOL    HW216188   2.510   7.464   3.327
 5282SOL     OW16189   2.468   6.550   1.985
 5282SOL    HW116190   2.475   6.634   1.931
 5282SOL    HW216191   2.514   6.563   2.073
 5283SOL     OW16192   1.984   6.229   2.425
 5283SOL    HW116193   1.939   6.141   2.442
 5283SOL    HW216194   1.983   6.283   2.509
 5284SOL     OW16195   1.889   7.182   1.979
 5284SOL    HW116196   1.870   7.086   2.000
 5284SOL    HW216197   1.856   7.240   2.054
 5285SOL     OW16198   3.551   6.508   2.474
 5285SOL    HW116199   3.646   6.479   2.482
 5285SOL    HW216200   3.543   6.573   2.399
 5286SOL     OW16201   3.503   6.694   2.294
 5286SOL    HW116202   3.589   6.696   2.242
 5286SOL    HW216203   3.517   6.741   2.382
 5287SOL     OW16204   1.975   6.323   3.459
 5287SOL    HW116205   2.063   6.310   3.504
 5287SOL    HW216206   1.962   6.420   3.437
 5288SOL     OW16207   2.475   6.951   2.588
 5288SOL    HW116208   2.426   6.864   2.597
 5288SOL    HW216209   2.452   6.994   2.501
 5289SOL     OW16210   3.155   6.814   3.285
 5289SOL    HW116211   3.192   6.741   3.227
 5289SOL    HW216212   3.207   6.819   3.370
 5290SOL     OW16213   2.671   5.590   2.364
 5290SOL    HW116214   2.711   5.681   2.355
 5290SOL    HW216215   2.571   5.598   2.370
 5291SOL     OW16216   2.059   6.562   3.126
 5291SOL    HW116217   2.148   6.517   3.112
 5291SOL    HW216218   1.986   6.497   3.107
 5292SOL     OW16219   3.387   6.585   2.052
 5292SOL    HW116220   3.324   6.509   2.065
 5292SOL    HW216221   3.435   6.603   2.138
 5293SOL     OW16222   2.179   5.837   3.663
 5293SOL    HW116223   2.250   5.908   3.669
 5293SOL    HW216224   2.091   5.876   3.691
 5294SOL     OW16225   3.328   7.003   2.815
 5294SOL    HW116226   3.269   7.009   2.895
 5294SOL    HW216227   3.313   6.915   2.769
 5295SOL     OW16228   2.460   6.315   2.132
 5295SOL    HW116229   2.484   6.384   2.064
 5295SOL    HW216230   2.382   6.348   2.186
 5296SOL     OW16231   3.143   5.931   2.806
 5296SOL    HW116232   3.057   5.881   2.793
 5296SOL    HW216233   3.205   5.877   2.862
 5297SOL     OW16234   3.438   7.248   2.169
 5297SOL    HW116235   3.527   7.294   2.172
 5297SOL    HW216236   3.417   7.224   2.074
 5298SOL     OW16237   2.669   6.191   3.327
 5298SOL    HW116238   2.622   6.188   3.416
 5298SOL    HW216239   2.618   6.136   3.261
 5299SOL     OW16240   2.835   6.476   3.434
 5299SOL    HW116241   2.881   6.392   3.405
 5299SOL    HW216242   2.779   6.510   3.359
 5300SOL     OW16243   2.853   5.996   3.104
 5300SOL    HW116244   2.776   6.030   3.158
 5300SOL    HW216245   2.819   5.945   3.025
 5301SOL     OW16246   2.903   6.287   2.291
 5301SOL    HW116247   2.929   6.283   2.387
 5301SOL    HW216248   2.818   6.236   2.277
 5302SOL     OW16249   1.938   6.397   2.651
 5302SOL    HW116250   2.037   6.385   2.660
 5302SOL    HW216251   1.914   6.492   2.672
 5303SOL     OW16252   1.992   7.407   3.433
 5303SOL    HW116253   1.982   7.392   3.532
 5303SOL    HW216254   1.906   7.443   3.397
 5304SOL     OW16255   2.727   5.934   2.057
 5304SOL    HW116256   2.786   5.997   2.008
 5304SOL    HW216257   2.746   5.840   2.028
 5305SOL     OW16258   3.581   6.171   3.693
 5305SOL    HW116259   3.555   6.260   3.657
 5305SOL    HW216260   3.579   6.103   3.620
 5306SOL     OW16261   3.224   6.730   2.407
 5306SOL    HW116262   3.307   6.701   2.359
 5306SOL    HW216263   3.175   6.797   2.351
 5307SOL     OW16264   2.412   5.782   2.747
 5307SOL    HW116265   2.407   5.777   2.847
 5307SOL    HW216266   2.414   5.878   2.718
 5308SOL     OW16267   2.870   7.042   2.339
 5308SOL    HW116268   2.824   7.114   2.287
 5308SOL    HW216269   2.866   7.062   2.437
 5309SOL     OW16270   2.213   7.387   2.715
 5309SOL    HW116271   2.263   7.301   2.721
 5309SOL    HW216272   2.278   7.464   2.712
 5310SOL     OW16273   3.657   6.652   2.735
 5310SOL    HW116274   3.595   6.637   2.659
 5310SOL    HW216275   3.605   6.663   2.820
 5311SOL     OW16276   3.089   7.136   3.368
 5311SOL    HW116277   3.095   7.059   3.432
 5311SOL    HW216278   3.037   7.110   3.288
 5312SOL     OW16279   2.183   6.529   2.104
 5312SOL    HW116280   2.265   6.568   2.062
 5312SOL    HW216281   2.156   6.447   2.055
 5313SOL     OW16282   3.320   6.321   2.590
 5313SOL    HW116283   3.315   6.256   2.665
 5313SOL    HW216284   3.400   6.380   2.603
 5314SOL     OW16285   2.323   6.852   3.589
 5314SOL    HW116286   2.273   6.853   3.503
 5314SOL    HW216287   2.260   6.834   3.665
 5315SOL     OW16288   2.064   5.871   3.360
 5315SOL    HW116289   1.984   5.931   3.347
 5315SOL    HW216290   2.054   5.822   3.446
 5316SOL     OW16291   3.494   6.963   1.943
 5316SOL    HW116292   3.462   7.057   1.933
 5316SOL    HW216293   3.418   6.900   1.931
 5317SOL     OW16294   2.326   7.329   2.185
 5317SOL    HW116295   2.359   7.368   2.271
 5317SOL    HW216296   2.402   7.322   2.120
 5318SOL     OW16297   3.262   5.693   2.288
 5318SOL    HW116298   3.238   5.656   2.198
 5318SOL    HW216299   3.361   5.709   2.292
 5319SOL     OW16300   2.111   7.371   3.103
 5319SOL    HW116301   2.168   7.306   3.153
 5319SOL    HW216302   2.095   7.338   3.010
 5320SOL     OW16303   2.802   7.284   2.766
 5320SOL    HW116304   2.882   7.227   2.787
 5320SOL    HW216305   2.753   7.244   2.689
 5321SOL     OW16306   2.244   6.286   2.342
 5321SOL    HW116307   2.289   6.196   2.339
 5321SOL    HW216308   2.150   6.275   2.375
 5322SOL     OW16309   3.409   5.808   3.591
 5322SOL    HW116310   3.404   5.845   3.683
 5322SOL    HW216311   3.337   5.739   3.579
 5323SOL     OW16312   2.476   5.708   1.979
 5323SOL    HW116313   2.574   5.686   1.986
 5323SOL    HW216314   2.445   5.691   1.886
 5324SOL     OW16315   2.643   5.850   3.611
 5324SOL    HW116316   2.710   5.789   3.654
 5324SOL    HW216317   2.570   5.869   3.676
 5325SOL     OW16318   2.750   7.100   3.057
 5325SOL    HW116319   2.727   7.075   2.963
 5325SOL    HW216320   2.811   7.031   3.096
 5326SOL     OW16321   3.213   6.176   3.295
 5326SOL    HW116322   3.241   6.133   3.380
 5326SOL    HW216323   3.238   6.272   3.296
 5327SOL     OW16324   2.665   6.988   2.786
 5327SOL    HW116325   2.755   7.002   2.744
 5327SOL    HW216326   2.594   6.990   2.715
 5328SOL     OW16327   2.784   6.089   2.761
 5328SOL    HW116328   2.759   6.080   2.665
 5328SOL    HW216329   2.832   6.007   2.792
 5329SOL     OW16330   2.401   5.650   2.374
 5329SOL    HW116331   2.320   5.651   2.432
 5329SOL    HW216332   2.404   5.733   2.319
 5330SOL     OW16333   3.296   6.774   1.903
 5330SOL    HW116334   3.328   6.698   1.960
 5330SOL    HW216335   3.204   6.801   1.933
 5331SOL     OW16336   2.159   5.621   2.033
 5331SOL    HW116337   2.208   5.705   2.012
 5331SOL    HW216338   2.221   5.556   2.078
 5332SOL     OW16339   2.797   5.822   2.342
 5332SOL    HW116340   2.749   5.863   2.264
 5332SOL    HW216341   2.896   5.820   2.323
 5333SOL     OW16342   2.938   6.269   3.326
 5333SOL    HW116343   2.858   6.208   3.329
 5333SOL    HW216344   3.019   6.216   3.302
 5334SOL     OW16345   3.089   7.156   2.655
 5334SOL    HW116346   3.110   7.230   2.590
 5334SOL    HW216347   3.157   7.156   2.728
 5335SOL     OW16348   2.321   6.738   2.603
 5335SOL    HW116349   2.250   6.711   2.668
 5335SOL    HW216350   2.295   6.710   2.510
 5336SOL     OW16351   3.133   7.383   2.453
 5336SOL    HW116352   3.177   7.447   2.389
 5336SOL    HW216353   3.083   7.435   2.523
 5337SOL     OW16354   2.894   6.135   1.878
 5337SOL    HW116355   2.853   6.217   1.839
 5337SOL    HW216356   2.958   6.161   1.951
 5338SOL     OW16357   1.940   6.142   3.248
 5338SOL    HW116358   2.032   6.141   3.207
 5338SOL    HW216359   1.934   6.216   3.315
 5339SOL     OW16360   2.423   5.808   3.009
 5339SOL    HW116361   2.461   5.724   3.046
 5339SOL    HW216362   2.335   5.827   3.053
 5340SOL     OW16363   2.728   6.040   2.504
 5340SOL    HW116364   2.696   6.112   2.442
 5340SOL    HW216365   2.752   5.959   2.451
 5341SOL     OW16366   2.879   5.625   2.615
 5341SOL    HW116367   2.807   5.630   2.546
 5341SOL    HW216368   2.855   5.556   2.684
 5342SOL     OW16369   3.291   6.759   2.729
 5342SOL    HW116370   3.236   6.675   2.722
 5342SOL    HW216371   3.317   6.788   2.637
 5343SOL     OW16372   3.328   6.176   2.854
 5343SOL    HW116373   3.298   6.081   2.861
 5343SOL    HW216374   3.401   6.192   2.920
 5344SOL     OW16375   3.719   6.419   2.239
 5344SOL    HW116376   3.761   6.355   2.303
 5344SOL    HW216377   3.681   6.368   2.161
 5345SOL     OW16378   2.350   6.971   2.036
 5345SOL    HW116379   2.263   6.956   2.083
 5345SOL    HW216380   2.333   6.997   1.941
 5346SOL     OW16381   3.526   6.866   2.519
 5346SOL    HW116382   3.625   6.874   2.533
 5346SOL    HW216383   3.481   6.950   2.550
 5347SOL     OW16384   3.252   6.161   1.940
 5347SOL    HW116385   3.198   6.140   2.021
 5347SOL    HW216386   3.343   6.120   1.949
 5348SOL     OW16387   2.389   5.842   2.190
 5348SOL    HW116388   2.416   5.783   2.115
 5348SOL    HW216389   2.389   5.937   2.159
 5349SOL     OW16390   3.616   6.809   3.450
 5349SOL    HW116391   3.707   6.770   3.437
 5349SOL    HW216392   3.624   6.905   3.474
 5350SOL     OW16393   2.926   6.933   3.202
 5350SOL    HW116394   2.846   6.910   3.257
 5350SOL    HW216395   3.009   6.907   3.251
 5351SOL     OW16396   2.973   6.781   2.962
 5351SOL    HW116397   2.933   6.825   3.043
 5351SOL    HW216398   2.932   6.818   2.879
 5352SOL     OW16399   3.500   6.685   2.941
 5352SOL    HW116400   3.505   6.766   3.000
 5352SOL    HW216401   3.414   6.687   2.890
 5353SOL     OW16402   2.777   5.675   3.264
 5353SOL    HW116403   2.802   5.655   3.169
 5353SOL    HW216404   2.849   5.731   3.306
 5354SOL     OW16405   2.842   6.702   3.581
 5354SOL    HW116406   2.743   6.708   3.591
 5354SOL    HW216407   2.865   6.622   3.525
 5355SOL     OW16408   2.567   6.636   2.230
 5355SOL    HW116409   2.553   6.643   2.329
 5355SOL    HW216410   2.651   6.585   2.212
 5356SOL     OW16411   2.272   6.399   3.113
 5356SOL    HW116412   2.358   6.411   3.163
 5356SOL    HW216413   2.230   6.312   3.140
 5357SOL     OW16414   3.136   5.972   3.124
 5357SOL    HW116415   3.157   6.046   3.188
 5357SOL    HW216416   3.047   5.989   3.081
 5358SOL     OW16417   1.926   7.150   3.193
 5358SOL    HW116418   1.880   7.232   3.159
 5358SOL    HW216419   2.024   7.169   3.202
 5359SOL     OW16420   2.229   6.686   2.363
 5359SOL    HW116421   2.222   6.769   2.307
 5359SOL    HW216422   2.233   6.606   2.303
 5360SOL     OW16423   2.428   6.123   2.727
 5360SOL    HW116424   2.440   6.189   2.653
 5360SOL    HW216425   2.474   6.157   2.810
 5361SOL     OW16426   3.114   6.934   2.250
 5361SOL    HW116427   3.164   7.011   2.290
 5361SOL    HW216428   3.019   6.936   2.282
 5362SOL     OW16429   3.134   7.031   3.004
 5362SOL    HW116430   3.181   7.044   3.091
 5362SOL    HW216431   3.068   6.957   3.013
 5363SOL     OW16432   3.444   6.225   2.334
 5363SOL    HW116433   3.413   6.286   2.407
 5363SOL    HW216434   3.494   6.277   2.265
 5364SOL     OW16435   2.216   7.096   3.191
 5364SOL    HW116436   2.195   7.052   3.104
 5364SOL    HW216437   2.313   7.122   3.194
 5365SOL     OW16438   2.264   6.337   3.460
 5365SOL    HW116439   2.332   6.392   3.413
 5365SOL    HW216440   2.304   6.249   3.487
 5366SOL     OW16441   3.449   6.365   3.532
 5366SOL    HW116442   3.357   6.403   3.527
 5366SOL    HW216443   3.509   6.412   3.467
 5367SOL     OW16444   2.366   5.636   3.602
 5367SOL    HW116445   2.324   5.579   3.532
 5367SOL    HW216446   2.300   5.705   3.634
 5368SOL     OW16447   2.435   6.456   2.891
 5368SOL    HW116448   2.479   6.545   2.882
 5368SOL    HW216449   2.372   6.456   2.968
 5369SOL     OW16450   3.222   6.448   2.907
 5369SOL    HW116451   3.147   6.448   2.841
 5369SOL    HW216452   3.259   6.356   2.916
 5370SOL     OW16453   3.071   6.111   2.137
 5370SOL    HW116454   3.084   6.027   2.191
 5370SOL    HW216455   3.042   6.185   2.197
 5371SOL     OW16456   2.169   5.799   3.093
 5371SOL    HW116457   2.146   5.836   3.183
 5371SOL    HW216458   2.139   5.704   3.087
 5372SOL     OW16459   1.899   6.896   3.144
 5372SOL    HW116460   1.952   6.847   3.212
 5372SOL    HW216461   1.921   6.994   3.149
 5373SOL     OW16462   2.594   6.220   2.926
 5373SOL    HW116463   2.653   6.194   2.850
 5373SOL    HW216464   2.566   6.316   2.915
 5374SOL     OW16465   3.590   6.521   3.716
 5374SOL    HW116466   3.544   6.514   3.627
 5374SOL    HW216467   3.528   6.565   3.782
 5375SOL     OW16468   2.169   5.649   2.480
 5375SOL    HW116469   2.158   5.743   2.513
 5375SOL    HW216470   2.164   5.586   2.557
 5376SOL     OW16471   3.484   5.953   2.236
 5376SOL    HW116472   3.486   5.877   2.300
 5376SOL    HW216473   3.436   6.030   2.276
 5377SOL     OW16474   2.885   6.352   2.828
 5377SOL    HW116475   2.900   6.373   2.924
 5377SOL    HW216476   2.855   6.257   2.819
 5378SOL     OW16477   2.842   7.159   3.562
 5378SOL    HW116478   2.822   7.203   3.474
 5378SOL    HW216479   2.881   7.068   3.546
 5379SOL     OW16480   3.721   7.104   3.467
 5379SOL    HW116481   3.735   7.131   3.372
 5379SOL    HW216482   3.804   7.126   3.520
 5380SOL     OW16483   2.212   6.484   3.666
 5380SOL    HW116484   2.288   6.528   3.714
 5380SOL    HW216485   2.247   6.437   3.584
 5381SOL     OW16486   3.402   5.860   1.987
 5381SOL    HW116487   3.341   5.785   2.010
 5381SOL    HW216488   3.424   5.912   2.070
 5382SOL     OW16489   3.165   6.424   1.904
 5382SOL    HW116490   3.199   6.331   1.919
 5382SOL    HW216491   3.183   6.451   1.809
 5383SOL     OW16492   2.930   6.919   2.711
 5383SOL    HW116493   2.937   6.835   2.656
 5383SOL    HW216494   2.992   6.988   2.675
 5384SOL     OW16495   2.181   6.396   2.811
 5384SOL    HW116496   2.274   6.432   2.816
 5384SOL    HW216497   2.175   6.311   2.863
 5385SOL     OW16498   2.201   6.095   2.868
 5385SOL    HW116499   2.149   6.012   2.851
 5385SOL    HW216500   2.278   6.100   2.804
 5386SOL     OW16501   3.022   5.793   3.339
 5386SOL    HW116502   3.022   5.857   3.416
 5386SOL    HW216503   3.050   5.841   3.256
 5387SOL     OW16504   1.870   6.912   2.062
 5387SOL    HW116505   1.777   6.933   2.031
 5387SOL    HW216506   1.880   6.813   2.075
 5388SOL     OW16507   1.950   7.387   2.789
 5388SOL    HW116508   1.908   7.301   2.762
 5388SOL    HW216509   2.044   7.390   2.755
 5389SOL     OW16510   2.366   7.154   2.772
 5389SOL    HW116511   2.432   7.228   2.781
 5389SOL    HW216512   2.410   7.075   2.730
 5390SOL     OW16513   2.864   6.382   3.100
 5390SOL    HW116514   2.905   6.350   3.186
 5390SOL    HW216515   2.768   6.355   3.097
 5391SOL     OW16516   1.902   6.130   2.976
 5391SOL    HW116517   1.987   6.097   2.935
 5391SOL    HW216518   1.915   6.145   3.074
 5392SOL     OW16519   2.051   6.106   3.584
 5392SOL    HW116520   2.110   6.066   3.514
 5392SOL    HW216521   1.993   6.177   3.543
 5393SOL     OW16522   3.231   6.536   3.522
 5393SOL    HW116523   3.270   6.625   3.542
 5393SOL    HW216524   3.241   6.516   3.425
 5394SOL     OW16525   2.677   6.158   2.187
 5394SOL    HW116526   2.684   6.069   2.141
 5394SOL    HW216527   2.583   6.192   2.179
 5395SOL     OW16528   3.519   6.190   3.068
 5395SOL    HW116529   3.481   6.121   3.130
 5395SOL    HW216530   3.601   6.154   3.024
 5396SOL     OW16531   2.114   7.150   3.606
 5396SOL    HW116532   2.084   7.207   3.682
 5396SOL    HW216533   2.107   7.053   3.632
 5397SOL     OW16534   2.533   6.050   3.131
 5397SOL    HW116535   2.499   5.961   3.101
 5397SOL    HW216536   2.559   6.104   3.051
 5398SOL     OW16537   2.335   6.086   2.053
 5398SOL    HW116538   2.396   6.166   2.057
 5398SOL    HW216539   2.240   6.117   2.060
 5399SOL     OW16540   2.021   6.723   3.328
 5399SOL    HW116541   2.043   6.662   3.404
 5399SOL    HW216542   2.031   6.674   3.242
 5400SOL     OW16543   3.209   6.645   3.096
 5400SOL    HW116544   3.233   6.582   3.022
 5400SOL    HW216545   3.119   6.685   3.078
 5401SOL     OW16546   3.164   6.441   2.171
 5401SOL    HW116547   3.078   6.410   2.213
 5401SOL    HW216548   3.160   6.427   2.072
 5402SOL     OW16549   1.945   6.844   2.884
 5402SOL    HW116550   1.940   6.843   2.984
 5402SOL    HW216551   1.862   6.803   2.846
 5403SOL     OW16552   2.550   7.248   3.578
 5403SOL    HW116553   2.494   7.329   3.587
 5403SOL    HW216554   2.602   7.252   3.492
 5404SOL     OW16555   3.588   5.721   2.385
 5404SOL    HW116556   3.661   5.704   2.318
 5404SOL    HW216557   3.557   5.634   2.423
 5405SOL     OW16558   1.992   7.380   3.713
 5405SOL    HW116559   1.951   7.306   3.766
 5405SOL    HW216560   2.056   7.431   3.771
 5406SOL     OW16561   3.142   6.513   2.534
 5406SOL    HW116562   3.202   6.432   2.536
 5406SOL    HW216563   3.182   6.582   2.474
 5407SOL     OW16564   2.692   6.859   3.284
 5407SOL    HW116565   2.687   6.892   3.379
 5407SOL    HW216566   2.606   6.878   3.238
 5408SOL     OW16567   2.534   7.202   2.016
 5408SOL    HW116568   2.543   7.212   1.917
 5408SOL    HW216569   2.494   7.113   2.037
 5409SOL     OW16570   3.703   5.761   2.825
 5409SOL    HW116571   3.742   5.676   2.789
 5409SOL    HW216572   3.605   5.763   2.806
 5410SOL     OW16573   2.125   5.912   2.582
 5410SOL    HW116574   2.046   5.963   2.548
 5410SOL    HW216575   2.116   5.897   2.680
 5411SOL     OW16576   2.684   6.588   3.234
 5411SOL    HW116577   2.724   6.587   3.142
 5411SOL    HW216578   2.694   6.680   3.274
 5412SOL     OW16579   2.778   6.496   2.153
 5412SOL    HW116580   2.841   6.534   2.085
 5412SOL    HW216581   2.818   6.413   2.192
 5413SOL     OW16582   2.234   6.874   3.352
 5413SOL    HW116583   2.221   6.967   3.318
 5413SOL    HW216584   2.150   6.822   3.339
 5414SOL     OW16585   3.476   6.878   3.151
 5414SOL    HW116586   3.536   6.881   3.231
 5414SOL    HW216587   3.401   6.942   3.164
 5415SOL     OW16588   2.901   6.684   2.558
 5415SOL    HW116589   2.831   6.637   2.612
 5415SOL    HW216590   2.960   6.616   2.515
 5416SOL     OW16591   2.876   5.822   2.833
 5416SOL    HW116592   2.868   5.786   2.740
 5416SOL    HW216593   2.874   5.746   2.898
 5417SOL     OW16594   2.452   7.073   2.353
 5417SOL    HW116595   2.494   7.015   2.283
 5417SOL    HW216596   2.408   7.152   2.309
 5418SOL     OW16597   2.117   6.934   2.152
 5418SOL    HW116598   2.021   6.935   2.125
 5418SOL    HW216599   2.129   6.987   2.236
 5419SOL     OW16600   1.967   6.599   3.588
 5419SOL    HW116601   1.890   6.566   3.642
 5419SOL    HW216602   2.052   6.569   3.630
 5420SOL     OW16603   2.534   5.789   3.351
 5420SOL    HW116604   2.624   5.773   3.311
 5420SOL    HW216605   2.542   5.794   3.450
 5421SOL     OW16606   1.937   5.931   1.895
 5421SOL    HW116607   1.845   5.903   1.866
 5421SOL    HW216608   1.968   6.008   1.839
 5422SOL     OW16609   3.302   6.442   3.260
 5422SOL    HW116610   3.245   6.494   3.197
 5422SOL    HW216611   3.398   6.454   3.236
 5423SOL     OW16612   1.934   5.752   2.180
 5423SOL    HW116613   1.917   5.835   2.126
 5423SOL    HW216614   2.024   5.715   2.158
 5424SOL     OW16615   3.045   6.921   1.981
 5424SOL    HW116616   2.946   6.910   1.983
 5424SOL    HW216617   3.079   6.936   2.074
 5425SOL     OW16618   2.475   6.428   3.293
 5425SOL    HW116619   2.531   6.509   3.276
 5425SOL    HW216620   2.534   6.348   3.296
 5426SOL     OW16621   2.578   6.151   3.570
 5426SOL    HW116622   2.597   6.216   3.644
 5426SOL    HW216623   2.638   6.071   3.579
 5427SOL     OW16624   3.312   6.806   3.495
 5427SOL    HW116625   3.303   6.796   3.594
 5427SOL    HW216626   3.408   6.799   3.469
 5428SOL     OW16627   2.252   7.327   3.422
 5428SOL    HW116628   2.161   7.368   3.420
 5428SOL    HW216629   2.245   7.233   3.454
 5429SOL     OW16630   3.536   6.469   3.116
 5429SOL    HW116631   3.509   6.380   3.079
 5429SOL    HW216632   3.537   6.537   3.043
 5430SOL     OW16633   3.087   5.911   2.311
 5430SOL    HW116634   3.152   5.837   2.300
 5430SOL    HW216635   3.107   5.961   2.395
 5431SOL     OW16636   2.456   6.331   2.514
 5431SOL    HW116637   2.506   6.416   2.495
 5431SOL    HW216638   2.368   6.333   2.466
 5432SOL     OW16639   3.639   5.928   3.504
 5432SOL    HW116640   3.622   5.959   3.410
 5432SOL    HW216641   3.555   5.891   3.542
 5433SOL     OW16642   3.592   6.520   3.379
 5433SOL    HW116643   3.630   6.611   3.394
 5433SOL    HW216644   3.584   6.503   3.280
 5434SOL     OW16645   2.721   6.960   1.878
 5434SOL    HW116646   2.675   6.975   1.966
 5434SOL    HW216647   2.765   7.045   1.848
 5435SOL     OW16648   2.721   6.542   2.723
 5435SOL    HW116649   2.775   6.473   2.771
 5435SOL    HW216650   2.689   6.611   2.789
 5436SOL     OW16651   2.945   6.570   1.949
 5436SOL    HW116652   2.922   6.623   1.867
 5436SOL    HW216653   3.026   6.514   1.930
 5437SOL     OW16654   2.083   6.900   3.706
 5437SOL    HW116655   2.018   6.827   3.685
 5437SOL    HW216656   2.087   6.914   3.804
 5438SOL     OW16657   1.941   6.826   2.515
 5438SOL    HW116658   1.940   6.779   2.603
 5438SOL    HW216659   2.023   6.798   2.464
 5439SOL     OW16660   2.534   6.977   3.486
 5439SOL    HW116661   2.456   6.927   3.524
 5439SOL    HW216662   2.531   7.072   3.517
 5440SOL     OW16663   2.290   6.010   2.382
 5440SOL    HW116664   2.320   5.938   2.320
 5440SOL    HW216665   2.251   5.970   2.465
 5441SOL     OW16666   2.179   6.133   3.142
 5441SOL    HW116667   2.217   6.074   3.214
 5441SOL    HW216668   2.219   6.107   3.054
 5442SOL     OW16669   3.286   5.800   2.974
 5442SOL    HW116670   3.338   5.735   3.029
 5442SOL    HW216671   3.237   5.863   3.035
 5443SOL     OW16672   2.863   5.620   3.016
 5443SOL    HW116673   2.800   5.548   2.985
 5443SOL    HW216674   2.956   5.584   3.016
 5444SOL     OW16675   2.632   6.916   2.163
 5444SOL    HW116676   2.586   6.829   2.180
 5444SOL    HW216677   2.723   6.913   2.204
 5445SOL     OW16678   2.480   7.153   3.146
 5445SOL    HW116679   2.475   7.235   3.203
 5445SOL    HW216680   2.569   7.150   3.101
 5446SOL     OW16681   3.214   5.638   2.030
 5446SOL    HW116682   3.249   5.597   1.946
 5446SOL    HW216683   3.124   5.600   2.050
 5447SOL     OW16684   3.162   6.039   2.553
 5447SOL    HW116685   3.103   6.119   2.557
 5447SOL    HW216686   3.177   6.004   2.646
 5448SOL     OW16687   3.455   5.807   2.744
 5448SOL    HW116688   3.371   5.806   2.798
 5448SOL    HW216689   3.457   5.890   2.688
 5449SOL     OW16690   1.901   6.663   2.162
 5449SOL    HW116691   2.000   6.652   2.153
 5449SOL    HW216692   1.861   6.577   2.194
 5450SOL     OW16693   2.092   6.214   3.837
 5450SOL    HW116694   1.999   6.212   3.874
 5450SOL    HW216695   2.093   6.175   3.745
 5451SOL     OW16696   2.087   5.861   4.720
 5451SOL    HW116697   2.122   5.844   4.812
 5451SOL    HW216698   1.999   5.816   4.708
 5452SOL     OW16699   1.881   5.954   4.371
 5452SOL    HW116700   1.799   5.997   4.410
 5452SOL    HW216701   1.853   5.881   4.308
 5453SOL     OW16702   2.431   6.861   4.889
 5453SOL    HW116703   2.338   6.854   4.852
 5453SOL    HW216704   2.442   6.950   4.933
 5454SOL     OW16705   3.617   6.193   3.955
 5454SOL    HW116706   3.605   6.180   3.856
 5454SOL    HW216707   3.587   6.112   4.004
 5455SOL     OW16708   2.630   6.730   4.747
 5455SOL    HW116709   2.552   6.747   4.807
 5455SOL    HW216710   2.664   6.817   4.711
 5456SOL     OW16711   2.712   6.384   5.547
 5456SOL    HW116712   2.708   6.460   5.612
 5456SOL    HW216713   2.734   6.420   5.456
 5457SOL     OW16714   2.547   6.598   4.389
 5457SOL    HW116715   2.616   6.582   4.459
 5457SOL    HW216716   2.474   6.655   4.427
 5458SOL     OW16717   2.548   6.747   5.527
 5458SOL    HW116718   2.608   6.826   5.541
 5458SOL    HW216719   2.462   6.778   5.486
 5459SOL     OW16720   2.197   7.021   4.785
 5459SOL    HW116721   2.119   6.990   4.732
 5459SOL    HW216722   2.255   7.079   4.728
 5460SOL     OW16723   2.300   5.978   5.223
 5460SOL    HW116724   2.382   5.922   5.232
 5460SOL    HW216725   2.219   5.920   5.227
 5461SOL     OW16726   3.465   6.033   4.461
 5461SOL    HW116727   3.391   6.079   4.411
 5461SOL    HW216728   3.516   6.101   4.514
 5462SOL     OW16729   2.093   7.299   4.207
 5462SOL    HW116730   2.127   7.376   4.261
 5462SOL    HW216731   2.137   7.299   4.117
 5463SOL     OW16732   2.989   6.927   5.414
 5463SOL    HW116733   3.036   6.927   5.502
 5463SOL    HW216734   2.941   6.840   5.403
 5464SOL     OW16735   2.092   7.020   4.262
 5464SOL    HW116736   2.066   7.116   4.262
 5464SOL    HW216737   2.021   6.966   4.307
 5465SOL     OW16738   2.102   6.677   4.610
 5465SOL    HW116739   2.116   6.593   4.662
 5465SOL    HW216740   2.047   6.741   4.665
 5466SOL     OW16741   2.482   7.372   5.163
 5466SOL    HW116742   2.390   7.355   5.198
 5466SOL    HW216743   2.510   7.464   5.189
 5467SOL     OW16744   2.468   6.550   3.847
 5467SOL    HW116745   2.475   6.634   3.793
 5467SOL    HW216746   2.514   6.563   3.935
 5468SOL     OW16747   3.456   5.700   5.204
 5468SOL    HW116748   3.438   5.767   5.132
 5468SOL    HW216749   3.453   5.746   5.293
 5469SOL     OW16750   1.984   6.229   4.287
 5469SOL    HW116751   1.939   6.141   4.304
 5469SOL    HW216752   1.983   6.283   4.371
 5470SOL     OW16753   1.889   7.182   3.841
 5470SOL    HW116754   1.870   7.086   3.862
 5470SOL    HW216755   1.856   7.240   3.916
 5471SOL     OW16756   3.551   6.508   4.336
 5471SOL    HW116757   3.646   6.479   4.344
 5471SOL    HW216758   3.543   6.573   4.261
 5472SOL     OW16759   3.503   6.694   4.156
 5472SOL    HW116760   3.589   6.696   4.104
 5472SOL    HW216761   3.517   6.741   4.244
 5473SOL     OW16762   1.975   6.323   5.321
 5473SOL    HW116763   2.063   6.310   5.366
 5473SOL    HW216764   1.962   6.420   5.299
 5474SOL     OW16765   2.475   6.951   4.450
 5474SOL    HW116766   2.426   6.864   4.459
 5474SOL    HW216767   2.452   6.994   4.363
 5475SOL     OW16768   3.155   6.814   5.147
 5475SOL    HW116769   3.192   6.741   5.089
 5475SOL    HW216770   3.207   6.819   5.232
 5476SOL     OW16771   2.059   6.562   4.988
 5476SOL    HW116772   2.148   6.517   4.974
 5476SOL    HW216773   1.986   6.497   4.969
 5477SOL     OW16774   3.387   6.585   3.914
 5477SOL    HW116775   3.324   6.509   3.927
 5477SOL    HW216776   3.435   6.603   4.000
 5478SOL     OW16777   2.179   5.837   5.525
 5478SOL    HW116778   2.250   5.908   5.531
 5478SOL    HW216779   2.091   5.876   5.553
 5479SOL     OW16780   3.328   7.003   4.677
 5479SOL    HW116781   3.269   7.009   4.757
 5479SOL    HW216782   3.313   6.915   4.631
 5480SOL     OW16783   2.460   6.315   3.994
 5480SOL    HW116784   2.484   6.384   3.926
 5480SOL    HW216785   2.382   6.348   4.048
 5481SOL     OW16786   3.143   5.931   4.668
 5481SOL    HW116787   3.057   5.881   4.655
 5481SOL    HW216788   3.205   5.877   4.724
 5482SOL     OW16789   3.438   7.248   4.031
 5482SOL    HW116790   3.527   7.294   4.034
 5482SOL    HW216791   3.417   7.224   3.936
 5483SOL     OW16792   2.669   6.191   5.189
 5483SOL    HW116793   2.622   6.188   5.278
 5483SOL    HW216794   2.618   6.136   5.123
 5484SOL     OW16795   3.256   6.055   5.398
 5484SOL    HW116796   3.236   6.098   5.486
 5484SOL    HW216797   3.334   5.993   5.407
 5485SOL     OW16798   2.835   6.476   5.296
 5485SOL    HW116799   2.881   6.392   5.267
 5485SOL    HW216800   2.779   6.510   5.221
 5486SOL     OW16801   2.853   5.996   4.966
 5486SOL    HW116802   2.776   6.030   5.020
 5486SOL    HW216803   2.819   5.945   4.887
 5487SOL     OW16804   1.938   6.397   4.513
 5487SOL    HW116805   2.037   6.385   4.522
 5487SOL    HW216806   1.914   6.492   4.534
 5488SOL     OW16807   1.992   7.407   5.295
 5488SOL    HW116808   1.982   7.392   5.394
 5488SOL    HW216809   1.906   7.443   5.259
 5489SOL     OW16810   2.727   5.934   3.919
 5489SOL    HW116811   2.786   5.997   3.870
 5489SOL    HW216812   2.746   5.840   3.890
 5490SOL     OW16813   3.581   6.171   5.555
 5490SOL    HW116814   3.555   6.260   5.519
 5490SOL    HW216815   3.579   6.103   5.482
 5491SOL     OW16816   3.224   6.730   4.269
 5491SOL    HW116817   3.307   6.701   4.221
 5491SOL    HW216818   3.175   6.797   4.213
 5492SOL     OW16819   2.870   7.042   4.201
 5492SOL    HW116820   2.824   7.114   4.149
 5492SOL    HW216821   2.866   7.062   4.299
 5493SOL     OW16822   2.213   7.387   4.577
 5493SOL    HW116823   2.263   7.301   4.583
 5493SOL    HW216824   2.278   7.464   4.574
 5494SOL     OW16825   3.657   6.652   4.597
 5494SOL    HW116826   3.595   6.637   4.521
 5494SOL    HW216827   3.605   6.663   4.682
 5495SOL     OW16828   3.089   7.136   5.230
 5495SOL    HW116829   3.095   7.059   5.294
 5495SOL    HW216830   3.037   7.110   5.150
 5496SOL     OW16831   2.183   6.529   3.966
 5496SOL    HW116832   2.265   6.568   3.924
 5496SOL    HW216833   2.156   6.447   3.917
 5497SOL     OW16834   3.320   6.321   4.452
 5497SOL    HW116835   3.315   6.256   4.527
 5497SOL    HW216836   3.400   6.380   4.465
 5498SOL     OW16837   2.323   6.852   5.451
 5498SOL    HW116838   2.273   6.853   5.365
 5498SOL    HW216839   2.260   6.834   5.527
 5499SOL     OW16840   2.064   5.871   5.222
 5499SOL    HW116841   1.984   5.931   5.209
 5499SOL    HW216842   2.054   5.822   5.308
 5500SOL     OW16843   3.494   6.963   3.805
 5500SOL    HW116844   3.462   7.057   3.795
 5500SOL    HW216845   3.418   6.900   3.793
 5501SOL     OW16846   2.326   7.329   4.047
 5501SOL    HW116847   2.359   7.368   4.133
 5501SOL    HW216848   2.402   7.322   3.982
 5502SOL     OW16849   2.111   7.371   4.965
 5502SOL    HW116850   2.168   7.306   5.015
 5502SOL    HW216851   2.095   7.338   4.872
 5503SOL     OW16852   2.802   7.284   4.628
 5503SOL    HW116853   2.882   7.227   4.649
 5503SOL    HW216854   2.753   7.244   4.551
 5504SOL     OW16855   2.244   6.286   4.204
 5504SOL    HW116856   2.289   6.196   4.201
 5504SOL    HW216857   2.150   6.275   4.237
 5505SOL     OW16858   3.409   5.808   5.453
 5505SOL    HW116859   3.404   5.845   5.545
 5505SOL    HW216860   3.337   5.739   5.441
 5506SOL     OW16861   2.476   5.708   3.841
 5506SOL    HW116862   2.574   5.686   3.848
 5506SOL    HW216863   2.445   5.691   3.748
 5507SOL     OW16864   2.643   5.850   5.473
 5507SOL    HW116865   2.710   5.789   5.516
 5507SOL    HW216866   2.570   5.869   5.538
 5508SOL     OW16867   2.750   7.100   4.919
 5508SOL    HW116868   2.727   7.075   4.825
 5508SOL    HW216869   2.811   7.031   4.958
 5509SOL     OW16870   3.213   6.176   5.157
 5509SOL    HW116871   3.241   6.133   5.242
 5509SOL    HW216872   3.238   6.272   5.158
 5510SOL     OW16873   2.665   6.988   4.648
 5510SOL    HW116874   2.755   7.002   4.606
 5510SOL    HW216875   2.594   6.990   4.577
 5511SOL     OW16876   2.784   6.089   4.623
 5511SOL    HW116877   2.759   6.080   4.527
 5511SOL    HW216878   2.832   6.007   4.654
 5512SOL     OW16879   2.401   5.650   4.236
 5512SOL    HW116880   2.320   5.651   4.294
 5512SOL    HW216881   2.404   5.733   4.181
 5513SOL     OW16882   3.296   6.774   3.765
 5513SOL    HW116883   3.328   6.698   3.822
 5513SOL    HW216884   3.204   6.801   3.795
 5514SOL     OW16885   2.159   5.621   3.895
 5514SOL    HW116886   2.208   5.705   3.874
 5514SOL    HW216887   2.221   5.556   3.940
 5515SOL     OW16888   2.938   6.269   5.188
 5515SOL    HW116889   2.858   6.208   5.191
 5515SOL    HW216890   3.019   6.216   5.164
 5516SOL     OW16891   3.089   7.156   4.517
 5516SOL    HW116892   3.110   7.230   4.452
 5516SOL    HW216893   3.157   7.156   4.590
 5517SOL     OW16894   2.321   6.738   4.465
 5517SOL    HW116895   2.250   6.711   4.530
 5517SOL    HW216896   2.295   6.710   4.372
 5518SOL     OW16897   3.133   7.383   4.315
 5518SOL    HW116898   3.177   7.447   4.251
 5518SOL    HW216899   3.083   7.435   4.385
 5519SOL     OW16900   2.894   6.135   3.740
 5519SOL    HW116901   2.853   6.217   3.701
 5519SOL    HW216902   2.958   6.161   3.813
 5520SOL     OW16903   1.940   6.142   5.110
 5520SOL    HW116904   2.032   6.141   5.069
 5520SOL    HW216905   1.934   6.216   5.177
 5521SOL     OW16906   3.291   6.759   4.591
 5521SOL    HW116907   3.236   6.675   4.584
 5521SOL    HW216908   3.317   6.788   4.499
 5522SOL     OW16909   3.328   6.176   4.716
 5522SOL    HW116910   3.298   6.081   4.723
 5522SOL    HW216911   3.401   6.192   4.782
 5523SOL     OW16912   3.719   6.419   4.101
 5523SOL    HW116913   3.761   6.355   4.165
 5523SOL    HW216914   3.681   6.368   4.023
 5524SOL     OW16915   2.350   6.971   3.898
 5524SOL    HW116916   2.263   6.956   3.945
 5524SOL    HW216917   2.333   6.997   3.803
 5525SOL     OW16918   3.526   6.866   4.381
 5525SOL    HW116919   3.625   6.874   4.395
 5525SOL    HW216920   3.481   6.950   4.412
 5526SOL     OW16921   3.252   6.161   3.802
 5526SOL    HW116922   3.198   6.140   3.883
 5526SOL    HW216923   3.343   6.120   3.811
 5527SOL     OW16924   2.389   5.842   4.052
 5527SOL    HW116925   2.416   5.783   3.977
 5527SOL    HW216926   2.389   5.937   4.021
 5528SOL     OW16927   3.616   6.809   5.312
 5528SOL    HW116928   3.707   6.770   5.299
 5528SOL    HW216929   3.624   6.905   5.336
 5529SOL     OW16930   2.926   6.933   5.064
 5529SOL    HW116931   2.846   6.910   5.119
 5529SOL    HW216932   3.009   6.907   5.113
 5530SOL     OW16933   2.973   6.781   4.824
 5530SOL    HW116934   2.933   6.825   4.905
 5530SOL    HW216935   2.932   6.818   4.741
 5531SOL     OW16936   3.500   6.685   4.803
 5531SOL    HW116937   3.505   6.766   4.862
 5531SOL    HW216938   3.414   6.687   4.752
 5532SOL     OW16939   2.777   5.675   5.126
 5532SOL    HW116940   2.802   5.655   5.031
 5532SOL    HW216941   2.849   5.731   5.168
 5533SOL     OW16942   2.842   6.702   5.443
 5533SOL    HW116943   2.743   6.708   5.453
 5533SOL    HW216944   2.865   6.622   5.387
 5534SOL     OW16945   2.567   6.636   4.092
 5534SOL    HW116946   2.553   6.643   4.191
 5534SOL    HW216947   2.651   6.585   4.074
 5535SOL     OW16948   2.272   6.399   4.975
 5535SOL    HW116949   2.358   6.411   5.025
 5535SOL    HW216950   2.230   6.312   5.002
 5536SOL     OW16951   3.136   5.972   4.986
 5536SOL    HW116952   3.157   6.046   5.050
 5536SOL    HW216953   3.047   5.989   4.943
 5537SOL     OW16954   1.926   7.150   5.055
 5537SOL    HW116955   1.880   7.232   5.021
 5537SOL    HW216956   2.024   7.169   5.064
 5538SOL     OW16957   2.229   6.686   4.225
 5538SOL    HW116958   2.222   6.769   4.169
 5538SOL    HW216959   2.233   6.606   4.165
 5539SOL     OW16960   2.428   6.123   4.589
 5539SOL    HW116961   2.440   6.189   4.515
 5539SOL    HW216962   2.474   6.157   4.672
 5540SOL     OW16963   3.114   6.934   4.112
 5540SOL    HW116964   3.164   7.011   4.152
 5540SOL    HW216965   3.019   6.936   4.144
 5541SOL     OW16966   3.134   7.031   4.866
 5541SOL    HW116967   3.181   7.044   4.953
 5541SOL    HW216968   3.068   6.957   4.875
 5542SOL     OW16969   3.444   6.225   4.196
 5542SOL    HW116970   3.413   6.286   4.269
 5542SOL    HW216971   3.494   6.277   4.127
 5543SOL     OW16972   2.216   7.096   5.053
 5543SOL    HW116973   2.195   7.052   4.966
 5543SOL    HW216974   2.313   7.122   5.056
 5544SOL     OW16975   2.264   6.337   5.322
 5544SOL    HW116976   2.332   6.392   5.275
 5544SOL    HW216977   2.304   6.249   5.349
 5545SOL     OW16978   3.449   6.365   5.394
 5545SOL    HW116979   3.357   6.403   5.389
 5545SOL    HW216980   3.509   6.412   5.329
 5546SOL     OW16981   2.875   5.691   5.494
 5546SOL    HW116982   2.881   5.776   5.442
 5546SOL    HW216983   2.907   5.615   5.437
 5547SOL     OW16984   2.366   5.636   5.464
 5547SOL    HW116985   2.324   5.579   5.394
 5547SOL    HW216986   2.300   5.705   5.496
 5548SOL     OW16987   2.435   6.456   4.753
 5548SOL    HW116988   2.479   6.545   4.744
 5548SOL    HW216989   2.372   6.456   4.830
 5549SOL     OW16990   3.222   6.448   4.769
 5549SOL    HW116991   3.147   6.448   4.703
 5549SOL    HW216992   3.259   6.356   4.778
 5550SOL     OW16993   2.169   5.799   4.955
 5550SOL    HW116994   2.146   5.836   5.045
 5550SOL    HW216995   2.139   5.704   4.949
 5551SOL     OW16996   1.899   6.896   5.006
 5551SOL    HW116997   1.952   6.847   5.074
 5551SOL    HW216998   1.921   6.994   5.011
 5552SOL     OW16999   2.594   6.220   4.788
 5552SOL    HW117000   2.653   6.194   4.712
 5552SOL    HW217001   2.566   6.316   4.777
 5553SOL     OW17002   3.590   6.521   5.578
 5553SOL    HW117003   3.544   6.514   5.489
 5553SOL    HW217004   3.528   6.565   5.644
 5554SOL     OW17005   2.169   5.649   4.342
 5554SOL    HW117006   2.158   5.743   4.375
 5554SOL    HW217007   2.164   5.586   4.419
 5555SOL     OW17008   3.484   5.953   4.098
 5555SOL    HW117009   3.486   5.877   4.162
 5555SOL    HW217010   3.436   6.030   4.138
 5556SOL     OW17011   2.885   6.352   4.690
 5556SOL    HW117012   2.900   6.373   4.786
 5556SOL    HW217013   2.855   6.257   4.681
 5557SOL     OW17014   2.842   7.159   5.424
 5557SOL    HW117015   2.822   7.203   5.336
 5557SOL    HW217016   2.881   7.068   5.408
 5558SOL     OW17017   3.721   7.104   5.329
 5558SOL    HW117018   3.735   7.131   5.234
 5558SOL    HW217019   3.804   7.126   5.382
 5559SOL     OW17020   2.212   6.484   5.528
 5559SOL    HW117021   2.288   6.528   5.576
 5559SOL    HW217022   2.247   6.437   5.446
 5560SOL     OW17023   3.165   6.424   3.766
 5560SOL    HW117024   3.199   6.331   3.781
 5560SOL    HW217025   3.183   6.451   3.671
 5561SOL     OW17026   2.930   6.919   4.573
 5561SOL    HW117027   2.937   6.835   4.518
 5561SOL    HW217028   2.992   6.988   4.537
 5562SOL     OW17029   2.181   6.396   4.673
 5562SOL    HW117030   2.274   6.432   4.678
 5562SOL    HW217031   2.175   6.311   4.725
 5563SOL     OW17032   2.201   6.095   4.730
 5563SOL    HW117033   2.149   6.012   4.713
 5563SOL    HW217034   2.278   6.100   4.666
 5564SOL     OW17035   3.000   5.966   5.402
 5564SOL    HW117036   2.955   6.029   5.466
 5564SOL    HW217037   3.093   5.997   5.385
 5565SOL     OW17038   3.022   5.793   5.201
 5565SOL    HW117039   3.022   5.857   5.278
 5565SOL    HW217040   3.050   5.841   5.118
 5566SOL     OW17041   1.870   6.912   3.924
 5566SOL    HW117042   1.777   6.933   3.893
 5566SOL    HW217043   1.880   6.813   3.937
 5567SOL     OW17044   1.950   7.387   4.651
 5567SOL    HW117045   1.908   7.301   4.624
 5567SOL    HW217046   2.044   7.390   4.617
 5568SOL     OW17047   2.366   7.154   4.634
 5568SOL    HW117048   2.432   7.228   4.643
 5568SOL    HW217049   2.410   7.075   4.592
 5569SOL     OW17050   2.864   6.382   4.962
 5569SOL    HW117051   2.905   6.350   5.048
 5569SOL    HW217052   2.768   6.355   4.959
 5570SOL     OW17053   1.902   6.130   4.838
 5570SOL    HW117054   1.987   6.097   4.797
 5570SOL    HW217055   1.915   6.145   4.936
 5571SOL     OW17056   2.051   6.106   5.446
 5571SOL    HW117057   2.110   6.066   5.376
 5571SOL    HW217058   1.993   6.177   5.405
 5572SOL     OW17059   3.231   6.536   5.384
 5572SOL    HW117060   3.270   6.625   5.404
 5572SOL    HW217061   3.241   6.516   5.287
 5573SOL     OW17062   2.677   6.158   4.049
 5573SOL    HW117063   2.684   6.069   4.003
 5573SOL    HW217064   2.583   6.192   4.041
 5574SOL     OW17065   3.519   6.190   4.930
 5574SOL    HW117066   3.481   6.121   4.992
 5574SOL    HW217067   3.601   6.154   4.886
 5575SOL     OW17068   2.114   7.150   5.468
 5575SOL    HW117069   2.084   7.207   5.544
 5575SOL    HW217070   2.107   7.053   5.494
 5576SOL     OW17071   2.335   6.086   3.915
 5576SOL    HW117072   2.396   6.166   3.919
 5576SOL    HW217073   2.240   6.117   3.922
 5577SOL     OW17074   2.021   6.723   5.190
 5577SOL    HW117075   2.043   6.662   5.266
 5577SOL    HW217076   2.031   6.674   5.104
 5578SOL     OW17077   3.209   6.645   4.958
 5578SOL    HW117078   3.233   6.582   4.884
 5578SOL    HW217079   3.119   6.685   4.940
 5579SOL     OW17080   1.945   6.844   4.746
 5579SOL    HW117081   1.940   6.843   4.846
 5579SOL    HW217082   1.862   6.803   4.708
 5580SOL     OW17083   2.550   7.248   5.440
 5580SOL    HW117084   2.494   7.329   5.449
 5580SOL    HW217085   2.602   7.252   5.354
 5581SOL     OW17086   3.588   5.721   4.247
 5581SOL    HW117087   3.661   5.704   4.180
 5581SOL    HW217088   3.557   5.634   4.285
 5582SOL     OW17089   1.992   7.380   5.575
 5582SOL    HW117090   1.951   7.306   5.628
 5582SOL    HW217091   2.056   7.431   5.633
 5583SOL     OW17092   3.142   6.513   4.396
 5583SOL    HW117093   3.202   6.432   4.398
 5583SOL    HW217094   3.182   6.582   4.336
 5584SOL     OW17095   2.692   6.859   5.146
 5584SOL    HW117096   2.687   6.892   5.241
 5584SOL    HW217097   2.606   6.878   5.100
 5585SOL     OW17098   2.534   7.202   3.878
 5585SOL    HW117099   2.543   7.212   3.779
 5585SOL    HW217100   2.494   7.113   3.899
 5586SOL     OW17101   3.703   5.761   4.687
 5586SOL    HW117102   3.742   5.676   4.651
 5586SOL    HW217103   3.605   5.763   4.668
 5587SOL     OW17104   2.125   5.912   4.444
 5587SOL    HW117105   2.046   5.963   4.410
 5587SOL    HW217106   2.116   5.897   4.542
 5588SOL     OW17107   2.684   6.588   5.096
 5588SOL    HW117108   2.724   6.587   5.004
 5588SOL    HW217109   2.694   6.680   5.136
 5589SOL     OW17110   2.778   6.496   4.015
 5589SOL    HW117111   2.841   6.534   3.947
 5589SOL    HW217112   2.818   6.413   4.054
 5590SOL     OW17113   2.234   6.874   5.214
 5590SOL    HW117114   2.221   6.967   5.180
 5590SOL    HW217115   2.150   6.822   5.201
 5591SOL     OW17116   3.476   6.878   5.013
 5591SOL    HW117117   3.536   6.881   5.093
 5591SOL    HW217118   3.401   6.942   5.026
 5592SOL     OW17119   2.876   5.822   4.695
 5592SOL    HW117120   2.868   5.786   4.602
 5592SOL    HW217121   2.874   5.746   4.760
 5593SOL     OW17122   2.452   7.073   4.215
 5593SOL    HW117123   2.494   7.015   4.145
 5593SOL    HW217124   2.408   7.152   4.171
 5594SOL     OW17125   3.571   5.971   5.105
 5594SOL    HW117126   3.644   6.040   5.109
 5594SOL    HW217127   3.599   5.896   5.046
 5595SOL     OW17128   2.117   6.934   4.014
 5595SOL    HW117129   2.021   6.935   3.987
 5595SOL    HW217130   2.129   6.987   4.098
 5596SOL     OW17131   1.967   6.599   5.450
 5596SOL    HW117132   1.890   6.566   5.504
 5596SOL    HW217133   2.052   6.569   5.492
 5597SOL     OW17134   2.534   5.789   5.213
 5597SOL    HW117135   2.624   5.773   5.173
 5597SOL    HW217136   2.542   5.794   5.312
 5598SOL     OW17137   1.937   5.931   3.757
 5598SOL    HW117138   1.845   5.903   3.728
 5598SOL    HW217139   1.968   6.008   3.701
 5599SOL     OW17140   3.302   6.442   5.122
 5599SOL    HW117141   3.245   6.494   5.059
 5599SOL    HW217142   3.398   6.454   5.098
 5600SOL     OW17143   1.934   5.752   4.042
 5600SOL    HW117144   1.917   5.835   3.988
 5600SOL    HW217145   2.024   5.715   4.020
 5601SOL     OW17146   3.045   6.921   3.843
 5601SOL    HW117147   2.946   6.910   3.845
 5601SOL    HW217148   3.079   6.936   3.936
 5602SOL     OW17149   2.475   6.428   5.155
 5602SOL    HW117150   2.531   6.509   5.138
 5602SOL    HW217151   2.534   6.348   5.158
 5603SOL     OW17152   2.578   6.151   5.432
 5603SOL    HW117153   2.597   6.216   5.506
 5603SOL    HW217154   2.638   6.071   5.441
 5604SOL     OW17155   3.312   6.806   5.357
 5604SOL    HW117156   3.303   6.796   5.456
 5604SOL    HW217157   3.408   6.799   5.331
 5605SOL     OW17158   2.252   7.327   5.284
 5605SOL    HW117159   2.161   7.368   5.282
 5605SOL    HW217160   2.245   7.233   5.316
 5606SOL     OW17161   3.536   6.469   4.978
 5606SOL    HW117162   3.509   6.380   4.941
 5606SOL    HW217163   3.537   6.537   4.905
 5607SOL     OW17164   2.456   6.331   4.376
 5607SOL    HW117165   2.506   6.416   4.357
 5607SOL    HW217166   2.368   6.333   4.328
 5608SOL     OW17167   3.639   5.928   5.366
 5608SOL    HW117168   3.622   5.959   5.272
 5608SOL    HW217169   3.555   5.891   5.404
 5609SOL     OW17170   3.592   6.520   5.241
 5609SOL    HW117171   3.630   6.611   5.256
 5609SOL    HW217172   3.584   6.503   5.142
 5610SOL     OW17173   2.721   6.960   3.740
 5610SOL    HW117174   2.675   6.975   3.828
 5610SOL    HW217175   2.765   7.045   3.710
 5611SOL     OW17176   2.721   6.542   4.585
 5611SOL    HW117177   2.775   6.473   4.633
 5611SOL    HW217178   2.689   6.611   4.651
 5612SOL     OW17179   2.945   6.570   3.811
 5612SOL    HW117180   2.922   6.623   3.729
 5612SOL    HW217181   3.026   6.514   3.792
 5613SOL     OW17182   2.083   6.900   5.568
 5613SOL    HW117183   2.018   6.827   5.547
 5613SOL    HW217184   2.087   6.914   5.666
 5614SOL     OW17185   1.941   6.826   4.377
 5614SOL    HW117186   1.940   6.779   4.465
 5614SOL    HW217187   2.023   6.798   4.326
 5615SOL     OW17188   2.534   6.977   5.348
 5615SOL    HW117189   2.456   6.927   5.386
 5615SOL    HW217190   2.531   7.072   5.379
 5616SOL     OW17191   3.686   5.778   4.951
 5616SOL    HW117192   3.682   5.688   4.995
 5616SOL    HW217193   3.689   5.767   4.852
 5617SOL     OW17194   2.290   6.010   4.244
 5617SOL    HW117195   2.320   5.938   4.182
 5617SOL    HW217196   2.251   5.970   4.327
 5618SOL     OW17197   2.179   6.133   5.004
 5618SOL    HW117198   2.217   6.074   5.076
 5618SOL    HW217199   2.219   6.107   4.916
 5619SOL     OW17200   3.286   5.800   4.836
 5619SOL    HW117201   3.338   5.735   4.891
 5619SOL    HW217202   3.237   5.863   4.897
 5620SOL     OW17203   2.863   5.620   4.878
 5620SOL    HW117204   2.800   5.548   4.847
 5620SOL    HW217205   2.956   5.584   4.878
 5621SOL     OW17206   2.632   6.916   4.025
 5621SOL    HW117207   2.586   6.829   4.042
 5621SOL    HW217208   2.723   6.913   4.066
 5622SOL     OW17209   2.480   7.153   5.008
 5622SOL    HW117210   2.475   7.235   5.065
 5622SOL    HW217211   2.569   7.150   4.963
 5623SOL     OW17212   3.162   6.039   4.415
 5623SOL    HW117213   3.103   6.119   4.419
 5623SOL    HW217214   3.177   6.004   4.508
 5624SOL     OW17215   3.455   5.807   4.606
 5624SOL    HW117216   3.371   5.806   4.660
 5624SOL    HW217217   3.457   5.890   4.550
 5625SOL     OW17218   1.901   6.663   4.024
 5625SOL    HW117219   2.000   6.652   4.015
 5625SOL    HW217220   1.861   6.577   4.056
 5626SOL     OW17221   2.092   6.214   5.699
 5626SOL    HW117222   1.999   6.212   5.736
 5626SOL    HW217223   2.093   6.175   5.607
 5627SOL     OW17224   1.881   5.954   6.233
 5627SOL    HW117225   1.799   5.997   6.272
 5627SOL    HW217226   1.853   5.881   6.170
 5628SOL     OW17227   2.997   6.289   6.303
 5628SOL    HW117228   3.054   6.367   6.278
 5628SOL    HW217229   2.937   6.315   6.379
 5629SOL     OW17230   3.617   6.193   5.817
 5629SOL    HW117231   3.605   6.180   5.718
 5629SOL    HW217232   3.587   6.112   5.866
 5630SOL     OW17233   2.547   6.598   6.251
 5630SOL    HW117234   2.616   6.582   6.321
 5630SOL    HW217235   2.474   6.655   6.289
 5631SOL     OW17236   3.465   6.033   6.323
 5631SOL    HW117237   3.391   6.079   6.273
 5631SOL    HW217238   3.516   6.101   6.376
 5632SOL     OW17239   2.093   7.299   6.069
 5632SOL    HW117240   2.127   7.376   6.123
 5632SOL    HW217241   2.137   7.299   5.979
 5633SOL     OW17242   2.092   7.020   6.124
 5633SOL    HW117243   2.066   7.116   6.124
 5633SOL    HW217244   2.021   6.966   6.169
 5634SOL     OW17245   2.102   6.677   6.472
 5634SOL    HW117246   2.116   6.593   6.524
 5634SOL    HW217247   2.047   6.741   6.527
 5635SOL     OW17248   2.468   6.550   5.709
 5635SOL    HW117249   2.475   6.634   5.655
 5635SOL    HW217250   2.514   6.563   5.797
 5636SOL     OW17251   1.984   6.229   6.149
 5636SOL    HW117252   1.939   6.141   6.166
 5636SOL    HW217253   1.983   6.283   6.233
 5637SOL     OW17254   1.889   7.182   5.703
 5637SOL    HW117255   1.870   7.086   5.724
 5637SOL    HW217256   1.856   7.240   5.778
 5638SOL     OW17257   3.551   6.508   6.198
 5638SOL    HW117258   3.646   6.479   6.206
 5638SOL    HW217259   3.543   6.573   6.123
 5639SOL     OW17260   3.503   6.694   6.018
 5639SOL    HW117261   3.589   6.696   5.966
 5639SOL    HW217262   3.517   6.741   6.106
 5640SOL     OW17263   2.475   6.951   6.312
 5640SOL    HW117264   2.426   6.864   6.321
 5640SOL    HW217265   2.452   6.994   6.225
 5641SOL     OW17266   2.671   5.590   6.088
 5641SOL    HW117267   2.711   5.681   6.079
 5641SOL    HW217268   2.571   5.598   6.094
 5642SOL     OW17269   3.387   6.585   5.776
 5642SOL    HW117270   3.324   6.509   5.789
 5642SOL    HW217271   3.435   6.603   5.862
 5643SOL     OW17272   2.460   6.315   5.856
 5643SOL    HW117273   2.484   6.384   5.788
 5643SOL    HW217274   2.382   6.348   5.910
 5644SOL     OW17275   3.438   7.248   5.893
 5644SOL    HW117276   3.527   7.294   5.896
 5644SOL    HW217277   3.417   7.224   5.798
 5645SOL     OW17278   2.903   6.287   6.015
 5645SOL    HW117279   2.929   6.283   6.111
 5645SOL    HW217280   2.818   6.236   6.001
 5646SOL     OW17281   1.938   6.397   6.375
 5646SOL    HW117282   2.037   6.385   6.384
 5646SOL    HW217283   1.914   6.492   6.396
 5647SOL     OW17284   2.727   5.934   5.781
 5647SOL    HW117285   2.786   5.997   5.732
 5647SOL    HW217286   2.746   5.840   5.752
 5648SOL     OW17287   3.224   6.730   6.131
 5648SOL    HW117288   3.307   6.701   6.083
 5648SOL    HW217289   3.175   6.797   6.075
 5649SOL     OW17290   2.412   5.782   6.471
 5649SOL    HW117291   2.407   5.777   6.571
 5649SOL    HW217292   2.414   5.878   6.442
 5650SOL     OW17293   2.870   7.042   6.063
 5650SOL    HW117294   2.824   7.114   6.011
 5650SOL    HW217295   2.866   7.062   6.161
 5651SOL     OW17296   2.213   7.387   6.439
 5651SOL    HW117297   2.263   7.301   6.445
 5651SOL    HW217298   2.278   7.464   6.436
 5652SOL     OW17299   3.657   6.652   6.459
 5652SOL    HW117300   3.595   6.637   6.383
 5652SOL    HW217301   3.605   6.663   6.544
 5653SOL     OW17302   2.183   6.529   5.828
 5653SOL    HW117303   2.265   6.568   5.786
 5653SOL    HW217304   2.156   6.447   5.779
 5654SOL     OW17305   3.320   6.321   6.314
 5654SOL    HW117306   3.315   6.256   6.389
 5654SOL    HW217307   3.400   6.380   6.327
 5655SOL     OW17308   3.494   6.963   5.667
 5655SOL    HW117309   3.462   7.057   5.657
 5655SOL    HW217310   3.418   6.900   5.655
 5656SOL     OW17311   2.326   7.329   5.909
 5656SOL    HW117312   2.359   7.368   5.995
 5656SOL    HW217313   2.402   7.322   5.844
 5657SOL     OW17314   3.262   5.693   6.012
 5657SOL    HW117315   3.238   5.656   5.922
 5657SOL    HW217316   3.361   5.709   6.016
 5658SOL     OW17317   2.802   7.284   6.490
 5658SOL    HW117318   2.882   7.227   6.511
 5658SOL    HW217319   2.753   7.244   6.413
 5659SOL     OW17320   2.244   6.286   6.066
 5659SOL    HW117321   2.289   6.196   6.063
 5659SOL    HW217322   2.150   6.275   6.099
 5660SOL     OW17323   2.476   5.708   5.703
 5660SOL    HW117324   2.574   5.686   5.710
 5660SOL    HW217325   2.445   5.691   5.610
 5661SOL     OW17326   2.665   6.988   6.510
 5661SOL    HW117327   2.755   7.002   6.468
 5661SOL    HW217328   2.594   6.990   6.439
 5662SOL     OW17329   2.784   6.089   6.485
 5662SOL    HW117330   2.759   6.080   6.389
 5662SOL    HW217331   2.832   6.007   6.516
 5663SOL     OW17332   2.401   5.650   6.098
 5663SOL    HW117333   2.320   5.651   6.156
 5663SOL    HW217334   2.404   5.733   6.043
 5664SOL     OW17335   3.296   6.774   5.627
 5664SOL    HW117336   3.328   6.698   5.684
 5664SOL    HW217337   3.204   6.801   5.657
 5665SOL     OW17338   2.159   5.621   5.757
 5665SOL    HW117339   2.208   5.705   5.736
 5665SOL    HW217340   2.221   5.556   5.802
 5666SOL     OW17341   2.797   5.822   6.066
 5666SOL    HW117342   2.749   5.863   5.988
 5666SOL    HW217343   2.896   5.820   6.047
 5667SOL     OW17344   3.089   7.156   6.379
 5667SOL    HW117345   3.110   7.230   6.314
 5667SOL    HW217346   3.157   7.156   6.452
 5668SOL     OW17347   2.321   6.738   6.327
 5668SOL    HW117348   2.250   6.711   6.392
 5668SOL    HW217349   2.295   6.710   6.234
 5669SOL     OW17350   3.133   7.383   6.177
 5669SOL    HW117351   3.177   7.447   6.113
 5669SOL    HW217352   3.083   7.435   6.247
 5670SOL     OW17353   2.894   6.135   5.602
 5670SOL    HW117354   2.853   6.217   5.563
 5670SOL    HW217355   2.958   6.161   5.675
 5671SOL     OW17356   2.728   6.040   6.228
 5671SOL    HW117357   2.696   6.112   6.166
 5671SOL    HW217358   2.752   5.959   6.175
 5672SOL     OW17359   2.879   5.625   6.339
 5672SOL    HW117360   2.807   5.630   6.270
 5672SOL    HW217361   2.855   5.556   6.408
 5673SOL     OW17362   3.291   6.759   6.453
 5673SOL    HW117363   3.236   6.675   6.446
 5673SOL    HW217364   3.317   6.788   6.361
 5674SOL     OW17365   3.719   6.419   5.963
 5674SOL    HW117366   3.761   6.355   6.027
 5674SOL    HW217367   3.681   6.368   5.885
 5675SOL     OW17368   2.350   6.971   5.760
 5675SOL    HW117369   2.263   6.956   5.807
 5675SOL    HW217370   2.333   6.997   5.665
 5676SOL     OW17371   3.526   6.866   6.243
 5676SOL    HW117372   3.625   6.874   6.257
 5676SOL    HW217373   3.481   6.950   6.274
 5677SOL     OW17374   3.252   6.161   5.664
 5677SOL    HW117375   3.198   6.140   5.745
 5677SOL    HW217376   3.343   6.120   5.673
 5678SOL     OW17377   2.389   5.842   5.914
 5678SOL    HW117378   2.416   5.783   5.839
 5678SOL    HW217379   2.389   5.937   5.883
 5679SOL     OW17380   2.567   6.636   5.954
 5679SOL    HW117381   2.553   6.643   6.053
 5679SOL    HW217382   2.651   6.585   5.936
 5680SOL     OW17383   2.229   6.686   6.087
 5680SOL    HW117384   2.222   6.769   6.031
 5680SOL    HW217385   2.233   6.606   6.027
 5681SOL     OW17386   2.428   6.123   6.451
 5681SOL    HW117387   2.440   6.189   6.377
 5681SOL    HW217388   2.474   6.157   6.534
 5682SOL     OW17389   3.114   6.934   5.974
 5682SOL    HW117390   3.164   7.011   6.014
 5682SOL    HW217391   3.019   6.936   6.006
 5683SOL     OW17392   3.444   6.225   6.058
 5683SOL    HW117393   3.413   6.286   6.131
 5683SOL    HW217394   3.494   6.277   5.989
 5684SOL     OW17395   3.071   6.111   5.861
 5684SOL    HW117396   3.084   6.027   5.915
 5684SOL    HW217397   3.042   6.185   5.921
 5685SOL     OW17398   2.169   5.649   6.204
 5685SOL    HW117399   2.158   5.743   6.237
 5685SOL    HW217400   2.164   5.586   6.281
 5686SOL     OW17401   3.484   5.953   5.960
 5686SOL    HW117402   3.486   5.877   6.024
 5686SOL    HW217403   3.436   6.030   6.000
 5687SOL     OW17404   3.402   5.860   5.711
 5687SOL    HW117405   3.341   5.785   5.734
 5687SOL    HW217406   3.424   5.912   5.794
 5688SOL     OW17407   3.165   6.424   5.628
 5688SOL    HW117408   3.199   6.331   5.643
 5688SOL    HW217409   3.183   6.451   5.533
 5689SOL     OW17410   2.930   6.919   6.435
 5689SOL    HW117411   2.937   6.835   6.380
 5689SOL    HW217412   2.992   6.988   6.399
 5690SOL     OW17413   1.870   6.912   5.786
 5690SOL    HW117414   1.777   6.933   5.755
 5690SOL    HW217415   1.880   6.813   5.799
 5691SOL     OW17416   2.366   7.154   6.496
 5691SOL    HW117417   2.432   7.228   6.505
 5691SOL    HW217418   2.410   7.075   6.454
 5692SOL     OW17419   2.677   6.158   5.911
 5692SOL    HW117420   2.684   6.069   5.865
 5692SOL    HW217421   2.583   6.192   5.903
 5693SOL     OW17422   2.335   6.086   5.777
 5693SOL    HW117423   2.396   6.166   5.781
 5693SOL    HW217424   2.240   6.117   5.784
 5694SOL     OW17425   3.164   6.441   5.895
 5694SOL    HW117426   3.078   6.410   5.937
 5694SOL    HW217427   3.160   6.427   5.796
 5695SOL     OW17428   3.588   5.721   6.109
 5695SOL    HW117429   3.661   5.704   6.042
 5695SOL    HW217430   3.557   5.634   6.147
 5696SOL     OW17431   3.142   6.513   6.258
 5696SOL    HW117432   3.202   6.432   6.260
 5696SOL    HW217433   3.182   6.582   6.198
 5697SOL     OW17434   2.534   7.202   5.740
 5697SOL    HW117435   2.543   7.212   5.641
 5697SOL    HW217436   2.494   7.113   5.761
 5698SOL     OW17437   2.125   5.912   6.306
 5698SOL    HW117438   2.046   5.963   6.272
 5698SOL    HW217439   2.116   5.897   6.404
 5699SOL     OW17440   2.778   6.496   5.877
 5699SOL    HW117441   2.841   6.534   5.809
 5699SOL    HW217442   2.818   6.413   5.916
 5700SOL     OW17443   2.901   6.684   6.282
 5700SOL    HW117444   2.831   6.637   6.336
 5700SOL    HW217445   2.960   6.616   6.239
 5701SOL     OW17446   2.876   5.822   6.557
 5701SOL    HW117447   2.868   5.786   6.464
 5701SOL    HW217448   2.874   5.746   6.622
 5702SOL     OW17449   2.452   7.073   6.077
 5702SOL    HW117450   2.494   7.015   6.007
 5702SOL    HW217451   2.408   7.152   6.033
 5703SOL     OW17452   2.117   6.934   5.876
 5703SOL    HW117453   2.021   6.935   5.849
 5703SOL    HW217454   2.129   6.987   5.960
 5704SOL     OW17455   1.937   5.931   5.619
 5704SOL    HW117456   1.845   5.903   5.590
 5704SOL    HW217457   1.968   6.008   5.563
 5705SOL     OW17458   1.934   5.752   5.904
 5705SOL    HW117459   1.917   5.835   5.850
 5705SOL    HW217460   2.024   5.715   5.882
 5706SOL     OW17461   3.045   6.921   5.705
 5706SOL    HW117462   2.946   6.910   5.707
 5706SOL    HW217463   3.079   6.936   5.798
 5707SOL     OW17464   3.087   5.911   6.035
 5707SOL    HW117465   3.152   5.837   6.024
 5707SOL    HW217466   3.107   5.961   6.119
 5708SOL     OW17467   2.456   6.331   6.238
 5708SOL    HW117468   2.506   6.416   6.219
 5708SOL    HW217469   2.368   6.333   6.190
 5709SOL     OW17470   2.721   6.960   5.602
 5709SOL    HW117471   2.675   6.975   5.690
 5709SOL    HW217472   2.765   7.045   5.572
 5710SOL     OW17473   2.721   6.542   6.447
 5710SOL    HW117474   2.775   6.473   6.495
 5710SOL    HW217475   2.689   6.611   6.513
 5711SOL     OW17476   2.945   6.570   5.673
 5711SOL    HW117477   2.922   6.623   5.591
 5711SOL    HW217478   3.026   6.514   5.654
 5712SOL     OW17479   1.941   6.826   6.239
 5712SOL    HW117480   1.940   6.779   6.327
 5712SOL    HW217481   2.023   6.798   6.188
 5713SOL     OW17482   2.290   6.010   6.106
 5713SOL    HW117483   2.320   5.938   6.044
 5713SOL    HW217484   2.251   5.970   6.189
 5714SOL     OW17485   2.632   6.916   5.887
 5714SOL    HW117486   2.586   6.829   5.904
 5714SOL    HW217487   2.723   6.913   5.928
 5715SOL     OW17488   3.214   5.638   5.754
 5715SOL    HW117489   3.249   5.597   5.670
 5715SOL    HW217490   3.124   5.600   5.774
 5716SOL     OW17491   3.162   6.039   6.277
 5716SOL    HW117492   3.103   6.119   6.281
 5716SOL    HW217493   3.177   6.004   6.370
 5717SOL     OW17494   3.455   5.807   6.468
 5717SOL    HW117495   3.371   5.806   6.522
 5717SOL    HW217496   3.457   5.890   6.412
 5718SOL     OW17497   1.901   6.663   5.886
 5718SOL    HW117498   2.000   6.652   5.877
 5718SOL    HW217499   1.861   6.577   5.918
 5719SOL     OW17500   3.949   0.275   0.996
 5719SOL    HW117501   3.984   0.258   1.088
 5719SOL    HW217502   3.861   0.230   0.984
 5720SOL     OW17503   3.743   0.368   0.647
 5720SOL    HW117504   3.661   0.411   0.686
 5720SOL    HW217505   3.715   0.295   0.584
 5721SOL     OW17506   4.293   1.275   1.165
 5721SOL    HW117507   4.200   1.268   1.128
 5721SOL    HW217508   4.304   1.364   1.209
 5722SOL     OW17509   5.279   1.511   0.703
 5722SOL    HW117510   5.222   1.495   0.784
 5722SOL    HW217511   5.220   1.521   0.623
 5723SOL     OW17512   4.859   0.703   0.717
 5723SOL    HW117513   4.916   0.781   0.692
 5723SOL    HW217514   4.799   0.729   0.793
 5724SOL     OW17515   4.492   1.144   1.023
 5724SOL    HW117516   4.414   1.161   1.083
 5724SOL    HW217517   4.526   1.231   0.987
 5725SOL     OW17518   4.574   0.798   1.823
 5725SOL    HW117519   4.570   0.874   1.888
 5725SOL    HW217520   4.596   0.834   1.732
 5726SOL     OW17521   4.409   1.012   0.665
 5726SOL    HW117522   4.478   0.996   0.735
 5726SOL    HW217523   4.336   1.069   0.703
 5727SOL     OW17524   4.410   1.161   1.803
 5727SOL    HW117525   4.470   1.240   1.817
 5727SOL    HW217526   4.324   1.192   1.762
 5728SOL     OW17527   4.059   1.435   1.061
 5728SOL    HW117528   3.981   1.404   1.008
 5728SOL    HW217529   4.117   1.493   1.004
 5729SOL     OW17530   5.184   1.505   1.339
 5729SOL    HW117531   5.208   1.599   1.365
 5729SOL    HW217532   5.168   1.451   1.421
 5730SOL     OW17533   4.162   0.392   1.499
 5730SOL    HW117534   4.244   0.336   1.508
 5730SOL    HW217535   4.081   0.334   1.503
 5731SOL     OW17536   5.327   0.447   0.737
 5731SOL    HW117537   5.253   0.493   0.687
 5731SOL    HW217538   5.378   0.515   0.790
 5732SOL     OW17539   3.955   1.713   0.483
 5732SOL    HW117540   3.989   1.790   0.537
 5732SOL    HW217541   3.999   1.713   0.393
 5733SOL     OW17542   4.851   1.341   1.690
 5733SOL    HW117543   4.898   1.341   1.778
 5733SOL    HW217544   4.803   1.254   1.679
 5734SOL     OW17545   3.954   1.434   0.538
 5734SOL    HW117546   3.928   1.530   0.538
 5734SOL    HW217547   3.883   1.380   0.583
 5735SOL     OW17548   3.964   1.091   0.886
 5735SOL    HW117549   3.978   1.007   0.938
 5735SOL    HW217550   3.909   1.155   0.941
 5736SOL     OW17551   4.344   1.786   1.439
 5736SOL    HW117552   4.252   1.769   1.474
 5736SOL    HW217553   4.372   1.878   1.465
 5737SOL     OW17554   3.846   0.643   0.563
 5737SOL    HW117555   3.801   0.555   0.580
 5737SOL    HW217556   3.845   0.697   0.647
 5738SOL     OW17557   5.566   1.767   0.359
 5738SOL    HW117558   5.620   1.738   0.439
 5738SOL    HW217559   5.596   1.857   0.330
 5739SOL     OW17560   5.413   0.922   0.612
 5739SOL    HW117561   5.508   0.893   0.620
 5739SOL    HW217562   5.405   0.987   0.537
 5740SOL     OW17563   5.365   1.108   0.432
 5740SOL    HW117564   5.451   1.110   0.380
 5740SOL    HW217565   5.379   1.155   0.520
 5741SOL     OW17566   3.837   0.737   1.597
 5741SOL    HW117567   3.925   0.724   1.642
 5741SOL    HW217568   3.824   0.834   1.575
 5742SOL     OW17569   4.337   1.365   0.726
 5742SOL    HW117570   4.288   1.278   0.735
 5742SOL    HW217571   4.314   1.408   0.639
 5743SOL     OW17572   5.017   1.228   1.423
 5743SOL    HW117573   5.054   1.155   1.365
 5743SOL    HW217574   5.069   1.233   1.508
 5744SOL     OW17575   4.533   0.004   0.502
 5744SOL    HW117576   4.573   0.095   0.493
 5744SOL    HW217577   4.433   0.012   0.508
 5745SOL     OW17578   3.921   0.976   1.264
 5745SOL    HW117579   4.010   0.931   1.250
 5745SOL    HW217580   3.848   0.911   1.245
 5746SOL     OW17581   4.911   1.792   1.616
 5746SOL    HW117582   4.935   1.852   1.540
 5746SOL    HW217583   4.918   1.697   1.586
 5747SOL     OW17584   4.041   0.251   1.801
 5747SOL    HW117585   4.112   0.322   1.807
 5747SOL    HW217586   3.953   0.290   1.829
 5748SOL     OW17587   5.190   1.417   0.953
 5748SOL    HW117588   5.131   1.423   1.033
 5748SOL    HW217589   5.175   1.329   0.907
 5749SOL     OW17590   5.391   1.714   0.572
 5749SOL    HW117591   5.350   1.691   0.484
 5749SOL    HW217592   5.373   1.640   0.637
 5750SOL     OW17593   4.322   0.729   0.270
 5750SOL    HW117594   4.346   0.798   0.202
 5750SOL    HW217595   4.244   0.762   0.324
 5751SOL     OW17596   4.531   0.605   1.465
 5751SOL    HW117597   4.484   0.602   1.554
 5751SOL    HW217598   4.480   0.550   1.399
 5752SOL     OW17599   5.118   0.469   1.674
 5752SOL    HW117600   5.098   0.512   1.762
 5752SOL    HW217601   5.196   0.407   1.683
 5753SOL     OW17602   4.697   0.890   1.572
 5753SOL    HW117603   4.743   0.806   1.543
 5753SOL    HW217604   4.641   0.924   1.497
 5754SOL     OW17605   4.715   0.410   1.242
 5754SOL    HW117606   4.638   0.444   1.296
 5754SOL    HW217607   4.681   0.359   1.163
 5755SOL     OW17608   4.765   0.701   0.429
 5755SOL    HW117609   4.791   0.697   0.525
 5755SOL    HW217610   4.680   0.650   0.415
 5756SOL     OW17611   3.800   0.811   0.789
 5756SOL    HW117612   3.899   0.799   0.798
 5756SOL    HW217613   3.776   0.906   0.810
 5757SOL     OW17614   3.854   1.821   1.571
 5757SOL    HW117615   3.844   1.806   1.670
 5757SOL    HW217616   3.768   1.857   1.535
 5758SOL     OW17617   5.443   0.585   1.831
 5758SOL    HW117618   5.417   0.674   1.795
 5758SOL    HW217619   5.441   0.517   1.758
 5759SOL     OW17620   5.086   1.144   0.545
 5759SOL    HW117621   5.169   1.115   0.497
 5759SOL    HW217622   5.037   1.211   0.489
 5760SOL     OW17623   4.274   0.196   0.885
 5760SOL    HW117624   4.269   0.191   0.985
 5760SOL    HW217625   4.276   0.292   0.856
 5761SOL     OW17626   4.732   1.456   0.477
 5761SOL    HW117627   4.686   1.528   0.425
 5761SOL    HW217628   4.728   1.476   0.575
 5762SOL     OW17629   4.075   1.801   0.853
 5762SOL    HW117630   4.125   1.715   0.859
 5762SOL    HW217631   4.140   1.878   0.850
 5763SOL     OW17632   5.519   1.066   0.873
 5763SOL    HW117633   5.457   1.051   0.797
 5763SOL    HW217634   5.467   1.077   0.958
 5764SOL     OW17635   4.951   1.550   1.506
 5764SOL    HW117636   4.957   1.473   1.570
 5764SOL    HW217637   4.899   1.524   1.426
 5765SOL     OW17638   5.182   0.735   0.728
 5765SOL    HW117639   5.177   0.670   0.803
 5765SOL    HW217640   5.262   0.794   0.741
 5766SOL     OW17641   4.185   1.266   1.727
 5766SOL    HW117642   4.135   1.267   1.641
 5766SOL    HW217643   4.122   1.248   1.803
 5767SOL     OW17644   3.926   0.285   1.498
 5767SOL    HW117645   3.846   0.345   1.485
 5767SOL    HW217646   3.916   0.236   1.584
 5768SOL     OW17647   3.973   1.785   1.241
 5768SOL    HW117648   4.030   1.720   1.291
 5768SOL    HW217649   3.957   1.752   1.148
 5769SOL     OW17650   4.664   1.698   0.904
 5769SOL    HW117651   4.744   1.641   0.925
 5769SOL    HW217652   4.615   1.658   0.827
 5770SOL     OW17653   4.106   0.700   0.480
 5770SOL    HW117654   4.151   0.610   0.477
 5770SOL    HW217655   4.012   0.689   0.513
 5771SOL     OW17656   4.338   0.122   0.117
 5771SOL    HW117657   4.436   0.100   0.124
 5771SOL    HW217658   4.307   0.105   0.024
 5772SOL     OW17659   4.505   0.264   1.749
 5772SOL    HW117660   4.572   0.203   1.792
 5772SOL    HW217661   4.432   0.283   1.814
 5773SOL     OW17662   4.612   1.514   1.195
 5773SOL    HW117663   4.589   1.489   1.101
 5773SOL    HW217664   4.673   1.445   1.234
 5774SOL     OW17665   5.075   0.590   1.433
 5774SOL    HW117666   5.103   0.547   1.518
 5774SOL    HW217667   5.100   0.686   1.434
 5775SOL     OW17668   4.527   1.402   0.924
 5775SOL    HW117669   4.617   1.416   0.882
 5775SOL    HW217670   4.456   1.404   0.853
 5776SOL     OW17671   4.646   0.503   0.899
 5776SOL    HW117672   4.621   0.494   0.803
 5776SOL    HW217673   4.694   0.421   0.930
 5777SOL     OW17674   4.263   0.064   0.512
 5777SOL    HW117675   4.182   0.065   0.570
 5777SOL    HW217676   4.266   0.147   0.457
 5778SOL     OW17677   4.021   0.035   0.171
 5778SOL    HW117678   4.070   0.119   0.150
 5778SOL    HW217679   4.083  -0.030   0.216
 5779SOL     OW17680   4.659   0.236   0.480
 5779SOL    HW117681   4.611   0.277   0.402
 5779SOL    HW217682   4.758   0.234   0.461
 5780SOL     OW17683   4.800   0.683   1.464
 5780SOL    HW117684   4.720   0.622   1.467
 5780SOL    HW217685   4.881   0.630   1.440
 5781SOL     OW17686   4.951   1.570   0.793
 5781SOL    HW117687   4.972   1.644   0.728
 5781SOL    HW217688   5.019   1.570   0.866
 5782SOL     OW17689   4.183   1.152   0.741
 5782SOL    HW117690   4.112   1.125   0.806
 5782SOL    HW217691   4.157   1.124   0.648
 5783SOL     OW17692   4.995   1.797   0.591
 5783SOL    HW117693   5.039   1.861   0.527
 5783SOL    HW217694   4.945   1.849   0.661
 5784SOL     OW17695   3.802   0.556   1.386
 5784SOL    HW117696   3.894   0.555   1.345
 5784SOL    HW217697   3.796   0.630   1.453
 5785SOL     OW17698   4.285   0.222   1.147
 5785SOL    HW117699   4.323   0.138   1.184
 5785SOL    HW217700   4.197   0.241   1.191
 5786SOL     OW17701   4.590   0.454   0.642
 5786SOL    HW117702   4.558   0.526   0.580
 5786SOL    HW217703   4.614   0.373   0.589
 5787SOL     OW17704   4.741   0.039   0.753
 5787SOL    HW117705   4.669   0.044   0.684
 5787SOL    HW217706   4.717  -0.030   0.822
 5788SOL     OW17707   5.153   1.173   0.867
 5788SOL    HW117708   5.098   1.089   0.860
 5788SOL    HW217709   5.179   1.202   0.775
 5789SOL     OW17710   5.190   0.590   0.992
 5789SOL    HW117711   5.160   0.495   0.999
 5789SOL    HW217712   5.263   0.606   1.058
 5790SOL     OW17713   5.581   0.833   0.377
 5790SOL    HW117714   5.623   0.769   0.441
 5790SOL    HW217715   5.543   0.782   0.299
 5791SOL     OW17716   5.388   1.280   0.657
 5791SOL    HW117717   5.487   1.288   0.671
 5791SOL    HW217718   5.343   1.364   0.688
 5792SOL     OW17719   5.478   1.223   1.588
 5792SOL    HW117720   5.569   1.184   1.575
 5792SOL    HW217721   5.486   1.319   1.612
 5793SOL     OW17722   4.788   1.347   1.340
 5793SOL    HW117723   4.708   1.324   1.395
 5793SOL    HW217724   4.871   1.321   1.389
 5794SOL     OW17725   5.316   1.629   1.625
 5794SOL    HW117726   5.343   1.663   1.535
 5794SOL    HW217727   5.395   1.591   1.671
 5795SOL     OW17728   4.835   1.195   1.100
 5795SOL    HW117729   4.795   1.239   1.181
 5795SOL    HW217730   4.794   1.232   1.017
 5796SOL     OW17731   5.362   1.099   1.079
 5796SOL    HW117732   5.367   1.180   1.138
 5796SOL    HW217733   5.276   1.101   1.028
 5797SOL     OW17734   4.639   0.089   1.402
 5797SOL    HW117735   4.664   0.069   1.307
 5797SOL    HW217736   4.711   0.145   1.444
 5798SOL     OW17737   4.704   1.116   1.719
 5798SOL    HW117738   4.605   1.122   1.729
 5798SOL    HW217739   4.727   1.036   1.663
 5799SOL     OW17740   4.429   1.050   0.368
 5799SOL    HW117741   4.415   1.057   0.467
 5799SOL    HW217742   4.513   0.999   0.350
 5800SOL     OW17743   4.134   0.813   1.251
 5800SOL    HW117744   4.220   0.825   1.301
 5800SOL    HW217745   4.092   0.726   1.278
 5801SOL     OW17746   4.998   0.386   1.262
 5801SOL    HW117747   5.019   0.460   1.326
 5801SOL    HW217748   4.909   0.403   1.219
 5802SOL     OW17749   3.788   1.564   1.331
 5802SOL    HW117750   3.742   1.646   1.297
 5802SOL    HW217751   3.886   1.583   1.340
 5803SOL     OW17752   4.091   1.100   0.501
 5803SOL    HW117753   4.084   1.183   0.445
 5803SOL    HW217754   4.095   1.020   0.441
 5804SOL     OW17755   4.290   0.537   0.865
 5804SOL    HW117756   4.302   0.603   0.791
 5804SOL    HW217757   4.336   0.571   0.948
 5805SOL     OW17758   4.976   1.348   0.388
 5805SOL    HW117759   5.026   1.425   0.428
 5805SOL    HW217760   4.881   1.350   0.420
 5806SOL     OW17761   4.996   1.445   1.142
 5806SOL    HW117762   5.043   1.458   1.229
 5806SOL    HW217763   4.930   1.371   1.151
 5807SOL     OW17764   4.078   1.510   1.329
 5807SOL    HW117765   4.057   1.466   1.242
 5807SOL    HW217766   4.175   1.536   1.332
 5808SOL     OW17767   4.126   0.751   1.598
 5808SOL    HW117768   4.194   0.806   1.551
 5808SOL    HW217769   4.166   0.663   1.625
 5809SOL     OW17770   5.311   0.779   1.670
 5809SOL    HW117771   5.219   0.817   1.665
 5809SOL    HW217772   5.371   0.826   1.605
 5810SOL     OW17773   4.737   0.105   1.770
 5810SOL    HW117774   4.743   0.190   1.718
 5810SOL    HW217775   4.769   0.029   1.713
 5811SOL     OW17776   4.228   0.050   1.740
 5811SOL    HW117777   4.186  -0.007   1.670
 5811SOL    HW217778   4.162   0.119   1.772
 5812SOL     OW17779   4.297   0.870   1.029
 5812SOL    HW117780   4.341   0.959   1.020
 5812SOL    HW217781   4.234   0.870   1.106
 5813SOL     OW17782   5.084   0.862   1.045
 5813SOL    HW117783   5.009   0.862   0.979
 5813SOL    HW217784   5.121   0.770   1.054
 5814SOL     OW17785   4.031   0.213   1.231
 5814SOL    HW117786   4.008   0.250   1.321
 5814SOL    HW217787   4.001   0.118   1.225
 5815SOL     OW17788   3.761   1.310   1.282
 5815SOL    HW117789   3.814   1.261   1.350
 5815SOL    HW217790   3.783   1.408   1.287
 5816SOL     OW17791   4.456   0.634   1.064
 5816SOL    HW117792   4.515   0.608   0.988
 5816SOL    HW217793   4.428   0.730   1.053
 5817SOL     OW17794   5.452   0.935   1.854
 5817SOL    HW117795   5.406   0.928   1.765
 5817SOL    HW217796   5.390   0.979   1.920
 5818SOL     OW17797   4.031   0.063   0.618
 5818SOL    HW117798   4.020   0.157   0.651
 5818SOL    HW217799   4.026   0.000   0.695
 5819SOL     OW17800   4.747   0.766   0.966
 5819SOL    HW117801   4.762   0.787   1.062
 5819SOL    HW217802   4.717   0.671   0.957
 5820SOL     OW17803   4.704   1.573   1.700
 5820SOL    HW117804   4.684   1.617   1.612
 5820SOL    HW217805   4.743   1.482   1.684
 5821SOL     OW17806   5.583   1.518   1.605
 5821SOL    HW117807   5.597   1.545   1.510
 5821SOL    HW217808   5.666   1.540   1.658
 5822SOL     OW17809   4.074   0.898   1.804
 5822SOL    HW117810   4.150   0.942   1.852
 5822SOL    HW217811   4.109   0.851   1.722
 5823SOL     OW17812   4.792   1.333   0.849
 5823SOL    HW117813   4.799   1.249   0.794
 5823SOL    HW217814   4.854   1.402   0.813
 5824SOL     OW17815   4.043   0.810   0.949
 5824SOL    HW117816   4.136   0.846   0.954
 5824SOL    HW217817   4.037   0.725   1.001
 5825SOL     OW17818   4.063   0.509   1.006
 5825SOL    HW117819   4.011   0.426   0.989
 5825SOL    HW217820   4.140   0.514   0.942
 5826SOL     OW17821   4.862   0.380   1.678
 5826SOL    HW117822   4.817   0.443   1.742
 5826SOL    HW217823   4.955   0.411   1.661
 5827SOL     OW17824   4.884   0.207   1.477
 5827SOL    HW117825   4.884   0.271   1.554
 5827SOL    HW217826   4.912   0.255   1.394
 5828SOL     OW17827   3.812   1.801   0.927
 5828SOL    HW117828   3.770   1.715   0.900
 5828SOL    HW217829   3.906   1.804   0.893
 5829SOL     OW17830   4.228   1.568   0.910
 5829SOL    HW117831   4.294   1.642   0.919
 5829SOL    HW217832   4.272   1.489   0.868
 5830SOL     OW17833   4.726   0.796   1.238
 5830SOL    HW117834   4.767   0.764   1.324
 5830SOL    HW217835   4.630   0.769   1.235
 5831SOL     OW17836   3.764   0.544   1.114
 5831SOL    HW117837   3.849   0.511   1.073
 5831SOL    HW217838   3.777   0.559   1.212
 5832SOL     OW17839   3.913   0.520   1.722
 5832SOL    HW117840   3.972   0.480   1.652
 5832SOL    HW217841   3.855   0.591   1.681
 5833SOL     OW17842   5.093   0.950   1.660
 5833SOL    HW117843   5.132   1.039   1.680
 5833SOL    HW217844   5.103   0.930   1.563
 5834SOL     OW17845   4.539   0.572   0.325
 5834SOL    HW117846   4.546   0.483   0.279
 5834SOL    HW217847   4.445   0.606   0.317
 5835SOL     OW17848   5.381   0.604   1.206
 5835SOL    HW117849   5.343   0.535   1.268
 5835SOL    HW217850   5.463   0.568   1.162
 5836SOL     OW17851   3.976   1.564   1.744
 5836SOL    HW117852   3.946   1.621   1.820
 5836SOL    HW217853   3.969   1.467   1.770
 5837SOL     OW17854   4.395   0.464   1.269
 5837SOL    HW117855   4.361   0.375   1.239
 5837SOL    HW217856   4.421   0.518   1.189
 5838SOL     OW17857   4.654   1.678   1.465
 5838SOL    HW117858   4.630   1.660   1.370
 5838SOL    HW217859   4.684   1.772   1.475
 5839SOL     OW17860   3.883   1.137   1.466
 5839SOL    HW117861   3.905   1.076   1.542
 5839SOL    HW217862   3.893   1.088   1.380
 5840SOL     OW17863   5.071   1.059   1.234
 5840SOL    HW117864   5.095   0.996   1.160
 5840SOL    HW217865   4.981   1.099   1.216
 5841SOL     OW17866   5.483   1.747   1.154
 5841SOL    HW117867   5.544   1.777   1.081
 5841SOL    HW217868   5.445   1.658   1.132
 5842SOL     OW17869   4.976   1.731   1.128
 5842SOL    HW117870   5.060   1.736   1.074
 5842SOL    HW217871   4.953   1.635   1.146
 5843SOL     OW17872   3.807   1.258   1.022
 5843SOL    HW117873   3.802   1.257   1.122
 5843SOL    HW217874   3.724   1.217   0.984
 5844SOL     OW17875   4.412   1.662   1.716
 5844SOL    HW117876   4.356   1.743   1.725
 5844SOL    HW217877   4.464   1.666   1.630
 5845SOL     OW17878   3.854   1.794   1.851
 5845SOL    HW117879   3.813   1.720   1.904
 5845SOL    HW217880   3.918   1.845   1.909
 5846SOL     OW17881   5.004   0.927   0.672
 5846SOL    HW117882   5.064   0.846   0.674
 5846SOL    HW217883   5.044   0.996   0.612
 5847SOL     OW17884   4.554   1.273   1.422
 5847SOL    HW117885   4.549   1.306   1.517
 5847SOL    HW217886   4.468   1.292   1.376
 5848SOL     OW17887   5.374   1.720   1.394
 5848SOL    HW117888   5.427   1.730   1.310
 5848SOL    HW217889   5.347   1.810   1.428
 5849SOL     OW17890   3.987   0.326   0.720
 5849SOL    HW117891   3.908   0.377   0.686
 5849SOL    HW217892   3.978   0.311   0.818
 5850SOL     OW17893   4.546   1.002   1.372
 5850SOL    HW117894   4.586   1.001   1.280
 5850SOL    HW217895   4.556   1.094   1.412
 5851SOL     OW17896   4.096   1.288   1.490
 5851SOL    HW117897   4.083   1.381   1.456
 5851SOL    HW217898   4.012   1.236   1.477
 5852SOL     OW17899   5.338   1.292   1.289
 5852SOL    HW117900   5.398   1.295   1.369
 5852SOL    HW217901   5.263   1.356   1.302
 5853SOL     OW17902   4.763   1.098   0.696
 5853SOL    HW117903   4.693   1.051   0.750
 5853SOL    HW217904   4.822   1.030   0.653
 5854SOL     OW17905   4.738   0.236   0.971
 5854SOL    HW117906   4.730   0.200   0.878
 5854SOL    HW217907   4.736   0.160   1.036
 5855SOL     OW17908   4.314   1.487   0.491
 5855SOL    HW117909   4.356   1.429   0.421
 5855SOL    HW217910   4.270   1.566   0.447
 5856SOL     OW17911   5.433   0.385   1.381
 5856SOL    HW117912   5.506   0.454   1.385
 5856SOL    HW217913   5.461   0.310   1.322
 5857SOL     OW17914   3.829   1.013   1.726
 5857SOL    HW117915   3.752   0.980   1.780
 5857SOL    HW217916   3.914   0.983   1.768
 5858SOL     OW17917   4.396   0.203   1.489
 5858SOL    HW117918   4.486   0.187   1.449
 5858SOL    HW217919   4.404   0.208   1.588
 5859SOL     OW17920   5.164   0.856   1.398
 5859SOL    HW117921   5.107   0.908   1.335
 5859SOL    HW217922   5.260   0.868   1.374
 5860SOL     OW17923   3.796   0.166   0.318
 5860SOL    HW117924   3.779   0.249   0.264
 5860SOL    HW217925   3.886   0.129   0.296
 5861SOL     OW17926   4.337   0.842   1.431
 5861SOL    HW117927   4.393   0.923   1.414
 5861SOL    HW217928   4.396   0.762   1.434
 5862SOL     OW17929   5.217   1.767   0.959
 5862SOL    HW117930   5.250   1.831   0.890
 5862SOL    HW217931   5.283   1.761   1.034
 5863SOL     OW17932   4.440   0.565   1.708
 5863SOL    HW117933   4.459   0.630   1.782
 5863SOL    HW217934   4.500   0.485   1.717
 5864SOL     OW17935   5.174   1.220   1.633
 5864SOL    HW117936   5.165   1.210   1.732
 5864SOL    HW217937   5.270   1.213   1.607
 5865SOL     OW17938   4.114   1.741   1.560
 5865SOL    HW117939   4.023   1.782   1.558
 5865SOL    HW217940   4.107   1.647   1.592
 5866SOL     OW17941   5.398   0.883   1.254
 5866SOL    HW117942   5.371   0.794   1.217
 5866SOL    HW217943   5.399   0.951   1.181
 5867SOL     OW17944   4.318   0.745   0.652
 5867SOL    HW117945   4.368   0.830   0.633
 5867SOL    HW217946   4.230   0.747   0.604
 5868SOL     OW17947   5.501   0.342   1.642
 5868SOL    HW117948   5.484   0.373   1.548
 5868SOL    HW217949   5.417   0.305   1.680
 5869SOL     OW17950   5.454   0.934   1.517
 5869SOL    HW117951   5.492   1.025   1.532
 5869SOL    HW217952   5.446   0.917   1.418
 5870SOL     OW17953   4.385   1.790   0.953
 5870SOL    HW117954   4.339   1.878   0.940
 5870SOL    HW217955   4.484   1.802   0.946
 5871SOL     OW17956   4.583   0.956   0.861
 5871SOL    HW117957   4.637   0.887   0.909
 5871SOL    HW217958   4.551   1.025   0.927
 5872SOL     OW17959   5.585   1.569   0.851
 5872SOL    HW117960   5.514   1.557   0.781
 5872SOL    HW217961   5.586   1.490   0.911
 5873SOL     OW17962   3.945   1.314   1.844
 5873SOL    HW117963   3.880   1.241   1.823
 5873SOL    HW217964   3.949   1.328   1.942
 5874SOL     OW17965   3.803   1.240   0.653
 5874SOL    HW117966   3.802   1.193   0.741
 5874SOL    HW217967   3.885   1.212   0.602
 5875SOL     OW17968   4.396   1.391   1.624
 5875SOL    HW117969   4.318   1.341   1.662
 5875SOL    HW217970   4.393   1.486   1.655
 5876SOL     OW17971   5.548   0.192   1.227
 5876SOL    HW117972   5.544   0.102   1.271
 5876SOL    HW217973   5.551   0.181   1.128
 5877SOL     OW17974   4.152   0.424   0.520
 5877SOL    HW117975   4.182   0.352   0.458
 5877SOL    HW217976   4.113   0.384   0.603
 5878SOL     OW17977   5.429   1.487   1.104
 5878SOL    HW117978   5.336   1.462   1.077
 5878SOL    HW217979   5.455   1.437   1.186
 5879SOL     OW17980   4.041   0.547   1.280
 5879SOL    HW117981   4.079   0.488   1.352
 5879SOL    HW217982   4.081   0.521   1.192
 5880SOL     OW17983   4.536   1.586   0.687
 5880SOL    HW117984   4.568   1.596   0.593
 5880SOL    HW217985   4.457   1.524   0.689
 5881SOL     OW17986   4.725   0.034   1.154
 5881SOL    HW117987   4.662  -0.038   1.123
 5881SOL    HW217988   4.818  -0.002   1.154
 5882SOL     OW17989   4.342   1.567   1.284
 5882SOL    HW117990   4.337   1.649   1.341
 5882SOL    HW217991   4.431   1.564   1.239
 5883SOL     OW17992   5.024   0.453   0.691
 5883SOL    HW117993   4.965   0.533   0.695
 5883SOL    HW217994   5.039   0.418   0.784
 5884SOL     OW17995   3.763   1.077   0.300
 5884SOL    HW117996   3.862   1.066   0.291
 5884SOL    HW217997   3.723   0.991   0.332
 5885SOL     OW17998   3.954   0.628   1.975
 5885SOL    HW117999   3.861   0.626   2.012
 5885SOL    HW218000   3.955   0.589   1.883
 5886SOL     OW18001   3.949   0.275   2.858
 5886SOL    HW118002   3.984   0.258   2.950
 5886SOL    HW218003   3.861   0.230   2.846
 5887SOL     OW18004   3.743   0.368   2.509
 5887SOL    HW118005   3.661   0.411   2.548
 5887SOL    HW218006   3.715   0.295   2.446
 5888SOL     OW18007   4.293   1.275   3.027
 5888SOL    HW118008   4.200   1.268   2.990
 5888SOL    HW218009   4.304   1.364   3.071
 5889SOL     OW18010   5.279   1.511   2.565
 5889SOL    HW118011   5.222   1.495   2.646
 5889SOL    HW218012   5.220   1.521   2.485
 5890SOL     OW18013   4.859   0.703   2.579
 5890SOL    HW118014   4.916   0.781   2.554
 5890SOL    HW218015   4.799   0.729   2.655
 5891SOL     OW18016   5.479   0.607   2.093
 5891SOL    HW118017   5.467   0.594   1.994
 5891SOL    HW218018   5.449   0.526   2.142
 5892SOL     OW18019   4.492   1.144   2.885
 5892SOL    HW118020   4.414   1.161   2.945
 5892SOL    HW218021   4.526   1.231   2.849
 5893SOL     OW18022   4.574   0.798   3.685
 5893SOL    HW118023   4.570   0.874   3.750
 5893SOL    HW218024   4.596   0.834   3.594
 5894SOL     OW18025   4.409   1.012   2.527
 5894SOL    HW118026   4.478   0.996   2.597
 5894SOL    HW218027   4.336   1.069   2.565
 5895SOL     OW18028   4.410   1.161   3.665
 5895SOL    HW118029   4.470   1.240   3.679
 5895SOL    HW218030   4.324   1.192   3.624
 5896SOL     OW18031   4.059   1.435   2.923
 5896SOL    HW118032   3.981   1.404   2.870
 5896SOL    HW218033   4.117   1.493   2.866
 5897SOL     OW18034   5.184   1.505   3.201
 5897SOL    HW118035   5.208   1.599   3.227
 5897SOL    HW218036   5.168   1.451   3.283
 5898SOL     OW18037   4.162   0.392   3.361
 5898SOL    HW118038   4.244   0.336   3.370
 5898SOL    HW218039   4.081   0.334   3.365
 5899SOL     OW18040   5.327   0.447   2.599
 5899SOL    HW118041   5.253   0.493   2.549
 5899SOL    HW218042   5.378   0.515   2.652
 5900SOL     OW18043   3.955   1.713   2.345
 5900SOL    HW118044   3.989   1.790   2.399
 5900SOL    HW218045   3.999   1.713   2.255
 5901SOL     OW18046   4.851   1.341   3.552
 5901SOL    HW118047   4.898   1.341   3.640
 5901SOL    HW218048   4.803   1.254   3.541
 5902SOL     OW18049   3.954   1.434   2.400
 5902SOL    HW118050   3.928   1.530   2.400
 5902SOL    HW218051   3.883   1.380   2.445
 5903SOL     OW18052   3.964   1.091   2.748
 5903SOL    HW118053   3.978   1.007   2.800
 5903SOL    HW218054   3.909   1.155   2.803
 5904SOL     OW18055   4.344   1.786   3.301
 5904SOL    HW118056   4.252   1.769   3.336
 5904SOL    HW218057   4.372   1.878   3.327
 5905SOL     OW18058   4.330   0.964   1.985
 5905SOL    HW118059   4.337   1.048   1.931
 5905SOL    HW218060   4.376   0.977   2.073
 5906SOL     OW18061   3.846   0.643   2.425
 5906SOL    HW118062   3.801   0.555   2.442
 5906SOL    HW218063   3.845   0.697   2.509
 5907SOL     OW18064   5.566   1.767   2.221
 5907SOL    HW118065   5.620   1.738   2.301
 5907SOL    HW218066   5.596   1.857   2.192
 5908SOL     OW18067   3.751   1.596   1.979
 5908SOL    HW118068   3.732   1.500   2.000
 5908SOL    HW218069   3.718   1.654   2.054
 5909SOL     OW18070   5.413   0.922   2.474
 5909SOL    HW118071   5.508   0.893   2.482
 5909SOL    HW218072   5.405   0.987   2.399
 5910SOL     OW18073   5.365   1.108   2.294
 5910SOL    HW118074   5.451   1.110   2.242
 5910SOL    HW218075   5.379   1.155   2.382
 5911SOL     OW18076   3.837   0.737   3.459
 5911SOL    HW118077   3.925   0.724   3.504
 5911SOL    HW218078   3.824   0.834   3.437
 5912SOL     OW18079   4.337   1.365   2.588
 5912SOL    HW118080   4.288   1.278   2.597
 5912SOL    HW218081   4.314   1.408   2.501
 5913SOL     OW18082   5.017   1.228   3.285
 5913SOL    HW118083   5.054   1.155   3.227
 5913SOL    HW218084   5.069   1.233   3.370
 5914SOL     OW18085   4.533   0.004   2.364
 5914SOL    HW118086   4.573   0.095   2.355
 5914SOL    HW218087   4.433   0.012   2.370
 5915SOL     OW18088   3.921   0.976   3.126
 5915SOL    HW118089   4.010   0.931   3.112
 5915SOL    HW218090   3.848   0.911   3.107
 5916SOL     OW18091   5.249   0.999   2.052
 5916SOL    HW118092   5.186   0.923   2.065
 5916SOL    HW218093   5.297   1.017   2.138
 5917SOL     OW18094   4.911   1.792   3.478
 5917SOL    HW118095   4.935   1.852   3.402
 5917SOL    HW218096   4.918   1.697   3.448
 5918SOL     OW18097   4.041   0.251   3.663
 5918SOL    HW118098   4.112   0.322   3.669
 5918SOL    HW218099   3.953   0.290   3.691
 5919SOL     OW18100   5.190   1.417   2.815
 5919SOL    HW118101   5.131   1.423   2.895
 5919SOL    HW218102   5.175   1.329   2.769
 5920SOL     OW18103   5.391   1.714   2.434
 5920SOL    HW118104   5.350   1.691   2.346
 5920SOL    HW218105   5.373   1.640   2.499
 5921SOL     OW18106   4.322   0.729   2.132
 5921SOL    HW118107   4.346   0.798   2.064
 5921SOL    HW218108   4.244   0.762   2.186
 5922SOL     OW18109   5.300   1.662   2.169
 5922SOL    HW118110   5.389   1.708   2.172
 5922SOL    HW218111   5.279   1.638   2.074
 5923SOL     OW18112   4.531   0.605   3.327
 5923SOL    HW118113   4.484   0.602   3.416
 5923SOL    HW218114   4.480   0.550   3.261
 5924SOL     OW18115   5.118   0.469   3.536
 5924SOL    HW118116   5.098   0.512   3.624
 5924SOL    HW218117   5.196   0.407   3.545
 5925SOL     OW18118   4.697   0.890   3.434
 5925SOL    HW118119   4.743   0.806   3.405
 5925SOL    HW218120   4.641   0.924   3.359
 5926SOL     OW18121   4.715   0.410   3.104
 5926SOL    HW118122   4.638   0.444   3.158
 5926SOL    HW218123   4.681   0.359   3.025
 5927SOL     OW18124   4.765   0.701   2.291
 5927SOL    HW118125   4.791   0.697   2.387
 5927SOL    HW218126   4.680   0.650   2.277
 5928SOL     OW18127   3.800   0.811   2.651
 5928SOL    HW118128   3.899   0.799   2.660
 5928SOL    HW218129   3.776   0.906   2.672
 5929SOL     OW18130   3.854   1.821   3.433
 5929SOL    HW118131   3.844   1.806   3.532
 5929SOL    HW218132   3.768   1.857   3.397
 5930SOL     OW18133   4.589   0.348   2.057
 5930SOL    HW118134   4.648   0.411   2.008
 5930SOL    HW218135   4.608   0.254   2.028
 5931SOL     OW18136   5.443   0.585   3.693
 5931SOL    HW118137   5.417   0.674   3.657
 5931SOL    HW218138   5.441   0.517   3.620
 5932SOL     OW18139   5.086   1.144   2.407
 5932SOL    HW118140   5.169   1.115   2.359
 5932SOL    HW218141   5.037   1.211   2.351
 5933SOL     OW18142   4.274   0.196   2.747
 5933SOL    HW118143   4.269   0.191   2.847
 5933SOL    HW218144   4.276   0.292   2.718
 5934SOL     OW18145   4.732   1.456   2.339
 5934SOL    HW118146   4.686   1.528   2.287
 5934SOL    HW218147   4.728   1.476   2.437
 5935SOL     OW18148   4.075   1.801   2.715
 5935SOL    HW118149   4.125   1.715   2.721
 5935SOL    HW218150   4.140   1.878   2.712
 5936SOL     OW18151   5.519   1.066   2.735
 5936SOL    HW118152   5.457   1.051   2.659
 5936SOL    HW218153   5.467   1.077   2.820
 5937SOL     OW18154   4.951   1.550   3.368
 5937SOL    HW118155   4.957   1.473   3.432
 5937SOL    HW218156   4.899   1.524   3.288
 5938SOL     OW18157   4.045   0.943   2.104
 5938SOL    HW118158   4.127   0.982   2.062
 5938SOL    HW218159   4.018   0.861   2.055
 5939SOL     OW18160   5.182   0.735   2.590
 5939SOL    HW118161   5.177   0.670   2.665
 5939SOL    HW218162   5.262   0.794   2.603
 5940SOL     OW18163   4.185   1.266   3.589
 5940SOL    HW118164   4.135   1.267   3.503
 5940SOL    HW218165   4.122   1.248   3.665
 5941SOL     OW18166   4.835   1.776   2.099
 5941SOL    HW118167   4.775   1.714   2.149
 5941SOL    HW218168   4.866   1.732   2.014
 5942SOL     OW18169   3.926   0.285   3.360
 5942SOL    HW118170   3.846   0.345   3.347
 5942SOL    HW218171   3.916   0.236   3.446
 5943SOL     OW18172   5.356   1.377   1.943
 5943SOL    HW118173   5.324   1.471   1.933
 5943SOL    HW218174   5.280   1.314   1.931
 5944SOL     OW18175   4.188   1.743   2.185
 5944SOL    HW118176   4.221   1.782   2.271
 5944SOL    HW218177   4.264   1.736   2.120
 5945SOL     OW18178   3.973   1.785   3.103
 5945SOL    HW118179   4.030   1.720   3.153
 5945SOL    HW218180   3.957   1.752   3.010
 5946SOL     OW18181   4.664   1.698   2.766
 5946SOL    HW118182   4.744   1.641   2.787
 5946SOL    HW218183   4.615   1.658   2.689
 5947SOL     OW18184   4.106   0.700   2.342
 5947SOL    HW118185   4.151   0.610   2.339
 5947SOL    HW218186   4.012   0.689   2.375
 5948SOL     OW18187   4.338   0.122   1.979
 5948SOL    HW118188   4.436   0.100   1.986
 5948SOL    HW218189   4.307   0.105   1.886
 5949SOL     OW18190   4.505   0.264   3.611
 5949SOL    HW118191   4.572   0.203   3.654
 5949SOL    HW218192   4.432   0.283   3.676
 5950SOL     OW18193   4.612   1.514   3.057
 5950SOL    HW118194   4.589   1.489   2.963
 5950SOL    HW218195   4.673   1.445   3.096
 5951SOL     OW18196   5.075   0.590   3.295
 5951SOL    HW118197   5.103   0.547   3.380
 5951SOL    HW218198   5.100   0.686   3.296
 5952SOL     OW18199   4.527   1.402   2.786
 5952SOL    HW118200   4.617   1.416   2.744
 5952SOL    HW218201   4.456   1.404   2.715
 5953SOL     OW18202   4.646   0.503   2.761
 5953SOL    HW118203   4.621   0.494   2.665
 5953SOL    HW218204   4.694   0.421   2.792
 5954SOL     OW18205   4.263   0.064   2.374
 5954SOL    HW118206   4.182   0.065   2.432
 5954SOL    HW218207   4.266   0.147   2.319
 5955SOL     OW18208   5.158   1.188   1.903
 5955SOL    HW118209   5.190   1.112   1.960
 5955SOL    HW218210   5.066   1.215   1.933
 5956SOL     OW18211   4.021   0.035   2.033
 5956SOL    HW118212   4.070   0.119   2.012
 5956SOL    HW218213   4.083  -0.030   2.078
 5957SOL     OW18214   4.659   0.236   2.342
 5957SOL    HW118215   4.611   0.277   2.264
 5957SOL    HW218216   4.758   0.234   2.323
 5958SOL     OW18217   4.800   0.683   3.326
 5958SOL    HW118218   4.720   0.622   3.329
 5958SOL    HW218219   4.881   0.630   3.302
 5959SOL     OW18220   4.951   1.570   2.655
 5959SOL    HW118221   4.972   1.644   2.590
 5959SOL    HW218222   5.019   1.570   2.728
 5960SOL     OW18223   4.183   1.152   2.603
 5960SOL    HW118224   4.112   1.125   2.668
 5960SOL    HW218225   4.157   1.124   2.510
 5961SOL     OW18226   4.995   1.797   2.453
 5961SOL    HW118227   5.039   1.861   2.389
 5961SOL    HW218228   4.945   1.849   2.523
 5962SOL     OW18229   4.756   0.549   1.878
 5962SOL    HW118230   4.715   0.631   1.839
 5962SOL    HW218231   4.820   0.575   1.951
 5963SOL     OW18232   3.802   0.556   3.248
 5963SOL    HW118233   3.894   0.555   3.207
 5963SOL    HW218234   3.796   0.630   3.315
 5964SOL     OW18235   4.285   0.222   3.009
 5964SOL    HW118236   4.323   0.138   3.046
 5964SOL    HW218237   4.197   0.241   3.053
 5965SOL     OW18238   4.590   0.454   2.504
 5965SOL    HW118239   4.558   0.526   2.442
 5965SOL    HW218240   4.614   0.373   2.451
 5966SOL     OW18241   4.741   0.039   2.615
 5966SOL    HW118242   4.669   0.044   2.546
 5966SOL    HW218243   4.717  -0.030   2.684
 5967SOL     OW18244   5.153   1.173   2.729
 5967SOL    HW118245   5.098   1.089   2.722
 5967SOL    HW218246   5.179   1.202   2.637
 5968SOL     OW18247   5.190   0.590   2.854
 5968SOL    HW118248   5.160   0.495   2.861
 5968SOL    HW218249   5.263   0.606   2.920
 5969SOL     OW18250   5.581   0.833   2.239
 5969SOL    HW118251   5.623   0.769   2.303
 5969SOL    HW218252   5.543   0.782   2.161
 5970SOL     OW18253   4.212   1.385   2.036
 5970SOL    HW118254   4.125   1.370   2.083
 5970SOL    HW218255   4.195   1.411   1.941
 5971SOL     OW18256   5.388   1.280   2.519
 5971SOL    HW118257   5.487   1.288   2.533
 5971SOL    HW218258   5.343   1.364   2.550
 5972SOL     OW18259   5.114   0.575   1.940
 5972SOL    HW118260   5.060   0.554   2.021
 5972SOL    HW218261   5.205   0.534   1.949
 5973SOL     OW18262   4.251   0.256   2.190
 5973SOL    HW118263   4.278   0.197   2.115
 5973SOL    HW218264   4.251   0.351   2.159
 5974SOL     OW18265   5.478   1.223   3.450
 5974SOL    HW118266   5.569   1.184   3.437
 5974SOL    HW218267   5.486   1.319   3.474
 5975SOL     OW18268   4.788   1.347   3.202
 5975SOL    HW118269   4.708   1.324   3.257
 5975SOL    HW218270   4.871   1.321   3.251
 5976SOL     OW18271   5.316   1.629   3.487
 5976SOL    HW118272   5.343   1.663   3.397
 5976SOL    HW218273   5.395   1.591   3.533
 5977SOL     OW18274   4.835   1.195   2.962
 5977SOL    HW118275   4.795   1.239   3.043
 5977SOL    HW218276   4.794   1.232   2.879
 5978SOL     OW18277   5.362   1.099   2.941
 5978SOL    HW118278   5.367   1.180   3.000
 5978SOL    HW218279   5.276   1.101   2.890
 5979SOL     OW18280   4.639   0.089   3.264
 5979SOL    HW118281   4.664   0.069   3.169
 5979SOL    HW218282   4.711   0.145   3.306
 5980SOL     OW18283   4.704   1.116   3.581
 5980SOL    HW118284   4.605   1.122   3.591
 5980SOL    HW218285   4.727   1.036   3.525
 5981SOL     OW18286   4.429   1.050   2.230
 5981SOL    HW118287   4.415   1.057   2.329
 5981SOL    HW218288   4.513   0.999   2.212
 5982SOL     OW18289   4.134   0.813   3.113
 5982SOL    HW118290   4.220   0.825   3.163
 5982SOL    HW218291   4.092   0.726   3.140
 5983SOL     OW18292   4.998   0.386   3.124
 5983SOL    HW118293   5.019   0.460   3.188
 5983SOL    HW218294   4.909   0.403   3.081
 5984SOL     OW18295   3.788   1.564   3.193
 5984SOL    HW118296   3.742   1.646   3.159
 5984SOL    HW218297   3.886   1.583   3.202
 5985SOL     OW18298   4.091   1.100   2.363
 5985SOL    HW118299   4.084   1.183   2.307
 5985SOL    HW218300   4.095   1.020   2.303
 5986SOL     OW18301   4.290   0.537   2.727
 5986SOL    HW118302   4.302   0.603   2.653
 5986SOL    HW218303   4.336   0.571   2.810
 5987SOL     OW18304   4.976   1.348   2.250
 5987SOL    HW118305   5.026   1.425   2.290
 5987SOL    HW218306   4.881   1.350   2.282
 5988SOL     OW18307   4.996   1.445   3.004
 5988SOL    HW118308   5.043   1.458   3.091
 5988SOL    HW218309   4.930   1.371   3.013
 5989SOL     OW18310   5.306   0.639   2.334
 5989SOL    HW118311   5.275   0.700   2.407
 5989SOL    HW218312   5.356   0.691   2.265
 5990SOL     OW18313   4.078   1.510   3.191
 5990SOL    HW118314   4.057   1.466   3.104
 5990SOL    HW218315   4.175   1.536   3.194
 5991SOL     OW18316   4.126   0.751   3.460
 5991SOL    HW118317   4.194   0.806   3.413
 5991SOL    HW218318   4.166   0.663   3.487
 5992SOL     OW18319   5.311   0.779   3.532
 5992SOL    HW118320   5.219   0.817   3.527
 5992SOL    HW218321   5.371   0.826   3.467
 5993SOL     OW18322   4.737   0.105   3.632
 5993SOL    HW118323   4.743   0.190   3.580
 5993SOL    HW218324   4.769   0.029   3.575
 5994SOL     OW18325   4.228   0.050   3.602
 5994SOL    HW118326   4.186  -0.007   3.532
 5994SOL    HW218327   4.162   0.119   3.634
 5995SOL     OW18328   4.297   0.870   2.891
 5995SOL    HW118329   4.341   0.959   2.882
 5995SOL    HW218330   4.234   0.870   2.968
 5996SOL     OW18331   5.084   0.862   2.907
 5996SOL    HW118332   5.009   0.862   2.841
 5996SOL    HW218333   5.121   0.770   2.916
 5997SOL     OW18334   4.933   0.525   2.137
 5997SOL    HW118335   4.946   0.441   2.191
 5997SOL    HW218336   4.904   0.599   2.197
 5998SOL     OW18337   4.031   0.213   3.093
 5998SOL    HW118338   4.008   0.250   3.183
 5998SOL    HW218339   4.001   0.118   3.087
 5999SOL     OW18340   3.761   1.310   3.144
 5999SOL    HW118341   3.814   1.261   3.212
 5999SOL    HW218342   3.783   1.408   3.149
 6000SOL     OW18343   4.456   0.634   2.926
 6000SOL    HW118344   4.515   0.608   2.850
 6000SOL    HW218345   4.428   0.730   2.915
 6001SOL     OW18346   5.452   0.935   3.716
 6001SOL    HW118347   5.406   0.928   3.627
 6001SOL    HW218348   5.390   0.979   3.782
 6002SOL     OW18349   4.031   0.063   2.480
 6002SOL    HW118350   4.020   0.157   2.513
 6002SOL    HW218351   4.026   0.000   2.557
 6003SOL     OW18352   4.747   0.766   2.828
 6003SOL    HW118353   4.762   0.787   2.924
 6003SOL    HW218354   4.717   0.671   2.819
 6004SOL     OW18355   4.704   1.573   3.562
 6004SOL    HW118356   4.684   1.617   3.474
 6004SOL    HW218357   4.743   1.482   3.546
 6005SOL     OW18358   5.583   1.518   3.467
 6005SOL    HW118359   5.597   1.545   3.372
 6005SOL    HW218360   5.666   1.540   3.520
 6006SOL     OW18361   4.074   0.898   3.666
 6006SOL    HW118362   4.150   0.942   3.714
 6006SOL    HW218363   4.109   0.851   3.584
 6007SOL     OW18364   5.027   0.838   1.904
 6007SOL    HW118365   5.061   0.745   1.919
 6007SOL    HW218366   5.045   0.865   1.809
 6008SOL     OW18367   4.792   1.333   2.711
 6008SOL    HW118368   4.799   1.249   2.656
 6008SOL    HW218369   4.854   1.402   2.675
 6009SOL     OW18370   4.043   0.810   2.811
 6009SOL    HW118371   4.136   0.846   2.816
 6009SOL    HW218372   4.037   0.725   2.863
 6010SOL     OW18373   4.063   0.509   2.868
 6010SOL    HW118374   4.011   0.426   2.851
 6010SOL    HW218375   4.140   0.514   2.804
 6011SOL     OW18376   4.862   0.380   3.540
 6011SOL    HW118377   4.817   0.443   3.604
 6011SOL    HW218378   4.955   0.411   3.523
 6012SOL     OW18379   4.884   0.207   3.339
 6012SOL    HW118380   4.884   0.271   3.416
 6012SOL    HW218381   4.912   0.255   3.256
 6013SOL     OW18382   3.732   1.326   2.062
 6013SOL    HW118383   3.639   1.347   2.031
 6013SOL    HW218384   3.742   1.227   2.075
 6014SOL     OW18385   3.812   1.801   2.789
 6014SOL    HW118386   3.770   1.715   2.762
 6014SOL    HW218387   3.906   1.804   2.755
 6015SOL     OW18388   4.228   1.568   2.772
 6015SOL    HW118389   4.294   1.642   2.781
 6015SOL    HW218390   4.272   1.489   2.730
 6016SOL     OW18391   4.726   0.796   3.100
 6016SOL    HW118392   4.767   0.764   3.186
 6016SOL    HW218393   4.630   0.769   3.097
 6017SOL     OW18394   3.764   0.544   2.976
 6017SOL    HW118395   3.849   0.511   2.935
 6017SOL    HW218396   3.777   0.559   3.074
 6018SOL     OW18397   3.913   0.520   3.584
 6018SOL    HW118398   3.972   0.480   3.514
 6018SOL    HW218399   3.855   0.591   3.543
 6019SOL     OW18400   5.093   0.950   3.522
 6019SOL    HW118401   5.132   1.039   3.542
 6019SOL    HW218402   5.103   0.930   3.425
 6020SOL     OW18403   4.539   0.572   2.187
 6020SOL    HW118404   4.546   0.483   2.141
 6020SOL    HW218405   4.445   0.606   2.179
 6021SOL     OW18406   5.381   0.604   3.068
 6021SOL    HW118407   5.343   0.535   3.130
 6021SOL    HW218408   5.463   0.568   3.024
 6022SOL     OW18409   3.976   1.564   3.606
 6022SOL    HW118410   3.946   1.621   3.682
 6022SOL    HW218411   3.969   1.467   3.632
 6023SOL     OW18412   4.395   0.464   3.131
 6023SOL    HW118413   4.361   0.375   3.101
 6023SOL    HW218414   4.421   0.518   3.051
 6024SOL     OW18415   4.654   1.678   3.327
 6024SOL    HW118416   4.630   1.660   3.232
 6024SOL    HW218417   4.684   1.772   3.337
 6025SOL     OW18418   4.197   0.500   2.053
 6025SOL    HW118419   4.258   0.580   2.057
 6025SOL    HW218420   4.102   0.531   2.060
 6026SOL     OW18421   3.883   1.137   3.328
 6026SOL    HW118422   3.905   1.076   3.404
 6026SOL    HW218423   3.893   1.088   3.242
 6027SOL     OW18424   5.071   1.059   3.096
 6027SOL    HW118425   5.095   0.996   3.022
 6027SOL    HW218426   4.981   1.099   3.078
 6028SOL     OW18427   5.026   0.855   2.171
 6028SOL    HW118428   4.940   0.824   2.213
 6028SOL    HW218429   5.022   0.841   2.072
 6029SOL     OW18430   5.483   1.747   3.016
 6029SOL    HW118431   5.544   1.777   2.943
 6029SOL    HW218432   5.445   1.658   2.994
 6030SOL     OW18433   4.976   1.731   2.990
 6030SOL    HW118434   5.060   1.736   2.936
 6030SOL    HW218435   4.953   1.635   3.008
 6031SOL     OW18436   3.807   1.258   2.884
 6031SOL    HW118437   3.802   1.257   2.984
 6031SOL    HW218438   3.724   1.217   2.846
 6032SOL     OW18439   4.412   1.662   3.578
 6032SOL    HW118440   4.356   1.743   3.587
 6032SOL    HW218441   4.464   1.666   3.492
 6033SOL     OW18442   5.112   1.573   2.339
 6033SOL    HW118443   5.179   1.585   2.265
 6033SOL    HW218444   5.072   1.662   2.362
 6034SOL     OW18445   3.854   1.794   3.713
 6034SOL    HW118446   3.813   1.720   3.766
 6034SOL    HW218447   3.918   1.845   3.771
 6035SOL     OW18448   5.004   0.927   2.534
 6035SOL    HW118449   5.064   0.846   2.536
 6035SOL    HW218450   5.044   0.996   2.474
 6036SOL     OW18451   4.554   1.273   3.284
 6036SOL    HW118452   4.549   1.306   3.379
 6036SOL    HW218453   4.468   1.292   3.238
 6037SOL     OW18454   4.396   1.616   2.016
 6037SOL    HW118455   4.405   1.626   1.917
 6037SOL    HW218456   4.356   1.527   2.037
 6038SOL     OW18457   5.374   1.720   3.256
 6038SOL    HW118458   5.427   1.730   3.172
 6038SOL    HW218459   5.347   1.810   3.290
 6039SOL     OW18460   3.987   0.326   2.582
 6039SOL    HW118461   3.908   0.377   2.548
 6039SOL    HW218462   3.978   0.311   2.680
 6040SOL     OW18463   4.918   1.612   1.893
 6040SOL    HW118464   4.924   1.519   1.930
 6040SOL    HW218465   4.859   1.612   1.813
 6041SOL     OW18466   4.546   1.002   3.234
 6041SOL    HW118467   4.586   1.001   3.142
 6041SOL    HW218468   4.556   1.094   3.274
 6042SOL     OW18469   4.640   0.910   2.153
 6042SOL    HW118470   4.703   0.948   2.085
 6042SOL    HW218471   4.680   0.827   2.192
 6043SOL     OW18472   5.228   1.607   1.906
 6043SOL    HW118473   5.136   1.644   1.913
 6043SOL    HW218474   5.266   1.627   1.816
 6044SOL     OW18475   4.096   1.288   3.352
 6044SOL    HW118476   4.083   1.381   3.318
 6044SOL    HW218477   4.012   1.236   3.339
 6045SOL     OW18478   5.338   1.292   3.151
 6045SOL    HW118479   5.398   1.295   3.231
 6045SOL    HW218480   5.263   1.356   3.164
 6046SOL     OW18481   4.763   1.098   2.558
 6046SOL    HW118482   4.693   1.051   2.612
 6046SOL    HW218483   4.822   1.030   2.515
 6047SOL     OW18484   4.738   0.236   2.833
 6047SOL    HW118485   4.730   0.200   2.740
 6047SOL    HW218486   4.736   0.160   2.898
 6048SOL     OW18487   4.314   1.487   2.353
 6048SOL    HW118488   4.356   1.429   2.283
 6048SOL    HW218489   4.270   1.566   2.309
 6049SOL     OW18490   5.433   0.385   3.243
 6049SOL    HW118491   5.506   0.454   3.247
 6049SOL    HW218492   5.461   0.310   3.184
 6050SOL     OW18493   3.979   1.348   2.152
 6050SOL    HW118494   3.883   1.349   2.125
 6050SOL    HW218495   3.991   1.401   2.236
 6051SOL     OW18496   3.829   1.013   3.588
 6051SOL    HW118497   3.752   0.980   3.642
 6051SOL    HW218498   3.914   0.983   3.630
 6052SOL     OW18499   4.396   0.203   3.351
 6052SOL    HW118500   4.486   0.187   3.311
 6052SOL    HW218501   4.404   0.208   3.450
 6053SOL     OW18502   3.799   0.345   1.895
 6053SOL    HW118503   3.707   0.317   1.866
 6053SOL    HW218504   3.830   0.422   1.839
 6054SOL     OW18505   5.164   0.856   3.260
 6054SOL    HW118506   5.107   0.908   3.197
 6054SOL    HW218507   5.260   0.868   3.236
 6055SOL     OW18508   3.796   0.166   2.180
 6055SOL    HW118509   3.779   0.249   2.126
 6055SOL    HW218510   3.886   0.129   2.158
 6056SOL     OW18511   4.907   1.335   1.981
 6056SOL    HW118512   4.808   1.324   1.983
 6056SOL    HW218513   4.941   1.350   2.074
 6057SOL     OW18514   4.337   0.842   3.293
 6057SOL    HW118515   4.393   0.923   3.276
 6057SOL    HW218516   4.396   0.762   3.296
 6058SOL     OW18517   5.217   1.767   2.821
 6058SOL    HW118518   5.250   1.831   2.752
 6058SOL    HW218519   5.283   1.761   2.896
 6059SOL     OW18520   4.440   0.565   3.570
 6059SOL    HW118521   4.459   0.630   3.644
 6059SOL    HW218522   4.500   0.485   3.579
 6060SOL     OW18523   5.174   1.220   3.495
 6060SOL    HW118524   5.165   1.210   3.594
 6060SOL    HW218525   5.270   1.213   3.469
 6061SOL     OW18526   4.114   1.741   3.422
 6061SOL    HW118527   4.023   1.782   3.420
 6061SOL    HW218528   4.107   1.647   3.454
 6062SOL     OW18529   5.398   0.883   3.116
 6062SOL    HW118530   5.371   0.794   3.079
 6062SOL    HW218531   5.399   0.951   3.043
 6063SOL     OW18532   4.949   0.325   2.311
 6063SOL    HW118533   5.014   0.251   2.300
 6063SOL    HW218534   4.969   0.375   2.395
 6064SOL     OW18535   4.318   0.745   2.514
 6064SOL    HW118536   4.368   0.830   2.495
 6064SOL    HW218537   4.230   0.747   2.466
 6065SOL     OW18538   5.501   0.342   3.504
 6065SOL    HW118539   5.484   0.373   3.410
 6065SOL    HW218540   5.417   0.305   3.542
 6066SOL     OW18541   5.454   0.934   3.379
 6066SOL    HW118542   5.492   1.025   3.394
 6066SOL    HW218543   5.446   0.917   3.280
 6067SOL     OW18544   4.583   1.374   1.878
 6067SOL    HW118545   4.537   1.389   1.966
 6067SOL    HW218546   4.627   1.459   1.848
 6068SOL     OW18547   4.385   1.790   2.815
 6068SOL    HW118548   4.339   1.878   2.802
 6068SOL    HW218549   4.484   1.802   2.808
 6069SOL     OW18550   4.583   0.956   2.723
 6069SOL    HW118551   4.637   0.887   2.771
 6069SOL    HW218552   4.551   1.025   2.789
 6070SOL     OW18553   4.807   0.984   1.949
 6070SOL    HW118554   4.784   1.037   1.867
 6070SOL    HW218555   4.888   0.928   1.930
 6071SOL     OW18556   5.585   1.569   2.713
 6071SOL    HW118557   5.514   1.557   2.643
 6071SOL    HW218558   5.586   1.490   2.773
 6072SOL     OW18559   3.945   1.314   3.706
 6072SOL    HW118560   3.880   1.241   3.685
 6072SOL    HW218561   3.949   1.328   3.804
 6073SOL     OW18562   3.803   1.240   2.515
 6073SOL    HW118563   3.802   1.193   2.603
 6073SOL    HW218564   3.885   1.212   2.464
 6074SOL     OW18565   4.396   1.391   3.486
 6074SOL    HW118566   4.318   1.341   3.524
 6074SOL    HW218567   4.393   1.486   3.517
 6075SOL     OW18568   5.548   0.192   3.089
 6075SOL    HW118569   5.544   0.102   3.133
 6075SOL    HW218570   5.551   0.181   2.990
 6076SOL     OW18571   4.152   0.424   2.382
 6076SOL    HW118572   4.182   0.352   2.320
 6076SOL    HW218573   4.113   0.384   2.465
 6077SOL     OW18574   5.429   1.487   2.966
 6077SOL    HW118575   5.336   1.462   2.939
 6077SOL    HW218576   5.455   1.437   3.048
 6078SOL     OW18577   4.041   0.547   3.142
 6078SOL    HW118578   4.079   0.488   3.214
 6078SOL    HW218579   4.081   0.521   3.054
 6079SOL     OW18580   4.536   1.586   2.549
 6079SOL    HW118581   4.568   1.596   2.455
 6079SOL    HW218582   4.457   1.524   2.551
 6080SOL     OW18583   4.725   0.034   3.016
 6080SOL    HW118584   4.662  -0.038   2.985
 6080SOL    HW218585   4.818  -0.002   3.016
 6081SOL     OW18586   4.494   1.330   2.163
 6081SOL    HW118587   4.448   1.243   2.180
 6081SOL    HW218588   4.585   1.327   2.204
 6082SOL     OW18589   4.342   1.567   3.146
 6082SOL    HW118590   4.337   1.649   3.203
 6082SOL    HW218591   4.431   1.564   3.101
 6083SOL     OW18592   5.024   0.453   2.553
 6083SOL    HW118593   4.965   0.533   2.557
 6083SOL    HW218594   5.039   0.418   2.646
 6084SOL     OW18595   3.763   1.077   2.162
 6084SOL    HW118596   3.862   1.066   2.153
 6084SOL    HW218597   3.723   0.991   2.194
 6085SOL     OW18598   4.599   1.646   2.199
 6085SOL    HW118599   4.522   1.611   2.145
 6085SOL    HW218600   4.567   1.717   2.261
 6086SOL     OW18601   3.954   0.628   3.837
 6086SOL    HW118602   3.861   0.626   3.874
 6086SOL    HW218603   3.955   0.589   3.745
 6087SOL     OW18604   3.949   0.275   4.720
 6087SOL    HW118605   3.984   0.258   4.812
 6087SOL    HW218606   3.861   0.230   4.708
 6088SOL     OW18607   3.743   0.368   4.371
 6088SOL    HW118608   3.661   0.411   4.410
 6088SOL    HW218609   3.715   0.295   4.308
 6089SOL     OW18610   4.293   1.275   4.889
 6089SOL    HW118611   4.200   1.268   4.852
 6089SOL    HW218612   4.304   1.364   4.933
 6090SOL     OW18613   5.279   1.511   4.427
 6090SOL    HW118614   5.222   1.495   4.508
 6090SOL    HW218615   5.220   1.521   4.347
 6091SOL     OW18616   4.859   0.703   4.441
 6091SOL    HW118617   4.916   0.781   4.416
 6091SOL    HW218618   4.799   0.729   4.517
 6092SOL     OW18619   5.479   0.607   3.955
 6092SOL    HW118620   5.467   0.594   3.856
 6092SOL    HW218621   5.449   0.526   4.004
 6093SOL     OW18622   4.492   1.144   4.747
 6093SOL    HW118623   4.414   1.161   4.807
 6093SOL    HW218624   4.526   1.231   4.711
 6094SOL     OW18625   4.574   0.798   5.547
 6094SOL    HW118626   4.570   0.874   5.612
 6094SOL    HW218627   4.596   0.834   5.456
 6095SOL     OW18628   4.409   1.012   4.389
 6095SOL    HW118629   4.478   0.996   4.459
 6095SOL    HW218630   4.336   1.069   4.427
 6096SOL     OW18631   4.410   1.161   5.527
 6096SOL    HW118632   4.470   1.240   5.541
 6096SOL    HW218633   4.324   1.192   5.486
 6097SOL     OW18634   4.059   1.435   4.785
 6097SOL    HW118635   3.981   1.404   4.732
 6097SOL    HW218636   4.117   1.493   4.728
 6098SOL     OW18637   5.184   1.505   5.063
 6098SOL    HW118638   5.208   1.599   5.089
 6098SOL    HW218639   5.168   1.451   5.145
 6099SOL     OW18640   4.162   0.392   5.223
 6099SOL    HW118641   4.244   0.336   5.232
 6099SOL    HW218642   4.081   0.334   5.227
 6100SOL     OW18643   5.327   0.447   4.461
 6100SOL    HW118644   5.253   0.493   4.411
 6100SOL    HW218645   5.378   0.515   4.514
 6101SOL     OW18646   3.955   1.713   4.207
 6101SOL    HW118647   3.989   1.790   4.261
 6101SOL    HW218648   3.999   1.713   4.117
 6102SOL     OW18649   4.851   1.341   5.414
 6102SOL    HW118650   4.898   1.341   5.502
 6102SOL    HW218651   4.803   1.254   5.403
 6103SOL     OW18652   3.954   1.434   4.262
 6103SOL    HW118653   3.928   1.530   4.262
 6103SOL    HW218654   3.883   1.380   4.307
 6104SOL     OW18655   3.964   1.091   4.610
 6104SOL    HW118656   3.978   1.007   4.662
 6104SOL    HW218657   3.909   1.155   4.665
 6105SOL     OW18658   4.344   1.786   5.163
 6105SOL    HW118659   4.252   1.769   5.198
 6105SOL    HW218660   4.372   1.878   5.189
 6106SOL     OW18661   4.330   0.964   3.847
 6106SOL    HW118662   4.337   1.048   3.793
 6106SOL    HW218663   4.376   0.977   3.935
 6107SOL     OW18664   3.846   0.643   4.287
 6107SOL    HW118665   3.801   0.555   4.304
 6107SOL    HW218666   3.845   0.697   4.371
 6108SOL     OW18667   5.566   1.767   4.083
 6108SOL    HW118668   5.620   1.738   4.163
 6108SOL    HW218669   5.596   1.857   4.054
 6109SOL     OW18670   3.751   1.596   3.841
 6109SOL    HW118671   3.732   1.500   3.862
 6109SOL    HW218672   3.718   1.654   3.916
 6110SOL     OW18673   5.413   0.922   4.336
 6110SOL    HW118674   5.508   0.893   4.344
 6110SOL    HW218675   5.405   0.987   4.261
 6111SOL     OW18676   5.365   1.108   4.156
 6111SOL    HW118677   5.451   1.110   4.104
 6111SOL    HW218678   5.379   1.155   4.244
 6112SOL     OW18679   3.837   0.737   5.321
 6112SOL    HW118680   3.925   0.724   5.366
 6112SOL    HW218681   3.824   0.834   5.299
 6113SOL     OW18682   4.337   1.365   4.450
 6113SOL    HW118683   4.288   1.278   4.459
 6113SOL    HW218684   4.314   1.408   4.363
 6114SOL     OW18685   5.017   1.228   5.147
 6114SOL    HW118686   5.054   1.155   5.089
 6114SOL    HW218687   5.069   1.233   5.232
 6115SOL     OW18688   4.533   0.004   4.226
 6115SOL    HW118689   4.573   0.095   4.217
 6115SOL    HW218690   4.433   0.012   4.232
 6116SOL     OW18691   3.921   0.976   4.988
 6116SOL    HW118692   4.010   0.931   4.974
 6116SOL    HW218693   3.848   0.911   4.969
 6117SOL     OW18694   5.249   0.999   3.914
 6117SOL    HW118695   5.186   0.923   3.927
 6117SOL    HW218696   5.297   1.017   4.000
 6118SOL     OW18697   4.911   1.792   5.340
 6118SOL    HW118698   4.935   1.852   5.264
 6118SOL    HW218699   4.918   1.697   5.310
 6119SOL     OW18700   4.041   0.251   5.525
 6119SOL    HW118701   4.112   0.322   5.531
 6119SOL    HW218702   3.953   0.290   5.553
 6120SOL     OW18703   5.190   1.417   4.677
 6120SOL    HW118704   5.131   1.423   4.757
 6120SOL    HW218705   5.175   1.329   4.631
 6121SOL     OW18706   5.391   1.714   4.296
 6121SOL    HW118707   5.350   1.691   4.208
 6121SOL    HW218708   5.373   1.640   4.361
 6122SOL     OW18709   4.322   0.729   3.994
 6122SOL    HW118710   4.346   0.798   3.926
 6122SOL    HW218711   4.244   0.762   4.048
 6123SOL     OW18712   5.300   1.662   4.031
 6123SOL    HW118713   5.389   1.708   4.034
 6123SOL    HW218714   5.279   1.638   3.936
 6124SOL     OW18715   4.531   0.605   5.189
 6124SOL    HW118716   4.484   0.602   5.278
 6124SOL    HW218717   4.480   0.550   5.123
 6125SOL     OW18718   5.118   0.469   5.398
 6125SOL    HW118719   5.098   0.512   5.486
 6125SOL    HW218720   5.196   0.407   5.407
 6126SOL     OW18721   4.697   0.890   5.296
 6126SOL    HW118722   4.743   0.806   5.267
 6126SOL    HW218723   4.641   0.924   5.221
 6127SOL     OW18724   4.715   0.410   4.966
 6127SOL    HW118725   4.638   0.444   5.020
 6127SOL    HW218726   4.681   0.359   4.887
 6128SOL     OW18727   4.765   0.701   4.153
 6128SOL    HW118728   4.791   0.697   4.249
 6128SOL    HW218729   4.680   0.650   4.139
 6129SOL     OW18730   3.800   0.811   4.513
 6129SOL    HW118731   3.899   0.799   4.522
 6129SOL    HW218732   3.776   0.906   4.534
 6130SOL     OW18733   3.854   1.821   5.295
 6130SOL    HW118734   3.844   1.806   5.394
 6130SOL    HW218735   3.768   1.857   5.259
 6131SOL     OW18736   4.589   0.348   3.919
 6131SOL    HW118737   4.648   0.411   3.870
 6131SOL    HW218738   4.608   0.254   3.890
 6132SOL     OW18739   5.443   0.585   5.555
 6132SOL    HW118740   5.417   0.674   5.519
 6132SOL    HW218741   5.441   0.517   5.482
 6133SOL     OW18742   5.086   1.144   4.269
 6133SOL    HW118743   5.169   1.115   4.221
 6133SOL    HW218744   5.037   1.211   4.213
 6134SOL     OW18745   4.274   0.196   4.609
 6134SOL    HW118746   4.269   0.191   4.709
 6134SOL    HW218747   4.276   0.292   4.580
 6135SOL     OW18748   4.732   1.456   4.201
 6135SOL    HW118749   4.686   1.528   4.149
 6135SOL    HW218750   4.728   1.476   4.299
 6136SOL     OW18751   4.075   1.801   4.577
 6136SOL    HW118752   4.125   1.715   4.583
 6136SOL    HW218753   4.140   1.878   4.574
 6137SOL     OW18754   5.519   1.066   4.597
 6137SOL    HW118755   5.457   1.051   4.521
 6137SOL    HW218756   5.467   1.077   4.682
 6138SOL     OW18757   4.951   1.550   5.230
 6138SOL    HW118758   4.957   1.473   5.294
 6138SOL    HW218759   4.899   1.524   5.150
 6139SOL     OW18760   4.045   0.943   3.966
 6139SOL    HW118761   4.127   0.982   3.924
 6139SOL    HW218762   4.018   0.861   3.917
 6140SOL     OW18763   5.182   0.735   4.452
 6140SOL    HW118764   5.177   0.670   4.527
 6140SOL    HW218765   5.262   0.794   4.465
 6141SOL     OW18766   4.185   1.266   5.451
 6141SOL    HW118767   4.135   1.267   5.365
 6141SOL    HW218768   4.122   1.248   5.527
 6142SOL     OW18769   4.835   1.776   3.961
 6142SOL    HW118770   4.775   1.714   4.011
 6142SOL    HW218771   4.866   1.732   3.876
 6143SOL     OW18772   3.926   0.285   5.222
 6143SOL    HW118773   3.846   0.345   5.209
 6143SOL    HW218774   3.916   0.236   5.308
 6144SOL     OW18775   5.356   1.377   3.805
 6144SOL    HW118776   5.324   1.471   3.795
 6144SOL    HW218777   5.280   1.314   3.793
 6145SOL     OW18778   4.188   1.743   4.047
 6145SOL    HW118779   4.221   1.782   4.133
 6145SOL    HW218780   4.264   1.736   3.982
 6146SOL     OW18781   3.973   1.785   4.965
 6146SOL    HW118782   4.030   1.720   5.015
 6146SOL    HW218783   3.957   1.752   4.872
 6147SOL     OW18784   4.664   1.698   4.628
 6147SOL    HW118785   4.744   1.641   4.649
 6147SOL    HW218786   4.615   1.658   4.551
 6148SOL     OW18787   4.106   0.700   4.204
 6148SOL    HW118788   4.151   0.610   4.201
 6148SOL    HW218789   4.012   0.689   4.237
 6149SOL     OW18790   4.338   0.122   3.841
 6149SOL    HW118791   4.436   0.100   3.848
 6149SOL    HW218792   4.307   0.105   3.748
 6150SOL     OW18793   4.505   0.264   5.473
 6150SOL    HW118794   4.572   0.203   5.516
 6150SOL    HW218795   4.432   0.283   5.538
 6151SOL     OW18796   4.612   1.514   4.919
 6151SOL    HW118797   4.589   1.489   4.825
 6151SOL    HW218798   4.673   1.445   4.958
 6152SOL     OW18799   5.075   0.590   5.157
 6152SOL    HW118800   5.103   0.547   5.242
 6152SOL    HW218801   5.100   0.686   5.158
 6153SOL     OW18802   4.527   1.402   4.648
 6153SOL    HW118803   4.617   1.416   4.606
 6153SOL    HW218804   4.456   1.404   4.577
 6154SOL     OW18805   4.646   0.503   4.623
 6154SOL    HW118806   4.621   0.494   4.527
 6154SOL    HW218807   4.694   0.421   4.654
 6155SOL     OW18808   4.263   0.064   4.236
 6155SOL    HW118809   4.182   0.065   4.294
 6155SOL    HW218810   4.266   0.147   4.181
 6156SOL     OW18811   5.158   1.188   3.765
 6156SOL    HW118812   5.190   1.112   3.822
 6156SOL    HW218813   5.066   1.215   3.795
 6157SOL     OW18814   4.021   0.035   3.895
 6157SOL    HW118815   4.070   0.119   3.874
 6157SOL    HW218816   4.083  -0.030   3.940
 6158SOL     OW18817   4.659   0.236   4.204
 6158SOL    HW118818   4.611   0.277   4.126
 6158SOL    HW218819   4.758   0.234   4.185
 6159SOL     OW18820   4.800   0.683   5.188
 6159SOL    HW118821   4.720   0.622   5.191
 6159SOL    HW218822   4.881   0.630   5.164
 6160SOL     OW18823   4.951   1.570   4.517
 6160SOL    HW118824   4.972   1.644   4.452
 6160SOL    HW218825   5.019   1.570   4.590
 6161SOL     OW18826   4.183   1.152   4.465
 6161SOL    HW118827   4.112   1.125   4.530
 6161SOL    HW218828   4.157   1.124   4.372
 6162SOL     OW18829   4.995   1.797   4.315
 6162SOL    HW118830   5.039   1.861   4.251
 6162SOL    HW218831   4.945   1.849   4.385
 6163SOL     OW18832   4.756   0.549   3.740
 6163SOL    HW118833   4.715   0.631   3.701
 6163SOL    HW218834   4.820   0.575   3.813
 6164SOL     OW18835   3.802   0.556   5.110
 6164SOL    HW118836   3.894   0.555   5.069
 6164SOL    HW218837   3.796   0.630   5.177
 6165SOL     OW18838   4.285   0.222   4.871
 6165SOL    HW118839   4.323   0.138   4.908
 6165SOL    HW218840   4.197   0.241   4.915
 6166SOL     OW18841   4.590   0.454   4.366
 6166SOL    HW118842   4.558   0.526   4.304
 6166SOL    HW218843   4.614   0.373   4.313
 6167SOL     OW18844   4.741   0.039   4.477
 6167SOL    HW118845   4.669   0.044   4.408
 6167SOL    HW218846   4.717  -0.030   4.546
 6168SOL     OW18847   5.153   1.173   4.591
 6168SOL    HW118848   5.098   1.089   4.584
 6168SOL    HW218849   5.179   1.202   4.499
 6169SOL     OW18850   5.190   0.590   4.716
 6169SOL    HW118851   5.160   0.495   4.723
 6169SOL    HW218852   5.263   0.606   4.782
 6170SOL     OW18853   5.581   0.833   4.101
 6170SOL    HW118854   5.623   0.769   4.165
 6170SOL    HW218855   5.543   0.782   4.023
 6171SOL     OW18856   4.212   1.385   3.898
 6171SOL    HW118857   4.125   1.370   3.945
 6171SOL    HW218858   4.195   1.411   3.803
 6172SOL     OW18859   5.388   1.280   4.381
 6172SOL    HW118860   5.487   1.288   4.395
 6172SOL    HW218861   5.343   1.364   4.412
 6173SOL     OW18862   5.114   0.575   3.802
 6173SOL    HW118863   5.060   0.554   3.883
 6173SOL    HW218864   5.205   0.534   3.811
 6174SOL     OW18865   4.251   0.256   4.052
 6174SOL    HW118866   4.278   0.197   3.977
 6174SOL    HW218867   4.251   0.351   4.021
 6175SOL     OW18868   5.478   1.223   5.312
 6175SOL    HW118869   5.569   1.184   5.299
 6175SOL    HW218870   5.486   1.319   5.336
 6176SOL     OW18871   4.788   1.347   5.064
 6176SOL    HW118872   4.708   1.324   5.119
 6176SOL    HW218873   4.871   1.321   5.113
 6177SOL     OW18874   5.316   1.629   5.349
 6177SOL    HW118875   5.343   1.663   5.259
 6177SOL    HW218876   5.395   1.591   5.395
 6178SOL     OW18877   4.835   1.195   4.824
 6178SOL    HW118878   4.795   1.239   4.905
 6178SOL    HW218879   4.794   1.232   4.741
 6179SOL     OW18880   5.362   1.099   4.803
 6179SOL    HW118881   5.367   1.180   4.862
 6179SOL    HW218882   5.276   1.101   4.752
 6180SOL     OW18883   4.639   0.089   5.126
 6180SOL    HW118884   4.664   0.069   5.031
 6180SOL    HW218885   4.711   0.145   5.168
 6181SOL     OW18886   4.704   1.116   5.443
 6181SOL    HW118887   4.605   1.122   5.453
 6181SOL    HW218888   4.727   1.036   5.387
 6182SOL     OW18889   4.429   1.050   4.092
 6182SOL    HW118890   4.415   1.057   4.191
 6182SOL    HW218891   4.513   0.999   4.074
 6183SOL     OW18892   4.134   0.813   4.975
 6183SOL    HW118893   4.220   0.825   5.025
 6183SOL    HW218894   4.092   0.726   5.002
 6184SOL     OW18895   4.998   0.386   4.986
 6184SOL    HW118896   5.019   0.460   5.050
 6184SOL    HW218897   4.909   0.403   4.943
 6185SOL     OW18898   3.788   1.564   5.055
 6185SOL    HW118899   3.742   1.646   5.021
 6185SOL    HW218900   3.886   1.583   5.064
 6186SOL     OW18901   4.091   1.100   4.225
 6186SOL    HW118902   4.084   1.183   4.169
 6186SOL    HW218903   4.095   1.020   4.165
 6187SOL     OW18904   4.290   0.537   4.589
 6187SOL    HW118905   4.302   0.603   4.515
 6187SOL    HW218906   4.336   0.571   4.672
 6188SOL     OW18907   4.976   1.348   4.112
 6188SOL    HW118908   5.026   1.425   4.152
 6188SOL    HW218909   4.881   1.350   4.144
 6189SOL     OW18910   4.996   1.445   4.866
 6189SOL    HW118911   5.043   1.458   4.953
 6189SOL    HW218912   4.930   1.371   4.875
 6190SOL     OW18913   5.306   0.639   4.196
 6190SOL    HW118914   5.275   0.700   4.269
 6190SOL    HW218915   5.356   0.691   4.127
 6191SOL     OW18916   4.078   1.510   5.053
 6191SOL    HW118917   4.057   1.466   4.966
 6191SOL    HW218918   4.175   1.536   5.056
 6192SOL     OW18919   4.126   0.751   5.322
 6192SOL    HW118920   4.194   0.806   5.275
 6192SOL    HW218921   4.166   0.663   5.349
 6193SOL     OW18922   5.311   0.779   5.394
 6193SOL    HW118923   5.219   0.817   5.389
 6193SOL    HW218924   5.371   0.826   5.329
 6194SOL     OW18925   4.737   0.105   5.494
 6194SOL    HW118926   4.743   0.190   5.442
 6194SOL    HW218927   4.769   0.029   5.437
 6195SOL     OW18928   4.228   0.050   5.464
 6195SOL    HW118929   4.186  -0.007   5.394
 6195SOL    HW218930   4.162   0.119   5.496
 6196SOL     OW18931   4.297   0.870   4.753
 6196SOL    HW118932   4.341   0.959   4.744
 6196SOL    HW218933   4.234   0.870   4.830
 6197SOL     OW18934   5.084   0.862   4.769
 6197SOL    HW118935   5.009   0.862   4.703
 6197SOL    HW218936   5.121   0.770   4.778
 6198SOL     OW18937   4.933   0.525   3.999
 6198SOL    HW118938   4.946   0.441   4.053
 6198SOL    HW218939   4.904   0.599   4.059
 6199SOL     OW18940   4.031   0.213   4.955
 6199SOL    HW118941   4.008   0.250   5.045
 6199SOL    HW218942   4.001   0.118   4.949
 6200SOL     OW18943   3.761   1.310   5.006
 6200SOL    HW118944   3.814   1.261   5.074
 6200SOL    HW218945   3.783   1.408   5.011
 6201SOL     OW18946   4.456   0.634   4.788
 6201SOL    HW118947   4.515   0.608   4.712
 6201SOL    HW218948   4.428   0.730   4.777
 6202SOL     OW18949   5.452   0.935   5.578
 6202SOL    HW118950   5.406   0.928   5.489
 6202SOL    HW218951   5.390   0.979   5.644
 6203SOL     OW18952   4.031   0.063   4.342
 6203SOL    HW118953   4.020   0.157   4.375
 6203SOL    HW218954   4.026   0.000   4.419
 6204SOL     OW18955   4.747   0.766   4.690
 6204SOL    HW118956   4.762   0.787   4.786
 6204SOL    HW218957   4.717   0.671   4.681
 6205SOL     OW18958   4.704   1.573   5.424
 6205SOL    HW118959   4.684   1.617   5.336
 6205SOL    HW218960   4.743   1.482   5.408
 6206SOL     OW18961   5.583   1.518   5.329
 6206SOL    HW118962   5.597   1.545   5.234
 6206SOL    HW218963   5.666   1.540   5.382
 6207SOL     OW18964   4.074   0.898   5.528
 6207SOL    HW118965   4.150   0.942   5.576
 6207SOL    HW218966   4.109   0.851   5.446
 6208SOL     OW18967   5.027   0.838   3.766
 6208SOL    HW118968   5.061   0.745   3.781
 6208SOL    HW218969   5.045   0.865   3.671
 6209SOL     OW18970   4.792   1.333   4.573
 6209SOL    HW118971   4.799   1.249   4.518
 6209SOL    HW218972   4.854   1.402   4.537
 6210SOL     OW18973   4.043   0.810   4.673
 6210SOL    HW118974   4.136   0.846   4.678
 6210SOL    HW218975   4.037   0.725   4.725
 6211SOL     OW18976   4.063   0.509   4.730
 6211SOL    HW118977   4.011   0.426   4.713
 6211SOL    HW218978   4.140   0.514   4.666
 6212SOL     OW18979   4.862   0.380   5.402
 6212SOL    HW118980   4.817   0.443   5.466
 6212SOL    HW218981   4.955   0.411   5.385
 6213SOL     OW18982   4.884   0.207   5.201
 6213SOL    HW118983   4.884   0.271   5.278
 6213SOL    HW218984   4.912   0.255   5.118
 6214SOL     OW18985   3.732   1.326   3.924
 6214SOL    HW118986   3.639   1.347   3.893
 6214SOL    HW218987   3.742   1.227   3.937
 6215SOL     OW18988   3.812   1.801   4.651
 6215SOL    HW118989   3.770   1.715   4.624
 6215SOL    HW218990   3.906   1.804   4.617
 6216SOL     OW18991   4.228   1.568   4.634
 6216SOL    HW118992   4.294   1.642   4.643
 6216SOL    HW218993   4.272   1.489   4.592
 6217SOL     OW18994   4.726   0.796   4.962
 6217SOL    HW118995   4.767   0.764   5.048
 6217SOL    HW218996   4.630   0.769   4.959
 6218SOL     OW18997   3.764   0.544   4.838
 6218SOL    HW118998   3.849   0.511   4.797
 6218SOL    HW218999   3.777   0.559   4.936
 6219SOL     OW19000   3.913   0.520   5.446
 6219SOL    HW119001   3.972   0.480   5.376
 6219SOL    HW219002   3.855   0.591   5.405
 6220SOL     OW19003   5.093   0.950   5.384
 6220SOL    HW119004   5.132   1.039   5.404
 6220SOL    HW219005   5.103   0.930   5.287
 6221SOL     OW19006   4.539   0.572   4.049
 6221SOL    HW119007   4.546   0.483   4.003
 6221SOL    HW219008   4.445   0.606   4.041
 6222SOL     OW19009   5.381   0.604   4.930
 6222SOL    HW119010   5.343   0.535   4.992
 6222SOL    HW219011   5.463   0.568   4.886
 6223SOL     OW19012   3.976   1.564   5.468
 6223SOL    HW119013   3.946   1.621   5.544
 6223SOL    HW219014   3.969   1.467   5.494
 6224SOL     OW19015   4.395   0.464   4.993
 6224SOL    HW119016   4.361   0.375   4.963
 6224SOL    HW219017   4.421   0.518   4.913
 6225SOL     OW19018   4.654   1.678   5.189
 6225SOL    HW119019   4.630   1.660   5.094
 6225SOL    HW219020   4.684   1.772   5.199
 6226SOL     OW19021   4.197   0.500   3.915
 6226SOL    HW119022   4.258   0.580   3.919
 6226SOL    HW219023   4.102   0.531   3.922
 6227SOL     OW19024   3.883   1.137   5.190
 6227SOL    HW119025   3.905   1.076   5.266
 6227SOL    HW219026   3.893   1.088   5.104
 6228SOL     OW19027   5.071   1.059   4.958
 6228SOL    HW119028   5.095   0.996   4.884
 6228SOL    HW219029   4.981   1.099   4.940
 6229SOL     OW19030   5.026   0.855   4.033
 6229SOL    HW119031   4.940   0.824   4.075
 6229SOL    HW219032   5.022   0.841   3.934
 6230SOL     OW19033   5.483   1.747   4.878
 6230SOL    HW119034   5.544   1.777   4.805
 6230SOL    HW219035   5.445   1.658   4.856
 6231SOL     OW19036   4.976   1.731   4.852
 6231SOL    HW119037   5.060   1.736   4.798
 6231SOL    HW219038   4.953   1.635   4.870
 6232SOL     OW19039   3.807   1.258   4.746
 6232SOL    HW119040   3.802   1.257   4.846
 6232SOL    HW219041   3.724   1.217   4.708
 6233SOL     OW19042   4.412   1.662   5.440
 6233SOL    HW119043   4.356   1.743   5.449
 6233SOL    HW219044   4.464   1.666   5.354
 6234SOL     OW19045   5.112   1.573   4.201
 6234SOL    HW119046   5.179   1.585   4.127
 6234SOL    HW219047   5.072   1.662   4.224
 6235SOL     OW19048   3.854   1.794   5.575
 6235SOL    HW119049   3.813   1.720   5.628
 6235SOL    HW219050   3.918   1.845   5.633
 6236SOL     OW19051   5.004   0.927   4.396
 6236SOL    HW119052   5.064   0.846   4.398
 6236SOL    HW219053   5.044   0.996   4.336
 6237SOL     OW19054   4.554   1.273   5.146
 6237SOL    HW119055   4.549   1.306   5.241
 6237SOL    HW219056   4.468   1.292   5.100
 6238SOL     OW19057   4.396   1.616   3.878
 6238SOL    HW119058   4.405   1.626   3.779
 6238SOL    HW219059   4.356   1.527   3.899
 6239SOL     OW19060   5.374   1.720   5.118
 6239SOL    HW119061   5.427   1.730   5.034
 6239SOL    HW219062   5.347   1.810   5.152
 6240SOL     OW19063   3.987   0.326   4.444
 6240SOL    HW119064   3.908   0.377   4.410
 6240SOL    HW219065   3.978   0.311   4.542
 6241SOL     OW19066   4.918   1.612   3.755
 6241SOL    HW119067   4.924   1.519   3.792
 6241SOL    HW219068   4.859   1.612   3.675
 6242SOL     OW19069   4.546   1.002   5.096
 6242SOL    HW119070   4.586   1.001   5.004
 6242SOL    HW219071   4.556   1.094   5.136
 6243SOL     OW19072   4.640   0.910   4.015
 6243SOL    HW119073   4.703   0.948   3.947
 6243SOL    HW219074   4.680   0.827   4.054
 6244SOL     OW19075   5.228   1.607   3.768
 6244SOL    HW119076   5.136   1.644   3.775
 6244SOL    HW219077   5.266   1.627   3.678
 6245SOL     OW19078   4.096   1.288   5.214
 6245SOL    HW119079   4.083   1.381   5.180
 6245SOL    HW219080   4.012   1.236   5.201
 6246SOL     OW19081   5.338   1.292   5.013
 6246SOL    HW119082   5.398   1.295   5.093
 6246SOL    HW219083   5.263   1.356   5.026
 6247SOL     OW19084   4.763   1.098   4.420
 6247SOL    HW119085   4.693   1.051   4.474
 6247SOL    HW219086   4.822   1.030   4.377
 6248SOL     OW19087   4.738   0.236   4.695
 6248SOL    HW119088   4.730   0.200   4.602
 6248SOL    HW219089   4.736   0.160   4.760
 6249SOL     OW19090   4.314   1.487   4.215
 6249SOL    HW119091   4.356   1.429   4.145
 6249SOL    HW219092   4.270   1.566   4.171
 6250SOL     OW19093   5.433   0.385   5.105
 6250SOL    HW119094   5.506   0.454   5.109
 6250SOL    HW219095   5.461   0.310   5.046
 6251SOL     OW19096   3.979   1.348   4.014
 6251SOL    HW119097   3.883   1.349   3.987
 6251SOL    HW219098   3.991   1.401   4.098
 6252SOL     OW19099   3.829   1.013   5.450
 6252SOL    HW119100   3.752   0.980   5.504
 6252SOL    HW219101   3.914   0.983   5.492
 6253SOL     OW19102   4.396   0.203   5.213
 6253SOL    HW119103   4.486   0.187   5.173
 6253SOL    HW219104   4.404   0.208   5.312
 6254SOL     OW19105   3.799   0.345   3.757
 6254SOL    HW119106   3.707   0.317   3.728
 6254SOL    HW219107   3.830   0.422   3.701
 6255SOL     OW19108   5.164   0.856   5.122
 6255SOL    HW119109   5.107   0.908   5.059
 6255SOL    HW219110   5.260   0.868   5.098
 6256SOL     OW19111   3.796   0.166   4.042
 6256SOL    HW119112   3.779   0.249   3.988
 6256SOL    HW219113   3.886   0.129   4.020
 6257SOL     OW19114   4.907   1.335   3.843
 6257SOL    HW119115   4.808   1.324   3.845
 6257SOL    HW219116   4.941   1.350   3.936
 6258SOL     OW19117   4.337   0.842   5.155
 6258SOL    HW119118   4.393   0.923   5.138
 6258SOL    HW219119   4.396   0.762   5.158
 6259SOL     OW19120   5.217   1.767   4.683
 6259SOL    HW119121   5.250   1.831   4.614
 6259SOL    HW219122   5.283   1.761   4.758
 6260SOL     OW19123   4.440   0.565   5.432
 6260SOL    HW119124   4.459   0.630   5.506
 6260SOL    HW219125   4.500   0.485   5.441
 6261SOL     OW19126   5.174   1.220   5.357
 6261SOL    HW119127   5.165   1.210   5.456
 6261SOL    HW219128   5.270   1.213   5.331
 6262SOL     OW19129   4.114   1.741   5.284
 6262SOL    HW119130   4.023   1.782   5.282
 6262SOL    HW219131   4.107   1.647   5.316
 6263SOL     OW19132   5.398   0.883   4.978
 6263SOL    HW119133   5.371   0.794   4.941
 6263SOL    HW219134   5.399   0.951   4.905
 6264SOL     OW19135   4.949   0.325   4.173
 6264SOL    HW119136   5.014   0.251   4.162
 6264SOL    HW219137   4.969   0.375   4.257
 6265SOL     OW19138   4.318   0.745   4.376
 6265SOL    HW119139   4.368   0.830   4.357
 6265SOL    HW219140   4.230   0.747   4.328
 6266SOL     OW19141   5.501   0.342   5.366
 6266SOL    HW119142   5.484   0.373   5.272
 6266SOL    HW219143   5.417   0.305   5.404
 6267SOL     OW19144   5.454   0.934   5.241
 6267SOL    HW119145   5.492   1.025   5.256
 6267SOL    HW219146   5.446   0.917   5.142
 6268SOL     OW19147   4.583   1.374   3.740
 6268SOL    HW119148   4.537   1.389   3.828
 6268SOL    HW219149   4.627   1.459   3.710
 6269SOL     OW19150   4.385   1.790   4.677
 6269SOL    HW119151   4.339   1.878   4.664
 6269SOL    HW219152   4.484   1.802   4.670
 6270SOL     OW19153   4.583   0.956   4.585
 6270SOL    HW119154   4.637   0.887   4.633
 6270SOL    HW219155   4.551   1.025   4.651
 6271SOL     OW19156   4.807   0.984   3.811
 6271SOL    HW119157   4.784   1.037   3.729
 6271SOL    HW219158   4.888   0.928   3.792
 6272SOL     OW19159   5.585   1.569   4.575
 6272SOL    HW119160   5.514   1.557   4.505
 6272SOL    HW219161   5.586   1.490   4.635
 6273SOL     OW19162   3.945   1.314   5.568
 6273SOL    HW119163   3.880   1.241   5.547
 6273SOL    HW219164   3.949   1.328   5.666
 6274SOL     OW19165   3.803   1.240   4.377
 6274SOL    HW119166   3.802   1.193   4.465
 6274SOL    HW219167   3.885   1.212   4.326
 6275SOL     OW19168   4.396   1.391   5.348
 6275SOL    HW119169   4.318   1.341   5.386
 6275SOL    HW219170   4.393   1.486   5.379
 6276SOL     OW19171   5.548   0.192   4.951
 6276SOL    HW119172   5.544   0.102   4.995
 6276SOL    HW219173   5.551   0.181   4.852
 6277SOL     OW19174   4.152   0.424   4.244
 6277SOL    HW119175   4.182   0.352   4.182
 6277SOL    HW219176   4.113   0.384   4.327
 6278SOL     OW19177   5.429   1.487   4.828
 6278SOL    HW119178   5.336   1.462   4.801
 6278SOL    HW219179   5.455   1.437   4.910
 6279SOL     OW19180   4.041   0.547   5.004
 6279SOL    HW119181   4.079   0.488   5.076
 6279SOL    HW219182   4.081   0.521   4.916
 6280SOL     OW19183   4.536   1.586   4.411
 6280SOL    HW119184   4.568   1.596   4.317
 6280SOL    HW219185   4.457   1.524   4.413
 6281SOL     OW19186   4.725   0.034   4.878
 6281SOL    HW119187   4.662  -0.038   4.847
 6281SOL    HW219188   4.818  -0.002   4.878
 6282SOL     OW19189   4.494   1.330   4.025
 6282SOL    HW119190   4.448   1.243   4.042
 6282SOL    HW219191   4.585   1.327   4.066
 6283SOL     OW19192   4.342   1.567   5.008
 6283SOL    HW119193   4.337   1.649   5.065
 6283SOL    HW219194   4.431   1.564   4.963
 6284SOL     OW19195   5.024   0.453   4.415
 6284SOL    HW119196   4.965   0.533   4.419
 6284SOL    HW219197   5.039   0.418   4.508
 6285SOL     OW19198   3.763   1.077   4.024
 6285SOL    HW119199   3.862   1.066   4.015
 6285SOL    HW219200   3.723   0.991   4.056
 6286SOL     OW19201   4.599   1.646   4.061
 6286SOL    HW119202   4.522   1.611   4.007
 6286SOL    HW219203   4.567   1.717   4.123
 6287SOL     OW19204   3.954   0.628   5.699
 6287SOL    HW119205   3.861   0.626   5.736
 6287SOL    HW219206   3.955   0.589   5.607
 6288SOL     OW19207   3.743   0.368   6.233
 6288SOL    HW119208   3.661   0.411   6.272
 6288SOL    HW219209   3.715   0.295   6.170
 6289SOL     OW19210   5.479   0.607   5.817
 6289SOL    HW119211   5.467   0.594   5.718
 6289SOL    HW219212   5.449   0.526   5.866
 6290SOL     OW19213   4.409   1.012   6.251
 6290SOL    HW119214   4.478   0.996   6.321
 6290SOL    HW219215   4.336   1.069   6.289
 6291SOL     OW19216   4.330   0.964   5.709
 6291SOL    HW119217   4.337   1.048   5.655
 6291SOL    HW219218   4.376   0.977   5.797
 6292SOL     OW19219   5.566   1.767   5.945
 6292SOL    HW119220   5.620   1.738   6.025
 6292SOL    HW219221   5.596   1.857   5.916
 6293SOL     OW19222   3.751   1.596   5.703
 6293SOL    HW119223   3.732   1.500   5.724
 6293SOL    HW219224   3.718   1.654   5.778
 6294SOL     OW19225   5.413   0.922   6.198
 6294SOL    HW119226   5.508   0.893   6.206
 6294SOL    HW219227   5.405   0.987   6.123
 6295SOL     OW19228   5.365   1.108   6.018
 6295SOL    HW119229   5.451   1.110   5.966
 6295SOL    HW219230   5.379   1.155   6.106
 6296SOL     OW19231   4.533   0.004   6.088
 6296SOL    HW119232   4.573   0.095   6.079
 6296SOL    HW219233   4.433   0.012   6.094
 6297SOL     OW19234   5.249   0.999   5.776
 6297SOL    HW119235   5.186   0.923   5.789
 6297SOL    HW219236   5.297   1.017   5.862
 6298SOL     OW19237   4.322   0.729   5.856
 6298SOL    HW119238   4.346   0.798   5.788
 6298SOL    HW219239   4.244   0.762   5.910
 6299SOL     OW19240   5.300   1.662   5.893
 6299SOL    HW119241   5.389   1.708   5.896
 6299SOL    HW219242   5.279   1.638   5.798
 6300SOL     OW19243   4.765   0.701   6.015
 6300SOL    HW119244   4.791   0.697   6.111
 6300SOL    HW219245   4.680   0.650   6.001
 6301SOL     OW19246   4.589   0.348   5.781
 6301SOL    HW119247   4.648   0.411   5.732
 6301SOL    HW219248   4.608   0.254   5.752
 6302SOL     OW19249   5.086   1.144   6.131
 6302SOL    HW119250   5.169   1.115   6.083
 6302SOL    HW219251   5.037   1.211   6.075
 6303SOL     OW19252   4.732   1.456   6.063
 6303SOL    HW119253   4.686   1.528   6.011
 6303SOL    HW219254   4.728   1.476   6.161
 6304SOL     OW19255   4.045   0.943   5.828
 6304SOL    HW119256   4.127   0.982   5.786
 6304SOL    HW219257   4.018   0.861   5.779
 6305SOL     OW19258   4.835   1.776   5.823
 6305SOL    HW119259   4.775   1.714   5.873
 6305SOL    HW219260   4.866   1.732   5.738
 6306SOL     OW19261   5.356   1.377   5.667
 6306SOL    HW119262   5.324   1.471   5.657
 6306SOL    HW219263   5.280   1.314   5.655
 6307SOL     OW19264   4.188   1.743   5.909
 6307SOL    HW119265   4.221   1.782   5.995
 6307SOL    HW219266   4.264   1.736   5.844
 6308SOL     OW19267   4.664   1.698   6.490
 6308SOL    HW119268   4.744   1.641   6.511
 6308SOL    HW219269   4.615   1.658   6.413
 6309SOL     OW19270   4.106   0.700   6.066
 6309SOL    HW119271   4.151   0.610   6.063
 6309SOL    HW219272   4.012   0.689   6.099
 6310SOL     OW19273   4.338   0.122   5.703
 6310SOL    HW119274   4.436   0.100   5.710
 6310SOL    HW219275   4.307   0.105   5.610
 6311SOL     OW19276   4.646   0.503   6.485
 6311SOL    HW119277   4.621   0.494   6.389
 6311SOL    HW219278   4.694   0.421   6.516
 6312SOL     OW19279   4.263   0.064   6.098
 6312SOL    HW119280   4.182   0.065   6.156
 6312SOL    HW219281   4.266   0.147   6.043
 6313SOL     OW19282   5.158   1.188   5.627
 6313SOL    HW119283   5.190   1.112   5.684
 6313SOL    HW219284   5.066   1.215   5.657
 6314SOL     OW19285   4.021   0.035   5.757
 6314SOL    HW119286   4.070   0.119   5.736
 6314SOL    HW219287   4.083  -0.030   5.802
 6315SOL     OW19288   4.659   0.236   6.066
 6315SOL    HW119289   4.611   0.277   5.988
 6315SOL    HW219290   4.758   0.234   6.047
 6316SOL     OW19291   4.756   0.549   5.602
 6316SOL    HW119292   4.715   0.631   5.563
 6316SOL    HW219293   4.820   0.575   5.675
 6317SOL     OW19294   5.581   0.833   5.963
 6317SOL    HW119295   5.623   0.769   6.027
 6317SOL    HW219296   5.543   0.782   5.885
 6318SOL     OW19297   4.212   1.385   5.760
 6318SOL    HW119298   4.125   1.370   5.807
 6318SOL    HW219299   4.195   1.411   5.665
 6319SOL     OW19300   5.114   0.575   5.664
 6319SOL    HW119301   5.060   0.554   5.745
 6319SOL    HW219302   5.205   0.534   5.673
 6320SOL     OW19303   4.251   0.256   5.914
 6320SOL    HW119304   4.278   0.197   5.839
 6320SOL    HW219305   4.251   0.351   5.883
 6321SOL     OW19306   4.429   1.050   5.954
 6321SOL    HW119307   4.415   1.057   6.053
 6321SOL    HW219308   4.513   0.999   5.936
 6322SOL     OW19309   4.091   1.100   6.087
 6322SOL    HW119310   4.084   1.183   6.031
 6322SOL    HW219311   4.095   1.020   6.027
 6323SOL     OW19312   4.976   1.348   5.974
 6323SOL    HW119313   5.026   1.425   6.014
 6323SOL    HW219314   4.881   1.350   6.006
 6324SOL     OW19315   5.306   0.639   6.058
 6324SOL    HW119316   5.275   0.700   6.131
 6324SOL    HW219317   5.356   0.691   5.989
 6325SOL     OW19318   4.933   0.525   5.861
 6325SOL    HW119319   4.946   0.441   5.915
 6325SOL    HW219320   4.904   0.599   5.921
 6326SOL     OW19321   5.027   0.838   5.628
 6326SOL    HW119322   5.061   0.745   5.643
 6326SOL    HW219323   5.045   0.865   5.533
 6327SOL     OW19324   3.732   1.326   5.786
 6327SOL    HW119325   3.639   1.347   5.755
 6327SOL    HW219326   3.742   1.227   5.799
 6328SOL     OW19327   4.539   0.572   5.911
 6328SOL    HW119328   4.546   0.483   5.865
 6328SOL    HW219329   4.445   0.606   5.903
 6329SOL     OW19330   4.197   0.500   5.777
 6329SOL    HW119331   4.258   0.580   5.781
 6329SOL    HW219332   4.102   0.531   5.784
 6330SOL     OW19333   5.026   0.855   5.895
 6330SOL    HW119334   4.940   0.824   5.937
 6330SOL    HW219335   5.022   0.841   5.796
 6331SOL     OW19336   5.112   1.573   6.063
 6331SOL    HW119337   5.179   1.585   5.989
 6331SOL    HW219338   5.072   1.662   6.086
 6332SOL     OW19339   5.004   0.927   6.258
 6332SOL    HW119340   5.064   0.846   6.260
 6332SOL    HW219341   5.044   0.996   6.198
 6333SOL     OW19342   4.396   1.616   5.740
 6333SOL    HW119343   4.405   1.626   5.641
 6333SOL    HW219344   4.356   1.527   5.761
 6334SOL     OW19345   4.918   1.612   5.617
 6334SOL    HW119346   4.924   1.519   5.654
 6334SOL    HW219347   4.859   1.612   5.537
 6335SOL     OW19348   4.640   0.910   5.877
 6335SOL    HW119349   4.703   0.948   5.809
 6335SOL    HW219350   4.680   0.827   5.916
 6336SOL     OW19351   5.228   1.607   5.630
 6336SOL    HW119352   5.136   1.644   5.637
 6336SOL    HW219353   5.266   1.627   5.540
 6337SOL     OW19354   4.314   1.487   6.077
 6337SOL    HW119355   4.356   1.429   6.007
 6337SOL    HW219356   4.270   1.566   6.033
 6338SOL     OW19357   3.979   1.348   5.876
 6338SOL    HW119358   3.883   1.349   5.849
 6338SOL    HW219359   3.991   1.401   5.960
 6339SOL     OW19360   3.799   0.345   5.619
 6339SOL    HW119361   3.707   0.317   5.590
 6339SOL    HW219362   3.830   0.422   5.563
 6340SOL     OW19363   3.796   0.166   5.904
 6340SOL    HW119364   3.779   0.249   5.850
 6340SOL    HW219365   3.886   0.129   5.882
 6341SOL     OW19366   4.907   1.335   5.705
 6341SOL    HW119367   4.808   1.324   5.707
 6341SOL    HW219368   4.941   1.350   5.798
 6342SOL     OW19369   4.949   0.325   6.035
 6342SOL    HW119370   5.014   0.251   6.024
 6342SOL    HW219371   4.969   0.375   6.119
 6343SOL     OW19372   4.583   1.374   5.602
 6343SOL    HW119373   4.537   1.389   5.690
 6343SOL    HW219374   4.627   1.459   5.572
 6344SOL     OW19375   4.807   0.984   5.673
 6344SOL    HW119376   4.784   1.037   5.591
 6344SOL    HW219377   4.888   0.928   5.654
 6345SOL     OW19378   4.152   0.424   6.106
 6345SOL    HW119379   4.182   0.352   6.044
 6345SOL    HW219380   4.113   0.384   6.189
 6346SOL     OW19381   4.536   1.586   6.273
 6346SOL    HW119382   4.568   1.596   6.179
 6346SOL    HW219383   4.457   1.524   6.275
 6347SOL     OW19384   4.494   1.330   5.887
 6347SOL    HW119385   4.448   1.243   5.904
 6347SOL    HW219386   4.585   1.327   5.928
 6348SOL     OW19387   5.024   0.453   6.277
 6348SOL    HW119388   4.965   0.533   6.281
 6348SOL    HW219389   5.039   0.418   6.370
 6349SOL     OW19390   3.763   1.077   5.886
 6349SOL    HW119391   3.862   1.066   5.877
 6349SOL    HW219392   3.723   0.991   5.918
 6350SOL     OW19393   4.599   1.646   5.923
 6350SOL    HW119394   4.522   1.611   5.869
 6350SOL    HW219395   4.567   1.717   5.985
 6351SOL     OW19396   3.949   2.137   0.996
 6351SOL    HW119397   3.984   2.120   1.088
 6351SOL    HW219398   3.861   2.092   0.984
 6352SOL     OW19399   3.743   2.230   0.647
 6352SOL    HW119400   3.661   2.273   0.686
 6352SOL    HW219401   3.715   2.157   0.584
 6353SOL     OW19402   4.293   3.137   1.165
 6353SOL    HW119403   4.200   3.130   1.128
 6353SOL    HW219404   4.304   3.226   1.209
 6354SOL     OW19405   5.279   3.373   0.703
 6354SOL    HW119406   5.222   3.357   0.784
 6354SOL    HW219407   5.220   3.383   0.623
 6355SOL     OW19408   4.859   2.565   0.717
 6355SOL    HW119409   4.916   2.643   0.692
 6355SOL    HW219410   4.799   2.591   0.793
 6356SOL     OW19411   4.492   3.006   1.023
 6356SOL    HW119412   4.414   3.023   1.083
 6356SOL    HW219413   4.526   3.093   0.987
 6357SOL     OW19414   4.574   2.660   1.823
 6357SOL    HW119415   4.570   2.736   1.888
 6357SOL    HW219416   4.596   2.696   1.732
 6358SOL     OW19417   4.409   2.874   0.665
 6358SOL    HW119418   4.478   2.858   0.735
 6358SOL    HW219419   4.336   2.931   0.703
 6359SOL     OW19420   4.410   3.023   1.803
 6359SOL    HW119421   4.470   3.102   1.817
 6359SOL    HW219422   4.324   3.054   1.762
 6360SOL     OW19423   4.059   3.297   1.061
 6360SOL    HW119424   3.981   3.266   1.008
 6360SOL    HW219425   4.117   3.355   1.004
 6361SOL     OW19426   5.184   3.367   1.339
 6361SOL    HW119427   5.208   3.461   1.365
 6361SOL    HW219428   5.168   3.313   1.421
 6362SOL     OW19429   4.162   2.254   1.499
 6362SOL    HW119430   4.244   2.198   1.508
 6362SOL    HW219431   4.081   2.196   1.503
 6363SOL     OW19432   5.327   2.309   0.737
 6363SOL    HW119433   5.253   2.355   0.687
 6363SOL    HW219434   5.378   2.377   0.790
 6364SOL     OW19435   3.955   3.575   0.483
 6364SOL    HW119436   3.989   3.652   0.537
 6364SOL    HW219437   3.999   3.575   0.393
 6365SOL     OW19438   4.851   3.203   1.690
 6365SOL    HW119439   4.898   3.203   1.778
 6365SOL    HW219440   4.803   3.116   1.679
 6366SOL     OW19441   3.954   3.296   0.538
 6366SOL    HW119442   3.928   3.392   0.538
 6366SOL    HW219443   3.883   3.242   0.583
 6367SOL     OW19444   3.964   2.953   0.886
 6367SOL    HW119445   3.978   2.869   0.938
 6367SOL    HW219446   3.909   3.017   0.941
 6368SOL     OW19447   4.344   3.648   1.439
 6368SOL    HW119448   4.252   3.631   1.474
 6368SOL    HW219449   4.372   3.740   1.465
 6369SOL     OW19450   5.318   1.976   1.480
 6369SOL    HW119451   5.300   2.043   1.408
 6369SOL    HW219452   5.315   2.022   1.569
 6370SOL     OW19453   3.846   2.505   0.563
 6370SOL    HW119454   3.801   2.417   0.580
 6370SOL    HW219455   3.845   2.559   0.647
 6371SOL     OW19456   5.413   2.784   0.612
 6371SOL    HW119457   5.508   2.755   0.620
 6371SOL    HW219458   5.405   2.849   0.537
 6372SOL     OW19459   5.365   2.970   0.432
 6372SOL    HW119460   5.451   2.972   0.380
 6372SOL    HW219461   5.379   3.017   0.520
 6373SOL     OW19462   3.837   2.599   1.597
 6373SOL    HW119463   3.925   2.586   1.642
 6373SOL    HW219464   3.824   2.696   1.575
 6374SOL     OW19465   4.337   3.227   0.726
 6374SOL    HW119466   4.288   3.140   0.735
 6374SOL    HW219467   4.314   3.270   0.639
 6375SOL     OW19468   5.017   3.090   1.423
 6375SOL    HW119469   5.054   3.017   1.365
 6375SOL    HW219470   5.069   3.095   1.508
 6376SOL     OW19471   4.533   1.866   0.502
 6376SOL    HW119472   4.573   1.957   0.493
 6376SOL    HW219473   4.433   1.874   0.508
 6377SOL     OW19474   3.921   2.838   1.264
 6377SOL    HW119475   4.010   2.793   1.250
 6377SOL    HW219476   3.848   2.773   1.245
 6378SOL     OW19477   4.911   3.654   1.616
 6378SOL    HW119478   4.935   3.714   1.540
 6378SOL    HW219479   4.918   3.559   1.586
 6379SOL     OW19480   4.041   2.113   1.801
 6379SOL    HW119481   4.112   2.184   1.807
 6379SOL    HW219482   3.953   2.152   1.829
 6380SOL     OW19483   5.190   3.279   0.953
 6380SOL    HW119484   5.131   3.285   1.033
 6380SOL    HW219485   5.175   3.191   0.907
 6381SOL     OW19486   5.391   3.576   0.572
 6381SOL    HW119487   5.350   3.553   0.484
 6381SOL    HW219488   5.373   3.502   0.637
 6382SOL     OW19489   4.322   2.591   0.270
 6382SOL    HW119490   4.346   2.660   0.202
 6382SOL    HW219491   4.244   2.624   0.324
 6383SOL     OW19492   5.005   2.207   0.944
 6383SOL    HW119493   4.919   2.157   0.931
 6383SOL    HW219494   5.067   2.153   1.000
 6384SOL     OW19495   4.531   2.467   1.465
 6384SOL    HW119496   4.484   2.464   1.554
 6384SOL    HW219497   4.480   2.412   1.399
 6385SOL     OW19498   5.118   2.331   1.674
 6385SOL    HW119499   5.098   2.374   1.762
 6385SOL    HW219500   5.196   2.269   1.683
 6386SOL     OW19501   4.697   2.752   1.572
 6386SOL    HW119502   4.743   2.668   1.543
 6386SOL    HW219503   4.641   2.786   1.497
 6387SOL     OW19504   4.715   2.272   1.242
 6387SOL    HW119505   4.638   2.306   1.296
 6387SOL    HW219506   4.681   2.221   1.163
 6388SOL     OW19507   4.765   2.563   0.429
 6388SOL    HW119508   4.791   2.559   0.525
 6388SOL    HW219509   4.680   2.512   0.415
 6389SOL     OW19510   3.800   2.673   0.789
 6389SOL    HW119511   3.899   2.661   0.798
 6389SOL    HW219512   3.776   2.768   0.810
 6390SOL     OW19513   3.854   3.683   1.571
 6390SOL    HW119514   3.844   3.668   1.670
 6390SOL    HW219515   3.768   3.719   1.535
 6391SOL     OW19516   5.443   2.447   1.831
 6391SOL    HW119517   5.417   2.536   1.795
 6391SOL    HW219518   5.441   2.379   1.758
 6392SOL     OW19519   5.086   3.006   0.545
 6392SOL    HW119520   5.169   2.977   0.497
 6392SOL    HW219521   5.037   3.073   0.489
 6393SOL     OW19522   4.274   2.058   0.885
 6393SOL    HW119523   4.269   2.053   0.985
 6393SOL    HW219524   4.276   2.154   0.856
 6394SOL     OW19525   4.732   3.318   0.477
 6394SOL    HW119526   4.686   3.390   0.425
 6394SOL    HW219527   4.728   3.338   0.575
 6395SOL     OW19528   4.075   3.663   0.853
 6395SOL    HW119529   4.125   3.577   0.859
 6395SOL    HW219530   4.140   3.740   0.850
 6396SOL     OW19531   5.519   2.928   0.873
 6396SOL    HW119532   5.457   2.913   0.797
 6396SOL    HW219533   5.467   2.939   0.958
 6397SOL     OW19534   4.951   3.412   1.506
 6397SOL    HW119535   4.957   3.335   1.570
 6397SOL    HW219536   4.899   3.386   1.426
 6398SOL     OW19537   5.182   2.597   0.728
 6398SOL    HW119538   5.177   2.532   0.803
 6398SOL    HW219539   5.262   2.656   0.741
 6399SOL     OW19540   4.185   3.128   1.727
 6399SOL    HW119541   4.135   3.129   1.641
 6399SOL    HW219542   4.122   3.110   1.803
 6400SOL     OW19543   3.926   2.147   1.498
 6400SOL    HW119544   3.846   2.207   1.485
 6400SOL    HW219545   3.916   2.098   1.584
 6401SOL     OW19546   5.124   1.969   0.426
 6401SOL    HW119547   5.100   1.932   0.336
 6401SOL    HW219548   5.223   1.985   0.430
 6402SOL     OW19549   3.973   3.647   1.241
 6402SOL    HW119550   4.030   3.582   1.291
 6402SOL    HW219551   3.957   3.614   1.148
 6403SOL     OW19552   4.664   3.560   0.904
 6403SOL    HW119553   4.744   3.503   0.925
 6403SOL    HW219554   4.615   3.520   0.827
 6404SOL     OW19555   4.106   2.562   0.480
 6404SOL    HW119556   4.151   2.472   0.477
 6404SOL    HW219557   4.012   2.551   0.513
 6405SOL     OW19558   5.271   2.084   1.729
 6405SOL    HW119559   5.266   2.121   1.821
 6405SOL    HW219560   5.199   2.015   1.717
 6406SOL     OW19561   4.338   1.984   0.117
 6406SOL    HW119562   4.436   1.962   0.124
 6406SOL    HW219563   4.307   1.967   0.024
 6407SOL     OW19564   4.505   2.126   1.749
 6407SOL    HW119565   4.572   2.065   1.792
 6407SOL    HW219566   4.432   2.145   1.814
 6408SOL     OW19567   4.612   3.376   1.195
 6408SOL    HW119568   4.589   3.351   1.101
 6408SOL    HW219569   4.673   3.307   1.234
 6409SOL     OW19570   5.075   2.452   1.433
 6409SOL    HW119571   5.103   2.409   1.518
 6409SOL    HW219572   5.100   2.548   1.434
 6410SOL     OW19573   4.527   3.264   0.924
 6410SOL    HW119574   4.617   3.278   0.882
 6410SOL    HW219575   4.456   3.266   0.853
 6411SOL     OW19576   4.646   2.365   0.899
 6411SOL    HW119577   4.621   2.356   0.803
 6411SOL    HW219578   4.694   2.283   0.930
 6412SOL     OW19579   4.263   1.926   0.512
 6412SOL    HW119580   4.182   1.927   0.570
 6412SOL    HW219581   4.266   2.009   0.457
 6413SOL     OW19582   4.021   1.897   0.171
 6413SOL    HW119583   4.070   1.981   0.150
 6413SOL    HW219584   4.083   1.832   0.216
 6414SOL     OW19585   4.659   2.098   0.480
 6414SOL    HW119586   4.611   2.139   0.402
 6414SOL    HW219587   4.758   2.096   0.461
 6415SOL     OW19588   4.800   2.545   1.464
 6415SOL    HW119589   4.720   2.484   1.467
 6415SOL    HW219590   4.881   2.492   1.440
 6416SOL     OW19591   4.951   3.432   0.793
 6416SOL    HW119592   4.972   3.506   0.728
 6416SOL    HW219593   5.019   3.432   0.866
 6417SOL     OW19594   4.183   3.014   0.741
 6417SOL    HW119595   4.112   2.987   0.806
 6417SOL    HW219596   4.157   2.986   0.648
 6418SOL     OW19597   4.995   3.659   0.591
 6418SOL    HW119598   5.039   3.723   0.527
 6418SOL    HW219599   4.945   3.711   0.661
 6419SOL     OW19600   3.802   2.418   1.386
 6419SOL    HW119601   3.894   2.417   1.345
 6419SOL    HW219602   3.796   2.492   1.453
 6420SOL     OW19603   4.285   2.084   1.147
 6420SOL    HW119604   4.323   2.000   1.184
 6420SOL    HW219605   4.197   2.103   1.191
 6421SOL     OW19606   4.590   2.316   0.642
 6421SOL    HW119607   4.558   2.388   0.580
 6421SOL    HW219608   4.614   2.235   0.589
 6422SOL     OW19609   4.741   1.901   0.753
 6422SOL    HW119610   4.669   1.906   0.684
 6422SOL    HW219611   4.717   1.832   0.822
 6423SOL     OW19612   5.153   3.035   0.867
 6423SOL    HW119613   5.098   2.951   0.860
 6423SOL    HW219614   5.179   3.064   0.775
 6424SOL     OW19615   5.190   2.452   0.992
 6424SOL    HW119616   5.160   2.357   0.999
 6424SOL    HW219617   5.263   2.468   1.058
 6425SOL     OW19618   5.581   2.695   0.377
 6425SOL    HW119619   5.623   2.631   0.441
 6425SOL    HW219620   5.543   2.644   0.299
 6426SOL     OW19621   5.388   3.142   0.657
 6426SOL    HW119622   5.487   3.150   0.671
 6426SOL    HW219623   5.343   3.226   0.688
 6427SOL     OW19624   5.478   3.085   1.588
 6427SOL    HW119625   5.569   3.046   1.575
 6427SOL    HW219626   5.486   3.181   1.612
 6428SOL     OW19627   4.788   3.209   1.340
 6428SOL    HW119628   4.708   3.186   1.395
 6428SOL    HW219629   4.871   3.183   1.389
 6429SOL     OW19630   5.316   3.491   1.625
 6429SOL    HW119631   5.343   3.525   1.535
 6429SOL    HW219632   5.395   3.453   1.671
 6430SOL     OW19633   4.835   3.057   1.100
 6430SOL    HW119634   4.795   3.101   1.181
 6430SOL    HW219635   4.794   3.094   1.017
 6431SOL     OW19636   5.362   2.961   1.079
 6431SOL    HW119637   5.367   3.042   1.138
 6431SOL    HW219638   5.276   2.963   1.028
 6432SOL     OW19639   4.639   1.951   1.402
 6432SOL    HW119640   4.664   1.931   1.307
 6432SOL    HW219641   4.711   2.007   1.444
 6433SOL     OW19642   4.704   2.978   1.719
 6433SOL    HW119643   4.605   2.984   1.729
 6433SOL    HW219644   4.727   2.898   1.663
 6434SOL     OW19645   4.429   2.912   0.368
 6434SOL    HW119646   4.415   2.919   0.467
 6434SOL    HW219647   4.513   2.861   0.350
 6435SOL     OW19648   4.134   2.675   1.251
 6435SOL    HW119649   4.220   2.687   1.301
 6435SOL    HW219650   4.092   2.588   1.278
 6436SOL     OW19651   4.998   2.248   1.262
 6436SOL    HW119652   5.019   2.322   1.326
 6436SOL    HW219653   4.909   2.265   1.219
 6437SOL     OW19654   3.788   3.426   1.331
 6437SOL    HW119655   3.742   3.508   1.297
 6437SOL    HW219656   3.886   3.445   1.340
 6438SOL     OW19657   4.091   2.962   0.501
 6438SOL    HW119658   4.084   3.045   0.445
 6438SOL    HW219659   4.095   2.882   0.441
 6439SOL     OW19660   4.290   2.399   0.865
 6439SOL    HW119661   4.302   2.465   0.791
 6439SOL    HW219662   4.336   2.433   0.948
 6440SOL     OW19663   4.976   3.210   0.388
 6440SOL    HW119664   5.026   3.287   0.428
 6440SOL    HW219665   4.881   3.212   0.420
 6441SOL     OW19666   4.996   3.307   1.142
 6441SOL    HW119667   5.043   3.320   1.229
 6441SOL    HW219668   4.930   3.233   1.151
 6442SOL     OW19669   4.078   3.372   1.329
 6442SOL    HW119670   4.057   3.328   1.242
 6442SOL    HW219671   4.175   3.398   1.332
 6443SOL     OW19672   4.126   2.613   1.598
 6443SOL    HW119673   4.194   2.668   1.551
 6443SOL    HW219674   4.166   2.525   1.625
 6444SOL     OW19675   5.311   2.641   1.670
 6444SOL    HW119676   5.219   2.679   1.665
 6444SOL    HW219677   5.371   2.688   1.605
 6445SOL     OW19678   4.737   1.967   1.770
 6445SOL    HW119679   4.743   2.052   1.718
 6445SOL    HW219680   4.769   1.891   1.713
 6446SOL     OW19681   4.228   1.912   1.740
 6446SOL    HW119682   4.186   1.855   1.670
 6446SOL    HW219683   4.162   1.981   1.772
 6447SOL     OW19684   4.297   2.732   1.029
 6447SOL    HW119685   4.341   2.821   1.020
 6447SOL    HW219686   4.234   2.732   1.106
 6448SOL     OW19687   5.084   2.724   1.045
 6448SOL    HW119688   5.009   2.724   0.979
 6448SOL    HW219689   5.121   2.632   1.054
 6449SOL     OW19690   4.031   2.075   1.231
 6449SOL    HW119691   4.008   2.112   1.321
 6449SOL    HW219692   4.001   1.980   1.225
 6450SOL     OW19693   3.761   3.172   1.282
 6450SOL    HW119694   3.814   3.123   1.350
 6450SOL    HW219695   3.783   3.270   1.287
 6451SOL     OW19696   4.456   2.496   1.064
 6451SOL    HW119697   4.515   2.470   0.988
 6451SOL    HW219698   4.428   2.592   1.053
 6452SOL     OW19699   5.452   2.797   1.854
 6452SOL    HW119700   5.406   2.790   1.765
 6452SOL    HW219701   5.390   2.841   1.920
 6453SOL     OW19702   4.031   1.925   0.618
 6453SOL    HW119703   4.020   2.019   0.651
 6453SOL    HW219704   4.026   1.862   0.695
 6454SOL     OW19705   4.747   2.628   0.966
 6454SOL    HW119706   4.762   2.649   1.062
 6454SOL    HW219707   4.717   2.533   0.957
 6455SOL     OW19708   4.704   3.435   1.700
 6455SOL    HW119709   4.684   3.479   1.612
 6455SOL    HW219710   4.743   3.344   1.684
 6456SOL     OW19711   5.583   3.380   1.605
 6456SOL    HW119712   5.597   3.407   1.510
 6456SOL    HW219713   5.666   3.402   1.658
 6457SOL     OW19714   4.074   2.760   1.804
 6457SOL    HW119715   4.150   2.804   1.852
 6457SOL    HW219716   4.109   2.713   1.722
 6458SOL     OW19717   4.792   3.195   0.849
 6458SOL    HW119718   4.799   3.111   0.794
 6458SOL    HW219719   4.854   3.264   0.813
 6459SOL     OW19720   4.043   2.672   0.949
 6459SOL    HW119721   4.136   2.708   0.954
 6459SOL    HW219722   4.037   2.587   1.001
 6460SOL     OW19723   4.063   2.371   1.006
 6460SOL    HW119724   4.011   2.288   0.989
 6460SOL    HW219725   4.140   2.376   0.942
 6461SOL     OW19726   4.862   2.242   1.678
 6461SOL    HW119727   4.817   2.305   1.742
 6461SOL    HW219728   4.955   2.273   1.661
 6462SOL     OW19729   4.884   2.069   1.477
 6462SOL    HW119730   4.884   2.133   1.554
 6462SOL    HW219731   4.912   2.117   1.394
 6463SOL     OW19732   3.812   3.663   0.927
 6463SOL    HW119733   3.770   3.577   0.900
 6463SOL    HW219734   3.906   3.666   0.893
 6464SOL     OW19735   4.228   3.430   0.910
 6464SOL    HW119736   4.294   3.504   0.919
 6464SOL    HW219737   4.272   3.351   0.868
 6465SOL     OW19738   4.726   2.658   1.238
 6465SOL    HW119739   4.767   2.626   1.324
 6465SOL    HW219740   4.630   2.631   1.235
 6466SOL     OW19741   3.764   2.406   1.114
 6466SOL    HW119742   3.849   2.373   1.073
 6466SOL    HW219743   3.777   2.421   1.212
 6467SOL     OW19744   3.913   2.382   1.722
 6467SOL    HW119745   3.972   2.342   1.652
 6467SOL    HW219746   3.855   2.453   1.681
 6468SOL     OW19747   5.093   2.812   1.660
 6468SOL    HW119748   5.132   2.901   1.680
 6468SOL    HW219749   5.103   2.792   1.563
 6469SOL     OW19750   4.539   2.434   0.325
 6469SOL    HW119751   4.546   2.345   0.279
 6469SOL    HW219752   4.445   2.468   0.317
 6470SOL     OW19753   5.381   2.466   1.206
 6470SOL    HW119754   5.343   2.397   1.268
 6470SOL    HW219755   5.463   2.430   1.162
 6471SOL     OW19756   3.976   3.426   1.744
 6471SOL    HW119757   3.946   3.483   1.820
 6471SOL    HW219758   3.969   3.329   1.770
 6472SOL     OW19759   4.395   2.326   1.269
 6472SOL    HW119760   4.361   2.237   1.239
 6472SOL    HW219761   4.421   2.380   1.189
 6473SOL     OW19762   4.654   3.540   1.465
 6473SOL    HW119763   4.630   3.522   1.370
 6473SOL    HW219764   4.684   3.634   1.475
 6474SOL     OW19765   3.883   2.999   1.466
 6474SOL    HW119766   3.905   2.938   1.542
 6474SOL    HW219767   3.893   2.950   1.380
 6475SOL     OW19768   5.071   2.921   1.234
 6475SOL    HW119769   5.095   2.858   1.160
 6475SOL    HW219770   4.981   2.961   1.216
 6476SOL     OW19771   5.483   3.609   1.154
 6476SOL    HW119772   5.544   3.639   1.081
 6476SOL    HW219773   5.445   3.520   1.132
 6477SOL     OW19774   4.976   3.593   1.128
 6477SOL    HW119775   5.060   3.598   1.074
 6477SOL    HW219776   4.953   3.497   1.146
 6478SOL     OW19777   3.807   3.120   1.022
 6478SOL    HW119778   3.802   3.119   1.122
 6478SOL    HW219779   3.724   3.079   0.984
 6479SOL     OW19780   4.412   3.524   1.716
 6479SOL    HW119781   4.356   3.605   1.725
 6479SOL    HW219782   4.464   3.528   1.630
 6480SOL     OW19783   5.450   1.997   0.523
 6480SOL    HW119784   5.523   1.980   0.456
 6480SOL    HW219785   5.419   1.910   0.561
 6481SOL     OW19786   3.854   3.656   1.851
 6481SOL    HW119787   3.813   3.582   1.904
 6481SOL    HW219788   3.918   3.707   1.909
 6482SOL     OW19789   5.004   2.789   0.672
 6482SOL    HW119790   5.064   2.708   0.674
 6482SOL    HW219791   5.044   2.858   0.612
 6483SOL     OW19792   4.554   3.135   1.422
 6483SOL    HW119793   4.549   3.168   1.517
 6483SOL    HW219794   4.468   3.154   1.376
 6484SOL     OW19795   5.374   3.582   1.394
 6484SOL    HW119796   5.427   3.592   1.310
 6484SOL    HW219797   5.347   3.672   1.428
 6485SOL     OW19798   5.565   2.037   0.963
 6485SOL    HW119799   5.604   1.952   0.927
 6485SOL    HW219800   5.467   2.039   0.944
 6486SOL     OW19801   3.987   2.188   0.720
 6486SOL    HW119802   3.908   2.239   0.686
 6486SOL    HW219803   3.978   2.173   0.818
 6487SOL     OW19804   4.546   2.864   1.372
 6487SOL    HW119805   4.586   2.863   1.280
 6487SOL    HW219806   4.556   2.956   1.412
 6488SOL     OW19807   5.228   3.469   0.044
 6488SOL    HW119808   5.136   3.506   0.051
 6488SOL    HW219809   5.266   3.489  -0.046
 6489SOL     OW19810   4.096   3.150   1.490
 6489SOL    HW119811   4.083   3.243   1.456
 6489SOL    HW219812   4.012   3.098   1.477
 6490SOL     OW19813   5.338   3.154   1.289
 6490SOL    HW119814   5.398   3.157   1.369
 6490SOL    HW219815   5.263   3.218   1.302
 6491SOL     OW19816   4.763   2.960   0.696
 6491SOL    HW119817   4.693   2.913   0.750
 6491SOL    HW219818   4.822   2.892   0.653
 6492SOL     OW19819   4.738   2.098   0.971
 6492SOL    HW119820   4.730   2.062   0.878
 6492SOL    HW219821   4.736   2.022   1.036
 6493SOL     OW19822   4.314   3.349   0.491
 6493SOL    HW119823   4.356   3.291   0.421
 6493SOL    HW219824   4.270   3.428   0.447
 6494SOL     OW19825   5.433   2.247   1.381
 6494SOL    HW119826   5.506   2.316   1.385
 6494SOL    HW219827   5.461   2.172   1.322
 6495SOL     OW19828   3.829   2.875   1.726
 6495SOL    HW119829   3.752   2.842   1.780
 6495SOL    HW219830   3.914   2.845   1.768
 6496SOL     OW19831   4.396   2.065   1.489
 6496SOL    HW119832   4.486   2.049   1.449
 6496SOL    HW219833   4.404   2.070   1.588
 6497SOL     OW19834   5.164   2.718   1.398
 6497SOL    HW119835   5.107   2.770   1.335
 6497SOL    HW219836   5.260   2.730   1.374
 6498SOL     OW19837   3.796   2.028   0.318
 6498SOL    HW119838   3.779   2.111   0.264
 6498SOL    HW219839   3.886   1.991   0.296
 6499SOL     OW19840   4.337   2.704   1.431
 6499SOL    HW119841   4.393   2.785   1.414
 6499SOL    HW219842   4.396   2.624   1.434
 6500SOL     OW19843   5.217   3.629   0.959
 6500SOL    HW119844   5.250   3.693   0.890
 6500SOL    HW219845   5.283   3.623   1.034
 6501SOL     OW19846   4.440   2.427   1.708
 6501SOL    HW119847   4.459   2.492   1.782
 6501SOL    HW219848   4.500   2.347   1.717
 6502SOL     OW19849   5.174   3.082   1.633
 6502SOL    HW119850   5.165   3.072   1.732
 6502SOL    HW219851   5.270   3.075   1.607
 6503SOL     OW19852   4.114   3.603   1.560
 6503SOL    HW119853   4.023   3.644   1.558
 6503SOL    HW219854   4.107   3.509   1.592
 6504SOL     OW19855   5.398   2.745   1.254
 6504SOL    HW119856   5.371   2.656   1.217
 6504SOL    HW219857   5.399   2.813   1.181
 6505SOL     OW19858   4.318   2.607   0.652
 6505SOL    HW119859   4.368   2.692   0.633
 6505SOL    HW219860   4.230   2.609   0.604
 6506SOL     OW19861   5.501   2.204   1.642
 6506SOL    HW119862   5.484   2.235   1.548
 6506SOL    HW219863   5.417   2.167   1.680
 6507SOL     OW19864   5.454   2.796   1.517
 6507SOL    HW119865   5.492   2.887   1.532
 6507SOL    HW219866   5.446   2.779   1.418
 6508SOL     OW19867   4.385   3.652   0.953
 6508SOL    HW119868   4.339   3.740   0.940
 6508SOL    HW219869   4.484   3.664   0.946
 6509SOL     OW19870   4.583   2.818   0.861
 6509SOL    HW119871   4.637   2.749   0.909
 6509SOL    HW219872   4.551   2.887   0.927
 6510SOL     OW19873   5.585   3.431   0.851
 6510SOL    HW119874   5.514   3.419   0.781
 6510SOL    HW219875   5.586   3.352   0.911
 6511SOL     OW19876   3.945   3.176   1.844
 6511SOL    HW119877   3.880   3.103   1.823
 6511SOL    HW219878   3.949   3.190   1.942
 6512SOL     OW19879   3.803   3.102   0.653
 6512SOL    HW119880   3.802   3.055   0.741
 6512SOL    HW219881   3.885   3.074   0.602
 6513SOL     OW19882   4.396   3.253   1.624
 6513SOL    HW119883   4.318   3.203   1.662
 6513SOL    HW219884   4.393   3.348   1.655
 6514SOL     OW19885   5.548   2.054   1.227
 6514SOL    HW119886   5.544   1.964   1.271
 6514SOL    HW219887   5.551   2.043   1.128
 6515SOL     OW19888   4.152   2.286   0.520
 6515SOL    HW119889   4.182   2.214   0.458
 6515SOL    HW219890   4.113   2.246   0.603
 6516SOL     OW19891   5.429   3.349   1.104
 6516SOL    HW119892   5.336   3.324   1.077
 6516SOL    HW219893   5.455   3.299   1.186
 6517SOL     OW19894   4.041   2.409   1.280
 6517SOL    HW119895   4.079   2.350   1.352
 6517SOL    HW219896   4.081   2.383   1.192
 6518SOL     OW19897   4.536   3.448   0.687
 6518SOL    HW119898   4.568   3.458   0.593
 6518SOL    HW219899   4.457   3.386   0.689
 6519SOL     OW19900   5.148   2.076   1.112
 6519SOL    HW119901   5.200   2.011   1.167
 6519SOL    HW219902   5.099   2.139   1.173
 6520SOL     OW19903   4.725   1.896   1.154
 6520SOL    HW119904   4.662   1.824   1.123
 6520SOL    HW219905   4.818   1.860   1.154
 6521SOL     OW19906   4.342   3.429   1.284
 6521SOL    HW119907   4.337   3.511   1.341
 6521SOL    HW219908   4.431   3.426   1.239
 6522SOL     OW19909   5.076   1.914   0.168
 6522SOL    HW119910   5.111   1.873   0.084
 6522SOL    HW219911   4.986   1.876   0.188
 6523SOL     OW19912   5.024   2.315   0.691
 6523SOL    HW119913   4.965   2.395   0.695
 6523SOL    HW219914   5.039   2.280   0.784
 6524SOL     OW19915   5.317   2.083   0.882
 6524SOL    HW119916   5.233   2.082   0.936
 6524SOL    HW219917   5.319   2.166   0.826
 6525SOL     OW19918   3.763   2.939   0.300
 6525SOL    HW119919   3.862   2.928   0.291
 6525SOL    HW219920   3.723   2.853   0.332
 6526SOL     OW19921   3.954   2.490   1.975
 6526SOL    HW119922   3.861   2.488   2.012
 6526SOL    HW219923   3.955   2.451   1.883
 6527SOL     OW19924   3.949   2.137   2.858
 6527SOL    HW119925   3.984   2.120   2.950
 6527SOL    HW219926   3.861   2.092   2.846
 6528SOL     OW19927   3.743   2.230   2.509
 6528SOL    HW119928   3.661   2.273   2.548
 6528SOL    HW219929   3.715   2.157   2.446
 6529SOL     OW19930   4.293   3.137   3.027
 6529SOL    HW119931   4.200   3.130   2.990
 6529SOL    HW219932   4.304   3.226   3.071
 6530SOL     OW19933   5.279   3.373   2.565
 6530SOL    HW119934   5.222   3.357   2.646
 6530SOL    HW219935   5.220   3.383   2.485
 6531SOL     OW19936   4.859   2.565   2.579
 6531SOL    HW119937   4.916   2.643   2.554
 6531SOL    HW219938   4.799   2.591   2.655
 6532SOL     OW19939   5.479   2.469   2.093
 6532SOL    HW119940   5.467   2.456   1.994
 6532SOL    HW219941   5.449   2.388   2.142
 6533SOL     OW19942   4.492   3.006   2.885
 6533SOL    HW119943   4.414   3.023   2.945
 6533SOL    HW219944   4.526   3.093   2.849
 6534SOL     OW19945   4.574   2.660   3.685
 6534SOL    HW119946   4.570   2.736   3.750
 6534SOL    HW219947   4.596   2.696   3.594
 6535SOL     OW19948   4.409   2.874   2.527
 6535SOL    HW119949   4.478   2.858   2.597
 6535SOL    HW219950   4.336   2.931   2.565
 6536SOL     OW19951   4.410   3.023   3.665
 6536SOL    HW119952   4.470   3.102   3.679
 6536SOL    HW219953   4.324   3.054   3.624
 6537SOL     OW19954   4.059   3.297   2.923
 6537SOL    HW119955   3.981   3.266   2.870
 6537SOL    HW219956   4.117   3.355   2.866
 6538SOL     OW19957   5.184   3.367   3.201
 6538SOL    HW119958   5.208   3.461   3.227
 6538SOL    HW219959   5.168   3.313   3.283
 6539SOL     OW19960   4.162   2.254   3.361
 6539SOL    HW119961   4.244   2.198   3.370
 6539SOL    HW219962   4.081   2.196   3.365
 6540SOL     OW19963   5.327   2.309   2.599
 6540SOL    HW119964   5.253   2.355   2.549
 6540SOL    HW219965   5.378   2.377   2.652
 6541SOL     OW19966   3.955   3.575   2.345
 6541SOL    HW119967   3.989   3.652   2.399
 6541SOL    HW219968   3.999   3.575   2.255
 6542SOL     OW19969   4.851   3.203   3.552
 6542SOL    HW119970   4.898   3.203   3.640
 6542SOL    HW219971   4.803   3.116   3.541
 6543SOL     OW19972   3.954   3.296   2.400
 6543SOL    HW119973   3.928   3.392   2.400
 6543SOL    HW219974   3.883   3.242   2.445
 6544SOL     OW19975   3.964   2.953   2.748
 6544SOL    HW119976   3.978   2.869   2.800
 6544SOL    HW219977   3.909   3.017   2.803
 6545SOL     OW19978   4.344   3.648   3.301
 6545SOL    HW119979   4.252   3.631   3.336
 6545SOL    HW219980   4.372   3.740   3.327
 6546SOL     OW19981   4.330   2.826   1.985
 6546SOL    HW119982   4.337   2.910   1.931
 6546SOL    HW219983   4.376   2.839   2.073
 6547SOL     OW19984   5.318   1.976   3.342
 6547SOL    HW119985   5.300   2.043   3.270
 6547SOL    HW219986   5.315   2.022   3.431
 6548SOL     OW19987   3.846   2.505   2.425
 6548SOL    HW119988   3.801   2.417   2.442
 6548SOL    HW219989   3.845   2.559   2.509
 6549SOL     OW19990   5.566   3.629   2.221
 6549SOL    HW119991   5.620   3.600   2.301
 6549SOL    HW219992   5.596   3.719   2.192
 6550SOL     OW19993   3.751   3.458   1.979
 6550SOL    HW119994   3.732   3.362   2.000
 6550SOL    HW219995   3.718   3.516   2.054
 6551SOL     OW19996   5.413   2.784   2.474
 6551SOL    HW119997   5.508   2.755   2.482
 6551SOL    HW219998   5.405   2.849   2.399
 6552SOL     OW19999   5.365   2.970   2.294
 6552SOL    HW120000   5.451   2.972   2.242
 6552SOL    HW220001   5.379   3.017   2.382
 6553SOL     OW20002   3.837   2.599   3.459
 6553SOL    HW120003   3.925   2.586   3.504
 6553SOL    HW220004   3.824   2.696   3.437
 6554SOL     OW20005   4.337   3.227   2.588
 6554SOL    HW120006   4.288   3.140   2.597
 6554SOL    HW220007   4.314   3.270   2.501
 6555SOL     OW20008   5.017   3.090   3.285
 6555SOL    HW120009   5.054   3.017   3.227
 6555SOL    HW220010   5.069   3.095   3.370
 6556SOL     OW20011   4.533   1.866   2.364
 6556SOL    HW120012   4.573   1.957   2.355
 6556SOL    HW220013   4.433   1.874   2.370
 6557SOL     OW20014   3.921   2.838   3.126
 6557SOL    HW120015   4.010   2.793   3.112
 6557SOL    HW220016   3.848   2.773   3.107
 6558SOL     OW20017   5.249   2.861   2.052
 6558SOL    HW120018   5.186   2.785   2.065
 6558SOL    HW220019   5.297   2.879   2.138
 6559SOL     OW20020   4.911   3.654   3.478
 6559SOL    HW120021   4.935   3.714   3.402
 6559SOL    HW220022   4.918   3.559   3.448
 6560SOL     OW20023   4.041   2.113   3.663
 6560SOL    HW120024   4.112   2.184   3.669
 6560SOL    HW220025   3.953   2.152   3.691
 6561SOL     OW20026   5.190   3.279   2.815
 6561SOL    HW120027   5.131   3.285   2.895
 6561SOL    HW220028   5.175   3.191   2.769
 6562SOL     OW20029   5.391   3.576   2.434
 6562SOL    HW120030   5.350   3.553   2.346
 6562SOL    HW220031   5.373   3.502   2.499
 6563SOL     OW20032   4.322   2.591   2.132
 6563SOL    HW120033   4.346   2.660   2.064
 6563SOL    HW220034   4.244   2.624   2.186
 6564SOL     OW20035   5.005   2.207   2.806
 6564SOL    HW120036   4.919   2.157   2.793
 6564SOL    HW220037   5.067   2.153   2.862
 6565SOL     OW20038   5.300   3.524   2.169
 6565SOL    HW120039   5.389   3.570   2.172
 6565SOL    HW220040   5.279   3.500   2.074
 6566SOL     OW20041   4.531   2.467   3.327
 6566SOL    HW120042   4.484   2.464   3.416
 6566SOL    HW220043   4.480   2.412   3.261
 6567SOL     OW20044   5.118   2.331   3.536
 6567SOL    HW120045   5.098   2.374   3.624
 6567SOL    HW220046   5.196   2.269   3.545
 6568SOL     OW20047   4.697   2.752   3.434
 6568SOL    HW120048   4.743   2.668   3.405
 6568SOL    HW220049   4.641   2.786   3.359
 6569SOL     OW20050   4.715   2.272   3.104
 6569SOL    HW120051   4.638   2.306   3.158
 6569SOL    HW220052   4.681   2.221   3.025
 6570SOL     OW20053   4.765   2.563   2.291
 6570SOL    HW120054   4.791   2.559   2.387
 6570SOL    HW220055   4.680   2.512   2.277
 6571SOL     OW20056   3.800   2.673   2.651
 6571SOL    HW120057   3.899   2.661   2.660
 6571SOL    HW220058   3.776   2.768   2.672
 6572SOL     OW20059   3.854   3.683   3.433
 6572SOL    HW120060   3.844   3.668   3.532
 6572SOL    HW220061   3.768   3.719   3.397
 6573SOL     OW20062   4.589   2.210   2.057
 6573SOL    HW120063   4.648   2.273   2.008
 6573SOL    HW220064   4.608   2.116   2.028
 6574SOL     OW20065   5.443   2.447   3.693
 6574SOL    HW120066   5.417   2.536   3.657
 6574SOL    HW220067   5.441   2.379   3.620
 6575SOL     OW20068   5.086   3.006   2.407
 6575SOL    HW120069   5.169   2.977   2.359
 6575SOL    HW220070   5.037   3.073   2.351
 6576SOL     OW20071   4.274   2.058   2.747
 6576SOL    HW120072   4.269   2.053   2.847
 6576SOL    HW220073   4.276   2.154   2.718
 6577SOL     OW20074   4.732   3.318   2.339
 6577SOL    HW120075   4.686   3.390   2.287
 6577SOL    HW220076   4.728   3.338   2.437
 6578SOL     OW20077   4.075   3.663   2.715
 6578SOL    HW120078   4.125   3.577   2.721
 6578SOL    HW220079   4.140   3.740   2.712
 6579SOL     OW20080   5.519   2.928   2.735
 6579SOL    HW120081   5.457   2.913   2.659
 6579SOL    HW220082   5.467   2.939   2.820
 6580SOL     OW20083   4.951   3.412   3.368
 6580SOL    HW120084   4.957   3.335   3.432
 6580SOL    HW220085   4.899   3.386   3.288
 6581SOL     OW20086   4.045   2.805   2.104
 6581SOL    HW120087   4.127   2.844   2.062
 6581SOL    HW220088   4.018   2.723   2.055
 6582SOL     OW20089   5.182   2.597   2.590
 6582SOL    HW120090   5.177   2.532   2.665
 6582SOL    HW220091   5.262   2.656   2.603
 6583SOL     OW20092   4.185   3.128   3.589
 6583SOL    HW120093   4.135   3.129   3.503
 6583SOL    HW220094   4.122   3.110   3.665
 6584SOL     OW20095   4.835   3.638   2.099
 6584SOL    HW120096   4.775   3.576   2.149
 6584SOL    HW220097   4.866   3.594   2.014
 6585SOL     OW20098   3.926   2.147   3.360
 6585SOL    HW120099   3.846   2.207   3.347
 6585SOL    HW220100   3.916   2.098   3.446
 6586SOL     OW20101   5.356   3.239   1.943
 6586SOL    HW120102   5.324   3.333   1.933
 6586SOL    HW220103   5.280   3.176   1.931
 6587SOL     OW20104   4.188   3.605   2.185
 6587SOL    HW120105   4.221   3.644   2.271
 6587SOL    HW220106   4.264   3.598   2.120
 6588SOL     OW20107   5.124   1.969   2.288
 6588SOL    HW120108   5.100   1.932   2.198
 6588SOL    HW220109   5.223   1.985   2.292
 6589SOL     OW20110   3.973   3.647   3.103
 6589SOL    HW120111   4.030   3.582   3.153
 6589SOL    HW220112   3.957   3.614   3.010
 6590SOL     OW20113   4.664   3.560   2.766
 6590SOL    HW120114   4.744   3.503   2.787
 6590SOL    HW220115   4.615   3.520   2.689
 6591SOL     OW20116   4.106   2.562   2.342
 6591SOL    HW120117   4.151   2.472   2.339
 6591SOL    HW220118   4.012   2.551   2.375
 6592SOL     OW20119   5.271   2.084   3.591
 6592SOL    HW120120   5.266   2.121   3.683
 6592SOL    HW220121   5.199   2.015   3.579
 6593SOL     OW20122   4.338   1.984   1.979
 6593SOL    HW120123   4.436   1.962   1.986
 6593SOL    HW220124   4.307   1.967   1.886
 6594SOL     OW20125   4.505   2.126   3.611
 6594SOL    HW120126   4.572   2.065   3.654
 6594SOL    HW220127   4.432   2.145   3.676
 6595SOL     OW20128   4.612   3.376   3.057
 6595SOL    HW120129   4.589   3.351   2.963
 6595SOL    HW220130   4.673   3.307   3.096
 6596SOL     OW20131   5.075   2.452   3.295
 6596SOL    HW120132   5.103   2.409   3.380
 6596SOL    HW220133   5.100   2.548   3.296
 6597SOL     OW20134   4.527   3.264   2.786
 6597SOL    HW120135   4.617   3.278   2.744
 6597SOL    HW220136   4.456   3.266   2.715
 6598SOL     OW20137   4.646   2.365   2.761
 6598SOL    HW120138   4.621   2.356   2.665
 6598SOL    HW220139   4.694   2.283   2.792
 6599SOL     OW20140   4.263   1.926   2.374
 6599SOL    HW120141   4.182   1.927   2.432
 6599SOL    HW220142   4.266   2.009   2.319
 6600SOL     OW20143   5.158   3.050   1.903
 6600SOL    HW120144   5.190   2.974   1.960
 6600SOL    HW220145   5.066   3.077   1.933
 6601SOL     OW20146   4.021   1.897   2.033
 6601SOL    HW120147   4.070   1.981   2.012
 6601SOL    HW220148   4.083   1.832   2.078
 6602SOL     OW20149   4.659   2.098   2.342
 6602SOL    HW120150   4.611   2.139   2.264
 6602SOL    HW220151   4.758   2.096   2.323
 6603SOL     OW20152   4.800   2.545   3.326
 6603SOL    HW120153   4.720   2.484   3.329
 6603SOL    HW220154   4.881   2.492   3.302
 6604SOL     OW20155   4.951   3.432   2.655
 6604SOL    HW120156   4.972   3.506   2.590
 6604SOL    HW220157   5.019   3.432   2.728
 6605SOL     OW20158   4.183   3.014   2.603
 6605SOL    HW120159   4.112   2.987   2.668
 6605SOL    HW220160   4.157   2.986   2.510
 6606SOL     OW20161   4.995   3.659   2.453
 6606SOL    HW120162   5.039   3.723   2.389
 6606SOL    HW220163   4.945   3.711   2.523
 6607SOL     OW20164   4.756   2.411   1.878
 6607SOL    HW120165   4.715   2.493   1.839
 6607SOL    HW220166   4.820   2.437   1.951
 6608SOL     OW20167   3.802   2.418   3.248
 6608SOL    HW120168   3.894   2.417   3.207
 6608SOL    HW220169   3.796   2.492   3.315
 6609SOL     OW20170   4.285   2.084   3.009
 6609SOL    HW120171   4.323   2.000   3.046
 6609SOL    HW220172   4.197   2.103   3.053
 6610SOL     OW20173   4.590   2.316   2.504
 6610SOL    HW120174   4.558   2.388   2.442
 6610SOL    HW220175   4.614   2.235   2.451
 6611SOL     OW20176   4.741   1.901   2.615
 6611SOL    HW120177   4.669   1.906   2.546
 6611SOL    HW220178   4.717   1.832   2.684
 6612SOL     OW20179   5.153   3.035   2.729
 6612SOL    HW120180   5.098   2.951   2.722
 6612SOL    HW220181   5.179   3.064   2.637
 6613SOL     OW20182   5.190   2.452   2.854
 6613SOL    HW120183   5.160   2.357   2.861
 6613SOL    HW220184   5.263   2.468   2.920
 6614SOL     OW20185   5.581   2.695   2.239
 6614SOL    HW120186   5.623   2.631   2.303
 6614SOL    HW220187   5.543   2.644   2.161
 6615SOL     OW20188   4.212   3.247   2.036
 6615SOL    HW120189   4.125   3.232   2.083
 6615SOL    HW220190   4.195   3.273   1.941
 6616SOL     OW20191   5.388   3.142   2.519
 6616SOL    HW120192   5.487   3.150   2.533
 6616SOL    HW220193   5.343   3.226   2.550
 6617SOL     OW20194   5.114   2.437   1.940
 6617SOL    HW120195   5.060   2.416   2.021
 6617SOL    HW220196   5.205   2.396   1.949
 6618SOL     OW20197   4.251   2.118   2.190
 6618SOL    HW120198   4.278   2.059   2.115
 6618SOL    HW220199   4.251   2.213   2.159
 6619SOL     OW20200   5.478   3.085   3.450
 6619SOL    HW120201   5.569   3.046   3.437
 6619SOL    HW220202   5.486   3.181   3.474
 6620SOL     OW20203   4.788   3.209   3.202
 6620SOL    HW120204   4.708   3.186   3.257
 6620SOL    HW220205   4.871   3.183   3.251
 6621SOL     OW20206   5.316   3.491   3.487
 6621SOL    HW120207   5.343   3.525   3.397
 6621SOL    HW220208   5.395   3.453   3.533
 6622SOL     OW20209   4.835   3.057   2.962
 6622SOL    HW120210   4.795   3.101   3.043
 6622SOL    HW220211   4.794   3.094   2.879
 6623SOL     OW20212   5.362   2.961   2.941
 6623SOL    HW120213   5.367   3.042   3.000
 6623SOL    HW220214   5.276   2.963   2.890
 6624SOL     OW20215   4.639   1.951   3.264
 6624SOL    HW120216   4.664   1.931   3.169
 6624SOL    HW220217   4.711   2.007   3.306
 6625SOL     OW20218   4.704   2.978   3.581
 6625SOL    HW120219   4.605   2.984   3.591
 6625SOL    HW220220   4.727   2.898   3.525
 6626SOL     OW20221   4.429   2.912   2.230
 6626SOL    HW120222   4.415   2.919   2.329
 6626SOL    HW220223   4.513   2.861   2.212
 6627SOL     OW20224   4.134   2.675   3.113
 6627SOL    HW120225   4.220   2.687   3.163
 6627SOL    HW220226   4.092   2.588   3.140
 6628SOL     OW20227   4.998   2.248   3.124
 6628SOL    HW120228   5.019   2.322   3.188
 6628SOL    HW220229   4.909   2.265   3.081
 6629SOL     OW20230   3.788   3.426   3.193
 6629SOL    HW120231   3.742   3.508   3.159
 6629SOL    HW220232   3.886   3.445   3.202
 6630SOL     OW20233   4.091   2.962   2.363
 6630SOL    HW120234   4.084   3.045   2.307
 6630SOL    HW220235   4.095   2.882   2.303
 6631SOL     OW20236   4.290   2.399   2.727
 6631SOL    HW120237   4.302   2.465   2.653
 6631SOL    HW220238   4.336   2.433   2.810
 6632SOL     OW20239   4.976   3.210   2.250
 6632SOL    HW120240   5.026   3.287   2.290
 6632SOL    HW220241   4.881   3.212   2.282
 6633SOL     OW20242   4.996   3.307   3.004
 6633SOL    HW120243   5.043   3.320   3.091
 6633SOL    HW220244   4.930   3.233   3.013
 6634SOL     OW20245   5.306   2.501   2.334
 6634SOL    HW120246   5.275   2.562   2.407
 6634SOL    HW220247   5.356   2.553   2.265
 6635SOL     OW20248   4.078   3.372   3.191
 6635SOL    HW120249   4.057   3.328   3.104
 6635SOL    HW220250   4.175   3.398   3.194
 6636SOL     OW20251   4.126   2.613   3.460
 6636SOL    HW120252   4.194   2.668   3.413
 6636SOL    HW220253   4.166   2.525   3.487
 6637SOL     OW20254   5.311   2.641   3.532
 6637SOL    HW120255   5.219   2.679   3.527
 6637SOL    HW220256   5.371   2.688   3.467
 6638SOL     OW20257   4.737   1.967   3.632
 6638SOL    HW120258   4.743   2.052   3.580
 6638SOL    HW220259   4.769   1.891   3.575
 6639SOL     OW20260   4.228   1.912   3.602
 6639SOL    HW120261   4.186   1.855   3.532
 6639SOL    HW220262   4.162   1.981   3.634
 6640SOL     OW20263   4.297   2.732   2.891
 6640SOL    HW120264   4.341   2.821   2.882
 6640SOL    HW220265   4.234   2.732   2.968
 6641SOL     OW20266   5.084   2.724   2.907
 6641SOL    HW120267   5.009   2.724   2.841
 6641SOL    HW220268   5.121   2.632   2.916
 6642SOL     OW20269   4.933   2.387   2.137
 6642SOL    HW120270   4.946   2.303   2.191
 6642SOL    HW220271   4.904   2.461   2.197
 6643SOL     OW20272   4.031   2.075   3.093
 6643SOL    HW120273   4.008   2.112   3.183
 6643SOL    HW220274   4.001   1.980   3.087
 6644SOL     OW20275   3.761   3.172   3.144
 6644SOL    HW120276   3.814   3.123   3.212
 6644SOL    HW220277   3.783   3.270   3.149
 6645SOL     OW20278   4.456   2.496   2.926
 6645SOL    HW120279   4.515   2.470   2.850
 6645SOL    HW220280   4.428   2.592   2.915
 6646SOL     OW20281   5.452   2.797   3.716
 6646SOL    HW120282   5.406   2.790   3.627
 6646SOL    HW220283   5.390   2.841   3.782
 6647SOL     OW20284   4.031   1.925   2.480
 6647SOL    HW120285   4.020   2.019   2.513
 6647SOL    HW220286   4.026   1.862   2.557
 6648SOL     OW20287   5.346   2.229   2.236
 6648SOL    HW120288   5.348   2.153   2.300
 6648SOL    HW220289   5.298   2.306   2.276
 6649SOL     OW20290   4.747   2.628   2.828
 6649SOL    HW120291   4.762   2.649   2.924
 6649SOL    HW220292   4.717   2.533   2.819
 6650SOL     OW20293   4.704   3.435   3.562
 6650SOL    HW120294   4.684   3.479   3.474
 6650SOL    HW220295   4.743   3.344   3.546
 6651SOL     OW20296   5.583   3.380   3.467
 6651SOL    HW120297   5.597   3.407   3.372
 6651SOL    HW220298   5.666   3.402   3.520
 6652SOL     OW20299   4.074   2.760   3.666
 6652SOL    HW120300   4.150   2.804   3.714
 6652SOL    HW220301   4.109   2.713   3.584
 6653SOL     OW20302   5.264   2.136   1.987
 6653SOL    HW120303   5.203   2.061   2.010
 6653SOL    HW220304   5.286   2.188   2.070
 6654SOL     OW20305   5.027   2.700   1.904
 6654SOL    HW120306   5.061   2.607   1.919
 6654SOL    HW220307   5.045   2.727   1.809
 6655SOL     OW20308   4.792   3.195   2.711
 6655SOL    HW120309   4.799   3.111   2.656
 6655SOL    HW220310   4.854   3.264   2.675
 6656SOL     OW20311   4.043   2.672   2.811
 6656SOL    HW120312   4.136   2.708   2.816
 6656SOL    HW220313   4.037   2.587   2.863
 6657SOL     OW20314   4.063   2.371   2.868
 6657SOL    HW120315   4.011   2.288   2.851
 6657SOL    HW220316   4.140   2.376   2.804
 6658SOL     OW20317   4.862   2.242   3.540
 6658SOL    HW120318   4.817   2.305   3.604
 6658SOL    HW220319   4.955   2.273   3.523
 6659SOL     OW20320   4.884   2.069   3.339
 6659SOL    HW120321   4.884   2.133   3.416
 6659SOL    HW220322   4.912   2.117   3.256
 6660SOL     OW20323   3.732   3.188   2.062
 6660SOL    HW120324   3.639   3.209   2.031
 6660SOL    HW220325   3.742   3.089   2.075
 6661SOL     OW20326   3.812   3.663   2.789
 6661SOL    HW120327   3.770   3.577   2.762
 6661SOL    HW220328   3.906   3.666   2.755
 6662SOL     OW20329   4.228   3.430   2.772
 6662SOL    HW120330   4.294   3.504   2.781
 6662SOL    HW220331   4.272   3.351   2.730
 6663SOL     OW20332   4.726   2.658   3.100
 6663SOL    HW120333   4.767   2.626   3.186
 6663SOL    HW220334   4.630   2.631   3.097
 6664SOL     OW20335   3.764   2.406   2.976
 6664SOL    HW120336   3.849   2.373   2.935
 6664SOL    HW220337   3.777   2.421   3.074
 6665SOL     OW20338   3.913   2.382   3.584
 6665SOL    HW120339   3.972   2.342   3.514
 6665SOL    HW220340   3.855   2.453   3.543
 6666SOL     OW20341   5.093   2.812   3.522
 6666SOL    HW120342   5.132   2.901   3.542
 6666SOL    HW220343   5.103   2.792   3.425
 6667SOL     OW20344   4.539   2.434   2.187
 6667SOL    HW120345   4.546   2.345   2.141
 6667SOL    HW220346   4.445   2.468   2.179
 6668SOL     OW20347   5.381   2.466   3.068
 6668SOL    HW120348   5.343   2.397   3.130
 6668SOL    HW220349   5.463   2.430   3.024
 6669SOL     OW20350   3.976   3.426   3.606
 6669SOL    HW120351   3.946   3.483   3.682
 6669SOL    HW220352   3.969   3.329   3.632
 6670SOL     OW20353   4.395   2.326   3.131
 6670SOL    HW120354   4.361   2.237   3.101
 6670SOL    HW220355   4.421   2.380   3.051
 6671SOL     OW20356   4.654   3.540   3.327
 6671SOL    HW120357   4.630   3.522   3.232
 6671SOL    HW220358   4.684   3.634   3.337
 6672SOL     OW20359   4.197   2.362   2.053
 6672SOL    HW120360   4.258   2.442   2.057
 6672SOL    HW220361   4.102   2.393   2.060
 6673SOL     OW20362   3.883   2.999   3.328
 6673SOL    HW120363   3.905   2.938   3.404
 6673SOL    HW220364   3.893   2.950   3.242
 6674SOL     OW20365   5.071   2.921   3.096
 6674SOL    HW120366   5.095   2.858   3.022
 6674SOL    HW220367   4.981   2.961   3.078
 6675SOL     OW20368   5.026   2.717   2.171
 6675SOL    HW120369   4.940   2.686   2.213
 6675SOL    HW220370   5.022   2.703   2.072
 6676SOL     OW20371   5.483   3.609   3.016
 6676SOL    HW120372   5.544   3.639   2.943
 6676SOL    HW220373   5.445   3.520   2.994
 6677SOL     OW20374   4.976   3.593   2.990
 6677SOL    HW120375   5.060   3.598   2.936
 6677SOL    HW220376   4.953   3.497   3.008
 6678SOL     OW20377   3.807   3.120   2.884
 6678SOL    HW120378   3.802   3.119   2.984
 6678SOL    HW220379   3.724   3.079   2.846
 6679SOL     OW20380   4.412   3.524   3.578
 6679SOL    HW120381   4.356   3.605   3.587
 6679SOL    HW220382   4.464   3.528   3.492
 6680SOL     OW20383   5.450   1.997   2.385
 6680SOL    HW120384   5.523   1.980   2.318
 6680SOL    HW220385   5.419   1.910   2.423
 6681SOL     OW20386   5.112   3.435   2.339
 6681SOL    HW120387   5.179   3.447   2.265
 6681SOL    HW220388   5.072   3.524   2.362
 6682SOL     OW20389   3.854   3.656   3.713
 6682SOL    HW120390   3.813   3.582   3.766
 6682SOL    HW220391   3.918   3.707   3.771
 6683SOL     OW20392   5.004   2.789   2.534
 6683SOL    HW120393   5.064   2.708   2.536
 6683SOL    HW220394   5.044   2.858   2.474
 6684SOL     OW20395   4.554   3.135   3.284
 6684SOL    HW120396   4.549   3.168   3.379
 6684SOL    HW220397   4.468   3.154   3.238
 6685SOL     OW20398   4.396   3.478   2.016
 6685SOL    HW120399   4.405   3.488   1.917
 6685SOL    HW220400   4.356   3.389   2.037
 6686SOL     OW20401   5.374   3.582   3.256
 6686SOL    HW120402   5.427   3.592   3.172
 6686SOL    HW220403   5.347   3.672   3.290
 6687SOL     OW20404   5.565   2.037   2.825
 6687SOL    HW120405   5.604   1.952   2.789
 6687SOL    HW220406   5.467   2.039   2.806
 6688SOL     OW20407   3.987   2.188   2.582
 6688SOL    HW120408   3.908   2.239   2.548
 6688SOL    HW220409   3.978   2.173   2.680
 6689SOL     OW20410   4.918   3.474   1.893
 6689SOL    HW120411   4.924   3.381   1.930
 6689SOL    HW220412   4.859   3.474   1.813
 6690SOL     OW20413   4.546   2.864   3.234
 6690SOL    HW120414   4.586   2.863   3.142
 6690SOL    HW220415   4.556   2.956   3.274
 6691SOL     OW20416   4.640   2.772   2.153
 6691SOL    HW120417   4.703   2.810   2.085
 6691SOL    HW220418   4.680   2.689   2.192
 6692SOL     OW20419   5.228   3.469   1.906
 6692SOL    HW120420   5.136   3.506   1.913
 6692SOL    HW220421   5.266   3.489   1.816
 6693SOL     OW20422   4.096   3.150   3.352
 6693SOL    HW120423   4.083   3.243   3.318
 6693SOL    HW220424   4.012   3.098   3.339
 6694SOL     OW20425   5.338   3.154   3.151
 6694SOL    HW120426   5.398   3.157   3.231
 6694SOL    HW220427   5.263   3.218   3.164
 6695SOL     OW20428   4.763   2.960   2.558
 6695SOL    HW120429   4.693   2.913   2.612
 6695SOL    HW220430   4.822   2.892   2.515
 6696SOL     OW20431   4.738   2.098   2.833
 6696SOL    HW120432   4.730   2.062   2.740
 6696SOL    HW220433   4.736   2.022   2.898
 6697SOL     OW20434   4.314   3.349   2.353
 6697SOL    HW120435   4.356   3.291   2.283
 6697SOL    HW220436   4.270   3.428   2.309
 6698SOL     OW20437   5.433   2.247   3.243
 6698SOL    HW120438   5.506   2.316   3.247
 6698SOL    HW220439   5.461   2.172   3.184
 6699SOL     OW20440   3.979   3.210   2.152
 6699SOL    HW120441   3.883   3.211   2.125
 6699SOL    HW220442   3.991   3.263   2.236
 6700SOL     OW20443   3.829   2.875   3.588
 6700SOL    HW120444   3.752   2.842   3.642
 6700SOL    HW220445   3.914   2.845   3.630
 6701SOL     OW20446   4.396   2.065   3.351
 6701SOL    HW120447   4.486   2.049   3.311
 6701SOL    HW220448   4.404   2.070   3.450
 6702SOL     OW20449   3.799   2.207   1.895
 6702SOL    HW120450   3.707   2.179   1.866
 6702SOL    HW220451   3.830   2.284   1.839
 6703SOL     OW20452   5.164   2.718   3.260
 6703SOL    HW120453   5.107   2.770   3.197
 6703SOL    HW220454   5.260   2.730   3.236
 6704SOL     OW20455   3.796   2.028   2.180
 6704SOL    HW120456   3.779   2.111   2.126
 6704SOL    HW220457   3.886   1.991   2.158
 6705SOL     OW20458   4.907   3.197   1.981
 6705SOL    HW120459   4.808   3.186   1.983
 6705SOL    HW220460   4.941   3.212   2.074
 6706SOL     OW20461   4.337   2.704   3.293
 6706SOL    HW120462   4.393   2.785   3.276
 6706SOL    HW220463   4.396   2.624   3.296
 6707SOL     OW20464   5.217   3.629   2.821
 6707SOL    HW120465   5.250   3.693   2.752
 6707SOL    HW220466   5.283   3.623   2.896
 6708SOL     OW20467   4.440   2.427   3.570
 6708SOL    HW120468   4.459   2.492   3.644
 6708SOL    HW220469   4.500   2.347   3.579
 6709SOL     OW20470   5.174   3.082   3.495
 6709SOL    HW120471   5.165   3.072   3.594
 6709SOL    HW220472   5.270   3.075   3.469
 6710SOL     OW20473   4.114   3.603   3.422
 6710SOL    HW120474   4.023   3.644   3.420
 6710SOL    HW220475   4.107   3.509   3.454
 6711SOL     OW20476   5.398   2.745   3.116
 6711SOL    HW120477   5.371   2.656   3.079
 6711SOL    HW220478   5.399   2.813   3.043
 6712SOL     OW20479   4.949   2.187   2.311
 6712SOL    HW120480   5.014   2.113   2.300
 6712SOL    HW220481   4.969   2.237   2.395
 6713SOL     OW20482   4.318   2.607   2.514
 6713SOL    HW120483   4.368   2.692   2.495
 6713SOL    HW220484   4.230   2.609   2.466
 6714SOL     OW20485   5.501   2.204   3.504
 6714SOL    HW120486   5.484   2.235   3.410
 6714SOL    HW220487   5.417   2.167   3.542
 6715SOL     OW20488   5.454   2.796   3.379
 6715SOL    HW120489   5.492   2.887   3.394
 6715SOL    HW220490   5.446   2.779   3.280
 6716SOL     OW20491   4.583   3.236   1.878
 6716SOL    HW120492   4.537   3.251   1.966
 6716SOL    HW220493   4.627   3.321   1.848
 6717SOL     OW20494   4.385   3.652   2.815
 6717SOL    HW120495   4.339   3.740   2.802
 6717SOL    HW220496   4.484   3.664   2.808
 6718SOL     OW20497   4.583   2.818   2.723
 6718SOL    HW120498   4.637   2.749   2.771
 6718SOL    HW220499   4.551   2.887   2.789
 6719SOL     OW20500   4.807   2.846   1.949
 6719SOL    HW120501   4.784   2.899   1.867
 6719SOL    HW220502   4.888   2.790   1.930
 6720SOL     OW20503   5.585   3.431   2.713
 6720SOL    HW120504   5.514   3.419   2.643
 6720SOL    HW220505   5.586   3.352   2.773
 6721SOL     OW20506   3.945   3.176   3.706
 6721SOL    HW120507   3.880   3.103   3.685
 6721SOL    HW220508   3.949   3.190   3.804
 6722SOL     OW20509   3.803   3.102   2.515
 6722SOL    HW120510   3.802   3.055   2.603
 6722SOL    HW220511   3.885   3.074   2.464
 6723SOL     OW20512   4.396   3.253   3.486
 6723SOL    HW120513   4.318   3.203   3.524
 6723SOL    HW220514   4.393   3.348   3.517
 6724SOL     OW20515   5.548   2.054   3.089
 6724SOL    HW120516   5.544   1.964   3.133
 6724SOL    HW220517   5.551   2.043   2.990
 6725SOL     OW20518   4.152   2.286   2.382
 6725SOL    HW120519   4.182   2.214   2.320
 6725SOL    HW220520   4.113   2.246   2.465
 6726SOL     OW20521   5.429   3.349   2.966
 6726SOL    HW120522   5.336   3.324   2.939
 6726SOL    HW220523   5.455   3.299   3.048
 6727SOL     OW20524   4.041   2.409   3.142
 6727SOL    HW120525   4.079   2.350   3.214
 6727SOL    HW220526   4.081   2.383   3.054
 6728SOL     OW20527   4.536   3.448   2.549
 6728SOL    HW120528   4.568   3.458   2.455
 6728SOL    HW220529   4.457   3.386   2.551
 6729SOL     OW20530   5.148   2.076   2.974
 6729SOL    HW120531   5.200   2.011   3.029
 6729SOL    HW220532   5.099   2.139   3.035
 6730SOL     OW20533   4.725   1.896   3.016
 6730SOL    HW120534   4.662   1.824   2.985
 6730SOL    HW220535   4.818   1.860   3.016
 6731SOL     OW20536   4.494   3.192   2.163
 6731SOL    HW120537   4.448   3.105   2.180
 6731SOL    HW220538   4.585   3.189   2.204
 6732SOL     OW20539   4.342   3.429   3.146
 6732SOL    HW120540   4.337   3.511   3.203
 6732SOL    HW220541   4.431   3.426   3.101
 6733SOL     OW20542   5.076   1.914   2.030
 6733SOL    HW120543   5.111   1.873   1.946
 6733SOL    HW220544   4.986   1.876   2.050
 6734SOL     OW20545   5.024   2.315   2.553
 6734SOL    HW120546   4.965   2.395   2.557
 6734SOL    HW220547   5.039   2.280   2.646
 6735SOL     OW20548   5.317   2.083   2.744
 6735SOL    HW120549   5.233   2.082   2.798
 6735SOL    HW220550   5.319   2.166   2.688
 6736SOL     OW20551   3.763   2.939   2.162
 6736SOL    HW120552   3.862   2.928   2.153
 6736SOL    HW220553   3.723   2.853   2.194
 6737SOL     OW20554   4.599   3.508   2.199
 6737SOL    HW120555   4.522   3.473   2.145
 6737SOL    HW220556   4.567   3.579   2.261
 6738SOL     OW20557   3.954   2.490   3.837
 6738SOL    HW120558   3.861   2.488   3.874
 6738SOL    HW220559   3.955   2.451   3.745
 6739SOL     OW20560   3.949   2.137   4.720
 6739SOL    HW120561   3.984   2.120   4.812
 6739SOL    HW220562   3.861   2.092   4.708
 6740SOL     OW20563   3.743   2.230   4.371
 6740SOL    HW120564   3.661   2.273   4.410
 6740SOL    HW220565   3.715   2.157   4.308
 6741SOL     OW20566   4.293   3.137   4.889
 6741SOL    HW120567   4.200   3.130   4.852
 6741SOL    HW220568   4.304   3.226   4.933
 6742SOL     OW20569   5.279   3.373   4.427
 6742SOL    HW120570   5.222   3.357   4.508
 6742SOL    HW220571   5.220   3.383   4.347
 6743SOL     OW20572   4.859   2.565   4.441
 6743SOL    HW120573   4.916   2.643   4.416
 6743SOL    HW220574   4.799   2.591   4.517
 6744SOL     OW20575   5.479   2.469   3.955
 6744SOL    HW120576   5.467   2.456   3.856
 6744SOL    HW220577   5.449   2.388   4.004
 6745SOL     OW20578   4.492   3.006   4.747
 6745SOL    HW120579   4.414   3.023   4.807
 6745SOL    HW220580   4.526   3.093   4.711
 6746SOL     OW20581   4.574   2.660   5.547
 6746SOL    HW120582   4.570   2.736   5.612
 6746SOL    HW220583   4.596   2.696   5.456
 6747SOL     OW20584   4.409   2.874   4.389
 6747SOL    HW120585   4.478   2.858   4.459
 6747SOL    HW220586   4.336   2.931   4.427
 6748SOL     OW20587   4.410   3.023   5.527
 6748SOL    HW120588   4.470   3.102   5.541
 6748SOL    HW220589   4.324   3.054   5.486
 6749SOL     OW20590   4.059   3.297   4.785
 6749SOL    HW120591   3.981   3.266   4.732
 6749SOL    HW220592   4.117   3.355   4.728
 6750SOL     OW20593   5.184   3.367   5.063
 6750SOL    HW120594   5.208   3.461   5.089
 6750SOL    HW220595   5.168   3.313   5.145
 6751SOL     OW20596   4.162   2.254   5.223
 6751SOL    HW120597   4.244   2.198   5.232
 6751SOL    HW220598   4.081   2.196   5.227
 6752SOL     OW20599   5.327   2.309   4.461
 6752SOL    HW120600   5.253   2.355   4.411
 6752SOL    HW220601   5.378   2.377   4.514
 6753SOL     OW20602   3.955   3.575   4.207
 6753SOL    HW120603   3.989   3.652   4.261
 6753SOL    HW220604   3.999   3.575   4.117
 6754SOL     OW20605   4.851   3.203   5.414
 6754SOL    HW120606   4.898   3.203   5.502
 6754SOL    HW220607   4.803   3.116   5.403
 6755SOL     OW20608   3.954   3.296   4.262
 6755SOL    HW120609   3.928   3.392   4.262
 6755SOL    HW220610   3.883   3.242   4.307
 6756SOL     OW20611   3.964   2.953   4.610
 6756SOL    HW120612   3.978   2.869   4.662
 6756SOL    HW220613   3.909   3.017   4.665
 6757SOL     OW20614   4.344   3.648   5.163
 6757SOL    HW120615   4.252   3.631   5.198
 6757SOL    HW220616   4.372   3.740   5.189
 6758SOL     OW20617   4.330   2.826   3.847
 6758SOL    HW120618   4.337   2.910   3.793
 6758SOL    HW220619   4.376   2.839   3.935
 6759SOL     OW20620   5.318   1.976   5.204
 6759SOL    HW120621   5.300   2.043   5.132
 6759SOL    HW220622   5.315   2.022   5.293
 6760SOL     OW20623   3.846   2.505   4.287
 6760SOL    HW120624   3.801   2.417   4.304
 6760SOL    HW220625   3.845   2.559   4.371
 6761SOL     OW20626   5.566   3.629   4.083
 6761SOL    HW120627   5.620   3.600   4.163
 6761SOL    HW220628   5.596   3.719   4.054
 6762SOL     OW20629   3.751   3.458   3.841
 6762SOL    HW120630   3.732   3.362   3.862
 6762SOL    HW220631   3.718   3.516   3.916
 6763SOL     OW20632   5.413   2.784   4.336
 6763SOL    HW120633   5.508   2.755   4.344
 6763SOL    HW220634   5.405   2.849   4.261
 6764SOL     OW20635   5.365   2.970   4.156
 6764SOL    HW120636   5.451   2.972   4.104
 6764SOL    HW220637   5.379   3.017   4.244
 6765SOL     OW20638   3.837   2.599   5.321
 6765SOL    HW120639   3.925   2.586   5.366
 6765SOL    HW220640   3.824   2.696   5.299
 6766SOL     OW20641   4.337   3.227   4.450
 6766SOL    HW120642   4.288   3.140   4.459
 6766SOL    HW220643   4.314   3.270   4.363
 6767SOL     OW20644   5.017   3.090   5.147
 6767SOL    HW120645   5.054   3.017   5.089
 6767SOL    HW220646   5.069   3.095   5.232
 6768SOL     OW20647   4.533   1.866   4.226
 6768SOL    HW120648   4.573   1.957   4.217
 6768SOL    HW220649   4.433   1.874   4.232
 6769SOL     OW20650   3.921   2.838   4.988
 6769SOL    HW120651   4.010   2.793   4.974
 6769SOL    HW220652   3.848   2.773   4.969
 6770SOL     OW20653   5.249   2.861   3.914
 6770SOL    HW120654   5.186   2.785   3.927
 6770SOL    HW220655   5.297   2.879   4.000
 6771SOL     OW20656   4.911   3.654   5.340
 6771SOL    HW120657   4.935   3.714   5.264
 6771SOL    HW220658   4.918   3.559   5.310
 6772SOL     OW20659   4.041   2.113   5.525
 6772SOL    HW120660   4.112   2.184   5.531
 6772SOL    HW220661   3.953   2.152   5.553
 6773SOL     OW20662   5.190   3.279   4.677
 6773SOL    HW120663   5.131   3.285   4.757
 6773SOL    HW220664   5.175   3.191   4.631
 6774SOL     OW20665   5.391   3.576   4.296
 6774SOL    HW120666   5.350   3.553   4.208
 6774SOL    HW220667   5.373   3.502   4.361
 6775SOL     OW20668   4.322   2.591   3.994
 6775SOL    HW120669   4.346   2.660   3.926
 6775SOL    HW220670   4.244   2.624   4.048
 6776SOL     OW20671   5.005   2.207   4.668
 6776SOL    HW120672   4.919   2.157   4.655
 6776SOL    HW220673   5.067   2.153   4.724
 6777SOL     OW20674   5.300   3.524   4.031
 6777SOL    HW120675   5.389   3.570   4.034
 6777SOL    HW220676   5.279   3.500   3.936
 6778SOL     OW20677   4.531   2.467   5.189
 6778SOL    HW120678   4.484   2.464   5.278
 6778SOL    HW220679   4.480   2.412   5.123
 6779SOL     OW20680   5.118   2.331   5.398
 6779SOL    HW120681   5.098   2.374   5.486
 6779SOL    HW220682   5.196   2.269   5.407
 6780SOL     OW20683   4.697   2.752   5.296
 6780SOL    HW120684   4.743   2.668   5.267
 6780SOL    HW220685   4.641   2.786   5.221
 6781SOL     OW20686   4.715   2.272   4.966
 6781SOL    HW120687   4.638   2.306   5.020
 6781SOL    HW220688   4.681   2.221   4.887
 6782SOL     OW20689   4.765   2.563   4.153
 6782SOL    HW120690   4.791   2.559   4.249
 6782SOL    HW220691   4.680   2.512   4.139
 6783SOL     OW20692   3.800   2.673   4.513
 6783SOL    HW120693   3.899   2.661   4.522
 6783SOL    HW220694   3.776   2.768   4.534
 6784SOL     OW20695   3.854   3.683   5.295
 6784SOL    HW120696   3.844   3.668   5.394
 6784SOL    HW220697   3.768   3.719   5.259
 6785SOL     OW20698   4.589   2.210   3.919
 6785SOL    HW120699   4.648   2.273   3.870
 6785SOL    HW220700   4.608   2.116   3.890
 6786SOL     OW20701   5.443   2.447   5.555
 6786SOL    HW120702   5.417   2.536   5.519
 6786SOL    HW220703   5.441   2.379   5.482
 6787SOL     OW20704   5.086   3.006   4.269
 6787SOL    HW120705   5.169   2.977   4.221
 6787SOL    HW220706   5.037   3.073   4.213
 6788SOL     OW20707   4.274   2.058   4.609
 6788SOL    HW120708   4.269   2.053   4.709
 6788SOL    HW220709   4.276   2.154   4.580
 6789SOL     OW20710   4.732   3.318   4.201
 6789SOL    HW120711   4.686   3.390   4.149
 6789SOL    HW220712   4.728   3.338   4.299
 6790SOL     OW20713   4.075   3.663   4.577
 6790SOL    HW120714   4.125   3.577   4.583
 6790SOL    HW220715   4.140   3.740   4.574
 6791SOL     OW20716   5.519   2.928   4.597
 6791SOL    HW120717   5.457   2.913   4.521
 6791SOL    HW220718   5.467   2.939   4.682
 6792SOL     OW20719   4.951   3.412   5.230
 6792SOL    HW120720   4.957   3.335   5.294
 6792SOL    HW220721   4.899   3.386   5.150
 6793SOL     OW20722   4.045   2.805   3.966
 6793SOL    HW120723   4.127   2.844   3.924
 6793SOL    HW220724   4.018   2.723   3.917
 6794SOL     OW20725   5.182   2.597   4.452
 6794SOL    HW120726   5.177   2.532   4.527
 6794SOL    HW220727   5.262   2.656   4.465
 6795SOL     OW20728   4.185   3.128   5.451
 6795SOL    HW120729   4.135   3.129   5.365
 6795SOL    HW220730   4.122   3.110   5.527
 6796SOL     OW20731   4.835   3.638   3.961
 6796SOL    HW120732   4.775   3.576   4.011
 6796SOL    HW220733   4.866   3.594   3.876
 6797SOL     OW20734   3.926   2.147   5.222
 6797SOL    HW120735   3.846   2.207   5.209
 6797SOL    HW220736   3.916   2.098   5.308
 6798SOL     OW20737   5.356   3.239   3.805
 6798SOL    HW120738   5.324   3.333   3.795
 6798SOL    HW220739   5.280   3.176   3.793
 6799SOL     OW20740   4.188   3.605   4.047
 6799SOL    HW120741   4.221   3.644   4.133
 6799SOL    HW220742   4.264   3.598   3.982
 6800SOL     OW20743   5.124   1.969   4.150
 6800SOL    HW120744   5.100   1.932   4.060
 6800SOL    HW220745   5.223   1.985   4.154
 6801SOL     OW20746   3.973   3.647   4.965
 6801SOL    HW120747   4.030   3.582   5.015
 6801SOL    HW220748   3.957   3.614   4.872
 6802SOL     OW20749   4.664   3.560   4.628
 6802SOL    HW120750   4.744   3.503   4.649
 6802SOL    HW220751   4.615   3.520   4.551
 6803SOL     OW20752   4.106   2.562   4.204
 6803SOL    HW120753   4.151   2.472   4.201
 6803SOL    HW220754   4.012   2.551   4.237
 6804SOL     OW20755   5.271   2.084   5.453
 6804SOL    HW120756   5.266   2.121   5.545
 6804SOL    HW220757   5.199   2.015   5.441
 6805SOL     OW20758   4.338   1.984   3.841
 6805SOL    HW120759   4.436   1.962   3.848
 6805SOL    HW220760   4.307   1.967   3.748
 6806SOL     OW20761   4.505   2.126   5.473
 6806SOL    HW120762   4.572   2.065   5.516
 6806SOL    HW220763   4.432   2.145   5.538
 6807SOL     OW20764   4.612   3.376   4.919
 6807SOL    HW120765   4.589   3.351   4.825
 6807SOL    HW220766   4.673   3.307   4.958
 6808SOL     OW20767   5.075   2.452   5.157
 6808SOL    HW120768   5.103   2.409   5.242
 6808SOL    HW220769   5.100   2.548   5.158
 6809SOL     OW20770   4.527   3.264   4.648
 6809SOL    HW120771   4.617   3.278   4.606
 6809SOL    HW220772   4.456   3.266   4.577
 6810SOL     OW20773   4.646   2.365   4.623
 6810SOL    HW120774   4.621   2.356   4.527
 6810SOL    HW220775   4.694   2.283   4.654
 6811SOL     OW20776   4.263   1.926   4.236
 6811SOL    HW120777   4.182   1.927   4.294
 6811SOL    HW220778   4.266   2.009   4.181
 6812SOL     OW20779   5.158   3.050   3.765
 6812SOL    HW120780   5.190   2.974   3.822
 6812SOL    HW220781   5.066   3.077   3.795
 6813SOL     OW20782   4.021   1.897   3.895
 6813SOL    HW120783   4.070   1.981   3.874
 6813SOL    HW220784   4.083   1.832   3.940
 6814SOL     OW20785   4.659   2.098   4.204
 6814SOL    HW120786   4.611   2.139   4.126
 6814SOL    HW220787   4.758   2.096   4.185
 6815SOL     OW20788   4.800   2.545   5.188
 6815SOL    HW120789   4.720   2.484   5.191
 6815SOL    HW220790   4.881   2.492   5.164
 6816SOL     OW20791   4.951   3.432   4.517
 6816SOL    HW120792   4.972   3.506   4.452
 6816SOL    HW220793   5.019   3.432   4.590
 6817SOL     OW20794   4.183   3.014   4.465
 6817SOL    HW120795   4.112   2.987   4.530
 6817SOL    HW220796   4.157   2.986   4.372
 6818SOL     OW20797   4.995   3.659   4.315
 6818SOL    HW120798   5.039   3.723   4.251
 6818SOL    HW220799   4.945   3.711   4.385
 6819SOL     OW20800   4.756   2.411   3.740
 6819SOL    HW120801   4.715   2.493   3.701
 6819SOL    HW220802   4.820   2.437   3.813
 6820SOL     OW20803   3.802   2.418   5.110
 6820SOL    HW120804   3.894   2.417   5.069
 6820SOL    HW220805   3.796   2.492   5.177
 6821SOL     OW20806   4.285   2.084   4.871
 6821SOL    HW120807   4.323   2.000   4.908
 6821SOL    HW220808   4.197   2.103   4.915
 6822SOL     OW20809   4.590   2.316   4.366
 6822SOL    HW120810   4.558   2.388   4.304
 6822SOL    HW220811   4.614   2.235   4.313
 6823SOL     OW20812   4.741   1.901   4.477
 6823SOL    HW120813   4.669   1.906   4.408
 6823SOL    HW220814   4.717   1.832   4.546
 6824SOL     OW20815   5.153   3.035   4.591
 6824SOL    HW120816   5.098   2.951   4.584
 6824SOL    HW220817   5.179   3.064   4.499
 6825SOL     OW20818   5.190   2.452   4.716
 6825SOL    HW120819   5.160   2.357   4.723
 6825SOL    HW220820   5.263   2.468   4.782
 6826SOL     OW20821   5.581   2.695   4.101
 6826SOL    HW120822   5.623   2.631   4.165
 6826SOL    HW220823   5.543   2.644   4.023
 6827SOL     OW20824   4.212   3.247   3.898
 6827SOL    HW120825   4.125   3.232   3.945
 6827SOL    HW220826   4.195   3.273   3.803
 6828SOL     OW20827   5.388   3.142   4.381
 6828SOL    HW120828   5.487   3.150   4.395
 6828SOL    HW220829   5.343   3.226   4.412
 6829SOL     OW20830   5.114   2.437   3.802
 6829SOL    HW120831   5.060   2.416   3.883
 6829SOL    HW220832   5.205   2.396   3.811
 6830SOL     OW20833   4.251   2.118   4.052
 6830SOL    HW120834   4.278   2.059   3.977
 6830SOL    HW220835   4.251   2.213   4.021
 6831SOL     OW20836   5.478   3.085   5.312
 6831SOL    HW120837   5.569   3.046   5.299
 6831SOL    HW220838   5.486   3.181   5.336
 6832SOL     OW20839   4.788   3.209   5.064
 6832SOL    HW120840   4.708   3.186   5.119
 6832SOL    HW220841   4.871   3.183   5.113
 6833SOL     OW20842   5.316   3.491   5.349
 6833SOL    HW120843   5.343   3.525   5.259
 6833SOL    HW220844   5.395   3.453   5.395
 6834SOL     OW20845   4.835   3.057   4.824
 6834SOL    HW120846   4.795   3.101   4.905
 6834SOL    HW220847   4.794   3.094   4.741
 6835SOL     OW20848   5.362   2.961   4.803
 6835SOL    HW120849   5.367   3.042   4.862
 6835SOL    HW220850   5.276   2.963   4.752
 6836SOL     OW20851   4.639   1.951   5.126
 6836SOL    HW120852   4.664   1.931   5.031
 6836SOL    HW220853   4.711   2.007   5.168
 6837SOL     OW20854   4.704   2.978   5.443
 6837SOL    HW120855   4.605   2.984   5.453
 6837SOL    HW220856   4.727   2.898   5.387
 6838SOL     OW20857   4.429   2.912   4.092
 6838SOL    HW120858   4.415   2.919   4.191
 6838SOL    HW220859   4.513   2.861   4.074
 6839SOL     OW20860   4.134   2.675   4.975
 6839SOL    HW120861   4.220   2.687   5.025
 6839SOL    HW220862   4.092   2.588   5.002
 6840SOL     OW20863   4.998   2.248   4.986
 6840SOL    HW120864   5.019   2.322   5.050
 6840SOL    HW220865   4.909   2.265   4.943
 6841SOL     OW20866   3.788   3.426   5.055
 6841SOL    HW120867   3.742   3.508   5.021
 6841SOL    HW220868   3.886   3.445   5.064
 6842SOL     OW20869   4.091   2.962   4.225
 6842SOL    HW120870   4.084   3.045   4.169
 6842SOL    HW220871   4.095   2.882   4.165
 6843SOL     OW20872   4.290   2.399   4.589
 6843SOL    HW120873   4.302   2.465   4.515
 6843SOL    HW220874   4.336   2.433   4.672
 6844SOL     OW20875   4.976   3.210   4.112
 6844SOL    HW120876   5.026   3.287   4.152
 6844SOL    HW220877   4.881   3.212   4.144
 6845SOL     OW20878   4.996   3.307   4.866
 6845SOL    HW120879   5.043   3.320   4.953
 6845SOL    HW220880   4.930   3.233   4.875
 6846SOL     OW20881   5.306   2.501   4.196
 6846SOL    HW120882   5.275   2.562   4.269
 6846SOL    HW220883   5.356   2.553   4.127
 6847SOL     OW20884   4.078   3.372   5.053
 6847SOL    HW120885   4.057   3.328   4.966
 6847SOL    HW220886   4.175   3.398   5.056
 6848SOL     OW20887   4.126   2.613   5.322
 6848SOL    HW120888   4.194   2.668   5.275
 6848SOL    HW220889   4.166   2.525   5.349
 6849SOL     OW20890   5.311   2.641   5.394
 6849SOL    HW120891   5.219   2.679   5.389
 6849SOL    HW220892   5.371   2.688   5.329
 6850SOL     OW20893   4.737   1.967   5.494
 6850SOL    HW120894   4.743   2.052   5.442
 6850SOL    HW220895   4.769   1.891   5.437
 6851SOL     OW20896   4.228   1.912   5.464
 6851SOL    HW120897   4.186   1.855   5.394
 6851SOL    HW220898   4.162   1.981   5.496
 6852SOL     OW20899   4.297   2.732   4.753
 6852SOL    HW120900   4.341   2.821   4.744
 6852SOL    HW220901   4.234   2.732   4.830
 6853SOL     OW20902   5.084   2.724   4.769
 6853SOL    HW120903   5.009   2.724   4.703
 6853SOL    HW220904   5.121   2.632   4.778
 6854SOL     OW20905   4.933   2.387   3.999
 6854SOL    HW120906   4.946   2.303   4.053
 6854SOL    HW220907   4.904   2.461   4.059
 6855SOL     OW20908   4.031   2.075   4.955
 6855SOL    HW120909   4.008   2.112   5.045
 6855SOL    HW220910   4.001   1.980   4.949
 6856SOL     OW20911   3.761   3.172   5.006
 6856SOL    HW120912   3.814   3.123   5.074
 6856SOL    HW220913   3.783   3.270   5.011
 6857SOL     OW20914   4.456   2.496   4.788
 6857SOL    HW120915   4.515   2.470   4.712
 6857SOL    HW220916   4.428   2.592   4.777
 6858SOL     OW20917   5.452   2.797   5.578
 6858SOL    HW120918   5.406   2.790   5.489
 6858SOL    HW220919   5.390   2.841   5.644
 6859SOL     OW20920   4.031   1.925   4.342
 6859SOL    HW120921   4.020   2.019   4.375
 6859SOL    HW220922   4.026   1.862   4.419
 6860SOL     OW20923   5.346   2.229   4.098
 6860SOL    HW120924   5.348   2.153   4.162
 6860SOL    HW220925   5.298   2.306   4.138
 6861SOL     OW20926   4.747   2.628   4.690
 6861SOL    HW120927   4.762   2.649   4.786
 6861SOL    HW220928   4.717   2.533   4.681
 6862SOL     OW20929   4.704   3.435   5.424
 6862SOL    HW120930   4.684   3.479   5.336
 6862SOL    HW220931   4.743   3.344   5.408
 6863SOL     OW20932   5.583   3.380   5.329
 6863SOL    HW120933   5.597   3.407   5.234
 6863SOL    HW220934   5.666   3.402   5.382
 6864SOL     OW20935   4.074   2.760   5.528
 6864SOL    HW120936   4.150   2.804   5.576
 6864SOL    HW220937   4.109   2.713   5.446
 6865SOL     OW20938   5.264   2.136   3.849
 6865SOL    HW120939   5.203   2.061   3.872
 6865SOL    HW220940   5.286   2.188   3.932
 6866SOL     OW20941   5.027   2.700   3.766
 6866SOL    HW120942   5.061   2.607   3.781
 6866SOL    HW220943   5.045   2.727   3.671
 6867SOL     OW20944   4.792   3.195   4.573
 6867SOL    HW120945   4.799   3.111   4.518
 6867SOL    HW220946   4.854   3.264   4.537
 6868SOL     OW20947   4.043   2.672   4.673
 6868SOL    HW120948   4.136   2.708   4.678
 6868SOL    HW220949   4.037   2.587   4.725
 6869SOL     OW20950   4.063   2.371   4.730
 6869SOL    HW120951   4.011   2.288   4.713
 6869SOL    HW220952   4.140   2.376   4.666
 6870SOL     OW20953   4.862   2.242   5.402
 6870SOL    HW120954   4.817   2.305   5.466
 6870SOL    HW220955   4.955   2.273   5.385
 6871SOL     OW20956   4.884   2.069   5.201
 6871SOL    HW120957   4.884   2.133   5.278
 6871SOL    HW220958   4.912   2.117   5.118
 6872SOL     OW20959   3.732   3.188   3.924
 6872SOL    HW120960   3.639   3.209   3.893
 6872SOL    HW220961   3.742   3.089   3.937
 6873SOL     OW20962   3.812   3.663   4.651
 6873SOL    HW120963   3.770   3.577   4.624
 6873SOL    HW220964   3.906   3.666   4.617
 6874SOL     OW20965   4.228   3.430   4.634
 6874SOL    HW120966   4.294   3.504   4.643
 6874SOL    HW220967   4.272   3.351   4.592
 6875SOL     OW20968   4.726   2.658   4.962
 6875SOL    HW120969   4.767   2.626   5.048
 6875SOL    HW220970   4.630   2.631   4.959
 6876SOL     OW20971   3.764   2.406   4.838
 6876SOL    HW120972   3.849   2.373   4.797
 6876SOL    HW220973   3.777   2.421   4.936
 6877SOL     OW20974   3.913   2.382   5.446
 6877SOL    HW120975   3.972   2.342   5.376
 6877SOL    HW220976   3.855   2.453   5.405
 6878SOL     OW20977   5.093   2.812   5.384
 6878SOL    HW120978   5.132   2.901   5.404
 6878SOL    HW220979   5.103   2.792   5.287
 6879SOL     OW20980   4.539   2.434   4.049
 6879SOL    HW120981   4.546   2.345   4.003
 6879SOL    HW220982   4.445   2.468   4.041
 6880SOL     OW20983   5.381   2.466   4.930
 6880SOL    HW120984   5.343   2.397   4.992
 6880SOL    HW220985   5.463   2.430   4.886
 6881SOL     OW20986   3.976   3.426   5.468
 6881SOL    HW120987   3.946   3.483   5.544
 6881SOL    HW220988   3.969   3.329   5.494
 6882SOL     OW20989   4.395   2.326   4.993
 6882SOL    HW120990   4.361   2.237   4.963
 6882SOL    HW220991   4.421   2.380   4.913
 6883SOL     OW20992   4.654   3.540   5.189
 6883SOL    HW120993   4.630   3.522   5.094
 6883SOL    HW220994   4.684   3.634   5.199
 6884SOL     OW20995   4.197   2.362   3.915
 6884SOL    HW120996   4.258   2.442   3.919
 6884SOL    HW220997   4.102   2.393   3.922
 6885SOL     OW20998   3.883   2.999   5.190
 6885SOL    HW120999   3.905   2.938   5.266
 6885SOL    HW221000   3.893   2.950   5.104
 6886SOL     OW21001   5.071   2.921   4.958
 6886SOL    HW121002   5.095   2.858   4.884
 6886SOL    HW221003   4.981   2.961   4.940
 6887SOL     OW21004   5.026   2.717   4.033
 6887SOL    HW121005   4.940   2.686   4.075
 6887SOL    HW221006   5.022   2.703   3.934
 6888SOL     OW21007   5.483   3.609   4.878
 6888SOL    HW121008   5.544   3.639   4.805
 6888SOL    HW221009   5.445   3.520   4.856
 6889SOL     OW21010   4.976   3.593   4.852
 6889SOL    HW121011   5.060   3.598   4.798
 6889SOL    HW221012   4.953   3.497   4.870
 6890SOL     OW21013   3.807   3.120   4.746
 6890SOL    HW121014   3.802   3.119   4.846
 6890SOL    HW221015   3.724   3.079   4.708
 6891SOL     OW21016   4.412   3.524   5.440
 6891SOL    HW121017   4.356   3.605   5.449
 6891SOL    HW221018   4.464   3.528   5.354
 6892SOL     OW21019   5.450   1.997   4.247
 6892SOL    HW121020   5.523   1.980   4.180
 6892SOL    HW221021   5.419   1.910   4.285
 6893SOL     OW21022   5.112   3.435   4.201
 6893SOL    HW121023   5.179   3.447   4.127
 6893SOL    HW221024   5.072   3.524   4.224
 6894SOL     OW21025   3.854   3.656   5.575
 6894SOL    HW121026   3.813   3.582   5.628
 6894SOL    HW221027   3.918   3.707   5.633
 6895SOL     OW21028   5.004   2.789   4.396
 6895SOL    HW121029   5.064   2.708   4.398
 6895SOL    HW221030   5.044   2.858   4.336
 6896SOL     OW21031   4.554   3.135   5.146
 6896SOL    HW121032   4.549   3.168   5.241
 6896SOL    HW221033   4.468   3.154   5.100
 6897SOL     OW21034   4.396   3.478   3.878
 6897SOL    HW121035   4.405   3.488   3.779
 6897SOL    HW221036   4.356   3.389   3.899
 6898SOL     OW21037   5.374   3.582   5.118
 6898SOL    HW121038   5.427   3.592   5.034
 6898SOL    HW221039   5.347   3.672   5.152
 6899SOL     OW21040   5.565   2.037   4.687
 6899SOL    HW121041   5.604   1.952   4.651
 6899SOL    HW221042   5.467   2.039   4.668
 6900SOL     OW21043   3.987   2.188   4.444
 6900SOL    HW121044   3.908   2.239   4.410
 6900SOL    HW221045   3.978   2.173   4.542
 6901SOL     OW21046   4.918   3.474   3.755
 6901SOL    HW121047   4.924   3.381   3.792
 6901SOL    HW221048   4.859   3.474   3.675
 6902SOL     OW21049   4.546   2.864   5.096
 6902SOL    HW121050   4.586   2.863   5.004
 6902SOL    HW221051   4.556   2.956   5.136
 6903SOL     OW21052   4.640   2.772   4.015
 6903SOL    HW121053   4.703   2.810   3.947
 6903SOL    HW221054   4.680   2.689   4.054
 6904SOL     OW21055   5.228   3.469   3.768
 6904SOL    HW121056   5.136   3.506   3.775
 6904SOL    HW221057   5.266   3.489   3.678
 6905SOL     OW21058   4.096   3.150   5.214
 6905SOL    HW121059   4.083   3.243   5.180
 6905SOL    HW221060   4.012   3.098   5.201
 6906SOL     OW21061   5.338   3.154   5.013
 6906SOL    HW121062   5.398   3.157   5.093
 6906SOL    HW221063   5.263   3.218   5.026
 6907SOL     OW21064   4.763   2.960   4.420
 6907SOL    HW121065   4.693   2.913   4.474
 6907SOL    HW221066   4.822   2.892   4.377
 6908SOL     OW21067   4.738   2.098   4.695
 6908SOL    HW121068   4.730   2.062   4.602
 6908SOL    HW221069   4.736   2.022   4.760
 6909SOL     OW21070   4.314   3.349   4.215
 6909SOL    HW121071   4.356   3.291   4.145
 6909SOL    HW221072   4.270   3.428   4.171
 6910SOL     OW21073   5.433   2.247   5.105
 6910SOL    HW121074   5.506   2.316   5.109
 6910SOL    HW221075   5.461   2.172   5.046
 6911SOL     OW21076   3.979   3.210   4.014
 6911SOL    HW121077   3.883   3.211   3.987
 6911SOL    HW221078   3.991   3.263   4.098
 6912SOL     OW21079   3.829   2.875   5.450
 6912SOL    HW121080   3.752   2.842   5.504
 6912SOL    HW221081   3.914   2.845   5.492
 6913SOL     OW21082   4.396   2.065   5.213
 6913SOL    HW121083   4.486   2.049   5.173
 6913SOL    HW221084   4.404   2.070   5.312
 6914SOL     OW21085   3.799   2.207   3.757
 6914SOL    HW121086   3.707   2.179   3.728
 6914SOL    HW221087   3.830   2.284   3.701
 6915SOL     OW21088   5.164   2.718   5.122
 6915SOL    HW121089   5.107   2.770   5.059
 6915SOL    HW221090   5.260   2.730   5.098
 6916SOL     OW21091   3.796   2.028   4.042
 6916SOL    HW121092   3.779   2.111   3.988
 6916SOL    HW221093   3.886   1.991   4.020
 6917SOL     OW21094   4.907   3.197   3.843
 6917SOL    HW121095   4.808   3.186   3.845
 6917SOL    HW221096   4.941   3.212   3.936
 6918SOL     OW21097   4.337   2.704   5.155
 6918SOL    HW121098   4.393   2.785   5.138
 6918SOL    HW221099   4.396   2.624   5.158
 6919SOL     OW21100   5.217   3.629   4.683
 6919SOL    HW121101   5.250   3.693   4.614
 6919SOL    HW221102   5.283   3.623   4.758
 6920SOL     OW21103   4.440   2.427   5.432
 6920SOL    HW121104   4.459   2.492   5.506
 6920SOL    HW221105   4.500   2.347   5.441
 6921SOL     OW21106   5.174   3.082   5.357
 6921SOL    HW121107   5.165   3.072   5.456
 6921SOL    HW221108   5.270   3.075   5.331
 6922SOL     OW21109   4.114   3.603   5.284
 6922SOL    HW121110   4.023   3.644   5.282
 6922SOL    HW221111   4.107   3.509   5.316
 6923SOL     OW21112   5.398   2.745   4.978
 6923SOL    HW121113   5.371   2.656   4.941
 6923SOL    HW221114   5.399   2.813   4.905
 6924SOL     OW21115   4.949   2.187   4.173
 6924SOL    HW121116   5.014   2.113   4.162
 6924SOL    HW221117   4.969   2.237   4.257
 6925SOL     OW21118   4.318   2.607   4.376
 6925SOL    HW121119   4.368   2.692   4.357
 6925SOL    HW221120   4.230   2.609   4.328
 6926SOL     OW21121   5.501   2.204   5.366
 6926SOL    HW121122   5.484   2.235   5.272
 6926SOL    HW221123   5.417   2.167   5.404
 6927SOL     OW21124   5.454   2.796   5.241
 6927SOL    HW121125   5.492   2.887   5.256
 6927SOL    HW221126   5.446   2.779   5.142
 6928SOL     OW21127   4.583   3.236   3.740
 6928SOL    HW121128   4.537   3.251   3.828
 6928SOL    HW221129   4.627   3.321   3.710
 6929SOL     OW21130   4.385   3.652   4.677
 6929SOL    HW121131   4.339   3.740   4.664
 6929SOL    HW221132   4.484   3.664   4.670
 6930SOL     OW21133   4.583   2.818   4.585
 6930SOL    HW121134   4.637   2.749   4.633
 6930SOL    HW221135   4.551   2.887   4.651
 6931SOL     OW21136   4.807   2.846   3.811
 6931SOL    HW121137   4.784   2.899   3.729
 6931SOL    HW221138   4.888   2.790   3.792
 6932SOL     OW21139   5.585   3.431   4.575
 6932SOL    HW121140   5.514   3.419   4.505
 6932SOL    HW221141   5.586   3.352   4.635
 6933SOL     OW21142   3.945   3.176   5.568
 6933SOL    HW121143   3.880   3.103   5.547
 6933SOL    HW221144   3.949   3.190   5.666
 6934SOL     OW21145   3.803   3.102   4.377
 6934SOL    HW121146   3.802   3.055   4.465
 6934SOL    HW221147   3.885   3.074   4.326
 6935SOL     OW21148   4.396   3.253   5.348
 6935SOL    HW121149   4.318   3.203   5.386
 6935SOL    HW221150   4.393   3.348   5.379
 6936SOL     OW21151   5.548   2.054   4.951
 6936SOL    HW121152   5.544   1.964   4.995
 6936SOL    HW221153   5.551   2.043   4.852
 6937SOL     OW21154   4.152   2.286   4.244
 6937SOL    HW121155   4.182   2.214   4.182
 6937SOL    HW221156   4.113   2.246   4.327
 6938SOL     OW21157   5.429   3.349   4.828
 6938SOL    HW121158   5.336   3.324   4.801
 6938SOL    HW221159   5.455   3.299   4.910
 6939SOL     OW21160   4.041   2.409   5.004
 6939SOL    HW121161   4.079   2.350   5.076
 6939SOL    HW221162   4.081   2.383   4.916
 6940SOL     OW21163   4.536   3.448   4.411
 6940SOL    HW121164   4.568   3.458   4.317
 6940SOL    HW221165   4.457   3.386   4.413
 6941SOL     OW21166   5.148   2.076   4.836
 6941SOL    HW121167   5.200   2.011   4.891
 6941SOL    HW221168   5.099   2.139   4.897
 6942SOL     OW21169   4.725   1.896   4.878
 6942SOL    HW121170   4.662   1.824   4.847
 6942SOL    HW221171   4.818   1.860   4.878
 6943SOL     OW21172   4.494   3.192   4.025
 6943SOL    HW121173   4.448   3.105   4.042
 6943SOL    HW221174   4.585   3.189   4.066
 6944SOL     OW21175   4.342   3.429   5.008
 6944SOL    HW121176   4.337   3.511   5.065
 6944SOL    HW221177   4.431   3.426   4.963
 6945SOL     OW21178   5.076   1.914   3.892
 6945SOL    HW121179   5.111   1.873   3.808
 6945SOL    HW221180   4.986   1.876   3.912
 6946SOL     OW21181   5.024   2.315   4.415
 6946SOL    HW121182   4.965   2.395   4.419
 6946SOL    HW221183   5.039   2.280   4.508
 6947SOL     OW21184   5.317   2.083   4.606
 6947SOL    HW121185   5.233   2.082   4.660
 6947SOL    HW221186   5.319   2.166   4.550
 6948SOL     OW21187   3.763   2.939   4.024
 6948SOL    HW121188   3.862   2.928   4.015
 6948SOL    HW221189   3.723   2.853   4.056
 6949SOL     OW21190   4.599   3.508   4.061
 6949SOL    HW121191   4.522   3.473   4.007
 6949SOL    HW221192   4.567   3.579   4.123
 6950SOL     OW21193   3.954   2.490   5.699
 6950SOL    HW121194   3.861   2.488   5.736
 6950SOL    HW221195   3.955   2.451   5.607
 6951SOL     OW21196   3.743   2.230   6.233
 6951SOL    HW121197   3.661   2.273   6.272
 6951SOL    HW221198   3.715   2.157   6.170
 6952SOL     OW21199   5.479   2.469   5.817
 6952SOL    HW121200   5.467   2.456   5.718
 6952SOL    HW221201   5.449   2.388   5.866
 6953SOL     OW21202   4.409   2.874   6.251
 6953SOL    HW121203   4.478   2.858   6.321
 6953SOL    HW221204   4.336   2.931   6.289
 6954SOL     OW21205   4.330   2.826   5.709
 6954SOL    HW121206   4.337   2.910   5.655
 6954SOL    HW221207   4.376   2.839   5.797
 6955SOL     OW21208   5.566   3.629   5.945
 6955SOL    HW121209   5.620   3.600   6.025
 6955SOL    HW221210   5.596   3.719   5.916
 6956SOL     OW21211   3.751   3.458   5.703
 6956SOL    HW121212   3.732   3.362   5.724
 6956SOL    HW221213   3.718   3.516   5.778
 6957SOL     OW21214   5.413   2.784   6.198
 6957SOL    HW121215   5.508   2.755   6.206
 6957SOL    HW221216   5.405   2.849   6.123
 6958SOL     OW21217   5.365   2.970   6.018
 6958SOL    HW121218   5.451   2.972   5.966
 6958SOL    HW221219   5.379   3.017   6.106
 6959SOL     OW21220   4.533   1.866   6.088
 6959SOL    HW121221   4.573   1.957   6.079
 6959SOL    HW221222   4.433   1.874   6.094
 6960SOL     OW21223   5.249   2.861   5.776
 6960SOL    HW121224   5.186   2.785   5.789
 6960SOL    HW221225   5.297   2.879   5.862
 6961SOL     OW21226   4.322   2.591   5.856
 6961SOL    HW121227   4.346   2.660   5.788
 6961SOL    HW221228   4.244   2.624   5.910
 6962SOL     OW21229   5.300   3.524   5.893
 6962SOL    HW121230   5.389   3.570   5.896
 6962SOL    HW221231   5.279   3.500   5.798
 6963SOL     OW21232   4.765   2.563   6.015
 6963SOL    HW121233   4.791   2.559   6.111
 6963SOL    HW221234   4.680   2.512   6.001
 6964SOL     OW21235   4.589   2.210   5.781
 6964SOL    HW121236   4.648   2.273   5.732
 6964SOL    HW221237   4.608   2.116   5.752
 6965SOL     OW21238   5.086   3.006   6.131
 6965SOL    HW121239   5.169   2.977   6.083
 6965SOL    HW221240   5.037   3.073   6.075
 6966SOL     OW21241   4.732   3.318   6.063
 6966SOL    HW121242   4.686   3.390   6.011
 6966SOL    HW221243   4.728   3.338   6.161
 6967SOL     OW21244   4.045   2.805   5.828
 6967SOL    HW121245   4.127   2.844   5.786
 6967SOL    HW221246   4.018   2.723   5.779
 6968SOL     OW21247   4.835   3.638   5.823
 6968SOL    HW121248   4.775   3.576   5.873
 6968SOL    HW221249   4.866   3.594   5.738
 6969SOL     OW21250   5.356   3.239   5.667
 6969SOL    HW121251   5.324   3.333   5.657
 6969SOL    HW221252   5.280   3.176   5.655
 6970SOL     OW21253   4.188   3.605   5.909
 6970SOL    HW121254   4.221   3.644   5.995
 6970SOL    HW221255   4.264   3.598   5.844
 6971SOL     OW21256   5.124   1.969   6.012
 6971SOL    HW121257   5.100   1.932   5.922
 6971SOL    HW221258   5.223   1.985   6.016
 6972SOL     OW21259   4.664   3.560   6.490
 6972SOL    HW121260   4.744   3.503   6.511
 6972SOL    HW221261   4.615   3.520   6.413
 6973SOL     OW21262   4.106   2.562   6.066
 6973SOL    HW121263   4.151   2.472   6.063
 6973SOL    HW221264   4.012   2.551   6.099
 6974SOL     OW21265   4.338   1.984   5.703
 6974SOL    HW121266   4.436   1.962   5.710
 6974SOL    HW221267   4.307   1.967   5.610
 6975SOL     OW21268   4.646   2.365   6.485
 6975SOL    HW121269   4.621   2.356   6.389
 6975SOL    HW221270   4.694   2.283   6.516
 6976SOL     OW21271   4.263   1.926   6.098
 6976SOL    HW121272   4.182   1.927   6.156
 6976SOL    HW221273   4.266   2.009   6.043
 6977SOL     OW21274   5.158   3.050   5.627
 6977SOL    HW121275   5.190   2.974   5.684
 6977SOL    HW221276   5.066   3.077   5.657
 6978SOL     OW21277   4.021   1.897   5.757
 6978SOL    HW121278   4.070   1.981   5.736
 6978SOL    HW221279   4.083   1.832   5.802
 6979SOL     OW21280   4.659   2.098   6.066
 6979SOL    HW121281   4.611   2.139   5.988
 6979SOL    HW221282   4.758   2.096   6.047
 6980SOL     OW21283   4.756   2.411   5.602
 6980SOL    HW121284   4.715   2.493   5.563
 6980SOL    HW221285   4.820   2.437   5.675
 6981SOL     OW21286   5.581   2.695   5.963
 6981SOL    HW121287   5.623   2.631   6.027
 6981SOL    HW221288   5.543   2.644   5.885
 6982SOL     OW21289   4.212   3.247   5.760
 6982SOL    HW121290   4.125   3.232   5.807
 6982SOL    HW221291   4.195   3.273   5.665
 6983SOL     OW21292   5.114   2.437   5.664
 6983SOL    HW121293   5.060   2.416   5.745
 6983SOL    HW221294   5.205   2.396   5.673
 6984SOL     OW21295   4.251   2.118   5.914
 6984SOL    HW121296   4.278   2.059   5.839
 6984SOL    HW221297   4.251   2.213   5.883
 6985SOL     OW21298   4.429   2.912   5.954
 6985SOL    HW121299   4.415   2.919   6.053
 6985SOL    HW221300   4.513   2.861   5.936
 6986SOL     OW21301   4.091   2.962   6.087
 6986SOL    HW121302   4.084   3.045   6.031
 6986SOL    HW221303   4.095   2.882   6.027
 6987SOL     OW21304   4.976   3.210   5.974
 6987SOL    HW121305   5.026   3.287   6.014
 6987SOL    HW221306   4.881   3.212   6.006
 6988SOL     OW21307   5.306   2.501   6.058
 6988SOL    HW121308   5.275   2.562   6.131
 6988SOL    HW221309   5.356   2.553   5.989
 6989SOL     OW21310   4.933   2.387   5.861
 6989SOL    HW121311   4.946   2.303   5.915
 6989SOL    HW221312   4.904   2.461   5.921
 6990SOL     OW21313   5.346   2.229   5.960
 6990SOL    HW121314   5.348   2.153   6.024
 6990SOL    HW221315   5.298   2.306   6.000
 6991SOL     OW21316   5.264   2.136   5.711
 6991SOL    HW121317   5.203   2.061   5.734
 6991SOL    HW221318   5.286   2.188   5.794
 6992SOL     OW21319   5.027   2.700   5.628
 6992SOL    HW121320   5.061   2.607   5.643
 6992SOL    HW221321   5.045   2.727   5.533
 6993SOL     OW21322   3.732   3.188   5.786
 6993SOL    HW121323   3.639   3.209   5.755
 6993SOL    HW221324   3.742   3.089   5.799
 6994SOL     OW21325   4.539   2.434   5.911
 6994SOL    HW121326   4.546   2.345   5.865
 6994SOL    HW221327   4.445   2.468   5.903
 6995SOL     OW21328   4.197   2.362   5.777
 6995SOL    HW121329   4.258   2.442   5.781
 6995SOL    HW221330   4.102   2.393   5.784
 6996SOL     OW21331   5.026   2.717   5.895
 6996SOL    HW121332   4.940   2.686   5.937
 6996SOL    HW221333   5.022   2.703   5.796
 6997SOL     OW21334   5.450   1.997   6.109
 6997SOL    HW121335   5.523   1.980   6.042
 6997SOL    HW221336   5.419   1.910   6.147
 6998SOL     OW21337   5.112   3.435   6.063
 6998SOL    HW121338   5.179   3.447   5.989
 6998SOL    HW221339   5.072   3.524   6.086
 6999SOL     OW21340   5.004   2.789   6.258
 6999SOL    HW121341   5.064   2.708   6.260
 6999SOL    HW221342   5.044   2.858   6.198
 7000SOL     OW21343   4.396   3.478   5.740
 7000SOL    HW121344   4.405   3.488   5.641
 7000SOL    HW221345   4.356   3.389   5.761
 7001SOL     OW21346   4.918   3.474   5.617
 7001SOL    HW121347   4.924   3.381   5.654
 7001SOL    HW221348   4.859   3.474   5.537
 7002SOL     OW21349   4.640   2.772   5.877
 7002SOL    HW121350   4.703   2.810   5.809
 7002SOL    HW221351   4.680   2.689   5.916
 7003SOL     OW21352   5.228   3.469   5.630
 7003SOL    HW121353   5.136   3.506   5.637
 7003SOL    HW221354   5.266   3.489   5.540
 7004SOL     OW21355   4.314   3.349   6.077
 7004SOL    HW121356   4.356   3.291   6.007
 7004SOL    HW221357   4.270   3.428   6.033
 7005SOL     OW21358   3.979   3.210   5.876
 7005SOL    HW121359   3.883   3.211   5.849
 7005SOL    HW221360   3.991   3.263   5.960
 7006SOL     OW21361   3.799   2.207   5.619
 7006SOL    HW121362   3.707   2.179   5.590
 7006SOL    HW221363   3.830   2.284   5.563
 7007SOL     OW21364   3.796   2.028   5.904
 7007SOL    HW121365   3.779   2.111   5.850
 7007SOL    HW221366   3.886   1.991   5.882
 7008SOL     OW21367   4.907   3.197   5.705
 7008SOL    HW121368   4.808   3.186   5.707
 7008SOL    HW221369   4.941   3.212   5.798
 7009SOL     OW21370   4.949   2.187   6.035
 7009SOL    HW121371   5.014   2.113   6.024
 7009SOL    HW221372   4.969   2.237   6.119
 7010SOL     OW21373   4.583   3.236   5.602
 7010SOL    HW121374   4.537   3.251   5.690
 7010SOL    HW221375   4.627   3.321   5.572
 7011SOL     OW21376   4.807   2.846   5.673
 7011SOL    HW121377   4.784   2.899   5.591
 7011SOL    HW221378   4.888   2.790   5.654
 7012SOL     OW21379   4.152   2.286   6.106
 7012SOL    HW121380   4.182   2.214   6.044
 7012SOL    HW221381   4.113   2.246   6.189
 7013SOL     OW21382   4.536   3.448   6.273
 7013SOL    HW121383   4.568   3.458   6.179
 7013SOL    HW221384   4.457   3.386   6.275
 7014SOL     OW21385   4.494   3.192   5.887
 7014SOL    HW121386   4.448   3.105   5.904
 7014SOL    HW221387   4.585   3.189   5.928
 7015SOL     OW21388   5.076   1.914   5.754
 7015SOL    HW121389   5.111   1.873   5.670
 7015SOL    HW221390   4.986   1.876   5.774
 7016SOL     OW21391   5.024   2.315   6.277
 7016SOL    HW121392   4.965   2.395   6.281
 7016SOL    HW221393   5.039   2.280   6.370
 7017SOL     OW21394   3.763   2.939   5.886
 7017SOL    HW121395   3.862   2.928   5.877
 7017SOL    HW221396   3.723   2.853   5.918
 7018SOL     OW21397   4.599   3.508   5.923
 7018SOL    HW121398   4.522   3.473   5.869
 7018SOL    HW221399   4.567   3.579   5.985
 7019SOL     OW21400   3.954   4.352   0.113
 7019SOL    HW121401   3.861   4.350   0.150
 7019SOL    HW221402   3.955   4.313   0.021
 7020SOL     OW21403   3.949   3.999   0.996
 7020SOL    HW121404   3.984   3.982   1.088
 7020SOL    HW221405   3.861   3.954   0.984
 7021SOL     OW21406   3.743   4.092   0.647
 7021SOL    HW121407   3.661   4.135   0.686
 7021SOL    HW221408   3.715   4.019   0.584
 7022SOL     OW21409   4.293   4.999   1.165
 7022SOL    HW121410   4.200   4.992   1.128
 7022SOL    HW221411   4.304   5.088   1.209
 7023SOL     OW21412   5.279   5.235   0.703
 7023SOL    HW121413   5.222   5.219   0.784
 7023SOL    HW221414   5.220   5.245   0.623
 7024SOL     OW21415   4.859   4.427   0.717
 7024SOL    HW121416   4.916   4.505   0.692
 7024SOL    HW221417   4.799   4.453   0.793
 7025SOL     OW21418   5.479   4.331   0.231
 7025SOL    HW121419   5.467   4.318   0.132
 7025SOL    HW221420   5.449   4.250   0.280
 7026SOL     OW21421   4.492   4.868   1.023
 7026SOL    HW121422   4.414   4.885   1.083
 7026SOL    HW221423   4.526   4.955   0.987
 7027SOL     OW21424   4.574   4.522   1.823
 7027SOL    HW121425   4.570   4.598   1.888
 7027SOL    HW221426   4.596   4.558   1.732
 7028SOL     OW21427   4.409   4.736   0.665
 7028SOL    HW121428   4.478   4.720   0.735
 7028SOL    HW221429   4.336   4.793   0.703
 7029SOL     OW21430   4.059   5.159   1.061
 7029SOL    HW121431   3.981   5.128   1.008
 7029SOL    HW221432   4.117   5.217   1.004
 7030SOL     OW21433   5.184   5.229   1.339
 7030SOL    HW121434   5.208   5.323   1.365
 7030SOL    HW221435   5.168   5.175   1.421
 7031SOL     OW21436   4.162   4.116   1.499
 7031SOL    HW121437   4.244   4.060   1.508
 7031SOL    HW221438   4.081   4.058   1.503
 7032SOL     OW21439   5.327   4.171   0.737
 7032SOL    HW121440   5.253   4.217   0.687
 7032SOL    HW221441   5.378   4.239   0.790
 7033SOL     OW21442   3.955   5.437   0.483
 7033SOL    HW121443   3.989   5.514   0.537
 7033SOL    HW221444   3.999   5.437   0.393
 7034SOL     OW21445   3.954   5.158   0.538
 7034SOL    HW121446   3.928   5.254   0.538
 7034SOL    HW221447   3.883   5.104   0.583
 7035SOL     OW21448   3.964   4.815   0.886
 7035SOL    HW121449   3.978   4.731   0.938
 7035SOL    HW221450   3.909   4.879   0.941
 7036SOL     OW21451   4.344   5.510   1.439
 7036SOL    HW121452   4.252   5.493   1.474
 7036SOL    HW221453   4.372   5.602   1.465
 7037SOL     OW21454   4.330   4.688   0.123
 7037SOL    HW121455   4.337   4.772   0.069
 7037SOL    HW221456   4.376   4.701   0.211
 7038SOL     OW21457   5.318   3.838   1.480
 7038SOL    HW121458   5.300   3.905   1.408
 7038SOL    HW221459   5.315   3.884   1.569
 7039SOL     OW21460   3.846   4.367   0.563
 7039SOL    HW121461   3.801   4.279   0.580
 7039SOL    HW221462   3.845   4.421   0.647
 7040SOL     OW21463   3.751   5.320   0.117
 7040SOL    HW121464   3.732   5.224   0.138
 7040SOL    HW221465   3.718   5.378   0.192
 7041SOL     OW21466   5.413   4.646   0.612
 7041SOL    HW121467   5.508   4.617   0.620
 7041SOL    HW221468   5.405   4.711   0.537
 7042SOL     OW21469   5.365   4.832   0.432
 7042SOL    HW121470   5.451   4.834   0.380
 7042SOL    HW221471   5.379   4.879   0.520
 7043SOL     OW21472   3.837   4.461   1.597
 7043SOL    HW121473   3.925   4.448   1.642
 7043SOL    HW221474   3.824   4.558   1.575
 7044SOL     OW21475   4.337   5.089   0.726
 7044SOL    HW121476   4.288   5.002   0.735
 7044SOL    HW221477   4.314   5.132   0.639
 7045SOL     OW21478   5.017   4.952   1.423
 7045SOL    HW121479   5.054   4.879   1.365
 7045SOL    HW221480   5.069   4.957   1.508
 7046SOL     OW21481   4.533   3.728   0.502
 7046SOL    HW121482   4.573   3.819   0.493
 7046SOL    HW221483   4.433   3.736   0.508
 7047SOL     OW21484   3.921   4.700   1.264
 7047SOL    HW121485   4.010   4.655   1.250
 7047SOL    HW221486   3.848   4.635   1.245
 7048SOL     OW21487   4.911   5.516   1.616
 7048SOL    HW121488   4.935   5.576   1.540
 7048SOL    HW221489   4.918   5.421   1.586
 7049SOL     OW21490   4.041   3.975   1.801
 7049SOL    HW121491   4.112   4.046   1.807
 7049SOL    HW221492   3.953   4.014   1.829
 7050SOL     OW21493   5.190   5.141   0.953
 7050SOL    HW121494   5.131   5.147   1.033
 7050SOL    HW221495   5.175   5.053   0.907
 7051SOL     OW21496   5.391   5.438   0.572
 7051SOL    HW121497   5.350   5.415   0.484
 7051SOL    HW221498   5.373   5.364   0.637
 7052SOL     OW21499   4.322   4.453   0.270
 7052SOL    HW121500   4.346   4.522   0.202
 7052SOL    HW221501   4.244   4.486   0.324
 7053SOL     OW21502   5.005   4.069   0.944
 7053SOL    HW121503   4.919   4.019   0.931
 7053SOL    HW221504   5.067   4.015   1.000
 7054SOL     OW21505   4.531   4.329   1.465
 7054SOL    HW121506   4.484   4.326   1.554
 7054SOL    HW221507   4.480   4.274   1.399
 7055SOL     OW21508   5.118   4.193   1.674
 7055SOL    HW121509   5.098   4.236   1.762
 7055SOL    HW221510   5.196   4.131   1.683
 7056SOL     OW21511   4.715   4.134   1.242
 7056SOL    HW121512   4.638   4.168   1.296
 7056SOL    HW221513   4.681   4.083   1.163
 7057SOL     OW21514   4.765   4.425   0.429
 7057SOL    HW121515   4.791   4.421   0.525
 7057SOL    HW221516   4.680   4.374   0.415
 7058SOL     OW21517   3.800   4.535   0.789
 7058SOL    HW121518   3.899   4.523   0.798
 7058SOL    HW221519   3.776   4.630   0.810
 7059SOL     OW21520   3.854   5.545   1.571
 7059SOL    HW121521   3.844   5.530   1.670
 7059SOL    HW221522   3.768   5.581   1.535
 7060SOL     OW21523   4.589   4.072   0.195
 7060SOL    HW121524   4.648   4.135   0.146
 7060SOL    HW221525   4.608   3.978   0.166
 7061SOL     OW21526   5.443   4.309   1.831
 7061SOL    HW121527   5.417   4.398   1.795
 7061SOL    HW221528   5.441   4.241   1.758
 7062SOL     OW21529   5.086   4.868   0.545
 7062SOL    HW121530   5.169   4.839   0.497
 7062SOL    HW221531   5.037   4.935   0.489
 7063SOL     OW21532   4.274   3.920   0.885
 7063SOL    HW121533   4.269   3.915   0.985
 7063SOL    HW221534   4.276   4.016   0.856
 7064SOL     OW21535   4.732   5.180   0.477
 7064SOL    HW121536   4.686   5.252   0.425
 7064SOL    HW221537   4.728   5.200   0.575
 7065SOL     OW21538   4.075   5.525   0.853
 7065SOL    HW121539   4.125   5.439   0.859
 7065SOL    HW221540   4.140   5.602   0.850
 7066SOL     OW21541   5.519   4.790   0.873
 7066SOL    HW121542   5.457   4.775   0.797
 7066SOL    HW221543   5.467   4.801   0.958
 7067SOL     OW21544   4.045   4.667   0.242
 7067SOL    HW121545   4.127   4.706   0.200
 7067SOL    HW221546   4.018   4.585   0.193
 7068SOL     OW21547   5.182   4.459   0.728
 7068SOL    HW121548   5.177   4.394   0.803
 7068SOL    HW221549   5.262   4.518   0.741
 7069SOL     OW21550   4.835   5.500   0.237
 7069SOL    HW121551   4.775   5.438   0.287
 7069SOL    HW221552   4.866   5.456   0.152
 7070SOL     OW21553   3.926   4.009   1.498
 7070SOL    HW121554   3.846   4.069   1.485
 7070SOL    HW221555   3.916   3.960   1.584
 7071SOL     OW21556   5.356   5.101   0.081
 7071SOL    HW121557   5.324   5.195   0.071
 7071SOL    HW221558   5.280   5.038   0.069
 7072SOL     OW21559   4.188   5.467   0.323
 7072SOL    HW121560   4.221   5.506   0.409
 7072SOL    HW221561   4.264   5.460   0.258
 7073SOL     OW21562   5.124   3.831   0.426
 7073SOL    HW121563   5.100   3.794   0.336
 7073SOL    HW221564   5.223   3.847   0.430
 7074SOL     OW21565   3.973   5.509   1.241
 7074SOL    HW121566   4.030   5.444   1.291
 7074SOL    HW221567   3.957   5.476   1.148
 7075SOL     OW21568   4.664   5.422   0.904
 7075SOL    HW121569   4.744   5.365   0.925
 7075SOL    HW221570   4.615   5.382   0.827
 7076SOL     OW21571   4.106   4.424   0.480
 7076SOL    HW121572   4.151   4.334   0.477
 7076SOL    HW221573   4.012   4.413   0.513
 7077SOL     OW21574   5.271   3.946   1.729
 7077SOL    HW121575   5.266   3.983   1.821
 7077SOL    HW221576   5.199   3.877   1.717
 7078SOL     OW21577   4.338   3.846   0.117
 7078SOL    HW121578   4.436   3.824   0.124
 7078SOL    HW221579   4.307   3.829   0.024
 7079SOL     OW21580   4.505   3.988   1.749
 7079SOL    HW121581   4.572   3.927   1.792
 7079SOL    HW221582   4.432   4.007   1.814
 7080SOL     OW21583   5.075   4.314   1.433
 7080SOL    HW121584   5.103   4.271   1.518
 7080SOL    HW221585   5.100   4.410   1.434
 7081SOL     OW21586   4.527   5.126   0.924
 7081SOL    HW121587   4.617   5.140   0.882
 7081SOL    HW221588   4.456   5.128   0.853
 7082SOL     OW21589   4.646   4.227   0.899
 7082SOL    HW121590   4.621   4.218   0.803
 7082SOL    HW221591   4.694   4.145   0.930
 7083SOL     OW21592   4.263   3.788   0.512
 7083SOL    HW121593   4.182   3.789   0.570
 7083SOL    HW221594   4.266   3.871   0.457
 7084SOL     OW21595   4.021   3.759   0.171
 7084SOL    HW121596   4.070   3.843   0.150
 7084SOL    HW221597   4.083   3.694   0.216
 7085SOL     OW21598   4.659   3.960   0.480
 7085SOL    HW121599   4.611   4.001   0.402
 7085SOL    HW221600   4.758   3.958   0.461
 7086SOL     OW21601   4.800   4.407   1.464
 7086SOL    HW121602   4.720   4.346   1.467
 7086SOL    HW221603   4.881   4.354   1.440
 7087SOL     OW21604   4.951   5.294   0.793
 7087SOL    HW121605   4.972   5.368   0.728
 7087SOL    HW221606   5.019   5.294   0.866
 7088SOL     OW21607   4.183   4.876   0.741
 7088SOL    HW121608   4.112   4.849   0.806
 7088SOL    HW221609   4.157   4.848   0.648
 7089SOL     OW21610   4.995   5.521   0.591
 7089SOL    HW121611   5.039   5.585   0.527
 7089SOL    HW221612   4.945   5.573   0.661
 7090SOL     OW21613   4.756   4.273   0.016
 7090SOL    HW121614   4.715   4.355  -0.023
 7090SOL    HW221615   4.820   4.299   0.089
 7091SOL     OW21616   3.802   4.280   1.386
 7091SOL    HW121617   3.894   4.279   1.345
 7091SOL    HW221618   3.796   4.354   1.453
 7092SOL     OW21619   4.285   3.946   1.147
 7092SOL    HW121620   4.323   3.862   1.184
 7092SOL    HW221621   4.197   3.965   1.191
 7093SOL     OW21622   4.590   4.178   0.642
 7093SOL    HW121623   4.558   4.250   0.580
 7093SOL    HW221624   4.614   4.097   0.589
 7094SOL     OW21625   4.741   3.763   0.753
 7094SOL    HW121626   4.669   3.768   0.684
 7094SOL    HW221627   4.717   3.694   0.822
 7095SOL     OW21628   5.153   4.897   0.867
 7095SOL    HW121629   5.098   4.813   0.860
 7095SOL    HW221630   5.179   4.926   0.775
 7096SOL     OW21631   5.190   4.314   0.992
 7096SOL    HW121632   5.160   4.219   0.999
 7096SOL    HW221633   5.263   4.330   1.058
 7097SOL     OW21634   5.581   4.557   0.377
 7097SOL    HW121635   5.623   4.493   0.441
 7097SOL    HW221636   5.543   4.506   0.299
 7098SOL     OW21637   4.212   5.109   0.174
 7098SOL    HW121638   4.125   5.094   0.221
 7098SOL    HW221639   4.195   5.135   0.079
 7099SOL     OW21640   5.388   5.004   0.657
 7099SOL    HW121641   5.487   5.012   0.671
 7099SOL    HW221642   5.343   5.088   0.688
 7100SOL     OW21643   4.251   3.980   0.328
 7100SOL    HW121644   4.278   3.921   0.253
 7100SOL    HW221645   4.251   4.075   0.297
 7101SOL     OW21646   5.478   4.947   1.588
 7101SOL    HW121647   5.569   4.908   1.575
 7101SOL    HW221648   5.486   5.043   1.612
 7102SOL     OW21649   5.316   5.353   1.625
 7102SOL    HW121650   5.343   5.387   1.535
 7102SOL    HW221651   5.395   5.315   1.671
 7103SOL     OW21652   4.835   4.919   1.100
 7103SOL    HW121653   4.795   4.963   1.181
 7103SOL    HW221654   4.794   4.956   1.017
 7104SOL     OW21655   5.362   4.823   1.079
 7104SOL    HW121656   5.367   4.904   1.138
 7104SOL    HW221657   5.276   4.825   1.028
 7105SOL     OW21658   4.639   3.813   1.402
 7105SOL    HW121659   4.664   3.793   1.307
 7105SOL    HW221660   4.711   3.869   1.444
 7106SOL     OW21661   4.429   4.774   0.368
 7106SOL    HW121662   4.415   4.781   0.467
 7106SOL    HW221663   4.513   4.723   0.350
 7107SOL     OW21664   4.134   4.537   1.251
 7107SOL    HW121665   4.220   4.549   1.301
 7107SOL    HW221666   4.092   4.450   1.278
 7108SOL     OW21667   4.998   4.110   1.262
 7108SOL    HW121668   5.019   4.184   1.326
 7108SOL    HW221669   4.909   4.127   1.219
 7109SOL     OW21670   3.788   5.288   1.331
 7109SOL    HW121671   3.742   5.370   1.297
 7109SOL    HW221672   3.886   5.307   1.340
 7110SOL     OW21673   4.091   4.824   0.501
 7110SOL    HW121674   4.084   4.907   0.445
 7110SOL    HW221675   4.095   4.744   0.441
 7111SOL     OW21676   4.290   4.261   0.865
 7111SOL    HW121677   4.302   4.327   0.791
 7111SOL    HW221678   4.336   4.295   0.948
 7112SOL     OW21679   4.976   5.072   0.388
 7112SOL    HW121680   5.026   5.149   0.428
 7112SOL    HW221681   4.881   5.074   0.420
 7113SOL     OW21682   5.306   4.363   0.472
 7113SOL    HW121683   5.275   4.424   0.545
 7113SOL    HW221684   5.356   4.415   0.403
 7114SOL     OW21685   4.078   5.234   1.329
 7114SOL    HW121686   4.057   5.190   1.242
 7114SOL    HW221687   4.175   5.260   1.332
 7115SOL     OW21688   4.126   4.475   1.598
 7115SOL    HW121689   4.194   4.530   1.551
 7115SOL    HW221690   4.166   4.387   1.625
 7116SOL     OW21691   5.311   4.503   1.670
 7116SOL    HW121692   5.219   4.541   1.665
 7116SOL    HW221693   5.371   4.550   1.605
 7117SOL     OW21694   4.737   3.829   1.770
 7117SOL    HW121695   4.743   3.914   1.718
 7117SOL    HW221696   4.769   3.753   1.713
 7118SOL     OW21697   4.228   3.774   1.740
 7118SOL    HW121698   4.186   3.717   1.670
 7118SOL    HW221699   4.162   3.843   1.772
 7119SOL     OW21700   4.297   4.594   1.029
 7119SOL    HW121701   4.341   4.683   1.020
 7119SOL    HW221702   4.234   4.594   1.106
 7120SOL     OW21703   5.084   4.586   1.045
 7120SOL    HW121704   5.009   4.586   0.979
 7120SOL    HW221705   5.121   4.494   1.054
 7121SOL     OW21706   4.933   4.249   0.275
 7121SOL    HW121707   4.946   4.165   0.329
 7121SOL    HW221708   4.904   4.323   0.335
 7122SOL     OW21709   4.031   3.937   1.231
 7122SOL    HW121710   4.008   3.974   1.321
 7122SOL    HW221711   4.001   3.842   1.225
 7123SOL     OW21712   3.761   5.034   1.282
 7123SOL    HW121713   3.814   4.985   1.350
 7123SOL    HW221714   3.783   5.132   1.287
 7124SOL     OW21715   4.456   4.358   1.064
 7124SOL    HW121716   4.515   4.332   0.988
 7124SOL    HW221717   4.428   4.454   1.053
 7125SOL     OW21718   5.452   4.659   1.854
 7125SOL    HW121719   5.406   4.652   1.765
 7125SOL    HW221720   5.390   4.703   1.920
 7126SOL     OW21721   4.031   3.787   0.618
 7126SOL    HW121722   4.020   3.881   0.651
 7126SOL    HW221723   4.026   3.724   0.695
 7127SOL     OW21724   5.346   4.091   0.374
 7127SOL    HW121725   5.348   4.015   0.438
 7127SOL    HW221726   5.298   4.168   0.414
 7128SOL     OW21727   4.747   4.490   0.966
 7128SOL    HW121728   4.762   4.511   1.062
 7128SOL    HW221729   4.717   4.395   0.957
 7129SOL     OW21730   5.583   5.242   1.605
 7129SOL    HW121731   5.597   5.269   1.510
 7129SOL    HW221732   5.666   5.264   1.658
 7130SOL     OW21733   4.074   4.622   1.804
 7130SOL    HW121734   4.150   4.666   1.852
 7130SOL    HW221735   4.109   4.575   1.722
 7131SOL     OW21736   4.792   5.057   0.849
 7131SOL    HW121737   4.799   4.973   0.794
 7131SOL    HW221738   4.854   5.126   0.813
 7132SOL     OW21739   4.043   4.534   0.949
 7132SOL    HW121740   4.136   4.570   0.954
 7132SOL    HW221741   4.037   4.449   1.001
 7133SOL     OW21742   4.063   4.233   1.006
 7133SOL    HW121743   4.011   4.150   0.989
 7133SOL    HW221744   4.140   4.238   0.942
 7134SOL     OW21745   4.862   4.104   1.678
 7134SOL    HW121746   4.817   4.167   1.742
 7134SOL    HW221747   4.955   4.135   1.661
 7135SOL     OW21748   4.884   3.931   1.477
 7135SOL    HW121749   4.884   3.995   1.554
 7135SOL    HW221750   4.912   3.979   1.394
 7136SOL     OW21751   3.732   5.050   0.200
 7136SOL    HW121752   3.639   5.071   0.169
 7136SOL    HW221753   3.742   4.951   0.213
 7137SOL     OW21754   3.812   5.525   0.927
 7137SOL    HW121755   3.770   5.439   0.900
 7137SOL    HW221756   3.906   5.528   0.893
 7138SOL     OW21757   4.228   5.292   0.910
 7138SOL    HW121758   4.294   5.366   0.919
 7138SOL    HW221759   4.272   5.213   0.868
 7139SOL     OW21760   4.726   4.520   1.238
 7139SOL    HW121761   4.767   4.488   1.324
 7139SOL    HW221762   4.630   4.493   1.235
 7140SOL     OW21763   3.764   4.268   1.114
 7140SOL    HW121764   3.849   4.235   1.073
 7140SOL    HW221765   3.777   4.283   1.212
 7141SOL     OW21766   3.913   4.244   1.722
 7141SOL    HW121767   3.972   4.204   1.652
 7141SOL    HW221768   3.855   4.315   1.681
 7142SOL     OW21769   5.093   4.674   1.660
 7142SOL    HW121770   5.132   4.763   1.680
 7142SOL    HW221771   5.103   4.654   1.563
 7143SOL     OW21772   4.539   4.296   0.325
 7143SOL    HW121773   4.546   4.207   0.279
 7143SOL    HW221774   4.445   4.330   0.317
 7144SOL     OW21775   5.381   4.328   1.206
 7144SOL    HW121776   5.343   4.259   1.268
 7144SOL    HW221777   5.463   4.292   1.162
 7145SOL     OW21778   3.976   5.288   1.744
 7145SOL    HW121779   3.946   5.345   1.820
 7145SOL    HW221780   3.969   5.191   1.770
 7146SOL     OW21781   4.395   4.188   1.269
 7146SOL    HW121782   4.361   4.099   1.239
 7146SOL    HW221783   4.421   4.242   1.189
 7147SOL     OW21784   4.197   4.224   0.191
 7147SOL    HW121785   4.258   4.304   0.195
 7147SOL    HW221786   4.102   4.255   0.198
 7148SOL     OW21787   3.883   4.861   1.466
 7148SOL    HW121788   3.905   4.800   1.542
 7148SOL    HW221789   3.893   4.812   1.380
 7149SOL     OW21790   5.071   4.783   1.234
 7149SOL    HW121791   5.095   4.720   1.160
 7149SOL    HW221792   4.981   4.823   1.216
 7150SOL     OW21793   5.483   5.471   1.154
 7150SOL    HW121794   5.544   5.501   1.081
 7150SOL    HW221795   5.445   5.382   1.132
 7151SOL     OW21796   4.976   5.455   1.128
 7151SOL    HW121797   5.060   5.460   1.074
 7151SOL    HW221798   4.953   5.359   1.146
 7152SOL     OW21799   3.807   4.982   1.022
 7152SOL    HW121800   3.802   4.981   1.122
 7152SOL    HW221801   3.724   4.941   0.984
 7153SOL     OW21802   5.450   3.859   0.523
 7153SOL    HW121803   5.523   3.842   0.456
 7153SOL    HW221804   5.419   3.772   0.561
 7154SOL     OW21805   5.112   5.297   0.477
 7154SOL    HW121806   5.179   5.309   0.403
 7154SOL    HW221807   5.072   5.386   0.500
 7155SOL     OW21808   3.854   5.518   1.851
 7155SOL    HW121809   3.813   5.444   1.904
 7155SOL    HW221810   3.918   5.569   1.909
 7156SOL     OW21811   5.004   4.651   0.672
 7156SOL    HW121812   5.064   4.570   0.674
 7156SOL    HW221813   5.044   4.720   0.612
 7157SOL     OW21814   4.554   4.997   1.422
 7157SOL    HW121815   4.549   5.030   1.517
 7157SOL    HW221816   4.468   5.016   1.376
 7158SOL     OW21817   4.396   5.340   0.154
 7158SOL    HW121818   4.405   5.350   0.055
 7158SOL    HW221819   4.356   5.251   0.175
 7159SOL     OW21820   5.374   5.444   1.394
 7159SOL    HW121821   5.427   5.454   1.310
 7159SOL    HW221822   5.347   5.534   1.428
 7160SOL     OW21823   5.565   3.899   0.963
 7160SOL    HW121824   5.604   3.814   0.927
 7160SOL    HW221825   5.467   3.901   0.944
 7161SOL     OW21826   3.987   4.050   0.720
 7161SOL    HW121827   3.908   4.101   0.686
 7161SOL    HW221828   3.978   4.035   0.818
 7162SOL     OW21829   4.918   5.336   0.031
 7162SOL    HW121830   4.924   5.243   0.068
 7162SOL    HW221831   4.859   5.336  -0.049
 7163SOL     OW21832   4.546   4.726   1.372
 7163SOL    HW121833   4.586   4.725   1.280
 7163SOL    HW221834   4.556   4.818   1.412
 7164SOL     OW21835   4.640   4.634   0.291
 7164SOL    HW121836   4.703   4.672   0.223
 7164SOL    HW221837   4.680   4.551   0.330
 7165SOL     OW21838   5.338   5.016   1.289
 7165SOL    HW121839   5.398   5.019   1.369
 7165SOL    HW221840   5.263   5.080   1.302
 7166SOL     OW21841   4.763   4.822   0.696
 7166SOL    HW121842   4.693   4.775   0.750
 7166SOL    HW221843   4.822   4.754   0.653
 7167SOL     OW21844   4.738   3.960   0.971
 7167SOL    HW121845   4.730   3.924   0.878
 7167SOL    HW221846   4.736   3.884   1.036
 7168SOL     OW21847   4.314   5.211   0.491
 7168SOL    HW121848   4.356   5.153   0.421
 7168SOL    HW221849   4.270   5.290   0.447
 7169SOL     OW21850   5.433   4.109   1.381
 7169SOL    HW121851   5.506   4.178   1.385
 7169SOL    HW221852   5.461   4.034   1.322
 7170SOL     OW21853   3.979   5.072   0.290
 7170SOL    HW121854   3.883   5.073   0.263
 7170SOL    HW221855   3.991   5.125   0.374
 7171SOL     OW21856   3.829   4.737   1.726
 7171SOL    HW121857   3.752   4.704   1.780
 7171SOL    HW221858   3.914   4.707   1.768
 7172SOL     OW21859   4.396   3.927   1.489
 7172SOL    HW121860   4.486   3.911   1.449
 7172SOL    HW221861   4.404   3.932   1.588
 7173SOL     OW21862   3.799   4.069   0.033
 7173SOL    HW121863   3.707   4.041   0.004
 7173SOL    HW221864   3.830   4.146  -0.023
 7174SOL     OW21865   5.164   4.580   1.398
 7174SOL    HW121866   5.107   4.632   1.335
 7174SOL    HW221867   5.260   4.592   1.374
 7175SOL     OW21868   3.796   3.890   0.318
 7175SOL    HW121869   3.779   3.973   0.264
 7175SOL    HW221870   3.886   3.853   0.296
 7176SOL     OW21871   4.907   5.059   0.119
 7176SOL    HW121872   4.808   5.048   0.121
 7176SOL    HW221873   4.941   5.074   0.212
 7177SOL     OW21874   4.337   4.566   1.431
 7177SOL    HW121875   4.393   4.647   1.414
 7177SOL    HW221876   4.396   4.486   1.434
 7178SOL     OW21877   5.217   5.491   0.959
 7178SOL    HW121878   5.250   5.555   0.890
 7178SOL    HW221879   5.283   5.485   1.034
 7179SOL     OW21880   4.440   4.289   1.708
 7179SOL    HW121881   4.459   4.354   1.782
 7179SOL    HW221882   4.500   4.209   1.717
 7180SOL     OW21883   5.174   4.944   1.633
 7180SOL    HW121884   5.165   4.934   1.732
 7180SOL    HW221885   5.270   4.937   1.607
 7181SOL     OW21886   4.114   5.465   1.560
 7181SOL    HW121887   4.023   5.506   1.558
 7181SOL    HW221888   4.107   5.371   1.592
 7182SOL     OW21889   5.398   4.607   1.254
 7182SOL    HW121890   5.371   4.518   1.217
 7182SOL    HW221891   5.399   4.675   1.181
 7183SOL     OW21892   4.949   4.049   0.449
 7183SOL    HW121893   5.014   3.975   0.438
 7183SOL    HW221894   4.969   4.099   0.533
 7184SOL     OW21895   4.318   4.469   0.652
 7184SOL    HW121896   4.368   4.554   0.633
 7184SOL    HW221897   4.230   4.471   0.604
 7185SOL     OW21898   5.501   4.066   1.642
 7185SOL    HW121899   5.484   4.097   1.548
 7185SOL    HW221900   5.417   4.029   1.680
 7186SOL     OW21901   5.454   4.658   1.517
 7186SOL    HW121902   5.492   4.749   1.532
 7186SOL    HW221903   5.446   4.641   1.418
 7187SOL     OW21904   4.583   5.098   0.016
 7187SOL    HW121905   4.537   5.113   0.104
 7187SOL    HW221906   4.627   5.183  -0.014
 7188SOL     OW21907   4.385   5.514   0.953
 7188SOL    HW121908   4.339   5.602   0.940
 7188SOL    HW221909   4.484   5.526   0.946
 7189SOL     OW21910   4.583   4.680   0.861
 7189SOL    HW121911   4.637   4.611   0.909
 7189SOL    HW221912   4.551   4.749   0.927
 7190SOL     OW21913   4.807   4.708   0.087
 7190SOL    HW121914   4.784   4.761   0.005
 7190SOL    HW221915   4.888   4.652   0.068
 7191SOL     OW21916   5.585   5.293   0.851
 7191SOL    HW121917   5.514   5.281   0.781
 7191SOL    HW221918   5.586   5.214   0.911
 7192SOL     OW21919   3.945   5.038   1.844
 7192SOL    HW121920   3.880   4.965   1.823
 7192SOL    HW221921   3.949   5.052   1.942
 7193SOL     OW21922   3.803   4.964   0.653
 7193SOL    HW121923   3.802   4.917   0.741
 7193SOL    HW221924   3.885   4.936   0.602
 7194SOL     OW21925   5.548   3.916   1.227
 7194SOL    HW121926   5.544   3.826   1.271
 7194SOL    HW221927   5.551   3.905   1.128
 7195SOL     OW21928   4.152   4.148   0.520
 7195SOL    HW121929   4.182   4.076   0.458
 7195SOL    HW221930   4.113   4.108   0.603
 7196SOL     OW21931   5.429   5.211   1.104
 7196SOL    HW121932   5.336   5.186   1.077
 7196SOL    HW221933   5.455   5.161   1.186
 7197SOL     OW21934   4.041   4.271   1.280
 7197SOL    HW121935   4.079   4.212   1.352
 7197SOL    HW221936   4.081   4.245   1.192
 7198SOL     OW21937   4.536   5.310   0.687
 7198SOL    HW121938   4.568   5.320   0.593
 7198SOL    HW221939   4.457   5.248   0.689
 7199SOL     OW21940   5.148   3.938   1.112
 7199SOL    HW121941   5.200   3.873   1.167
 7199SOL    HW221942   5.099   4.001   1.173
 7200SOL     OW21943   4.725   3.758   1.154
 7200SOL    HW121944   4.662   3.686   1.123
 7200SOL    HW221945   4.818   3.722   1.154
 7201SOL     OW21946   4.494   5.054   0.301
 7201SOL    HW121947   4.448   4.967   0.318
 7201SOL    HW221948   4.585   5.051   0.342
 7202SOL     OW21949   5.076   3.776   0.168
 7202SOL    HW121950   5.111   3.735   0.084
 7202SOL    HW221951   4.986   3.738   0.188
 7203SOL     OW21952   5.024   4.177   0.691
 7203SOL    HW121953   4.965   4.257   0.695
 7203SOL    HW221954   5.039   4.142   0.784
 7204SOL     OW21955   5.317   3.945   0.882
 7204SOL    HW121956   5.233   3.944   0.936
 7204SOL    HW221957   5.319   4.028   0.826
 7205SOL     OW21958   3.763   4.801   0.300
 7205SOL    HW121959   3.862   4.790   0.291
 7205SOL    HW221960   3.723   4.715   0.332
 7206SOL     OW21961   4.599   5.370   0.337
 7206SOL    HW121962   4.522   5.335   0.283
 7206SOL    HW221963   4.567   5.441   0.399
 7207SOL     OW21964   3.954   4.352   1.975
 7207SOL    HW121965   3.861   4.350   2.012
 7207SOL    HW221966   3.955   4.313   1.883
 7208SOL     OW21967   3.949   3.999   2.858
 7208SOL    HW121968   3.984   3.982   2.950
 7208SOL    HW221969   3.861   3.954   2.846
 7209SOL     OW21970   3.743   4.092   2.509
 7209SOL    HW121971   3.661   4.135   2.548
 7209SOL    HW221972   3.715   4.019   2.446
 7210SOL     OW21973   5.279   5.235   2.565
 7210SOL    HW121974   5.222   5.219   2.646
 7210SOL    HW221975   5.220   5.245   2.485
 7211SOL     OW21976   5.479   4.331   2.093
 7211SOL    HW121977   5.467   4.318   1.994
 7211SOL    HW221978   5.449   4.250   2.142
 7212SOL     OW21979   4.492   4.868   2.885
 7212SOL    HW121980   4.414   4.885   2.945
 7212SOL    HW221981   4.526   4.955   2.849
 7213SOL     OW21982   4.574   4.522   3.685
 7213SOL    HW121983   4.570   4.598   3.750
 7213SOL    HW221984   4.596   4.558   3.594
 7214SOL     OW21985   4.410   4.885   3.665
 7214SOL    HW121986   4.470   4.964   3.679
 7214SOL    HW221987   4.324   4.916   3.624
 7215SOL     OW21988   5.184   5.229   3.201
 7215SOL    HW121989   5.208   5.323   3.227
 7215SOL    HW221990   5.168   5.175   3.283
 7216SOL     OW21991   4.162   4.116   3.361
 7216SOL    HW121992   4.244   4.060   3.370
 7216SOL    HW221993   4.081   4.058   3.365
 7217SOL     OW21994   5.327   4.171   2.599
 7217SOL    HW121995   5.253   4.217   2.549
 7217SOL    HW221996   5.378   4.239   2.652
 7218SOL     OW21997   4.851   5.065   3.552
 7218SOL    HW121998   4.898   5.065   3.640
 7218SOL    HW221999   4.803   4.978   3.541
 7219SOL     OW22000   3.964   4.815   2.748
 7219SOL    HW122001   3.978   4.731   2.800
 7219SOL    HW222002   3.909   4.879   2.803
 7220SOL     OW22003   4.344   5.510   3.301
 7220SOL    HW122004   4.252   5.493   3.336
 7220SOL    HW222005   4.372   5.602   3.327
 7221SOL     OW22006   4.330   4.688   1.985
 7221SOL    HW122007   4.337   4.772   1.931
 7221SOL    HW222008   4.376   4.701   2.073
 7222SOL     OW22009   5.318   3.838   3.342
 7222SOL    HW122010   5.300   3.905   3.270
 7222SOL    HW222011   5.315   3.884   3.431
 7223SOL     OW22012   3.846   4.367   2.425
 7223SOL    HW122013   3.801   4.279   2.442
 7223SOL    HW222014   3.845   4.421   2.509
 7224SOL     OW22015   5.566   5.491   2.221
 7224SOL    HW122016   5.620   5.462   2.301
 7224SOL    HW222017   5.596   5.581   2.192
 7225SOL     OW22018   3.751   5.320   1.979
 7225SOL    HW122019   3.732   5.224   2.000
 7225SOL    HW222020   3.718   5.378   2.054
 7226SOL     OW22021   5.413   4.646   2.474
 7226SOL    HW122022   5.508   4.617   2.482
 7226SOL    HW222023   5.405   4.711   2.399
 7227SOL     OW22024   5.365   4.832   2.294
 7227SOL    HW122025   5.451   4.834   2.242
 7227SOL    HW222026   5.379   4.879   2.382
 7228SOL     OW22027   5.017   4.952   3.285
 7228SOL    HW122028   5.054   4.879   3.227
 7228SOL    HW222029   5.069   4.957   3.370
 7229SOL     OW22030   4.533   3.728   2.364
 7229SOL    HW122031   4.573   3.819   2.355
 7229SOL    HW222032   4.433   3.736   2.370
 7230SOL     OW22033   5.249   4.723   2.052
 7230SOL    HW122034   5.186   4.647   2.065
 7230SOL    HW222035   5.297   4.741   2.138
 7231SOL     OW22036   4.911   5.516   3.478
 7231SOL    HW122037   4.935   5.576   3.402
 7231SOL    HW222038   4.918   5.421   3.448
 7232SOL     OW22039   4.041   3.975   3.663
 7232SOL    HW122040   4.112   4.046   3.669
 7232SOL    HW222041   3.953   4.014   3.691
 7233SOL     OW22042   5.190   5.141   2.815
 7233SOL    HW122043   5.131   5.147   2.895
 7233SOL    HW222044   5.175   5.053   2.769
 7234SOL     OW22045   5.391   5.438   2.434
 7234SOL    HW122046   5.350   5.415   2.346
 7234SOL    HW222047   5.373   5.364   2.499
 7235SOL     OW22048   4.322   4.453   2.132
 7235SOL    HW122049   4.346   4.522   2.064
 7235SOL    HW222050   4.244   4.486   2.186
 7236SOL     OW22051   5.005   4.069   2.806
 7236SOL    HW122052   4.919   4.019   2.793
 7236SOL    HW222053   5.067   4.015   2.862
 7237SOL     OW22054   5.300   5.386   2.169
 7237SOL    HW122055   5.389   5.432   2.172
 7237SOL    HW222056   5.279   5.362   2.074
 7238SOL     OW22057   4.531   4.329   3.327
 7238SOL    HW122058   4.484   4.326   3.416
 7238SOL    HW222059   4.480   4.274   3.261
 7239SOL     OW22060   5.118   4.193   3.536
 7239SOL    HW122061   5.098   4.236   3.624
 7239SOL    HW222062   5.196   4.131   3.545
 7240SOL     OW22063   4.697   4.614   3.434
 7240SOL    HW122064   4.743   4.530   3.405
 7240SOL    HW222065   4.641   4.648   3.359
 7241SOL     OW22066   4.715   4.134   3.104
 7241SOL    HW122067   4.638   4.168   3.158
 7241SOL    HW222068   4.681   4.083   3.025
 7242SOL     OW22069   3.800   4.535   2.651
 7242SOL    HW122070   3.899   4.523   2.660
 7242SOL    HW222071   3.776   4.630   2.672
 7243SOL     OW22072   4.589   4.072   2.057
 7243SOL    HW122073   4.648   4.135   2.008
 7243SOL    HW222074   4.608   3.978   2.028
 7244SOL     OW22075   5.443   4.309   3.693
 7244SOL    HW122076   5.417   4.398   3.657
 7244SOL    HW222077   5.441   4.241   3.620
 7245SOL     OW22078   5.086   4.868   2.407
 7245SOL    HW122079   5.169   4.839   2.359
 7245SOL    HW222080   5.037   4.935   2.351
 7246SOL     OW22081   4.274   3.920   2.747
 7246SOL    HW122082   4.269   3.915   2.847
 7246SOL    HW222083   4.276   4.016   2.718
 7247SOL     OW22084   4.732   5.180   2.339
 7247SOL    HW122085   4.686   5.252   2.287
 7247SOL    HW222086   4.728   5.200   2.437
 7248SOL     OW22087   5.519   4.790   2.735
 7248SOL    HW122088   5.457   4.775   2.659
 7248SOL    HW222089   5.467   4.801   2.820
 7249SOL     OW22090   4.951   5.274   3.368
 7249SOL    HW122091   4.957   5.197   3.432
 7249SOL    HW222092   4.899   5.248   3.288
 7250SOL     OW22093   4.045   4.667   2.104
 7250SOL    HW122094   4.127   4.706   2.062
 7250SOL    HW222095   4.018   4.585   2.055
 7251SOL     OW22096   5.182   4.459   2.590
 7251SOL    HW122097   5.177   4.394   2.665
 7251SOL    HW222098   5.262   4.518   2.603
 7252SOL     OW22099   4.185   4.990   3.589
 7252SOL    HW122100   4.135   4.991   3.503
 7252SOL    HW222101   4.122   4.972   3.665
 7253SOL     OW22102   4.835   5.500   2.099
 7253SOL    HW122103   4.775   5.438   2.149
 7253SOL    HW222104   4.866   5.456   2.014
 7254SOL     OW22105   3.926   4.009   3.360
 7254SOL    HW122106   3.846   4.069   3.347
 7254SOL    HW222107   3.916   3.960   3.446
 7255SOL     OW22108   5.356   5.101   1.943
 7255SOL    HW122109   5.324   5.195   1.933
 7255SOL    HW222110   5.280   5.038   1.931
 7256SOL     OW22111   5.124   3.831   2.288
 7256SOL    HW122112   5.100   3.794   2.198
 7256SOL    HW222113   5.223   3.847   2.292
 7257SOL     OW22114   4.106   4.424   2.342
 7257SOL    HW122115   4.151   4.334   2.339
 7257SOL    HW222116   4.012   4.413   2.375
 7258SOL     OW22117   5.271   3.946   3.591
 7258SOL    HW122118   5.266   3.983   3.683
 7258SOL    HW222119   5.199   3.877   3.579
 7259SOL     OW22120   4.338   3.846   1.979
 7259SOL    HW122121   4.436   3.824   1.986
 7259SOL    HW222122   4.307   3.829   1.886
 7260SOL     OW22123   4.505   3.988   3.611
 7260SOL    HW122124   4.572   3.927   3.654
 7260SOL    HW222125   4.432   4.007   3.676
 7261SOL     OW22126   4.612   5.238   3.057
 7261SOL    HW122127   4.589   5.213   2.963
 7261SOL    HW222128   4.673   5.169   3.096
 7262SOL     OW22129   5.075   4.314   3.295
 7262SOL    HW122130   5.103   4.271   3.380
 7262SOL    HW222131   5.100   4.410   3.296
 7263SOL     OW22132   4.646   4.227   2.761
 7263SOL    HW122133   4.621   4.218   2.665
 7263SOL    HW222134   4.694   4.145   2.792
 7264SOL     OW22135   4.263   3.788   2.374
 7264SOL    HW122136   4.182   3.789   2.432
 7264SOL    HW222137   4.266   3.871   2.319
 7265SOL     OW22138   5.158   4.912   1.903
 7265SOL    HW122139   5.190   4.836   1.960
 7265SOL    HW222140   5.066   4.939   1.933
 7266SOL     OW22141   4.021   3.759   2.033
 7266SOL    HW122142   4.070   3.843   2.012
 7266SOL    HW222143   4.083   3.694   2.078
 7267SOL     OW22144   4.659   3.960   2.342
 7267SOL    HW122145   4.611   4.001   2.264
 7267SOL    HW222146   4.758   3.958   2.323
 7268SOL     OW22147   4.800   4.407   3.326
 7268SOL    HW122148   4.720   4.346   3.329
 7268SOL    HW222149   4.881   4.354   3.302
 7269SOL     OW22150   4.951   5.294   2.655
 7269SOL    HW122151   4.972   5.368   2.590
 7269SOL    HW222152   5.019   5.294   2.728
 7270SOL     OW22153   4.183   4.876   2.603
 7270SOL    HW122154   4.112   4.849   2.668
 7270SOL    HW222155   4.157   4.848   2.510
 7271SOL     OW22156   4.995   5.521   2.453
 7271SOL    HW122157   5.039   5.585   2.389
 7271SOL    HW222158   4.945   5.573   2.523
 7272SOL     OW22159   4.756   4.273   1.878
 7272SOL    HW122160   4.715   4.355   1.839
 7272SOL    HW222161   4.820   4.299   1.951
 7273SOL     OW22162   4.285   3.946   3.009
 7273SOL    HW122163   4.323   3.862   3.046
 7273SOL    HW222164   4.197   3.965   3.053
 7274SOL     OW22165   4.590   4.178   2.504
 7274SOL    HW122166   4.558   4.250   2.442
 7274SOL    HW222167   4.614   4.097   2.451
 7275SOL     OW22168   4.741   3.763   2.615
 7275SOL    HW122169   4.669   3.768   2.546
 7275SOL    HW222170   4.717   3.694   2.684
 7276SOL     OW22171   5.153   4.897   2.729
 7276SOL    HW122172   5.098   4.813   2.722
 7276SOL    HW222173   5.179   4.926   2.637
 7277SOL     OW22174   5.190   4.314   2.854
 7277SOL    HW122175   5.160   4.219   2.861
 7277SOL    HW222176   5.263   4.330   2.920
 7278SOL     OW22177   5.581   4.557   2.239
 7278SOL    HW122178   5.623   4.493   2.303
 7278SOL    HW222179   5.543   4.506   2.161
 7279SOL     OW22180   5.388   5.004   2.519
 7279SOL    HW122181   5.487   5.012   2.533
 7279SOL    HW222182   5.343   5.088   2.550
 7280SOL     OW22183   5.114   4.299   1.940
 7280SOL    HW122184   5.060   4.278   2.021
 7280SOL    HW222185   5.205   4.258   1.949
 7281SOL     OW22186   4.251   3.980   2.190
 7281SOL    HW122187   4.278   3.921   2.115
 7281SOL    HW222188   4.251   4.075   2.159
 7282SOL     OW22189   5.478   4.947   3.450
 7282SOL    HW122190   5.569   4.908   3.437
 7282SOL    HW222191   5.486   5.043   3.474
 7283SOL     OW22192   4.788   5.071   3.202
 7283SOL    HW122193   4.708   5.048   3.257
 7283SOL    HW222194   4.871   5.045   3.251
 7284SOL     OW22195   5.316   5.353   3.487
 7284SOL    HW122196   5.343   5.387   3.397
 7284SOL    HW222197   5.395   5.315   3.533
 7285SOL     OW22198   4.835   4.919   2.962
 7285SOL    HW122199   4.795   4.963   3.043
 7285SOL    HW222200   4.794   4.956   2.879
 7286SOL     OW22201   5.362   4.823   2.941
 7286SOL    HW122202   5.367   4.904   3.000
 7286SOL    HW222203   5.276   4.825   2.890
 7287SOL     OW22204   4.639   3.813   3.264
 7287SOL    HW122205   4.664   3.793   3.169
 7287SOL    HW222206   4.711   3.869   3.306
 7288SOL     OW22207   4.704   4.840   3.581
 7288SOL    HW122208   4.605   4.846   3.591
 7288SOL    HW222209   4.727   4.760   3.525
 7289SOL     OW22210   4.429   4.774   2.230
 7289SOL    HW122211   4.415   4.781   2.329
 7289SOL    HW222212   4.513   4.723   2.212
 7290SOL     OW22213   4.134   4.537   3.113
 7290SOL    HW122214   4.220   4.549   3.163
 7290SOL    HW222215   4.092   4.450   3.140
 7291SOL     OW22216   4.998   4.110   3.124
 7291SOL    HW122217   5.019   4.184   3.188
 7291SOL    HW222218   4.909   4.127   3.081
 7292SOL     OW22219   4.091   4.824   2.363
 7292SOL    HW122220   4.084   4.907   2.307
 7292SOL    HW222221   4.095   4.744   2.303
 7293SOL     OW22222   4.290   4.261   2.727
 7293SOL    HW122223   4.302   4.327   2.653
 7293SOL    HW222224   4.336   4.295   2.810
 7294SOL     OW22225   4.996   5.169   3.004
 7294SOL    HW122226   5.043   5.182   3.091
 7294SOL    HW222227   4.930   5.095   3.013
 7295SOL     OW22228   5.306   4.363   2.334
 7295SOL    HW122229   5.275   4.424   2.407
 7295SOL    HW222230   5.356   4.415   2.265
 7296SOL     OW22231   4.126   4.475   3.460
 7296SOL    HW122232   4.194   4.530   3.413
 7296SOL    HW222233   4.166   4.387   3.487
 7297SOL     OW22234   5.311   4.503   3.532
 7297SOL    HW122235   5.219   4.541   3.527
 7297SOL    HW222236   5.371   4.550   3.467
 7298SOL     OW22237   4.737   3.829   3.632
 7298SOL    HW122238   4.743   3.914   3.580
 7298SOL    HW222239   4.769   3.753   3.575
 7299SOL     OW22240   4.228   3.774   3.602
 7299SOL    HW122241   4.186   3.717   3.532
 7299SOL    HW222242   4.162   3.843   3.634
 7300SOL     OW22243   4.297   4.594   2.891
 7300SOL    HW122244   4.341   4.683   2.882
 7300SOL    HW222245   4.234   4.594   2.968
 7301SOL     OW22246   5.084   4.586   2.907
 7301SOL    HW122247   5.009   4.586   2.841
 7301SOL    HW222248   5.121   4.494   2.916
 7302SOL     OW22249   4.933   4.249   2.137
 7302SOL    HW122250   4.946   4.165   2.191
 7302SOL    HW222251   4.904   4.323   2.197
 7303SOL     OW22252   4.031   3.937   3.093
 7303SOL    HW122253   4.008   3.974   3.183
 7303SOL    HW222254   4.001   3.842   3.087
 7304SOL     OW22255   4.456   4.358   2.926
 7304SOL    HW122256   4.515   4.332   2.850
 7304SOL    HW222257   4.428   4.454   2.915
 7305SOL     OW22258   5.452   4.659   3.716
 7305SOL    HW122259   5.406   4.652   3.627
 7305SOL    HW222260   5.390   4.703   3.782
 7306SOL     OW22261   4.031   3.787   2.480
 7306SOL    HW122262   4.020   3.881   2.513
 7306SOL    HW222263   4.026   3.724   2.557
 7307SOL     OW22264   5.346   4.091   2.236
 7307SOL    HW122265   5.348   4.015   2.300
 7307SOL    HW222266   5.298   4.168   2.276
 7308SOL     OW22267   4.704   5.297   3.562
 7308SOL    HW122268   4.684   5.341   3.474
 7308SOL    HW222269   4.743   5.206   3.546
 7309SOL     OW22270   5.583   5.242   3.467
 7309SOL    HW122271   5.597   5.269   3.372
 7309SOL    HW222272   5.666   5.264   3.520
 7310SOL     OW22273   4.074   4.622   3.666
 7310SOL    HW122274   4.150   4.666   3.714
 7310SOL    HW222275   4.109   4.575   3.584
 7311SOL     OW22276   5.264   3.998   1.987
 7311SOL    HW122277   5.203   3.923   2.010
 7311SOL    HW222278   5.286   4.050   2.070
 7312SOL     OW22279   5.027   4.562   1.904
 7312SOL    HW122280   5.061   4.469   1.919
 7312SOL    HW222281   5.045   4.589   1.809
 7313SOL     OW22282   4.792   5.057   2.711
 7313SOL    HW122283   4.799   4.973   2.656
 7313SOL    HW222284   4.854   5.126   2.675
 7314SOL     OW22285   4.043   4.534   2.811
 7314SOL    HW122286   4.136   4.570   2.816
 7314SOL    HW222287   4.037   4.449   2.863
 7315SOL     OW22288   4.063   4.233   2.868
 7315SOL    HW122289   4.011   4.150   2.851
 7315SOL    HW222290   4.140   4.238   2.804
 7316SOL     OW22291   4.862   4.104   3.540
 7316SOL    HW122292   4.817   4.167   3.604
 7316SOL    HW222293   4.955   4.135   3.523
 7317SOL     OW22294   4.884   3.931   3.339
 7317SOL    HW122295   4.884   3.995   3.416
 7317SOL    HW222296   4.912   3.979   3.256
 7318SOL     OW22297   3.732   5.050   2.062
 7318SOL    HW122298   3.639   5.071   2.031
 7318SOL    HW222299   3.742   4.951   2.075
 7319SOL     OW22300   4.726   4.520   3.100
 7319SOL    HW122301   4.767   4.488   3.186
 7319SOL    HW222302   4.630   4.493   3.097
 7320SOL     OW22303   3.764   4.268   2.976
 7320SOL    HW122304   3.849   4.235   2.935
 7320SOL    HW222305   3.777   4.283   3.074
 7321SOL     OW22306   3.913   4.244   3.584
 7321SOL    HW122307   3.972   4.204   3.514
 7321SOL    HW222308   3.855   4.315   3.543
 7322SOL     OW22309   5.093   4.674   3.522
 7322SOL    HW122310   5.132   4.763   3.542
 7322SOL    HW222311   5.103   4.654   3.425
 7323SOL     OW22312   4.539   4.296   2.187
 7323SOL    HW122313   4.546   4.207   2.141
 7323SOL    HW222314   4.445   4.330   2.179
 7324SOL     OW22315   5.381   4.328   3.068
 7324SOL    HW122316   5.343   4.259   3.130
 7324SOL    HW222317   5.463   4.292   3.024
 7325SOL     OW22318   4.395   4.188   3.131
 7325SOL    HW122319   4.361   4.099   3.101
 7325SOL    HW222320   4.421   4.242   3.051
 7326SOL     OW22321   4.654   5.402   3.327
 7326SOL    HW122322   4.630   5.384   3.232
 7326SOL    HW222323   4.684   5.496   3.337
 7327SOL     OW22324   4.197   4.224   2.053
 7327SOL    HW122325   4.258   4.304   2.057
 7327SOL    HW222326   4.102   4.255   2.060
 7328SOL     OW22327   5.071   4.783   3.096
 7328SOL    HW122328   5.095   4.720   3.022
 7328SOL    HW222329   4.981   4.823   3.078
 7329SOL     OW22330   5.026   4.579   2.171
 7329SOL    HW122331   4.940   4.548   2.213
 7329SOL    HW222332   5.022   4.565   2.072
 7330SOL     OW22333   5.483   5.471   3.016
 7330SOL    HW122334   5.544   5.501   2.943
 7330SOL    HW222335   5.445   5.382   2.994
 7331SOL     OW22336   4.976   5.455   2.990
 7331SOL    HW122337   5.060   5.460   2.936
 7331SOL    HW222338   4.953   5.359   3.008
 7332SOL     OW22339   4.412   5.386   3.578
 7332SOL    HW122340   4.356   5.467   3.587
 7332SOL    HW222341   4.464   5.390   3.492
 7333SOL     OW22342   5.450   3.859   2.385
 7333SOL    HW122343   5.523   3.842   2.318
 7333SOL    HW222344   5.419   3.772   2.423
 7334SOL     OW22345   5.004   4.651   2.534
 7334SOL    HW122346   5.064   4.570   2.536
 7334SOL    HW222347   5.044   4.720   2.474
 7335SOL     OW22348   4.554   4.997   3.284
 7335SOL    HW122349   4.549   5.030   3.379
 7335SOL    HW222350   4.468   5.016   3.238
 7336SOL     OW22351   5.374   5.444   3.256
 7336SOL    HW122352   5.427   5.454   3.172
 7336SOL    HW222353   5.347   5.534   3.290
 7337SOL     OW22354   5.565   3.899   2.825
 7337SOL    HW122355   5.604   3.814   2.789
 7337SOL    HW222356   5.467   3.901   2.806
 7338SOL     OW22357   3.987   4.050   2.582
 7338SOL    HW122358   3.908   4.101   2.548
 7338SOL    HW222359   3.978   4.035   2.680
 7339SOL     OW22360   4.546   4.726   3.234
 7339SOL    HW122361   4.586   4.725   3.142
 7339SOL    HW222362   4.556   4.818   3.274
 7340SOL     OW22363   4.640   4.634   2.153
 7340SOL    HW122364   4.703   4.672   2.085
 7340SOL    HW222365   4.680   4.551   2.192
 7341SOL     OW22366   5.228   5.331   1.906
 7341SOL    HW122367   5.136   5.368   1.913
 7341SOL    HW222368   5.266   5.351   1.816
 7342SOL     OW22369   4.096   5.012   3.352
 7342SOL    HW122370   4.083   5.105   3.318
 7342SOL    HW222371   4.012   4.960   3.339
 7343SOL     OW22372   5.338   5.016   3.151
 7343SOL    HW122373   5.398   5.019   3.231
 7343SOL    HW222374   5.263   5.080   3.164
 7344SOL     OW22375   4.738   3.960   2.833
 7344SOL    HW122376   4.730   3.924   2.740
 7344SOL    HW222377   4.736   3.884   2.898
 7345SOL     OW22378   5.433   4.109   3.243
 7345SOL    HW122379   5.506   4.178   3.247
 7345SOL    HW222380   5.461   4.034   3.184
 7346SOL     OW22381   3.979   5.072   2.152
 7346SOL    HW122382   3.883   5.073   2.125
 7346SOL    HW222383   3.991   5.125   2.236
 7347SOL     OW22384   3.829   4.737   3.588
 7347SOL    HW122385   3.752   4.704   3.642
 7347SOL    HW222386   3.914   4.707   3.630
 7348SOL     OW22387   4.396   3.927   3.351
 7348SOL    HW122388   4.486   3.911   3.311
 7348SOL    HW222389   4.404   3.932   3.450
 7349SOL     OW22390   3.799   4.069   1.895
 7349SOL    HW122391   3.707   4.041   1.866
 7349SOL    HW222392   3.830   4.146   1.839
 7350SOL     OW22393   5.164   4.580   3.260
 7350SOL    HW122394   5.107   4.632   3.197
 7350SOL    HW222395   5.260   4.592   3.236
 7351SOL     OW22396   3.796   3.890   2.180
 7351SOL    HW122397   3.779   3.973   2.126
 7351SOL    HW222398   3.886   3.853   2.158
 7352SOL     OW22399   4.337   4.566   3.293
 7352SOL    HW122400   4.393   4.647   3.276
 7352SOL    HW222401   4.396   4.486   3.296
 7353SOL     OW22402   5.217   5.491   2.821
 7353SOL    HW122403   5.250   5.555   2.752
 7353SOL    HW222404   5.283   5.485   2.896
 7354SOL     OW22405   4.440   4.289   3.570
 7354SOL    HW122406   4.459   4.354   3.644
 7354SOL    HW222407   4.500   4.209   3.579
 7355SOL     OW22408   5.174   4.944   3.495
 7355SOL    HW122409   5.165   4.934   3.594
 7355SOL    HW222410   5.270   4.937   3.469
 7356SOL     OW22411   5.398   4.607   3.116
 7356SOL    HW122412   5.371   4.518   3.079
 7356SOL    HW222413   5.399   4.675   3.043
 7357SOL     OW22414   4.949   4.049   2.311
 7357SOL    HW122415   5.014   3.975   2.300
 7357SOL    HW222416   4.969   4.099   2.395
 7358SOL     OW22417   4.318   4.469   2.514
 7358SOL    HW122418   4.368   4.554   2.495
 7358SOL    HW222419   4.230   4.471   2.466
 7359SOL     OW22420   5.501   4.066   3.504
 7359SOL    HW122421   5.484   4.097   3.410
 7359SOL    HW222422   5.417   4.029   3.542
 7360SOL     OW22423   5.454   4.658   3.379
 7360SOL    HW122424   5.492   4.749   3.394
 7360SOL    HW222425   5.446   4.641   3.280
 7361SOL     OW22426   4.583   5.098   1.878
 7361SOL    HW122427   4.537   5.113   1.966
 7361SOL    HW222428   4.627   5.183   1.848
 7362SOL     OW22429   4.583   4.680   2.723
 7362SOL    HW122430   4.637   4.611   2.771
 7362SOL    HW222431   4.551   4.749   2.789
 7363SOL     OW22432   4.807   4.708   1.949
 7363SOL    HW122433   4.784   4.761   1.867
 7363SOL    HW222434   4.888   4.652   1.930
 7364SOL     OW22435   5.585   5.293   2.713
 7364SOL    HW122436   5.514   5.281   2.643
 7364SOL    HW222437   5.586   5.214   2.773
 7365SOL     OW22438   3.945   5.038   3.706
 7365SOL    HW122439   3.880   4.965   3.685
 7365SOL    HW222440   3.949   5.052   3.804
 7366SOL     OW22441   3.803   4.964   2.515
 7366SOL    HW122442   3.802   4.917   2.603
 7366SOL    HW222443   3.885   4.936   2.464
 7367SOL     OW22444   4.396   5.115   3.486
 7367SOL    HW122445   4.318   5.065   3.524
 7367SOL    HW222446   4.393   5.210   3.517
 7368SOL     OW22447   5.548   3.916   3.089
 7368SOL    HW122448   5.544   3.826   3.133
 7368SOL    HW222449   5.551   3.905   2.990
 7369SOL     OW22450   4.152   4.148   2.382
 7369SOL    HW122451   4.182   4.076   2.320
 7369SOL    HW222452   4.113   4.108   2.465
 7370SOL     OW22453   5.429   5.211   2.966
 7370SOL    HW122454   5.336   5.186   2.939
 7370SOL    HW222455   5.455   5.161   3.048
 7371SOL     OW22456   4.041   4.271   3.142
 7371SOL    HW122457   4.079   4.212   3.214
 7371SOL    HW222458   4.081   4.245   3.054
 7372SOL     OW22459   5.148   3.938   2.974
 7372SOL    HW122460   5.200   3.873   3.029
 7372SOL    HW222461   5.099   4.001   3.035
 7373SOL     OW22462   4.725   3.758   3.016
 7373SOL    HW122463   4.662   3.686   2.985
 7373SOL    HW222464   4.818   3.722   3.016
 7374SOL     OW22465   5.076   3.776   2.030
 7374SOL    HW122466   5.111   3.735   1.946
 7374SOL    HW222467   4.986   3.738   2.050
 7375SOL     OW22468   5.024   4.177   2.553
 7375SOL    HW122469   4.965   4.257   2.557
 7375SOL    HW222470   5.039   4.142   2.646
 7376SOL     OW22471   5.317   3.945   2.744
 7376SOL    HW122472   5.233   3.944   2.798
 7376SOL    HW222473   5.319   4.028   2.688
 7377SOL     OW22474   3.763   4.801   2.162
 7377SOL    HW122475   3.862   4.790   2.153
 7377SOL    HW222476   3.723   4.715   2.194
 7378SOL     OW22477   3.954   4.352   3.837
 7378SOL    HW122478   3.861   4.350   3.874
 7378SOL    HW222479   3.955   4.313   3.745
 7379SOL     OW22480   3.949   3.999   4.720
 7379SOL    HW122481   3.984   3.982   4.812
 7379SOL    HW222482   3.861   3.954   4.708
 7380SOL     OW22483   3.743   4.092   4.371
 7380SOL    HW122484   3.661   4.135   4.410
 7380SOL    HW222485   3.715   4.019   4.308
 7381SOL     OW22486   4.293   4.999   4.889
 7381SOL    HW122487   4.200   4.992   4.852
 7381SOL    HW222488   4.304   5.088   4.933
 7382SOL     OW22489   5.279   5.235   4.427
 7382SOL    HW122490   5.222   5.219   4.508
 7382SOL    HW222491   5.220   5.245   4.347
 7383SOL     OW22492   4.859   4.427   4.441
 7383SOL    HW122493   4.916   4.505   4.416
 7383SOL    HW222494   4.799   4.453   4.517
 7384SOL     OW22495   5.479   4.331   3.955
 7384SOL    HW122496   5.467   4.318   3.856
 7384SOL    HW222497   5.449   4.250   4.004
 7385SOL     OW22498   4.492   4.868   4.747
 7385SOL    HW122499   4.414   4.885   4.807
 7385SOL    HW222500   4.526   4.955   4.711
 7386SOL     OW22501   4.574   4.522   5.547
 7386SOL    HW122502   4.570   4.598   5.612
 7386SOL    HW222503   4.596   4.558   5.456
 7387SOL     OW22504   4.409   4.736   4.389
 7387SOL    HW122505   4.478   4.720   4.459
 7387SOL    HW222506   4.336   4.793   4.427
 7388SOL     OW22507   4.410   4.885   5.527
 7388SOL    HW122508   4.470   4.964   5.541
 7388SOL    HW222509   4.324   4.916   5.486
 7389SOL     OW22510   4.059   5.159   4.785
 7389SOL    HW122511   3.981   5.128   4.732
 7389SOL    HW222512   4.117   5.217   4.728
 7390SOL     OW22513   5.184   5.229   5.063
 7390SOL    HW122514   5.208   5.323   5.089
 7390SOL    HW222515   5.168   5.175   5.145
 7391SOL     OW22516   4.162   4.116   5.223
 7391SOL    HW122517   4.244   4.060   5.232
 7391SOL    HW222518   4.081   4.058   5.227
 7392SOL     OW22519   5.327   4.171   4.461
 7392SOL    HW122520   5.253   4.217   4.411
 7392SOL    HW222521   5.378   4.239   4.514
 7393SOL     OW22522   4.851   5.065   5.414
 7393SOL    HW122523   4.898   5.065   5.502
 7393SOL    HW222524   4.803   4.978   5.403
 7394SOL     OW22525   3.954   5.158   4.262
 7394SOL    HW122526   3.928   5.254   4.262
 7394SOL    HW222527   3.883   5.104   4.307
 7395SOL     OW22528   3.964   4.815   4.610
 7395SOL    HW122529   3.978   4.731   4.662
 7395SOL    HW222530   3.909   4.879   4.665
 7396SOL     OW22531   4.344   5.510   5.163
 7396SOL    HW122532   4.252   5.493   5.198
 7396SOL    HW222533   4.372   5.602   5.189
 7397SOL     OW22534   4.330   4.688   3.847
 7397SOL    HW122535   4.337   4.772   3.793
 7397SOL    HW222536   4.376   4.701   3.935
 7398SOL     OW22537   5.318   3.838   5.204
 7398SOL    HW122538   5.300   3.905   5.132
 7398SOL    HW222539   5.315   3.884   5.293
 7399SOL     OW22540   3.846   4.367   4.287
 7399SOL    HW122541   3.801   4.279   4.304
 7399SOL    HW222542   3.845   4.421   4.371
 7400SOL     OW22543   5.566   5.491   4.083
 7400SOL    HW122544   5.620   5.462   4.163
 7400SOL    HW222545   5.596   5.581   4.054
 7401SOL     OW22546   3.751   5.320   3.841
 7401SOL    HW122547   3.732   5.224   3.862
 7401SOL    HW222548   3.718   5.378   3.916
 7402SOL     OW22549   5.413   4.646   4.336
 7402SOL    HW122550   5.508   4.617   4.344
 7402SOL    HW222551   5.405   4.711   4.261
 7403SOL     OW22552   5.365   4.832   4.156
 7403SOL    HW122553   5.451   4.834   4.104
 7403SOL    HW222554   5.379   4.879   4.244
 7404SOL     OW22555   3.837   4.461   5.321
 7404SOL    HW122556   3.925   4.448   5.366
 7404SOL    HW222557   3.824   4.558   5.299
 7405SOL     OW22558   4.337   5.089   4.450
 7405SOL    HW122559   4.288   5.002   4.459
 7405SOL    HW222560   4.314   5.132   4.363
 7406SOL     OW22561   5.017   4.952   5.147
 7406SOL    HW122562   5.054   4.879   5.089
 7406SOL    HW222563   5.069   4.957   5.232
 7407SOL     OW22564   4.533   3.728   4.226
 7407SOL    HW122565   4.573   3.819   4.217
 7407SOL    HW222566   4.433   3.736   4.232
 7408SOL     OW22567   3.921   4.700   4.988
 7408SOL    HW122568   4.010   4.655   4.974
 7408SOL    HW222569   3.848   4.635   4.969
 7409SOL     OW22570   5.249   4.723   3.914
 7409SOL    HW122571   5.186   4.647   3.927
 7409SOL    HW222572   5.297   4.741   4.000
 7410SOL     OW22573   4.911   5.516   5.340
 7410SOL    HW122574   4.935   5.576   5.264
 7410SOL    HW222575   4.918   5.421   5.310
 7411SOL     OW22576   4.041   3.975   5.525
 7411SOL    HW122577   4.112   4.046   5.531
 7411SOL    HW222578   3.953   4.014   5.553
 7412SOL     OW22579   5.190   5.141   4.677
 7412SOL    HW122580   5.131   5.147   4.757
 7412SOL    HW222581   5.175   5.053   4.631
 7413SOL     OW22582   5.391   5.438   4.296
 7413SOL    HW122583   5.350   5.415   4.208
 7413SOL    HW222584   5.373   5.364   4.361
 7414SOL     OW22585   4.322   4.453   3.994
 7414SOL    HW122586   4.346   4.522   3.926
 7414SOL    HW222587   4.244   4.486   4.048
 7415SOL     OW22588   5.005   4.069   4.668
 7415SOL    HW122589   4.919   4.019   4.655
 7415SOL    HW222590   5.067   4.015   4.724
 7416SOL     OW22591   5.300   5.386   4.031
 7416SOL    HW122592   5.389   5.432   4.034
 7416SOL    HW222593   5.279   5.362   3.936
 7417SOL     OW22594   4.531   4.329   5.189
 7417SOL    HW122595   4.484   4.326   5.278
 7417SOL    HW222596   4.480   4.274   5.123
 7418SOL     OW22597   5.118   4.193   5.398
 7418SOL    HW122598   5.098   4.236   5.486
 7418SOL    HW222599   5.196   4.131   5.407
 7419SOL     OW22600   4.697   4.614   5.296
 7419SOL    HW122601   4.743   4.530   5.267
 7419SOL    HW222602   4.641   4.648   5.221
 7420SOL     OW22603   4.715   4.134   4.966
 7420SOL    HW122604   4.638   4.168   5.020
 7420SOL    HW222605   4.681   4.083   4.887
 7421SOL     OW22606   4.765   4.425   4.153
 7421SOL    HW122607   4.791   4.421   4.249
 7421SOL    HW222608   4.680   4.374   4.139
 7422SOL     OW22609   3.800   4.535   4.513
 7422SOL    HW122610   3.899   4.523   4.522
 7422SOL    HW222611   3.776   4.630   4.534
 7423SOL     OW22612   3.854   5.545   5.295
 7423SOL    HW122613   3.844   5.530   5.394
 7423SOL    HW222614   3.768   5.581   5.259
 7424SOL     OW22615   4.589   4.072   3.919
 7424SOL    HW122616   4.648   4.135   3.870
 7424SOL    HW222617   4.608   3.978   3.890
 7425SOL     OW22618   5.443   4.309   5.555
 7425SOL    HW122619   5.417   4.398   5.519
 7425SOL    HW222620   5.441   4.241   5.482
 7426SOL     OW22621   5.086   4.868   4.269
 7426SOL    HW122622   5.169   4.839   4.221
 7426SOL    HW222623   5.037   4.935   4.213
 7427SOL     OW22624   4.274   3.920   4.609
 7427SOL    HW122625   4.269   3.915   4.709
 7427SOL    HW222626   4.276   4.016   4.580
 7428SOL     OW22627   4.732   5.180   4.201
 7428SOL    HW122628   4.686   5.252   4.149
 7428SOL    HW222629   4.728   5.200   4.299
 7429SOL     OW22630   4.075   5.525   4.577
 7429SOL    HW122631   4.125   5.439   4.583
 7429SOL    HW222632   4.140   5.602   4.574
 7430SOL     OW22633   5.519   4.790   4.597
 7430SOL    HW122634   5.457   4.775   4.521
 7430SOL    HW222635   5.467   4.801   4.682
 7431SOL     OW22636   4.951   5.274   5.230
 7431SOL    HW122637   4.957   5.197   5.294
 7431SOL    HW222638   4.899   5.248   5.150
 7432SOL     OW22639   4.045   4.667   3.966
 7432SOL    HW122640   4.127   4.706   3.924
 7432SOL    HW222641   4.018   4.585   3.917
 7433SOL     OW22642   5.182   4.459   4.452
 7433SOL    HW122643   5.177   4.394   4.527
 7433SOL    HW222644   5.262   4.518   4.465
 7434SOL     OW22645   4.185   4.990   5.451
 7434SOL    HW122646   4.135   4.991   5.365
 7434SOL    HW222647   4.122   4.972   5.527
 7435SOL     OW22648   4.835   5.500   3.961
 7435SOL    HW122649   4.775   5.438   4.011
 7435SOL    HW222650   4.866   5.456   3.876
 7436SOL     OW22651   3.926   4.009   5.222
 7436SOL    HW122652   3.846   4.069   5.209
 7436SOL    HW222653   3.916   3.960   5.308
 7437SOL     OW22654   5.356   5.101   3.805
 7437SOL    HW122655   5.324   5.195   3.795
 7437SOL    HW222656   5.280   5.038   3.793
 7438SOL     OW22657   4.188   5.467   4.047
 7438SOL    HW122658   4.221   5.506   4.133
 7438SOL    HW222659   4.264   5.460   3.982
 7439SOL     OW22660   5.124   3.831   4.150
 7439SOL    HW122661   5.100   3.794   4.060
 7439SOL    HW222662   5.223   3.847   4.154
 7440SOL     OW22663   3.973   5.509   4.965
 7440SOL    HW122664   4.030   5.444   5.015
 7440SOL    HW222665   3.957   5.476   4.872
 7441SOL     OW22666   4.664   5.422   4.628
 7441SOL    HW122667   4.744   5.365   4.649
 7441SOL    HW222668   4.615   5.382   4.551
 7442SOL     OW22669   4.106   4.424   4.204
 7442SOL    HW122670   4.151   4.334   4.201
 7442SOL    HW222671   4.012   4.413   4.237
 7443SOL     OW22672   5.271   3.946   5.453
 7443SOL    HW122673   5.266   3.983   5.545
 7443SOL    HW222674   5.199   3.877   5.441
 7444SOL     OW22675   4.338   3.846   3.841
 7444SOL    HW122676   4.436   3.824   3.848
 7444SOL    HW222677   4.307   3.829   3.748
 7445SOL     OW22678   4.505   3.988   5.473
 7445SOL    HW122679   4.572   3.927   5.516
 7445SOL    HW222680   4.432   4.007   5.538
 7446SOL     OW22681   4.612   5.238   4.919
 7446SOL    HW122682   4.589   5.213   4.825
 7446SOL    HW222683   4.673   5.169   4.958
 7447SOL     OW22684   5.075   4.314   5.157
 7447SOL    HW122685   5.103   4.271   5.242
 7447SOL    HW222686   5.100   4.410   5.158
 7448SOL     OW22687   4.527   5.126   4.648
 7448SOL    HW122688   4.617   5.140   4.606
 7448SOL    HW222689   4.456   5.128   4.577
 7449SOL     OW22690   4.646   4.227   4.623
 7449SOL    HW122691   4.621   4.218   4.527
 7449SOL    HW222692   4.694   4.145   4.654
 7450SOL     OW22693   4.263   3.788   4.236
 7450SOL    HW122694   4.182   3.789   4.294
 7450SOL    HW222695   4.266   3.871   4.181
 7451SOL     OW22696   5.158   4.912   3.765
 7451SOL    HW122697   5.190   4.836   3.822
 7451SOL    HW222698   5.066   4.939   3.795
 7452SOL     OW22699   4.021   3.759   3.895
 7452SOL    HW122700   4.070   3.843   3.874
 7452SOL    HW222701   4.083   3.694   3.940
 7453SOL     OW22702   4.659   3.960   4.204
 7453SOL    HW122703   4.611   4.001   4.126
 7453SOL    HW222704   4.758   3.958   4.185
 7454SOL     OW22705   4.800   4.407   5.188
 7454SOL    HW122706   4.720   4.346   5.191
 7454SOL    HW222707   4.881   4.354   5.164
 7455SOL     OW22708   4.951   5.294   4.517
 7455SOL    HW122709   4.972   5.368   4.452
 7455SOL    HW222710   5.019   5.294   4.590
 7456SOL     OW22711   4.183   4.876   4.465
 7456SOL    HW122712   4.112   4.849   4.530
 7456SOL    HW222713   4.157   4.848   4.372
 7457SOL     OW22714   4.995   5.521   4.315
 7457SOL    HW122715   5.039   5.585   4.251
 7457SOL    HW222716   4.945   5.573   4.385
 7458SOL     OW22717   4.756   4.273   3.740
 7458SOL    HW122718   4.715   4.355   3.701
 7458SOL    HW222719   4.820   4.299   3.813
 7459SOL     OW22720   3.802   4.280   5.110
 7459SOL    HW122721   3.894   4.279   5.069
 7459SOL    HW222722   3.796   4.354   5.177
 7460SOL     OW22723   4.285   3.946   4.871
 7460SOL    HW122724   4.323   3.862   4.908
 7460SOL    HW222725   4.197   3.965   4.915
 7461SOL     OW22726   4.590   4.178   4.366
 7461SOL    HW122727   4.558   4.250   4.304
 7461SOL    HW222728   4.614   4.097   4.313
 7462SOL     OW22729   4.741   3.763   4.477
 7462SOL    HW122730   4.669   3.768   4.408
 7462SOL    HW222731   4.717   3.694   4.546
 7463SOL     OW22732   5.153   4.897   4.591
 7463SOL    HW122733   5.098   4.813   4.584
 7463SOL    HW222734   5.179   4.926   4.499
 7464SOL     OW22735   5.190   4.314   4.716
 7464SOL    HW122736   5.160   4.219   4.723
 7464SOL    HW222737   5.263   4.330   4.782
 7465SOL     OW22738   5.581   4.557   4.101
 7465SOL    HW122739   5.623   4.493   4.165
 7465SOL    HW222740   5.543   4.506   4.023
 7466SOL     OW22741   4.212   5.109   3.898
 7466SOL    HW122742   4.125   5.094   3.945
 7466SOL    HW222743   4.195   5.135   3.803
 7467SOL     OW22744   5.388   5.004   4.381
 7467SOL    HW122745   5.487   5.012   4.395
 7467SOL    HW222746   5.343   5.088   4.412
 7468SOL     OW22747   5.114   4.299   3.802
 7468SOL    HW122748   5.060   4.278   3.883
 7468SOL    HW222749   5.205   4.258   3.811
 7469SOL     OW22750   4.251   3.980   4.052
 7469SOL    HW122751   4.278   3.921   3.977
 7469SOL    HW222752   4.251   4.075   4.021
 7470SOL     OW22753   5.478   4.947   5.312
 7470SOL    HW122754   5.569   4.908   5.299
 7470SOL    HW222755   5.486   5.043   5.336
 7471SOL     OW22756   4.788   5.071   5.064
 7471SOL    HW122757   4.708   5.048   5.119
 7471SOL    HW222758   4.871   5.045   5.113
 7472SOL     OW22759   5.316   5.353   5.349
 7472SOL    HW122760   5.343   5.387   5.259
 7472SOL    HW222761   5.395   5.315   5.395
 7473SOL     OW22762   4.835   4.919   4.824
 7473SOL    HW122763   4.795   4.963   4.905
 7473SOL    HW222764   4.794   4.956   4.741
 7474SOL     OW22765   5.362   4.823   4.803
 7474SOL    HW122766   5.367   4.904   4.862
 7474SOL    HW222767   5.276   4.825   4.752
 7475SOL     OW22768   4.639   3.813   5.126
 7475SOL    HW122769   4.664   3.793   5.031
 7475SOL    HW222770   4.711   3.869   5.168
 7476SOL     OW22771   4.704   4.840   5.443
 7476SOL    HW122772   4.605   4.846   5.453
 7476SOL    HW222773   4.727   4.760   5.387
 7477SOL     OW22774   4.429   4.774   4.092
 7477SOL    HW122775   4.415   4.781   4.191
 7477SOL    HW222776   4.513   4.723   4.074
 7478SOL     OW22777   4.134   4.537   4.975
 7478SOL    HW122778   4.220   4.549   5.025
 7478SOL    HW222779   4.092   4.450   5.002
 7479SOL     OW22780   4.998   4.110   4.986
 7479SOL    HW122781   5.019   4.184   5.050
 7479SOL    HW222782   4.909   4.127   4.943
 7480SOL     OW22783   3.788   5.288   5.055
 7480SOL    HW122784   3.742   5.370   5.021
 7480SOL    HW222785   3.886   5.307   5.064
 7481SOL     OW22786   4.091   4.824   4.225
 7481SOL    HW122787   4.084   4.907   4.169
 7481SOL    HW222788   4.095   4.744   4.165
 7482SOL     OW22789   4.290   4.261   4.589
 7482SOL    HW122790   4.302   4.327   4.515
 7482SOL    HW222791   4.336   4.295   4.672
 7483SOL     OW22792   4.976   5.072   4.112
 7483SOL    HW122793   5.026   5.149   4.152
 7483SOL    HW222794   4.881   5.074   4.144
 7484SOL     OW22795   4.996   5.169   4.866
 7484SOL    HW122796   5.043   5.182   4.953
 7484SOL    HW222797   4.930   5.095   4.875
 7485SOL     OW22798   5.306   4.363   4.196
 7485SOL    HW122799   5.275   4.424   4.269
 7485SOL    HW222800   5.356   4.415   4.127
 7486SOL     OW22801   4.078   5.234   5.053
 7486SOL    HW122802   4.057   5.190   4.966
 7486SOL    HW222803   4.175   5.260   5.056
 7487SOL     OW22804   4.126   4.475   5.322
 7487SOL    HW122805   4.194   4.530   5.275
 7487SOL    HW222806   4.166   4.387   5.349
 7488SOL     OW22807   5.311   4.503   5.394
 7488SOL    HW122808   5.219   4.541   5.389
 7488SOL    HW222809   5.371   4.550   5.329
 7489SOL     OW22810   4.737   3.829   5.494
 7489SOL    HW122811   4.743   3.914   5.442
 7489SOL    HW222812   4.769   3.753   5.437
 7490SOL     OW22813   4.228   3.774   5.464
 7490SOL    HW122814   4.186   3.717   5.394
 7490SOL    HW222815   4.162   3.843   5.496
 7491SOL     OW22816   4.297   4.594   4.753
 7491SOL    HW122817   4.341   4.683   4.744
 7491SOL    HW222818   4.234   4.594   4.830
 7492SOL     OW22819   5.084   4.586   4.769
 7492SOL    HW122820   5.009   4.586   4.703
 7492SOL    HW222821   5.121   4.494   4.778
 7493SOL     OW22822   4.933   4.249   3.999
 7493SOL    HW122823   4.946   4.165   4.053
 7493SOL    HW222824   4.904   4.323   4.059
 7494SOL     OW22825   4.031   3.937   4.955
 7494SOL    HW122826   4.008   3.974   5.045
 7494SOL    HW222827   4.001   3.842   4.949
 7495SOL     OW22828   3.761   5.034   5.006
 7495SOL    HW122829   3.814   4.985   5.074
 7495SOL    HW222830   3.783   5.132   5.011
 7496SOL     OW22831   4.456   4.358   4.788
 7496SOL    HW122832   4.515   4.332   4.712
 7496SOL    HW222833   4.428   4.454   4.777
 7497SOL     OW22834   5.452   4.659   5.578
 7497SOL    HW122835   5.406   4.652   5.489
 7497SOL    HW222836   5.390   4.703   5.644
 7498SOL     OW22837   4.031   3.787   4.342
 7498SOL    HW122838   4.020   3.881   4.375
 7498SOL    HW222839   4.026   3.724   4.419
 7499SOL     OW22840   5.346   4.091   4.098
 7499SOL    HW122841   5.348   4.015   4.162
 7499SOL    HW222842   5.298   4.168   4.138
 7500SOL     OW22843   4.747   4.490   4.690
 7500SOL    HW122844   4.762   4.511   4.786
 7500SOL    HW222845   4.717   4.395   4.681
 7501SOL     OW22846   4.704   5.297   5.424
 7501SOL    HW122847   4.684   5.341   5.336
 7501SOL    HW222848   4.743   5.206   5.408
 7502SOL     OW22849   5.583   5.242   5.329
 7502SOL    HW122850   5.597   5.269   5.234
 7502SOL    HW222851   5.666   5.264   5.382
 7503SOL     OW22852   4.074   4.622   5.528
 7503SOL    HW122853   4.150   4.666   5.576
 7503SOL    HW222854   4.109   4.575   5.446
 7504SOL     OW22855   5.264   3.998   3.849
 7504SOL    HW122856   5.203   3.923   3.872
 7504SOL    HW222857   5.286   4.050   3.932
 7505SOL     OW22858   5.027   4.562   3.766
 7505SOL    HW122859   5.061   4.469   3.781
 7505SOL    HW222860   5.045   4.589   3.671
 7506SOL     OW22861   4.792   5.057   4.573
 7506SOL    HW122862   4.799   4.973   4.518
 7506SOL    HW222863   4.854   5.126   4.537
 7507SOL     OW22864   4.043   4.534   4.673
 7507SOL    HW122865   4.136   4.570   4.678
 7507SOL    HW222866   4.037   4.449   4.725
 7508SOL     OW22867   4.063   4.233   4.730
 7508SOL    HW122868   4.011   4.150   4.713
 7508SOL    HW222869   4.140   4.238   4.666
 7509SOL     OW22870   4.862   4.104   5.402
 7509SOL    HW122871   4.817   4.167   5.466
 7509SOL    HW222872   4.955   4.135   5.385
 7510SOL     OW22873   4.884   3.931   5.201
 7510SOL    HW122874   4.884   3.995   5.278
 7510SOL    HW222875   4.912   3.979   5.118
 7511SOL     OW22876   3.812   5.525   4.651
 7511SOL    HW122877   3.770   5.439   4.624
 7511SOL    HW222878   3.906   5.528   4.617
 7512SOL     OW22879   4.228   5.292   4.634
 7512SOL    HW122880   4.294   5.366   4.643
 7512SOL    HW222881   4.272   5.213   4.592
 7513SOL     OW22882   4.726   4.520   4.962
 7513SOL    HW122883   4.767   4.488   5.048
 7513SOL    HW222884   4.630   4.493   4.959
 7514SOL     OW22885   3.764   4.268   4.838
 7514SOL    HW122886   3.849   4.235   4.797
 7514SOL    HW222887   3.777   4.283   4.936
 7515SOL     OW22888   3.913   4.244   5.446
 7515SOL    HW122889   3.972   4.204   5.376
 7515SOL    HW222890   3.855   4.315   5.405
 7516SOL     OW22891   5.093   4.674   5.384
 7516SOL    HW122892   5.132   4.763   5.404
 7516SOL    HW222893   5.103   4.654   5.287
 7517SOL     OW22894   4.539   4.296   4.049
 7517SOL    HW122895   4.546   4.207   4.003
 7517SOL    HW222896   4.445   4.330   4.041
 7518SOL     OW22897   5.381   4.328   4.930
 7518SOL    HW122898   5.343   4.259   4.992
 7518SOL    HW222899   5.463   4.292   4.886
 7519SOL     OW22900   3.976   5.288   5.468
 7519SOL    HW122901   3.946   5.345   5.544
 7519SOL    HW222902   3.969   5.191   5.494
 7520SOL     OW22903   4.395   4.188   4.993
 7520SOL    HW122904   4.361   4.099   4.963
 7520SOL    HW222905   4.421   4.242   4.913
 7521SOL     OW22906   4.654   5.402   5.189
 7521SOL    HW122907   4.630   5.384   5.094
 7521SOL    HW222908   4.684   5.496   5.199
 7522SOL     OW22909   4.197   4.224   3.915
 7522SOL    HW122910   4.258   4.304   3.919
 7522SOL    HW222911   4.102   4.255   3.922
 7523SOL     OW22912   3.883   4.861   5.190
 7523SOL    HW122913   3.905   4.800   5.266
 7523SOL    HW222914   3.893   4.812   5.104
 7524SOL     OW22915   5.071   4.783   4.958
 7524SOL    HW122916   5.095   4.720   4.884
 7524SOL    HW222917   4.981   4.823   4.940
 7525SOL     OW22918   5.026   4.579   4.033
 7525SOL    HW122919   4.940   4.548   4.075
 7525SOL    HW222920   5.022   4.565   3.934
 7526SOL     OW22921   5.483   5.471   4.878
 7526SOL    HW122922   5.544   5.501   4.805
 7526SOL    HW222923   5.445   5.382   4.856
 7527SOL     OW22924   4.976   5.455   4.852
 7527SOL    HW122925   5.060   5.460   4.798
 7527SOL    HW222926   4.953   5.359   4.870
 7528SOL     OW22927   3.807   4.982   4.746
 7528SOL    HW122928   3.802   4.981   4.846
 7528SOL    HW222929   3.724   4.941   4.708
 7529SOL     OW22930   4.412   5.386   5.440
 7529SOL    HW122931   4.356   5.467   5.449
 7529SOL    HW222932   4.464   5.390   5.354
 7530SOL     OW22933   5.450   3.859   4.247
 7530SOL    HW122934   5.523   3.842   4.180
 7530SOL    HW222935   5.419   3.772   4.285
 7531SOL     OW22936   5.112   5.297   4.201
 7531SOL    HW122937   5.179   5.309   4.127
 7531SOL    HW222938   5.072   5.386   4.224
 7532SOL     OW22939   3.854   5.518   5.575
 7532SOL    HW122940   3.813   5.444   5.628
 7532SOL    HW222941   3.918   5.569   5.633
 7533SOL     OW22942   5.004   4.651   4.396
 7533SOL    HW122943   5.064   4.570   4.398
 7533SOL    HW222944   5.044   4.720   4.336
 7534SOL     OW22945   4.554   4.997   5.146
 7534SOL    HW122946   4.549   5.030   5.241
 7534SOL    HW222947   4.468   5.016   5.100
 7535SOL     OW22948   4.396   5.340   3.878
 7535SOL    HW122949   4.405   5.350   3.779
 7535SOL    HW222950   4.356   5.251   3.899
 7536SOL     OW22951   5.374   5.444   5.118
 7536SOL    HW122952   5.427   5.454   5.034
 7536SOL    HW222953   5.347   5.534   5.152
 7537SOL     OW22954   5.565   3.899   4.687
 7537SOL    HW122955   5.604   3.814   4.651
 7537SOL    HW222956   5.467   3.901   4.668
 7538SOL     OW22957   3.987   4.050   4.444
 7538SOL    HW122958   3.908   4.101   4.410
 7538SOL    HW222959   3.978   4.035   4.542
 7539SOL     OW22960   4.918   5.336   3.755
 7539SOL    HW122961   4.924   5.243   3.792
 7539SOL    HW222962   4.859   5.336   3.675
 7540SOL     OW22963   4.546   4.726   5.096
 7540SOL    HW122964   4.586   4.725   5.004
 7540SOL    HW222965   4.556   4.818   5.136
 7541SOL     OW22966   4.640   4.634   4.015
 7541SOL    HW122967   4.703   4.672   3.947
 7541SOL    HW222968   4.680   4.551   4.054
 7542SOL     OW22969   5.228   5.331   3.768
 7542SOL    HW122970   5.136   5.368   3.775
 7542SOL    HW222971   5.266   5.351   3.678
 7543SOL     OW22972   4.096   5.012   5.214
 7543SOL    HW122973   4.083   5.105   5.180
 7543SOL    HW222974   4.012   4.960   5.201
 7544SOL     OW22975   5.338   5.016   5.013
 7544SOL    HW122976   5.398   5.019   5.093
 7544SOL    HW222977   5.263   5.080   5.026
 7545SOL     OW22978   4.763   4.822   4.420
 7545SOL    HW122979   4.693   4.775   4.474
 7545SOL    HW222980   4.822   4.754   4.377
 7546SOL     OW22981   4.738   3.960   4.695
 7546SOL    HW122982   4.730   3.924   4.602
 7546SOL    HW222983   4.736   3.884   4.760
 7547SOL     OW22984   4.314   5.211   4.215
 7547SOL    HW122985   4.356   5.153   4.145
 7547SOL    HW222986   4.270   5.290   4.171
 7548SOL     OW22987   5.433   4.109   5.105
 7548SOL    HW122988   5.506   4.178   5.109
 7548SOL    HW222989   5.461   4.034   5.046
 7549SOL     OW22990   3.829   4.737   5.450
 7549SOL    HW122991   3.752   4.704   5.504
 7549SOL    HW222992   3.914   4.707   5.492
 7550SOL     OW22993   4.396   3.927   5.213
 7550SOL    HW122994   4.486   3.911   5.173
 7550SOL    HW222995   4.404   3.932   5.312
 7551SOL     OW22996   3.799   4.069   3.757
 7551SOL    HW122997   3.707   4.041   3.728
 7551SOL    HW222998   3.830   4.146   3.701
 7552SOL     OW22999   5.164   4.580   5.122
 7552SOL    HW123000   5.107   4.632   5.059
 7552SOL    HW223001   5.260   4.592   5.098
 7553SOL     OW23002   3.796   3.890   4.042
 7553SOL    HW123003   3.779   3.973   3.988
 7553SOL    HW223004   3.886   3.853   4.020
 7554SOL     OW23005   4.907   5.059   3.843
 7554SOL    HW123006   4.808   5.048   3.845
 7554SOL    HW223007   4.941   5.074   3.936
 7555SOL     OW23008   4.337   4.566   5.155
 7555SOL    HW123009   4.393   4.647   5.138
 7555SOL    HW223010   4.396   4.486   5.158
 7556SOL     OW23011   5.217   5.491   4.683
 7556SOL    HW123012   5.250   5.555   4.614
 7556SOL    HW223013   5.283   5.485   4.758
 7557SOL     OW23014   4.440   4.289   5.432
 7557SOL    HW123015   4.459   4.354   5.506
 7557SOL    HW223016   4.500   4.209   5.441
 7558SOL     OW23017   5.174   4.944   5.357
 7558SOL    HW123018   5.165   4.934   5.456
 7558SOL    HW223019   5.270   4.937   5.331
 7559SOL     OW23020   4.114   5.465   5.284
 7559SOL    HW123021   4.023   5.506   5.282
 7559SOL    HW223022   4.107   5.371   5.316
 7560SOL     OW23023   5.398   4.607   4.978
 7560SOL    HW123024   5.371   4.518   4.941
 7560SOL    HW223025   5.399   4.675   4.905
 7561SOL     OW23026   4.949   4.049   4.173
 7561SOL    HW123027   5.014   3.975   4.162
 7561SOL    HW223028   4.969   4.099   4.257
 7562SOL     OW23029   4.318   4.469   4.376
 7562SOL    HW123030   4.368   4.554   4.357
 7562SOL    HW223031   4.230   4.471   4.328
 7563SOL     OW23032   5.501   4.066   5.366
 7563SOL    HW123033   5.484   4.097   5.272
 7563SOL    HW223034   5.417   4.029   5.404
 7564SOL     OW23035   5.454   4.658   5.241
 7564SOL    HW123036   5.492   4.749   5.256
 7564SOL    HW223037   5.446   4.641   5.142
 7565SOL     OW23038   4.583   5.098   3.740
 7565SOL    HW123039   4.537   5.113   3.828
 7565SOL    HW223040   4.627   5.183   3.710
 7566SOL     OW23041   4.385   5.514   4.677
 7566SOL    HW123042   4.339   5.602   4.664
 7566SOL    HW223043   4.484   5.526   4.670
 7567SOL     OW23044   4.583   4.680   4.585
 7567SOL    HW123045   4.637   4.611   4.633
 7567SOL    HW223046   4.551   4.749   4.651
 7568SOL     OW23047   4.807   4.708   3.811
 7568SOL    HW123048   4.784   4.761   3.729
 7568SOL    HW223049   4.888   4.652   3.792
 7569SOL     OW23050   5.585   5.293   4.575
 7569SOL    HW123051   5.514   5.281   4.505
 7569SOL    HW223052   5.586   5.214   4.635
 7570SOL     OW23053   3.945   5.038   5.568
 7570SOL    HW123054   3.880   4.965   5.547
 7570SOL    HW223055   3.949   5.052   5.666
 7571SOL     OW23056   3.803   4.964   4.377
 7571SOL    HW123057   3.802   4.917   4.465
 7571SOL    HW223058   3.885   4.936   4.326
 7572SOL     OW23059   4.396   5.115   5.348
 7572SOL    HW123060   4.318   5.065   5.386
 7572SOL    HW223061   4.393   5.210   5.379
 7573SOL     OW23062   5.548   3.916   4.951
 7573SOL    HW123063   5.544   3.826   4.995
 7573SOL    HW223064   5.551   3.905   4.852
 7574SOL     OW23065   4.152   4.148   4.244
 7574SOL    HW123066   4.182   4.076   4.182
 7574SOL    HW223067   4.113   4.108   4.327
 7575SOL     OW23068   5.429   5.211   4.828
 7575SOL    HW123069   5.336   5.186   4.801
 7575SOL    HW223070   5.455   5.161   4.910
 7576SOL     OW23071   4.041   4.271   5.004
 7576SOL    HW123072   4.079   4.212   5.076
 7576SOL    HW223073   4.081   4.245   4.916
 7577SOL     OW23074   4.536   5.310   4.411
 7577SOL    HW123075   4.568   5.320   4.317
 7577SOL    HW223076   4.457   5.248   4.413
 7578SOL     OW23077   5.148   3.938   4.836
 7578SOL    HW123078   5.200   3.873   4.891
 7578SOL    HW223079   5.099   4.001   4.897
 7579SOL     OW23080   4.725   3.758   4.878
 7579SOL    HW123081   4.662   3.686   4.847
 7579SOL    HW223082   4.818   3.722   4.878
 7580SOL     OW23083   4.494   5.054   4.025
 7580SOL    HW123084   4.448   4.967   4.042
 7580SOL    HW223085   4.585   5.051   4.066
 7581SOL     OW23086   4.342   5.291   5.008
 7581SOL    HW123087   4.337   5.373   5.065
 7581SOL    HW223088   4.431   5.288   4.963
 7582SOL     OW23089   5.076   3.776   3.892
 7582SOL    HW123090   5.111   3.735   3.808
 7582SOL    HW223091   4.986   3.738   3.912
 7583SOL     OW23092   5.024   4.177   4.415
 7583SOL    HW123093   4.965   4.257   4.419
 7583SOL    HW223094   5.039   4.142   4.508
 7584SOL     OW23095   5.317   3.945   4.606
 7584SOL    HW123096   5.233   3.944   4.660
 7584SOL    HW223097   5.319   4.028   4.550
 7585SOL     OW23098   4.599   5.370   4.061
 7585SOL    HW123099   4.522   5.335   4.007
 7585SOL    HW223100   4.567   5.441   4.123
 7586SOL     OW23101   3.954   4.352   5.699
 7586SOL    HW123102   3.861   4.350   5.736
 7586SOL    HW223103   3.955   4.313   5.607
 7587SOL     OW23104   3.743   4.092   6.233
 7587SOL    HW123105   3.661   4.135   6.272
 7587SOL    HW223106   3.715   4.019   6.170
 7588SOL     OW23107   4.859   4.427   6.303
 7588SOL    HW123108   4.916   4.505   6.278
 7588SOL    HW223109   4.799   4.453   6.379
 7589SOL     OW23110   5.479   4.331   5.817
 7589SOL    HW123111   5.467   4.318   5.718
 7589SOL    HW223112   5.449   4.250   5.866
 7590SOL     OW23113   4.409   4.736   6.251
 7590SOL    HW123114   4.478   4.720   6.321
 7590SOL    HW223115   4.336   4.793   6.289
 7591SOL     OW23116   3.955   5.437   6.069
 7591SOL    HW123117   3.989   5.514   6.123
 7591SOL    HW223118   3.999   5.437   5.979
 7592SOL     OW23119   3.954   5.158   6.124
 7592SOL    HW123120   3.928   5.254   6.124
 7592SOL    HW223121   3.883   5.104   6.169
 7593SOL     OW23122   3.964   4.815   6.472
 7593SOL    HW123123   3.978   4.731   6.524
 7593SOL    HW223124   3.909   4.879   6.527
 7594SOL     OW23125   4.330   4.688   5.709
 7594SOL    HW123126   4.337   4.772   5.655
 7594SOL    HW223127   4.376   4.701   5.797
 7595SOL     OW23128   3.846   4.367   6.149
 7595SOL    HW123129   3.801   4.279   6.166
 7595SOL    HW223130   3.845   4.421   6.233
 7596SOL     OW23131   5.566   5.491   5.945
 7596SOL    HW123132   5.620   5.462   6.025
 7596SOL    HW223133   5.596   5.581   5.916
 7597SOL     OW23134   3.751   5.320   5.703
 7597SOL    HW123135   3.732   5.224   5.724
 7597SOL    HW223136   3.718   5.378   5.778
 7598SOL     OW23137   5.413   4.646   6.198
 7598SOL    HW123138   5.508   4.617   6.206
 7598SOL    HW223139   5.405   4.711   6.123
 7599SOL     OW23140   5.365   4.832   6.018
 7599SOL    HW123141   5.451   4.834   5.966
 7599SOL    HW223142   5.379   4.879   6.106
 7600SOL     OW23143   4.337   5.089   6.312
 7600SOL    HW123144   4.288   5.002   6.321
 7600SOL    HW223145   4.314   5.132   6.225
 7601SOL     OW23146   4.533   3.728   6.088
 7601SOL    HW123147   4.573   3.819   6.079
 7601SOL    HW223148   4.433   3.736   6.094
 7602SOL     OW23149   5.249   4.723   5.776
 7602SOL    HW123150   5.186   4.647   5.789
 7602SOL    HW223151   5.297   4.741   5.862
 7603SOL     OW23152   5.391   5.438   6.158
 7603SOL    HW123153   5.350   5.415   6.070
 7603SOL    HW223154   5.373   5.364   6.223
 7604SOL     OW23155   4.322   4.453   5.856
 7604SOL    HW123156   4.346   4.522   5.788
 7604SOL    HW223157   4.244   4.486   5.910
 7605SOL     OW23158   5.300   5.386   5.893
 7605SOL    HW123159   5.389   5.432   5.896
 7605SOL    HW223160   5.279   5.362   5.798
 7606SOL     OW23161   4.765   4.425   6.015
 7606SOL    HW123162   4.791   4.421   6.111
 7606SOL    HW223163   4.680   4.374   6.001
 7607SOL     OW23164   3.800   4.535   6.375
 7607SOL    HW123165   3.899   4.523   6.384
 7607SOL    HW223166   3.776   4.630   6.396
 7608SOL     OW23167   4.589   4.072   5.781
 7608SOL    HW123168   4.648   4.135   5.732
 7608SOL    HW223169   4.608   3.978   5.752
 7609SOL     OW23170   5.086   4.868   6.131
 7609SOL    HW123171   5.169   4.839   6.083
 7609SOL    HW223172   5.037   4.935   6.075
 7610SOL     OW23173   4.274   3.920   6.471
 7610SOL    HW123174   4.269   3.915   6.571
 7610SOL    HW223175   4.276   4.016   6.442
 7611SOL     OW23176   4.732   5.180   6.063
 7611SOL    HW123177   4.686   5.252   6.011
 7611SOL    HW223178   4.728   5.200   6.161
 7612SOL     OW23179   4.075   5.525   6.439
 7612SOL    HW123180   4.125   5.439   6.445
 7612SOL    HW223181   4.140   5.602   6.436
 7613SOL     OW23182   4.045   4.667   5.828
 7613SOL    HW123183   4.127   4.706   5.786
 7613SOL    HW223184   4.018   4.585   5.779
 7614SOL     OW23185   5.182   4.459   6.314
 7614SOL    HW123186   5.177   4.394   6.389
 7614SOL    HW223187   5.262   4.518   6.327
 7615SOL     OW23188   4.835   5.500   5.823
 7615SOL    HW123189   4.775   5.438   5.873
 7615SOL    HW223190   4.866   5.456   5.738
 7616SOL     OW23191   5.356   5.101   5.667
 7616SOL    HW123192   5.324   5.195   5.657
 7616SOL    HW223193   5.280   5.038   5.655
 7617SOL     OW23194   4.188   5.467   5.909
 7617SOL    HW123195   4.221   5.506   5.995
 7617SOL    HW223196   4.264   5.460   5.844
 7618SOL     OW23197   5.124   3.831   6.012
 7618SOL    HW123198   5.100   3.794   5.922
 7618SOL    HW223199   5.223   3.847   6.016
 7619SOL     OW23200   4.664   5.422   6.490
 7619SOL    HW123201   4.744   5.365   6.511
 7619SOL    HW223202   4.615   5.382   6.413
 7620SOL     OW23203   4.106   4.424   6.066
 7620SOL    HW123204   4.151   4.334   6.063
 7620SOL    HW223205   4.012   4.413   6.099
 7621SOL     OW23206   4.338   3.846   5.703
 7621SOL    HW123207   4.436   3.824   5.710
 7621SOL    HW223208   4.307   3.829   5.610
 7622SOL     OW23209   4.527   5.126   6.510
 7622SOL    HW123210   4.617   5.140   6.468
 7622SOL    HW223211   4.456   5.128   6.439
 7623SOL     OW23212   4.646   4.227   6.485
 7623SOL    HW123213   4.621   4.218   6.389
 7623SOL    HW223214   4.694   4.145   6.516
 7624SOL     OW23215   4.263   3.788   6.098
 7624SOL    HW123216   4.182   3.789   6.156
 7624SOL    HW223217   4.266   3.871   6.043
 7625SOL     OW23218   5.158   4.912   5.627
 7625SOL    HW123219   5.190   4.836   5.684
 7625SOL    HW223220   5.066   4.939   5.657
 7626SOL     OW23221   4.021   3.759   5.757
 7626SOL    HW123222   4.070   3.843   5.736
 7626SOL    HW223223   4.083   3.694   5.802
 7627SOL     OW23224   4.659   3.960   6.066
 7627SOL    HW123225   4.611   4.001   5.988
 7627SOL    HW223226   4.758   3.958   6.047
 7628SOL     OW23227   4.183   4.876   6.327
 7628SOL    HW123228   4.112   4.849   6.392
 7628SOL    HW223229   4.157   4.848   6.234
 7629SOL     OW23230   4.995   5.521   6.177
 7629SOL    HW123231   5.039   5.585   6.113
 7629SOL    HW223232   4.945   5.573   6.247
 7630SOL     OW23233   4.756   4.273   5.602
 7630SOL    HW123234   4.715   4.355   5.563
 7630SOL    HW223235   4.820   4.299   5.675
 7631SOL     OW23236   4.590   4.178   6.228
 7631SOL    HW123237   4.558   4.250   6.166
 7631SOL    HW223238   4.614   4.097   6.175
 7632SOL     OW23239   4.741   3.763   6.339
 7632SOL    HW123240   4.669   3.768   6.270
 7632SOL    HW223241   4.717   3.694   6.408
 7633SOL     OW23242   5.581   4.557   5.963
 7633SOL    HW123243   5.623   4.493   6.027
 7633SOL    HW223244   5.543   4.506   5.885
 7634SOL     OW23245   4.212   5.109   5.760
 7634SOL    HW123246   4.125   5.094   5.807
 7634SOL    HW223247   4.195   5.135   5.665
 7635SOL     OW23248   5.114   4.299   5.664
 7635SOL    HW123249   5.060   4.278   5.745
 7635SOL    HW223250   5.205   4.258   5.673
 7636SOL     OW23251   4.251   3.980   5.914
 7636SOL    HW123252   4.278   3.921   5.839
 7636SOL    HW223253   4.251   4.075   5.883
 7637SOL     OW23254   4.429   4.774   5.954
 7637SOL    HW123255   4.415   4.781   6.053
 7637SOL    HW223256   4.513   4.723   5.936
 7638SOL     OW23257   4.091   4.824   6.087
 7638SOL    HW123258   4.084   4.907   6.031
 7638SOL    HW223259   4.095   4.744   6.027
 7639SOL     OW23260   4.290   4.261   6.451
 7639SOL    HW123261   4.302   4.327   6.377
 7639SOL    HW223262   4.336   4.295   6.534
 7640SOL     OW23263   4.976   5.072   5.974
 7640SOL    HW123264   5.026   5.149   6.014
 7640SOL    HW223265   4.881   5.074   6.006
 7641SOL     OW23266   5.306   4.363   6.058
 7641SOL    HW123267   5.275   4.424   6.131
 7641SOL    HW223268   5.356   4.415   5.989
 7642SOL     OW23269   4.933   4.249   5.861
 7642SOL    HW123270   4.946   4.165   5.915
 7642SOL    HW223271   4.904   4.323   5.921
 7643SOL     OW23272   5.346   4.091   5.960
 7643SOL    HW123273   5.348   4.015   6.024
 7643SOL    HW223274   5.298   4.168   6.000
 7644SOL     OW23275   5.264   3.998   5.711
 7644SOL    HW123276   5.203   3.923   5.734
 7644SOL    HW223277   5.286   4.050   5.794
 7645SOL     OW23278   5.027   4.562   5.628
 7645SOL    HW123279   5.061   4.469   5.643
 7645SOL    HW223280   5.045   4.589   5.533
 7646SOL     OW23281   4.792   5.057   6.435
 7646SOL    HW123282   4.799   4.973   6.380
 7646SOL    HW223283   4.854   5.126   6.399
 7647SOL     OW23284   3.732   5.050   5.786
 7647SOL    HW123285   3.639   5.071   5.755
 7647SOL    HW223286   3.742   4.951   5.799
 7648SOL     OW23287   4.228   5.292   6.496
 7648SOL    HW123288   4.294   5.366   6.505
 7648SOL    HW223289   4.272   5.213   6.454
 7649SOL     OW23290   4.539   4.296   5.911
 7649SOL    HW123291   4.546   4.207   5.865
 7649SOL    HW223292   4.445   4.330   5.903
 7650SOL     OW23293   4.197   4.224   5.777
 7650SOL    HW123294   4.258   4.304   5.781
 7650SOL    HW223295   4.102   4.255   5.784
 7651SOL     OW23296   5.026   4.579   5.895
 7651SOL    HW123297   4.940   4.548   5.937
 7651SOL    HW223298   5.022   4.565   5.796
 7652SOL     OW23299   5.450   3.859   6.109
 7652SOL    HW123300   5.523   3.842   6.042
 7652SOL    HW223301   5.419   3.772   6.147
 7653SOL     OW23302   5.112   5.297   6.063
 7653SOL    HW123303   5.179   5.309   5.989
 7653SOL    HW223304   5.072   5.386   6.086
 7654SOL     OW23305   5.004   4.651   6.258
 7654SOL    HW123306   5.064   4.570   6.260
 7654SOL    HW223307   5.044   4.720   6.198
 7655SOL     OW23308   4.396   5.340   5.740
 7655SOL    HW123309   4.405   5.350   5.641
 7655SOL    HW223310   4.356   5.251   5.761
 7656SOL     OW23311   3.987   4.050   6.306
 7656SOL    HW123312   3.908   4.101   6.272
 7656SOL    HW223313   3.978   4.035   6.404
 7657SOL     OW23314   4.918   5.336   5.617
 7657SOL    HW123315   4.924   5.243   5.654
 7657SOL    HW223316   4.859   5.336   5.537
 7658SOL     OW23317   4.640   4.634   5.877
 7658SOL    HW123318   4.703   4.672   5.809
 7658SOL    HW223319   4.680   4.551   5.916
 7659SOL     OW23320   5.228   5.331   5.630
 7659SOL    HW123321   5.136   5.368   5.637
 7659SOL    HW223322   5.266   5.351   5.540
 7660SOL     OW23323   4.763   4.822   6.282
 7660SOL    HW123324   4.693   4.775   6.336
 7660SOL    HW223325   4.822   4.754   6.239
 7661SOL     OW23326   4.738   3.960   6.557
 7661SOL    HW123327   4.730   3.924   6.464
 7661SOL    HW223328   4.736   3.884   6.622
 7662SOL     OW23329   4.314   5.211   6.077
 7662SOL    HW123330   4.356   5.153   6.007
 7662SOL    HW223331   4.270   5.290   6.033
 7663SOL     OW23332   3.979   5.072   5.876
 7663SOL    HW123333   3.883   5.073   5.849
 7663SOL    HW223334   3.991   5.125   5.960
 7664SOL     OW23335   3.799   4.069   5.619
 7664SOL    HW123336   3.707   4.041   5.590
 7664SOL    HW223337   3.830   4.146   5.563
 7665SOL     OW23338   3.796   3.890   5.904
 7665SOL    HW123339   3.779   3.973   5.850
 7665SOL    HW223340   3.886   3.853   5.882
 7666SOL     OW23341   4.907   5.059   5.705
 7666SOL    HW123342   4.808   5.048   5.707
 7666SOL    HW223343   4.941   5.074   5.798
 7667SOL     OW23344   4.949   4.049   6.035
 7667SOL    HW123345   5.014   3.975   6.024
 7667SOL    HW223346   4.969   4.099   6.119
 7668SOL     OW23347   4.318   4.469   6.238
 7668SOL    HW123348   4.368   4.554   6.219
 7668SOL    HW223349   4.230   4.471   6.190
 7669SOL     OW23350   4.583   5.098   5.602
 7669SOL    HW123351   4.537   5.113   5.690
 7669SOL    HW223352   4.627   5.183   5.572
 7670SOL     OW23353   4.583   4.680   6.447
 7670SOL    HW123354   4.637   4.611   6.495
 7670SOL    HW223355   4.551   4.749   6.513
 7671SOL     OW23356   4.807   4.708   5.673
 7671SOL    HW123357   4.784   4.761   5.591
 7671SOL    HW223358   4.888   4.652   5.654
 7672SOL     OW23359   3.803   4.964   6.239
 7672SOL    HW123360   3.802   4.917   6.327
 7672SOL    HW223361   3.885   4.936   6.188
 7673SOL     OW23362   4.152   4.148   6.106
 7673SOL    HW123363   4.182   4.076   6.044
 7673SOL    HW223364   4.113   4.108   6.189
 7674SOL     OW23365   4.536   5.310   6.273
 7674SOL    HW123366   4.568   5.320   6.179
 7674SOL    HW223367   4.457   5.248   6.275
 7675SOL     OW23368   4.494   5.054   5.887
 7675SOL    HW123369   4.448   4.967   5.904
 7675SOL    HW223370   4.585   5.051   5.928
 7676SOL     OW23371   5.076   3.776   5.754
 7676SOL    HW123372   5.111   3.735   5.670
 7676SOL    HW223373   4.986   3.738   5.774
 7677SOL     OW23374   5.024   4.177   6.277
 7677SOL    HW123375   4.965   4.257   6.281
 7677SOL    HW223376   5.039   4.142   6.370
 7678SOL     OW23377   5.317   3.945   6.468
 7678SOL    HW123378   5.233   3.944   6.522
 7678SOL    HW223379   5.319   4.028   6.412
 7679SOL     OW23380   3.763   4.801   5.886
 7679SOL    HW123381   3.862   4.790   5.877
 7679SOL    HW223382   3.723   4.715   5.918
 7680SOL     OW23383   4.599   5.370   5.923
 7680SOL    HW123384   4.522   5.335   5.869
 7680SOL    HW223385   4.567   5.441   5.985
 7681SOL     OW23386   3.954   6.214   0.113
 7681SOL    HW123387   3.861   6.212   0.150
 7681SOL    HW223388   3.955   6.175   0.021
 7682SOL     OW23389   3.949   5.861   0.996
 7682SOL    HW123390   3.984   5.844   1.088
 7682SOL    HW223391   3.861   5.816   0.984
 7683SOL     OW23392   3.743   5.954   0.647
 7683SOL    HW123393   3.661   5.997   0.686
 7683SOL    HW223394   3.715   5.881   0.584
 7684SOL     OW23395   4.293   6.861   1.165
 7684SOL    HW123396   4.200   6.854   1.128
 7684SOL    HW223397   4.304   6.950   1.209
 7685SOL     OW23398   4.859   6.289   0.717
 7685SOL    HW123399   4.916   6.367   0.692
 7685SOL    HW223400   4.799   6.315   0.793
 7686SOL     OW23401   5.479   6.193   0.231
 7686SOL    HW123402   5.467   6.180   0.132
 7686SOL    HW223403   5.449   6.112   0.280
 7687SOL     OW23404   4.492   6.730   1.023
 7687SOL    HW123405   4.414   6.747   1.083
 7687SOL    HW223406   4.526   6.817   0.987
 7688SOL     OW23407   4.574   6.384   1.823
 7688SOL    HW123408   4.570   6.460   1.888
 7688SOL    HW223409   4.596   6.420   1.732
 7689SOL     OW23410   4.409   6.598   0.665
 7689SOL    HW123411   4.478   6.582   0.735
 7689SOL    HW223412   4.336   6.655   0.703
 7690SOL     OW23413   4.410   6.747   1.803
 7690SOL    HW123414   4.470   6.826   1.817
 7690SOL    HW223415   4.324   6.778   1.762
 7691SOL     OW23416   4.059   7.021   1.061
 7691SOL    HW123417   3.981   6.990   1.008
 7691SOL    HW223418   4.117   7.079   1.004
 7692SOL     OW23419   4.162   5.978   1.499
 7692SOL    HW123420   4.244   5.922   1.508
 7692SOL    HW223421   4.081   5.920   1.503
 7693SOL     OW23422   5.327   6.033   0.737
 7693SOL    HW123423   5.253   6.079   0.687
 7693SOL    HW223424   5.378   6.101   0.790
 7694SOL     OW23425   4.851   6.927   1.690
 7694SOL    HW123426   4.898   6.927   1.778
 7694SOL    HW223427   4.803   6.840   1.679
 7695SOL     OW23428   3.954   7.020   0.538
 7695SOL    HW123429   3.928   7.116   0.538
 7695SOL    HW223430   3.883   6.966   0.583
 7696SOL     OW23431   3.964   6.677   0.886
 7696SOL    HW123432   3.978   6.593   0.938
 7696SOL    HW223433   3.909   6.741   0.941
 7697SOL     OW23434   4.330   6.550   0.123
 7697SOL    HW123435   4.337   6.634   0.069
 7697SOL    HW223436   4.376   6.563   0.211
 7698SOL     OW23437   5.318   5.700   1.480
 7698SOL    HW123438   5.300   5.767   1.408
 7698SOL    HW223439   5.315   5.746   1.569
 7699SOL     OW23440   3.846   6.229   0.563
 7699SOL    HW123441   3.801   6.141   0.580
 7699SOL    HW223442   3.845   6.283   0.647
 7700SOL     OW23443   5.413   6.508   0.612
 7700SOL    HW123444   5.508   6.479   0.620
 7700SOL    HW223445   5.405   6.573   0.537
 7701SOL     OW23446   5.365   6.694   0.432
 7701SOL    HW123447   5.451   6.696   0.380
 7701SOL    HW223448   5.379   6.741   0.520
 7702SOL     OW23449   3.837   6.323   1.597
 7702SOL    HW123450   3.925   6.310   1.642
 7702SOL    HW223451   3.824   6.420   1.575
 7703SOL     OW23452   4.337   6.951   0.726
 7703SOL    HW123453   4.288   6.864   0.735
 7703SOL    HW223454   4.314   6.994   0.639
 7704SOL     OW23455   5.017   6.814   1.423
 7704SOL    HW123456   5.054   6.741   1.365
 7704SOL    HW223457   5.069   6.819   1.508
 7705SOL     OW23458   4.533   5.590   0.502
 7705SOL    HW123459   4.573   5.681   0.493
 7705SOL    HW223460   4.433   5.598   0.508
 7706SOL     OW23461   3.921   6.562   1.264
 7706SOL    HW123462   4.010   6.517   1.250
 7706SOL    HW223463   3.848   6.497   1.245
 7707SOL     OW23464   4.041   5.837   1.801
 7707SOL    HW123465   4.112   5.908   1.807
 7707SOL    HW223466   3.953   5.876   1.829
 7708SOL     OW23467   5.190   7.003   0.953
 7708SOL    HW123468   5.131   7.009   1.033
 7708SOL    HW223469   5.175   6.915   0.907
 7709SOL     OW23470   4.322   6.315   0.270
 7709SOL    HW123471   4.346   6.384   0.202
 7709SOL    HW223472   4.244   6.348   0.324
 7710SOL     OW23473   5.005   5.931   0.944
 7710SOL    HW123474   4.919   5.881   0.931
 7710SOL    HW223475   5.067   5.877   1.000
 7711SOL     OW23476   4.531   6.191   1.465
 7711SOL    HW123477   4.484   6.188   1.554
 7711SOL    HW223478   4.480   6.136   1.399
 7712SOL     OW23479   5.118   6.055   1.674
 7712SOL    HW123480   5.098   6.098   1.762
 7712SOL    HW223481   5.196   5.993   1.683
 7713SOL     OW23482   4.697   6.476   1.572
 7713SOL    HW123483   4.743   6.392   1.543
 7713SOL    HW223484   4.641   6.510   1.497
 7714SOL     OW23485   4.715   5.996   1.242
 7714SOL    HW123486   4.638   6.030   1.296
 7714SOL    HW223487   4.681   5.945   1.163
 7715SOL     OW23488   4.765   6.287   0.429
 7715SOL    HW123489   4.791   6.283   0.525
 7715SOL    HW223490   4.680   6.236   0.415
 7716SOL     OW23491   3.800   6.397   0.789
 7716SOL    HW123492   3.899   6.385   0.798
 7716SOL    HW223493   3.776   6.492   0.810
 7717SOL     OW23494   4.589   5.934   0.195
 7717SOL    HW123495   4.648   5.997   0.146
 7717SOL    HW223496   4.608   5.840   0.166
 7718SOL     OW23497   5.443   6.171   1.831
 7718SOL    HW123498   5.417   6.260   1.795
 7718SOL    HW223499   5.441   6.103   1.758
 7719SOL     OW23500   5.086   6.730   0.545
 7719SOL    HW123501   5.169   6.701   0.497
 7719SOL    HW223502   5.037   6.797   0.489
 7720SOL     OW23503   4.274   5.782   0.885
 7720SOL    HW123504   4.269   5.777   0.985
 7720SOL    HW223505   4.276   5.878   0.856
 7721SOL     OW23506   4.732   7.042   0.477
 7721SOL    HW123507   4.686   7.114   0.425
 7721SOL    HW223508   4.728   7.062   0.575
 7722SOL     OW23509   5.519   6.652   0.873
 7722SOL    HW123510   5.457   6.637   0.797
 7722SOL    HW223511   5.467   6.663   0.958
 7723SOL     OW23512   4.951   7.136   1.506
 7723SOL    HW123513   4.957   7.059   1.570
 7723SOL    HW223514   4.899   7.110   1.426
 7724SOL     OW23515   4.045   6.529   0.242
 7724SOL    HW123516   4.127   6.568   0.200
 7724SOL    HW223517   4.018   6.447   0.193
 7725SOL     OW23518   5.182   6.321   0.728
 7725SOL    HW123519   5.177   6.256   0.803
 7725SOL    HW223520   5.262   6.380   0.741
 7726SOL     OW23521   4.185   6.852   1.727
 7726SOL    HW123522   4.135   6.853   1.641
 7726SOL    HW223523   4.122   6.834   1.803
 7727SOL     OW23524   3.926   5.871   1.498
 7727SOL    HW123525   3.846   5.931   1.485
 7727SOL    HW223526   3.916   5.822   1.584
 7728SOL     OW23527   5.356   6.963   0.081
 7728SOL    HW123528   5.324   7.057   0.071
 7728SOL    HW223529   5.280   6.900   0.069
 7729SOL     OW23530   5.124   5.693   0.426
 7729SOL    HW123531   5.100   5.656   0.336
 7729SOL    HW223532   5.223   5.709   0.430
 7730SOL     OW23533   4.664   7.284   0.904
 7730SOL    HW123534   4.744   7.227   0.925
 7730SOL    HW223535   4.615   7.244   0.827
 7731SOL     OW23536   4.106   6.286   0.480
 7731SOL    HW123537   4.151   6.196   0.477
 7731SOL    HW223538   4.012   6.275   0.513
 7732SOL     OW23539   5.271   5.808   1.729
 7732SOL    HW123540   5.266   5.845   1.821
 7732SOL    HW223541   5.199   5.739   1.717
 7733SOL     OW23542   4.338   5.708   0.117
 7733SOL    HW123543   4.436   5.686   0.124
 7733SOL    HW223544   4.307   5.691   0.024
 7734SOL     OW23545   4.505   5.850   1.749
 7734SOL    HW123546   4.572   5.789   1.792
 7734SOL    HW223547   4.432   5.869   1.814
 7735SOL     OW23548   4.612   7.100   1.195
 7735SOL    HW123549   4.589   7.075   1.101
 7735SOL    HW223550   4.673   7.031   1.234
 7736SOL     OW23551   5.075   6.176   1.433
 7736SOL    HW123552   5.103   6.133   1.518
 7736SOL    HW223553   5.100   6.272   1.434
 7737SOL     OW23554   4.527   6.988   0.924
 7737SOL    HW123555   4.617   7.002   0.882
 7737SOL    HW223556   4.456   6.990   0.853
 7738SOL     OW23557   4.646   6.089   0.899
 7738SOL    HW123558   4.621   6.080   0.803
 7738SOL    HW223559   4.694   6.007   0.930
 7739SOL     OW23560   4.263   5.650   0.512
 7739SOL    HW123561   4.182   5.651   0.570
 7739SOL    HW223562   4.266   5.733   0.457
 7740SOL     OW23563   4.021   5.621   0.171
 7740SOL    HW123564   4.070   5.705   0.150
 7740SOL    HW223565   4.083   5.556   0.216
 7741SOL     OW23566   4.659   5.822   0.480
 7741SOL    HW123567   4.611   5.863   0.402
 7741SOL    HW223568   4.758   5.820   0.461
 7742SOL     OW23569   4.800   6.269   1.464
 7742SOL    HW123570   4.720   6.208   1.467
 7742SOL    HW223571   4.881   6.216   1.440
 7743SOL     OW23572   4.951   7.156   0.793
 7743SOL    HW123573   4.972   7.230   0.728
 7743SOL    HW223574   5.019   7.156   0.866
 7744SOL     OW23575   4.183   6.738   0.741
 7744SOL    HW123576   4.112   6.711   0.806
 7744SOL    HW223577   4.157   6.710   0.648
 7745SOL     OW23578   4.995   7.383   0.591
 7745SOL    HW123579   5.039   7.447   0.527
 7745SOL    HW223580   4.945   7.435   0.661
 7746SOL     OW23581   4.756   6.135   0.016
 7746SOL    HW123582   4.715   6.217  -0.023
 7746SOL    HW223583   4.820   6.161   0.089
 7747SOL     OW23584   3.802   6.142   1.386
 7747SOL    HW123585   3.894   6.141   1.345
 7747SOL    HW223586   3.796   6.216   1.453
 7748SOL     OW23587   4.285   5.808   1.147
 7748SOL    HW123588   4.323   5.724   1.184
 7748SOL    HW223589   4.197   5.827   1.191
 7749SOL     OW23590   4.590   6.040   0.642
 7749SOL    HW123591   4.558   6.112   0.580
 7749SOL    HW223592   4.614   5.959   0.589
 7750SOL     OW23593   4.741   5.625   0.753
 7750SOL    HW123594   4.669   5.630   0.684
 7750SOL    HW223595   4.717   5.556   0.822
 7751SOL     OW23596   5.153   6.759   0.867
 7751SOL    HW123597   5.098   6.675   0.860
 7751SOL    HW223598   5.179   6.788   0.775
 7752SOL     OW23599   5.190   6.176   0.992
 7752SOL    HW123600   5.160   6.081   0.999
 7752SOL    HW223601   5.263   6.192   1.058
 7753SOL     OW23602   5.581   6.419   0.377
 7753SOL    HW123603   5.623   6.355   0.441
 7753SOL    HW223604   5.543   6.368   0.299
 7754SOL     OW23605   4.212   6.971   0.174
 7754SOL    HW123606   4.125   6.956   0.221
 7754SOL    HW223607   4.195   6.997   0.079
 7755SOL     OW23608   5.388   6.866   0.657
 7755SOL    HW123609   5.487   6.874   0.671
 7755SOL    HW223610   5.343   6.950   0.688
 7756SOL     OW23611   4.251   5.842   0.328
 7756SOL    HW123612   4.278   5.783   0.253
 7756SOL    HW223613   4.251   5.937   0.297
 7757SOL     OW23614   5.478   6.809   1.588
 7757SOL    HW123615   5.569   6.770   1.575
 7757SOL    HW223616   5.486   6.905   1.612
 7758SOL     OW23617   4.788   6.933   1.340
 7758SOL    HW123618   4.708   6.910   1.395
 7758SOL    HW223619   4.871   6.907   1.389
 7759SOL     OW23620   4.835   6.781   1.100
 7759SOL    HW123621   4.795   6.825   1.181
 7759SOL    HW223622   4.794   6.818   1.017
 7760SOL     OW23623   5.362   6.685   1.079
 7760SOL    HW123624   5.367   6.766   1.138
 7760SOL    HW223625   5.276   6.687   1.028
 7761SOL     OW23626   4.639   5.675   1.402
 7761SOL    HW123627   4.664   5.655   1.307
 7761SOL    HW223628   4.711   5.731   1.444
 7762SOL     OW23629   4.704   6.702   1.719
 7762SOL    HW123630   4.605   6.708   1.729
 7762SOL    HW223631   4.727   6.622   1.663
 7763SOL     OW23632   4.429   6.636   0.368
 7763SOL    HW123633   4.415   6.643   0.467
 7763SOL    HW223634   4.513   6.585   0.350
 7764SOL     OW23635   4.134   6.399   1.251
 7764SOL    HW123636   4.220   6.411   1.301
 7764SOL    HW223637   4.092   6.312   1.278
 7765SOL     OW23638   4.998   5.972   1.262
 7765SOL    HW123639   5.019   6.046   1.326
 7765SOL    HW223640   4.909   5.989   1.219
 7766SOL     OW23641   3.788   7.150   1.331
 7766SOL    HW123642   3.742   7.232   1.297
 7766SOL    HW223643   3.886   7.169   1.340
 7767SOL     OW23644   4.091   6.686   0.501
 7767SOL    HW123645   4.084   6.769   0.445
 7767SOL    HW223646   4.095   6.606   0.441
 7768SOL     OW23647   4.290   6.123   0.865
 7768SOL    HW123648   4.302   6.189   0.791
 7768SOL    HW223649   4.336   6.157   0.948
 7769SOL     OW23650   4.976   6.934   0.388
 7769SOL    HW123651   5.026   7.011   0.428
 7769SOL    HW223652   4.881   6.936   0.420
 7770SOL     OW23653   4.996   7.031   1.142
 7770SOL    HW123654   5.043   7.044   1.229
 7770SOL    HW223655   4.930   6.957   1.151
 7771SOL     OW23656   5.306   6.225   0.472
 7771SOL    HW123657   5.275   6.286   0.545
 7771SOL    HW223658   5.356   6.277   0.403
 7772SOL     OW23659   4.078   7.096   1.329
 7772SOL    HW123660   4.057   7.052   1.242
 7772SOL    HW223661   4.175   7.122   1.332
 7773SOL     OW23662   4.126   6.337   1.598
 7773SOL    HW123663   4.194   6.392   1.551
 7773SOL    HW223664   4.166   6.249   1.625
 7774SOL     OW23665   5.311   6.365   1.670
 7774SOL    HW123666   5.219   6.403   1.665
 7774SOL    HW223667   5.371   6.412   1.605
 7775SOL     OW23668   4.737   5.691   1.770
 7775SOL    HW123669   4.743   5.776   1.718
 7775SOL    HW223670   4.769   5.615   1.713
 7776SOL     OW23671   4.228   5.636   1.740
 7776SOL    HW123672   4.186   5.579   1.670
 7776SOL    HW223673   4.162   5.705   1.772
 7777SOL     OW23674   4.297   6.456   1.029
 7777SOL    HW123675   4.341   6.545   1.020
 7777SOL    HW223676   4.234   6.456   1.106
 7778SOL     OW23677   5.084   6.448   1.045
 7778SOL    HW123678   5.009   6.448   0.979
 7778SOL    HW223679   5.121   6.356   1.054
 7779SOL     OW23680   4.933   6.111   0.275
 7779SOL    HW123681   4.946   6.027   0.329
 7779SOL    HW223682   4.904   6.185   0.335
 7780SOL     OW23683   4.031   5.799   1.231
 7780SOL    HW123684   4.008   5.836   1.321
 7780SOL    HW223685   4.001   5.704   1.225
 7781SOL     OW23686   3.761   6.896   1.282
 7781SOL    HW123687   3.814   6.847   1.350
 7781SOL    HW223688   3.783   6.994   1.287
 7782SOL     OW23689   4.456   6.220   1.064
 7782SOL    HW123690   4.515   6.194   0.988
 7782SOL    HW223691   4.428   6.316   1.053
 7783SOL     OW23692   5.452   6.521   1.854
 7783SOL    HW123693   5.406   6.514   1.765
 7783SOL    HW223694   5.390   6.565   1.920
 7784SOL     OW23695   4.031   5.649   0.618
 7784SOL    HW123696   4.020   5.743   0.651
 7784SOL    HW223697   4.026   5.586   0.695
 7785SOL     OW23698   5.346   5.953   0.374
 7785SOL    HW123699   5.348   5.877   0.438
 7785SOL    HW223700   5.298   6.030   0.414
 7786SOL     OW23701   4.747   6.352   0.966
 7786SOL    HW123702   4.762   6.373   1.062
 7786SOL    HW223703   4.717   6.257   0.957
 7787SOL     OW23704   4.704   7.159   1.700
 7787SOL    HW123705   4.684   7.203   1.612
 7787SOL    HW223706   4.743   7.068   1.684
 7788SOL     OW23707   5.583   7.104   1.605
 7788SOL    HW123708   5.597   7.131   1.510
 7788SOL    HW223709   5.666   7.126   1.658
 7789SOL     OW23710   4.074   6.484   1.804
 7789SOL    HW123711   4.150   6.528   1.852
 7789SOL    HW223712   4.109   6.437   1.722
 7790SOL     OW23713   4.792   6.919   0.849
 7790SOL    HW123714   4.799   6.835   0.794
 7790SOL    HW223715   4.854   6.988   0.813
 7791SOL     OW23716   4.043   6.396   0.949
 7791SOL    HW123717   4.136   6.432   0.954
 7791SOL    HW223718   4.037   6.311   1.001
 7792SOL     OW23719   4.063   6.095   1.006
 7792SOL    HW123720   4.011   6.012   0.989
 7792SOL    HW223721   4.140   6.100   0.942
 7793SOL     OW23722   4.862   5.966   1.678
 7793SOL    HW123723   4.817   6.029   1.742
 7793SOL    HW223724   4.955   5.997   1.661
 7794SOL     OW23725   4.884   5.793   1.477
 7794SOL    HW123726   4.884   5.857   1.554
 7794SOL    HW223727   4.912   5.841   1.394
 7795SOL     OW23728   3.732   6.912   0.200
 7795SOL    HW123729   3.639   6.933   0.169
 7795SOL    HW223730   3.742   6.813   0.213
 7796SOL     OW23731   4.726   6.382   1.238
 7796SOL    HW123732   4.767   6.350   1.324
 7796SOL    HW223733   4.630   6.355   1.235
 7797SOL     OW23734   3.764   6.130   1.114
 7797SOL    HW123735   3.849   6.097   1.073
 7797SOL    HW223736   3.777   6.145   1.212
 7798SOL     OW23737   3.913   6.106   1.722
 7798SOL    HW123738   3.972   6.066   1.652
 7798SOL    HW223739   3.855   6.177   1.681
 7799SOL     OW23740   5.093   6.536   1.660
 7799SOL    HW123741   5.132   6.625   1.680
 7799SOL    HW223742   5.103   6.516   1.563
 7800SOL     OW23743   4.539   6.158   0.325
 7800SOL    HW123744   4.546   6.069   0.279
 7800SOL    HW223745   4.445   6.192   0.317
 7801SOL     OW23746   5.381   6.190   1.206
 7801SOL    HW123747   5.343   6.121   1.268
 7801SOL    HW223748   5.463   6.154   1.162
 7802SOL     OW23749   4.395   6.050   1.269
 7802SOL    HW123750   4.361   5.961   1.239
 7802SOL    HW223751   4.421   6.104   1.189
 7803SOL     OW23752   4.197   6.086   0.191
 7803SOL    HW123753   4.258   6.166   0.195
 7803SOL    HW223754   4.102   6.117   0.198
 7804SOL     OW23755   3.883   6.723   1.466
 7804SOL    HW123756   3.905   6.662   1.542
 7804SOL    HW223757   3.893   6.674   1.380
 7805SOL     OW23758   5.071   6.645   1.234
 7805SOL    HW123759   5.095   6.582   1.160
 7805SOL    HW223760   4.981   6.685   1.216
 7806SOL     OW23761   3.807   6.844   1.022
 7806SOL    HW123762   3.802   6.843   1.122
 7806SOL    HW223763   3.724   6.803   0.984
 7807SOL     OW23764   4.412   7.248   1.716
 7807SOL    HW123765   4.356   7.329   1.725
 7807SOL    HW223766   4.464   7.252   1.630
 7808SOL     OW23767   4.627   5.672   0.133
 7808SOL    HW123768   4.678   5.673   0.047
 7808SOL    HW223769   4.683   5.630   0.204
 7809SOL     OW23770   5.450   5.721   0.523
 7809SOL    HW123771   5.523   5.704   0.456
 7809SOL    HW223772   5.419   5.634   0.561
 7810SOL     OW23773   3.854   7.380   1.851
 7810SOL    HW123774   3.813   7.306   1.904
 7810SOL    HW223775   3.918   7.431   1.909
 7811SOL     OW23776   5.004   6.513   0.672
 7811SOL    HW123777   5.064   6.432   0.674
 7811SOL    HW223778   5.044   6.582   0.612
 7812SOL     OW23779   4.554   6.859   1.422
 7812SOL    HW123780   4.549   6.892   1.517
 7812SOL    HW223781   4.468   6.878   1.376
 7813SOL     OW23782   4.396   7.202   0.154
 7813SOL    HW123783   4.405   7.212   0.055
 7813SOL    HW223784   4.356   7.113   0.175
 7814SOL     OW23785   5.565   5.761   0.963
 7814SOL    HW123786   5.604   5.676   0.927
 7814SOL    HW223787   5.467   5.763   0.944
 7815SOL     OW23788   3.987   5.912   0.720
 7815SOL    HW123789   3.908   5.963   0.686
 7815SOL    HW223790   3.978   5.897   0.818
 7816SOL     OW23791   4.546   6.588   1.372
 7816SOL    HW123792   4.586   6.587   1.280
 7816SOL    HW223793   4.556   6.680   1.412
 7817SOL     OW23794   4.640   6.496   0.291
 7817SOL    HW123795   4.703   6.534   0.223
 7817SOL    HW223796   4.680   6.413   0.330
 7818SOL     OW23797   4.096   6.874   1.490
 7818SOL    HW123798   4.083   6.967   1.456
 7818SOL    HW223799   4.012   6.822   1.477
 7819SOL     OW23800   5.338   6.878   1.289
 7819SOL    HW123801   5.398   6.881   1.369
 7819SOL    HW223802   5.263   6.942   1.302
 7820SOL     OW23803   4.763   6.684   0.696
 7820SOL    HW123804   4.693   6.637   0.750
 7820SOL    HW223805   4.822   6.616   0.653
 7821SOL     OW23806   4.738   5.822   0.971
 7821SOL    HW123807   4.730   5.786   0.878
 7821SOL    HW223808   4.736   5.746   1.036
 7822SOL     OW23809   4.314   7.073   0.491
 7822SOL    HW123810   4.356   7.015   0.421
 7822SOL    HW223811   4.270   7.152   0.447
 7823SOL     OW23812   5.433   5.971   1.381
 7823SOL    HW123813   5.506   6.040   1.385
 7823SOL    HW223814   5.461   5.896   1.322
 7824SOL     OW23815   3.979   6.934   0.290
 7824SOL    HW123816   3.883   6.935   0.263
 7824SOL    HW223817   3.991   6.987   0.374
 7825SOL     OW23818   3.829   6.599   1.726
 7825SOL    HW123819   3.752   6.566   1.780
 7825SOL    HW223820   3.914   6.569   1.768
 7826SOL     OW23821   4.396   5.789   1.489
 7826SOL    HW123822   4.486   5.773   1.449
 7826SOL    HW223823   4.404   5.794   1.588
 7827SOL     OW23824   3.799   5.931   0.033
 7827SOL    HW123825   3.707   5.903   0.004
 7827SOL    HW223826   3.830   6.008  -0.023
 7828SOL     OW23827   5.164   6.442   1.398
 7828SOL    HW123828   5.107   6.494   1.335
 7828SOL    HW223829   5.260   6.454   1.374
 7829SOL     OW23830   3.796   5.752   0.318
 7829SOL    HW123831   3.779   5.835   0.264
 7829SOL    HW223832   3.886   5.715   0.296
 7830SOL     OW23833   4.907   6.921   0.119
 7830SOL    HW123834   4.808   6.910   0.121
 7830SOL    HW223835   4.941   6.936   0.212
 7831SOL     OW23836   4.337   6.428   1.431
 7831SOL    HW123837   4.393   6.509   1.414
 7831SOL    HW223838   4.396   6.348   1.434
 7832SOL     OW23839   4.440   6.151   1.708
 7832SOL    HW123840   4.459   6.216   1.782
 7832SOL    HW223841   4.500   6.071   1.717
 7833SOL     OW23842   5.174   6.806   1.633
 7833SOL    HW123843   5.165   6.796   1.732
 7833SOL    HW223844   5.270   6.799   1.607
 7834SOL     OW23845   5.398   6.469   1.254
 7834SOL    HW123846   5.371   6.380   1.217
 7834SOL    HW223847   5.399   6.537   1.181
 7835SOL     OW23848   4.949   5.911   0.449
 7835SOL    HW123849   5.014   5.837   0.438
 7835SOL    HW223850   4.969   5.961   0.533
 7836SOL     OW23851   4.318   6.331   0.652
 7836SOL    HW123852   4.368   6.416   0.633
 7836SOL    HW223853   4.230   6.333   0.604
 7837SOL     OW23854   5.501   5.928   1.642
 7837SOL    HW123855   5.484   5.959   1.548
 7837SOL    HW223856   5.417   5.891   1.680
 7838SOL     OW23857   5.454   6.520   1.517
 7838SOL    HW123858   5.492   6.611   1.532
 7838SOL    HW223859   5.446   6.503   1.418
 7839SOL     OW23860   4.583   6.960   0.016
 7839SOL    HW123861   4.537   6.975   0.104
 7839SOL    HW223862   4.627   7.045  -0.014
 7840SOL     OW23863   4.583   6.542   0.861
 7840SOL    HW123864   4.637   6.473   0.909
 7840SOL    HW223865   4.551   6.611   0.927
 7841SOL     OW23866   4.807   6.570   0.087
 7841SOL    HW123867   4.784   6.623   0.005
 7841SOL    HW223868   4.888   6.514   0.068
 7842SOL     OW23869   3.945   6.900   1.844
 7842SOL    HW123870   3.880   6.827   1.823
 7842SOL    HW223871   3.949   6.914   1.942
 7843SOL     OW23872   3.803   6.826   0.653
 7843SOL    HW123873   3.802   6.779   0.741
 7843SOL    HW223874   3.885   6.798   0.602
 7844SOL     OW23875   4.396   6.977   1.624
 7844SOL    HW123876   4.318   6.927   1.662
 7844SOL    HW223877   4.393   7.072   1.655
 7845SOL     OW23878   5.548   5.778   1.227
 7845SOL    HW123879   5.544   5.688   1.271
 7845SOL    HW223880   5.551   5.767   1.128
 7846SOL     OW23881   4.152   6.010   0.520
 7846SOL    HW123882   4.182   5.938   0.458
 7846SOL    HW223883   4.113   5.970   0.603
 7847SOL     OW23884   4.041   6.133   1.280
 7847SOL    HW123885   4.079   6.074   1.352
 7847SOL    HW223886   4.081   6.107   1.192
 7848SOL     OW23887   5.148   5.800   1.112
 7848SOL    HW123888   5.200   5.735   1.167
 7848SOL    HW223889   5.099   5.863   1.173
 7849SOL     OW23890   4.725   5.620   1.154
 7849SOL    HW123891   4.662   5.548   1.123
 7849SOL    HW223892   4.818   5.584   1.154
 7850SOL     OW23893   4.494   6.916   0.301
 7850SOL    HW123894   4.448   6.829   0.318
 7850SOL    HW223895   4.585   6.913   0.342
 7851SOL     OW23896   5.076   5.638   0.168
 7851SOL    HW123897   5.111   5.597   0.084
 7851SOL    HW223898   4.986   5.600   0.188
 7852SOL     OW23899   5.024   6.039   0.691
 7852SOL    HW123900   4.965   6.119   0.695
 7852SOL    HW223901   5.039   6.004   0.784
 7853SOL     OW23902   5.317   5.807   0.882
 7853SOL    HW123903   5.233   5.806   0.936
 7853SOL    HW223904   5.319   5.890   0.826
 7854SOL     OW23905   3.763   6.663   0.300
 7854SOL    HW123906   3.862   6.652   0.291
 7854SOL    HW223907   3.723   6.577   0.332
 7855SOL     OW23908   3.954   6.214   1.975
 7855SOL    HW123909   3.861   6.212   2.012
 7855SOL    HW223910   3.955   6.175   1.883
 7856SOL     OW23911   3.949   5.861   2.858
 7856SOL    HW123912   3.984   5.844   2.950
 7856SOL    HW223913   3.861   5.816   2.846
 7857SOL     OW23914   3.743   5.954   2.509
 7857SOL    HW123915   3.661   5.997   2.548
 7857SOL    HW223916   3.715   5.881   2.446
 7858SOL     OW23917   4.293   6.861   3.027
 7858SOL    HW123918   4.200   6.854   2.990
 7858SOL    HW223919   4.304   6.950   3.071
 7859SOL     OW23920   4.859   6.289   2.579
 7859SOL    HW123921   4.916   6.367   2.554
 7859SOL    HW223922   4.799   6.315   2.655
 7860SOL     OW23923   5.479   6.193   2.093
 7860SOL    HW123924   5.467   6.180   1.994
 7860SOL    HW223925   5.449   6.112   2.142
 7861SOL     OW23926   4.492   6.730   2.885
 7861SOL    HW123927   4.414   6.747   2.945
 7861SOL    HW223928   4.526   6.817   2.849
 7862SOL     OW23929   4.574   6.384   3.685
 7862SOL    HW123930   4.570   6.460   3.750
 7862SOL    HW223931   4.596   6.420   3.594
 7863SOL     OW23932   4.409   6.598   2.527
 7863SOL    HW123933   4.478   6.582   2.597
 7863SOL    HW223934   4.336   6.655   2.565
 7864SOL     OW23935   4.410   6.747   3.665
 7864SOL    HW123936   4.470   6.826   3.679
 7864SOL    HW223937   4.324   6.778   3.624
 7865SOL     OW23938   4.059   7.021   2.923
 7865SOL    HW123939   3.981   6.990   2.870
 7865SOL    HW223940   4.117   7.079   2.866
 7866SOL     OW23941   4.162   5.978   3.361
 7866SOL    HW123942   4.244   5.922   3.370
 7866SOL    HW223943   4.081   5.920   3.365
 7867SOL     OW23944   5.327   6.033   2.599
 7867SOL    HW123945   5.253   6.079   2.549
 7867SOL    HW223946   5.378   6.101   2.652
 7868SOL     OW23947   4.851   6.927   3.552
 7868SOL    HW123948   4.898   6.927   3.640
 7868SOL    HW223949   4.803   6.840   3.541
 7869SOL     OW23950   3.954   7.020   2.400
 7869SOL    HW123951   3.928   7.116   2.400
 7869SOL    HW223952   3.883   6.966   2.445
 7870SOL     OW23953   3.964   6.677   2.748
 7870SOL    HW123954   3.978   6.593   2.800
 7870SOL    HW223955   3.909   6.741   2.803
 7871SOL     OW23956   4.330   6.550   1.985
 7871SOL    HW123957   4.337   6.634   1.931
 7871SOL    HW223958   4.376   6.563   2.073
 7872SOL     OW23959   5.318   5.700   3.342
 7872SOL    HW123960   5.300   5.767   3.270
 7872SOL    HW223961   5.315   5.746   3.431
 7873SOL     OW23962   3.846   6.229   2.425
 7873SOL    HW123963   3.801   6.141   2.442
 7873SOL    HW223964   3.845   6.283   2.509
 7874SOL     OW23965   5.413   6.508   2.474
 7874SOL    HW123966   5.508   6.479   2.482
 7874SOL    HW223967   5.405   6.573   2.399
 7875SOL     OW23968   5.365   6.694   2.294
 7875SOL    HW123969   5.451   6.696   2.242
 7875SOL    HW223970   5.379   6.741   2.382
 7876SOL     OW23971   3.837   6.323   3.459
 7876SOL    HW123972   3.925   6.310   3.504
 7876SOL    HW223973   3.824   6.420   3.437
 7877SOL     OW23974   4.337   6.951   2.588
 7877SOL    HW123975   4.288   6.864   2.597
 7877SOL    HW223976   4.314   6.994   2.501
 7878SOL     OW23977   5.017   6.814   3.285
 7878SOL    HW123978   5.054   6.741   3.227
 7878SOL    HW223979   5.069   6.819   3.370
 7879SOL     OW23980   3.921   6.562   3.126
 7879SOL    HW123981   4.010   6.517   3.112
 7879SOL    HW223982   3.848   6.497   3.107
 7880SOL     OW23983   5.249   6.585   2.052
 7880SOL    HW123984   5.186   6.509   2.065
 7880SOL    HW223985   5.297   6.603   2.138
 7881SOL     OW23986   5.190   7.003   2.815
 7881SOL    HW123987   5.131   7.009   2.895
 7881SOL    HW223988   5.175   6.915   2.769
 7882SOL     OW23989   4.322   6.315   2.132
 7882SOL    HW123990   4.346   6.384   2.064
 7882SOL    HW223991   4.244   6.348   2.186
 7883SOL     OW23992   5.005   5.931   2.806
 7883SOL    HW123993   4.919   5.881   2.793
 7883SOL    HW223994   5.067   5.877   2.862
 7884SOL     OW23995   5.300   7.248   2.169
 7884SOL    HW123996   5.389   7.294   2.172
 7884SOL    HW223997   5.279   7.224   2.074
 7885SOL     OW23998   4.531   6.191   3.327
 7885SOL    HW123999   4.484   6.188   3.416
 7885SOL    HW224000   4.480   6.136   3.261
 7886SOL     OW24001   5.118   6.055   3.536
 7886SOL    HW124002   5.098   6.098   3.624
 7886SOL    HW224003   5.196   5.993   3.545
 7887SOL     OW24004   4.697   6.476   3.434
 7887SOL    HW124005   4.743   6.392   3.405
 7887SOL    HW224006   4.641   6.510   3.359
 7888SOL     OW24007   4.715   5.996   3.104
 7888SOL    HW124008   4.638   6.030   3.158
 7888SOL    HW224009   4.681   5.945   3.025
 7889SOL     OW24010   4.765   6.287   2.291
 7889SOL    HW124011   4.791   6.283   2.387
 7889SOL    HW224012   4.680   6.236   2.277
 7890SOL     OW24013   3.800   6.397   2.651
 7890SOL    HW124014   3.899   6.385   2.660
 7890SOL    HW224015   3.776   6.492   2.672
 7891SOL     OW24016   4.589   5.934   2.057
 7891SOL    HW124017   4.648   5.997   2.008
 7891SOL    HW224018   4.608   5.840   2.028
 7892SOL     OW24019   5.443   6.171   3.693
 7892SOL    HW124020   5.417   6.260   3.657
 7892SOL    HW224021   5.441   6.103   3.620
 7893SOL     OW24022   5.086   6.730   2.407
 7893SOL    HW124023   5.169   6.701   2.359
 7893SOL    HW224024   5.037   6.797   2.351
 7894SOL     OW24025   4.732   7.042   2.339
 7894SOL    HW124026   4.686   7.114   2.287
 7894SOL    HW224027   4.728   7.062   2.437
 7895SOL     OW24028   5.519   6.652   2.735
 7895SOL    HW124029   5.457   6.637   2.659
 7895SOL    HW224030   5.467   6.663   2.820
 7896SOL     OW24031   4.951   7.136   3.368
 7896SOL    HW124032   4.957   7.059   3.432
 7896SOL    HW224033   4.899   7.110   3.288
 7897SOL     OW24034   4.045   6.529   2.104
 7897SOL    HW124035   4.127   6.568   2.062
 7897SOL    HW224036   4.018   6.447   2.055
 7898SOL     OW24037   5.182   6.321   2.590
 7898SOL    HW124038   5.177   6.256   2.665
 7898SOL    HW224039   5.262   6.380   2.603
 7899SOL     OW24040   4.185   6.852   3.589
 7899SOL    HW124041   4.135   6.853   3.503
 7899SOL    HW224042   4.122   6.834   3.665
 7900SOL     OW24043   5.356   6.963   1.943
 7900SOL    HW124044   5.324   7.057   1.933
 7900SOL    HW224045   5.280   6.900   1.931
 7901SOL     OW24046   5.124   5.693   2.288
 7901SOL    HW124047   5.100   5.656   2.198
 7901SOL    HW224048   5.223   5.709   2.292
 7902SOL     OW24049   4.664   7.284   2.766
 7902SOL    HW124050   4.744   7.227   2.787
 7902SOL    HW224051   4.615   7.244   2.689
 7903SOL     OW24052   4.106   6.286   2.342
 7903SOL    HW124053   4.151   6.196   2.339
 7903SOL    HW224054   4.012   6.275   2.375
 7904SOL     OW24055   5.271   5.808   3.591
 7904SOL    HW124056   5.266   5.845   3.683
 7904SOL    HW224057   5.199   5.739   3.579
 7905SOL     OW24058   4.338   5.708   1.979
 7905SOL    HW124059   4.436   5.686   1.986
 7905SOL    HW224060   4.307   5.691   1.886
 7906SOL     OW24061   4.505   5.850   3.611
 7906SOL    HW124062   4.572   5.789   3.654
 7906SOL    HW224063   4.432   5.869   3.676
 7907SOL     OW24064   4.612   7.100   3.057
 7907SOL    HW124065   4.589   7.075   2.963
 7907SOL    HW224066   4.673   7.031   3.096
 7908SOL     OW24067   5.075   6.176   3.295
 7908SOL    HW124068   5.103   6.133   3.380
 7908SOL    HW224069   5.100   6.272   3.296
 7909SOL     OW24070   4.527   6.988   2.786
 7909SOL    HW124071   4.617   7.002   2.744
 7909SOL    HW224072   4.456   6.990   2.715
 7910SOL     OW24073   4.646   6.089   2.761
 7910SOL    HW124074   4.621   6.080   2.665
 7910SOL    HW224075   4.694   6.007   2.792
 7911SOL     OW24076   4.263   5.650   2.374
 7911SOL    HW124077   4.182   5.651   2.432
 7911SOL    HW224078   4.266   5.733   2.319
 7912SOL     OW24079   5.158   6.774   1.903
 7912SOL    HW124080   5.190   6.698   1.960
 7912SOL    HW224081   5.066   6.801   1.933
 7913SOL     OW24082   4.659   5.822   2.342
 7913SOL    HW124083   4.611   5.863   2.264
 7913SOL    HW224084   4.758   5.820   2.323
 7914SOL     OW24085   4.800   6.269   3.326
 7914SOL    HW124086   4.720   6.208   3.329
 7914SOL    HW224087   4.881   6.216   3.302
 7915SOL     OW24088   4.951   7.156   2.655
 7915SOL    HW124089   4.972   7.230   2.590
 7915SOL    HW224090   5.019   7.156   2.728
 7916SOL     OW24091   4.183   6.738   2.603
 7916SOL    HW124092   4.112   6.711   2.668
 7916SOL    HW224093   4.157   6.710   2.510
 7917SOL     OW24094   4.995   7.383   2.453
 7917SOL    HW124095   5.039   7.447   2.389
 7917SOL    HW224096   4.945   7.435   2.523
 7918SOL     OW24097   4.756   6.135   1.878
 7918SOL    HW124098   4.715   6.217   1.839
 7918SOL    HW224099   4.820   6.161   1.951
 7919SOL     OW24100   4.590   6.040   2.504
 7919SOL    HW124101   4.558   6.112   2.442
 7919SOL    HW224102   4.614   5.959   2.451
 7920SOL     OW24103   5.153   6.759   2.729
 7920SOL    HW124104   5.098   6.675   2.722
 7920SOL    HW224105   5.179   6.788   2.637
 7921SOL     OW24106   5.190   6.176   2.854
 7921SOL    HW124107   5.160   6.081   2.861
 7921SOL    HW224108   5.263   6.192   2.920
 7922SOL     OW24109   5.581   6.419   2.239
 7922SOL    HW124110   5.623   6.355   2.303
 7922SOL    HW224111   5.543   6.368   2.161
 7923SOL     OW24112   4.212   6.971   2.036
 7923SOL    HW124113   4.125   6.956   2.083
 7923SOL    HW224114   4.195   6.997   1.941
 7924SOL     OW24115   5.388   6.866   2.519
 7924SOL    HW124116   5.487   6.874   2.533
 7924SOL    HW224117   5.343   6.950   2.550
 7925SOL     OW24118   5.114   6.161   1.940
 7925SOL    HW124119   5.060   6.140   2.021
 7925SOL    HW224120   5.205   6.120   1.949
 7926SOL     OW24121   5.478   6.809   3.450
 7926SOL    HW124122   5.569   6.770   3.437
 7926SOL    HW224123   5.486   6.905   3.474
 7927SOL     OW24124   4.788   6.933   3.202
 7927SOL    HW124125   4.708   6.910   3.257
 7927SOL    HW224126   4.871   6.907   3.251
 7928SOL     OW24127   4.835   6.781   2.962
 7928SOL    HW124128   4.795   6.825   3.043
 7928SOL    HW224129   4.794   6.818   2.879
 7929SOL     OW24130   5.362   6.685   2.941
 7929SOL    HW124131   5.367   6.766   3.000
 7929SOL    HW224132   5.276   6.687   2.890
 7930SOL     OW24133   4.639   5.675   3.264
 7930SOL    HW124134   4.664   5.655   3.169
 7930SOL    HW224135   4.711   5.731   3.306
 7931SOL     OW24136   4.704   6.702   3.581
 7931SOL    HW124137   4.605   6.708   3.591
 7931SOL    HW224138   4.727   6.622   3.525
 7932SOL     OW24139   4.429   6.636   2.230
 7932SOL    HW124140   4.415   6.643   2.329
 7932SOL    HW224141   4.513   6.585   2.212
 7933SOL     OW24142   4.134   6.399   3.113
 7933SOL    HW124143   4.220   6.411   3.163
 7933SOL    HW224144   4.092   6.312   3.140
 7934SOL     OW24145   4.998   5.972   3.124
 7934SOL    HW124146   5.019   6.046   3.188
 7934SOL    HW224147   4.909   5.989   3.081
 7935SOL     OW24148   3.788   7.150   3.193
 7935SOL    HW124149   3.742   7.232   3.159
 7935SOL    HW224150   3.886   7.169   3.202
 7936SOL     OW24151   4.091   6.686   2.363
 7936SOL    HW124152   4.084   6.769   2.307
 7936SOL    HW224153   4.095   6.606   2.303
 7937SOL     OW24154   4.976   6.934   2.250
 7937SOL    HW124155   5.026   7.011   2.290
 7937SOL    HW224156   4.881   6.936   2.282
 7938SOL     OW24157   4.996   7.031   3.004
 7938SOL    HW124158   5.043   7.044   3.091
 7938SOL    HW224159   4.930   6.957   3.013
 7939SOL     OW24160   5.306   6.225   2.334
 7939SOL    HW124161   5.275   6.286   2.407
 7939SOL    HW224162   5.356   6.277   2.265
 7940SOL     OW24163   4.078   7.096   3.191
 7940SOL    HW124164   4.057   7.052   3.104
 7940SOL    HW224165   4.175   7.122   3.194
 7941SOL     OW24166   4.126   6.337   3.460
 7941SOL    HW124167   4.194   6.392   3.413
 7941SOL    HW224168   4.166   6.249   3.487
 7942SOL     OW24169   5.311   6.365   3.532
 7942SOL    HW124170   5.219   6.403   3.527
 7942SOL    HW224171   5.371   6.412   3.467
 7943SOL     OW24172   4.737   5.691   3.632
 7943SOL    HW124173   4.743   5.776   3.580
 7943SOL    HW224174   4.769   5.615   3.575
 7944SOL     OW24175   4.297   6.456   2.891
 7944SOL    HW124176   4.341   6.545   2.882
 7944SOL    HW224177   4.234   6.456   2.968
 7945SOL     OW24178   5.084   6.448   2.907
 7945SOL    HW124179   5.009   6.448   2.841
 7945SOL    HW224180   5.121   6.356   2.916
 7946SOL     OW24181   4.933   6.111   2.137
 7946SOL    HW124182   4.946   6.027   2.191
 7946SOL    HW224183   4.904   6.185   2.197
 7947SOL     OW24184   4.031   5.799   3.093
 7947SOL    HW124185   4.008   5.836   3.183
 7947SOL    HW224186   4.001   5.704   3.087
 7948SOL     OW24187   3.761   6.896   3.144
 7948SOL    HW124188   3.814   6.847   3.212
 7948SOL    HW224189   3.783   6.994   3.149
 7949SOL     OW24190   4.456   6.220   2.926
 7949SOL    HW124191   4.515   6.194   2.850
 7949SOL    HW224192   4.428   6.316   2.915
 7950SOL     OW24193   5.452   6.521   3.716
 7950SOL    HW124194   5.406   6.514   3.627
 7950SOL    HW224195   5.390   6.565   3.782
 7951SOL     OW24196   5.346   5.953   2.236
 7951SOL    HW124197   5.348   5.877   2.300
 7951SOL    HW224198   5.298   6.030   2.276
 7952SOL     OW24199   4.747   6.352   2.828
 7952SOL    HW124200   4.762   6.373   2.924
 7952SOL    HW224201   4.717   6.257   2.819
 7953SOL     OW24202   4.704   7.159   3.562
 7953SOL    HW124203   4.684   7.203   3.474
 7953SOL    HW224204   4.743   7.068   3.546
 7954SOL     OW24205   5.583   7.104   3.467
 7954SOL    HW124206   5.597   7.131   3.372
 7954SOL    HW224207   5.666   7.126   3.520
 7955SOL     OW24208   4.074   6.484   3.666
 7955SOL    HW124209   4.150   6.528   3.714
 7955SOL    HW224210   4.109   6.437   3.584
 7956SOL     OW24211   5.264   5.860   1.987
 7956SOL    HW124212   5.203   5.785   2.010
 7956SOL    HW224213   5.286   5.912   2.070
 7957SOL     OW24214   5.027   6.424   1.904
 7957SOL    HW124215   5.061   6.331   1.919
 7957SOL    HW224216   5.045   6.451   1.809
 7958SOL     OW24217   4.792   6.919   2.711
 7958SOL    HW124218   4.799   6.835   2.656
 7958SOL    HW224219   4.854   6.988   2.675
 7959SOL     OW24220   4.043   6.396   2.811
 7959SOL    HW124221   4.136   6.432   2.816
 7959SOL    HW224222   4.037   6.311   2.863
 7960SOL     OW24223   4.063   6.095   2.868
 7960SOL    HW124224   4.011   6.012   2.851
 7960SOL    HW224225   4.140   6.100   2.804
 7961SOL     OW24226   4.862   5.966   3.540
 7961SOL    HW124227   4.817   6.029   3.604
 7961SOL    HW224228   4.955   5.997   3.523
 7962SOL     OW24229   4.884   5.793   3.339
 7962SOL    HW124230   4.884   5.857   3.416
 7962SOL    HW224231   4.912   5.841   3.256
 7963SOL     OW24232   3.732   6.912   2.062
 7963SOL    HW124233   3.639   6.933   2.031
 7963SOL    HW224234   3.742   6.813   2.075
 7964SOL     OW24235   4.726   6.382   3.100
 7964SOL    HW124236   4.767   6.350   3.186
 7964SOL    HW224237   4.630   6.355   3.097
 7965SOL     OW24238   3.764   6.130   2.976
 7965SOL    HW124239   3.849   6.097   2.935
 7965SOL    HW224240   3.777   6.145   3.074
 7966SOL     OW24241   3.913   6.106   3.584
 7966SOL    HW124242   3.972   6.066   3.514
 7966SOL    HW224243   3.855   6.177   3.543
 7967SOL     OW24244   5.093   6.536   3.522
 7967SOL    HW124245   5.132   6.625   3.542
 7967SOL    HW224246   5.103   6.516   3.425
 7968SOL     OW24247   4.539   6.158   2.187
 7968SOL    HW124248   4.546   6.069   2.141
 7968SOL    HW224249   4.445   6.192   2.179
 7969SOL     OW24250   5.381   6.190   3.068
 7969SOL    HW124251   5.343   6.121   3.130
 7969SOL    HW224252   5.463   6.154   3.024
 7970SOL     OW24253   4.395   6.050   3.131
 7970SOL    HW124254   4.361   5.961   3.101
 7970SOL    HW224255   4.421   6.104   3.051
 7971SOL     OW24256   4.197   6.086   2.053
 7971SOL    HW124257   4.258   6.166   2.057
 7971SOL    HW224258   4.102   6.117   2.060
 7972SOL     OW24259   3.883   6.723   3.328
 7972SOL    HW124260   3.905   6.662   3.404
 7972SOL    HW224261   3.893   6.674   3.242
 7973SOL     OW24262   5.071   6.645   3.096
 7973SOL    HW124263   5.095   6.582   3.022
 7973SOL    HW224264   4.981   6.685   3.078
 7974SOL     OW24265   5.026   6.441   2.171
 7974SOL    HW124266   4.940   6.410   2.213
 7974SOL    HW224267   5.022   6.427   2.072
 7975SOL     OW24268   3.807   6.844   2.884
 7975SOL    HW124269   3.802   6.843   2.984
 7975SOL    HW224270   3.724   6.803   2.846
 7976SOL     OW24271   4.412   7.248   3.578
 7976SOL    HW124272   4.356   7.329   3.587
 7976SOL    HW224273   4.464   7.252   3.492
 7977SOL     OW24274   5.450   5.721   2.385
 7977SOL    HW124275   5.523   5.704   2.318
 7977SOL    HW224276   5.419   5.634   2.423
 7978SOL     OW24277   3.854   7.380   3.713
 7978SOL    HW124278   3.813   7.306   3.766
 7978SOL    HW224279   3.918   7.431   3.771
 7979SOL     OW24280   5.004   6.513   2.534
 7979SOL    HW124281   5.064   6.432   2.536
 7979SOL    HW224282   5.044   6.582   2.474
 7980SOL     OW24283   4.554   6.859   3.284
 7980SOL    HW124284   4.549   6.892   3.379
 7980SOL    HW224285   4.468   6.878   3.238
 7981SOL     OW24286   4.396   7.202   2.016
 7981SOL    HW124287   4.405   7.212   1.917
 7981SOL    HW224288   4.356   7.113   2.037
 7982SOL     OW24289   5.565   5.761   2.825
 7982SOL    HW124290   5.604   5.676   2.789
 7982SOL    HW224291   5.467   5.763   2.806
 7983SOL     OW24292   3.987   5.912   2.582
 7983SOL    HW124293   3.908   5.963   2.548
 7983SOL    HW224294   3.978   5.897   2.680
 7984SOL     OW24295   4.546   6.588   3.234
 7984SOL    HW124296   4.586   6.587   3.142
 7984SOL    HW224297   4.556   6.680   3.274
 7985SOL     OW24298   4.640   6.496   2.153
 7985SOL    HW124299   4.703   6.534   2.085
 7985SOL    HW224300   4.680   6.413   2.192
 7986SOL     OW24301   4.096   6.874   3.352
 7986SOL    HW124302   4.083   6.967   3.318
 7986SOL    HW224303   4.012   6.822   3.339
 7987SOL     OW24304   5.338   6.878   3.151
 7987SOL    HW124305   5.398   6.881   3.231
 7987SOL    HW224306   5.263   6.942   3.164
 7988SOL     OW24307   4.763   6.684   2.558
 7988SOL    HW124308   4.693   6.637   2.612
 7988SOL    HW224309   4.822   6.616   2.515
 7989SOL     OW24310   4.314   7.073   2.353
 7989SOL    HW124311   4.356   7.015   2.283
 7989SOL    HW224312   4.270   7.152   2.309
 7990SOL     OW24313   5.433   5.971   3.243
 7990SOL    HW124314   5.506   6.040   3.247
 7990SOL    HW224315   5.461   5.896   3.184
 7991SOL     OW24316   3.979   6.934   2.152
 7991SOL    HW124317   3.883   6.935   2.125
 7991SOL    HW224318   3.991   6.987   2.236
 7992SOL     OW24319   3.829   6.599   3.588
 7992SOL    HW124320   3.752   6.566   3.642
 7992SOL    HW224321   3.914   6.569   3.630
 7993SOL     OW24322   4.396   5.789   3.351
 7993SOL    HW124323   4.486   5.773   3.311
 7993SOL    HW224324   4.404   5.794   3.450
 7994SOL     OW24325   3.799   5.931   1.895
 7994SOL    HW124326   3.707   5.903   1.866
 7994SOL    HW224327   3.830   6.008   1.839
 7995SOL     OW24328   5.164   6.442   3.260
 7995SOL    HW124329   5.107   6.494   3.197
 7995SOL    HW224330   5.260   6.454   3.236
 7996SOL     OW24331   3.796   5.752   2.180
 7996SOL    HW124332   3.779   5.835   2.126
 7996SOL    HW224333   3.886   5.715   2.158
 7997SOL     OW24334   4.907   6.921   1.981
 7997SOL    HW124335   4.808   6.910   1.983
 7997SOL    HW224336   4.941   6.936   2.074
 7998SOL     OW24337   4.337   6.428   3.293
 7998SOL    HW124338   4.393   6.509   3.276
 7998SOL    HW224339   4.396   6.348   3.296
 7999SOL     OW24340   4.440   6.151   3.570
 7999SOL    HW124341   4.459   6.216   3.644
 7999SOL    HW224342   4.500   6.071   3.579
 8000SOL     OW24343   5.174   6.806   3.495
 8000SOL    HW124344   5.165   6.796   3.594
 8000SOL    HW224345   5.270   6.799   3.469
 8001SOL     OW24346   5.398   6.469   3.116
 8001SOL    HW124347   5.371   6.380   3.079
 8001SOL    HW224348   5.399   6.537   3.043
 8002SOL     OW24349   4.949   5.911   2.311
 8002SOL    HW124350   5.014   5.837   2.300
 8002SOL    HW224351   4.969   5.961   2.395
 8003SOL     OW24352   4.318   6.331   2.514
 8003SOL    HW124353   4.368   6.416   2.495
 8003SOL    HW224354   4.230   6.333   2.466
 8004SOL     OW24355   5.501   5.928   3.504
 8004SOL    HW124356   5.484   5.959   3.410
 8004SOL    HW224357   5.417   5.891   3.542
 8005SOL     OW24358   5.454   6.520   3.379
 8005SOL    HW124359   5.492   6.611   3.394
 8005SOL    HW224360   5.446   6.503   3.280
 8006SOL     OW24361   4.583   6.960   1.878
 8006SOL    HW124362   4.537   6.975   1.966
 8006SOL    HW224363   4.627   7.045   1.848
 8007SOL     OW24364   4.583   6.542   2.723
 8007SOL    HW124365   4.637   6.473   2.771
 8007SOL    HW224366   4.551   6.611   2.789
 8008SOL     OW24367   4.807   6.570   1.949
 8008SOL    HW124368   4.784   6.623   1.867
 8008SOL    HW224369   4.888   6.514   1.930
 8009SOL     OW24370   3.945   6.900   3.706
 8009SOL    HW124371   3.880   6.827   3.685
 8009SOL    HW224372   3.949   6.914   3.804
 8010SOL     OW24373   3.803   6.826   2.515
 8010SOL    HW124374   3.802   6.779   2.603
 8010SOL    HW224375   3.885   6.798   2.464
 8011SOL     OW24376   4.396   6.977   3.486
 8011SOL    HW124377   4.318   6.927   3.524
 8011SOL    HW224378   4.393   7.072   3.517
 8012SOL     OW24379   5.548   5.778   3.089
 8012SOL    HW124380   5.544   5.688   3.133
 8012SOL    HW224381   5.551   5.767   2.990
 8013SOL     OW24382   4.152   6.010   2.382
 8013SOL    HW124383   4.182   5.938   2.320
 8013SOL    HW224384   4.113   5.970   2.465
 8014SOL     OW24385   4.041   6.133   3.142
 8014SOL    HW124386   4.079   6.074   3.214
 8014SOL    HW224387   4.081   6.107   3.054
 8015SOL     OW24388   5.148   5.800   2.974
 8015SOL    HW124389   5.200   5.735   3.029
 8015SOL    HW224390   5.099   5.863   3.035
 8016SOL     OW24391   4.494   6.916   2.163
 8016SOL    HW124392   4.448   6.829   2.180
 8016SOL    HW224393   4.585   6.913   2.204
 8017SOL     OW24394   5.076   5.638   2.030
 8017SOL    HW124395   5.111   5.597   1.946
 8017SOL    HW224396   4.986   5.600   2.050
 8018SOL     OW24397   5.024   6.039   2.553
 8018SOL    HW124398   4.965   6.119   2.557
 8018SOL    HW224399   5.039   6.004   2.646
 8019SOL     OW24400   5.317   5.807   2.744
 8019SOL    HW124401   5.233   5.806   2.798
 8019SOL    HW224402   5.319   5.890   2.688
 8020SOL     OW24403   3.763   6.663   2.162
 8020SOL    HW124404   3.862   6.652   2.153
 8020SOL    HW224405   3.723   6.577   2.194
 8021SOL     OW24406   3.954   6.214   3.837
 8021SOL    HW124407   3.861   6.212   3.874
 8021SOL    HW224408   3.955   6.175   3.745
 8022SOL     OW24409   3.949   5.861   4.720
 8022SOL    HW124410   3.984   5.844   4.812
 8022SOL    HW224411   3.861   5.816   4.708
 8023SOL     OW24412   3.743   5.954   4.371
 8023SOL    HW124413   3.661   5.997   4.410
 8023SOL    HW224414   3.715   5.881   4.308
 8024SOL     OW24415   4.293   6.861   4.889
 8024SOL    HW124416   4.200   6.854   4.852
 8024SOL    HW224417   4.304   6.950   4.933
 8025SOL     OW24418   4.859   6.289   4.441
 8025SOL    HW124419   4.916   6.367   4.416
 8025SOL    HW224420   4.799   6.315   4.517
 8026SOL     OW24421   5.479   6.193   3.955
 8026SOL    HW124422   5.467   6.180   3.856
 8026SOL    HW224423   5.449   6.112   4.004
 8027SOL     OW24424   4.492   6.730   4.747
 8027SOL    HW124425   4.414   6.747   4.807
 8027SOL    HW224426   4.526   6.817   4.711
 8028SOL     OW24427   4.574   6.384   5.547
 8028SOL    HW124428   4.570   6.460   5.612
 8028SOL    HW224429   4.596   6.420   5.456
 8029SOL     OW24430   4.409   6.598   4.389
 8029SOL    HW124431   4.478   6.582   4.459
 8029SOL    HW224432   4.336   6.655   4.427
 8030SOL     OW24433   4.410   6.747   5.527
 8030SOL    HW124434   4.470   6.826   5.541
 8030SOL    HW224435   4.324   6.778   5.486
 8031SOL     OW24436   4.059   7.021   4.785
 8031SOL    HW124437   3.981   6.990   4.732
 8031SOL    HW224438   4.117   7.079   4.728
 8032SOL     OW24439   4.162   5.978   5.223
 8032SOL    HW124440   4.244   5.922   5.232
 8032SOL    HW224441   4.081   5.920   5.227
 8033SOL     OW24442   5.327   6.033   4.461
 8033SOL    HW124443   5.253   6.079   4.411
 8033SOL    HW224444   5.378   6.101   4.514
 8034SOL     OW24445   4.851   6.927   5.414
 8034SOL    HW124446   4.898   6.927   5.502
 8034SOL    HW224447   4.803   6.840   5.403
 8035SOL     OW24448   3.954   7.020   4.262
 8035SOL    HW124449   3.928   7.116   4.262
 8035SOL    HW224450   3.883   6.966   4.307
 8036SOL     OW24451   3.964   6.677   4.610
 8036SOL    HW124452   3.978   6.593   4.662
 8036SOL    HW224453   3.909   6.741   4.665
 8037SOL     OW24454   4.330   6.550   3.847
 8037SOL    HW124455   4.337   6.634   3.793
 8037SOL    HW224456   4.376   6.563   3.935
 8038SOL     OW24457   5.318   5.700   5.204
 8038SOL    HW124458   5.300   5.767   5.132
 8038SOL    HW224459   5.315   5.746   5.293
 8039SOL     OW24460   3.846   6.229   4.287
 8039SOL    HW124461   3.801   6.141   4.304
 8039SOL    HW224462   3.845   6.283   4.371
 8040SOL     OW24463   5.413   6.508   4.336
 8040SOL    HW124464   5.508   6.479   4.344
 8040SOL    HW224465   5.405   6.573   4.261
 8041SOL     OW24466   5.365   6.694   4.156
 8041SOL    HW124467   5.451   6.696   4.104
 8041SOL    HW224468   5.379   6.741   4.244
 8042SOL     OW24469   3.837   6.323   5.321
 8042SOL    HW124470   3.925   6.310   5.366
 8042SOL    HW224471   3.824   6.420   5.299
 8043SOL     OW24472   4.337   6.951   4.450
 8043SOL    HW124473   4.288   6.864   4.459
 8043SOL    HW224474   4.314   6.994   4.363
 8044SOL     OW24475   5.017   6.814   5.147
 8044SOL    HW124476   5.054   6.741   5.089
 8044SOL    HW224477   5.069   6.819   5.232
 8045SOL     OW24478   4.533   5.590   4.226
 8045SOL    HW124479   4.573   5.681   4.217
 8045SOL    HW224480   4.433   5.598   4.232
 8046SOL     OW24481   3.921   6.562   4.988
 8046SOL    HW124482   4.010   6.517   4.974
 8046SOL    HW224483   3.848   6.497   4.969
 8047SOL     OW24484   5.249   6.585   3.914
 8047SOL    HW124485   5.186   6.509   3.927
 8047SOL    HW224486   5.297   6.603   4.000
 8048SOL     OW24487   4.041   5.837   5.525
 8048SOL    HW124488   4.112   5.908   5.531
 8048SOL    HW224489   3.953   5.876   5.553
 8049SOL     OW24490   5.190   7.003   4.677
 8049SOL    HW124491   5.131   7.009   4.757
 8049SOL    HW224492   5.175   6.915   4.631
 8050SOL     OW24493   4.322   6.315   3.994
 8050SOL    HW124494   4.346   6.384   3.926
 8050SOL    HW224495   4.244   6.348   4.048
 8051SOL     OW24496   5.005   5.931   4.668
 8051SOL    HW124497   4.919   5.881   4.655
 8051SOL    HW224498   5.067   5.877   4.724
 8052SOL     OW24499   5.300   7.248   4.031
 8052SOL    HW124500   5.389   7.294   4.034
 8052SOL    HW224501   5.279   7.224   3.936
 8053SOL     OW24502   4.531   6.191   5.189
 8053SOL    HW124503   4.484   6.188   5.278
 8053SOL    HW224504   4.480   6.136   5.123
 8054SOL     OW24505   5.118   6.055   5.398
 8054SOL    HW124506   5.098   6.098   5.486
 8054SOL    HW224507   5.196   5.993   5.407
 8055SOL     OW24508   4.697   6.476   5.296
 8055SOL    HW124509   4.743   6.392   5.267
 8055SOL    HW224510   4.641   6.510   5.221
 8056SOL     OW24511   4.715   5.996   4.966
 8056SOL    HW124512   4.638   6.030   5.020
 8056SOL    HW224513   4.681   5.945   4.887
 8057SOL     OW24514   4.765   6.287   4.153
 8057SOL    HW124515   4.791   6.283   4.249
 8057SOL    HW224516   4.680   6.236   4.139
 8058SOL     OW24517   3.800   6.397   4.513
 8058SOL    HW124518   3.899   6.385   4.522
 8058SOL    HW224519   3.776   6.492   4.534
 8059SOL     OW24520   4.589   5.934   3.919
 8059SOL    HW124521   4.648   5.997   3.870
 8059SOL    HW224522   4.608   5.840   3.890
 8060SOL     OW24523   5.443   6.171   5.555
 8060SOL    HW124524   5.417   6.260   5.519
 8060SOL    HW224525   5.441   6.103   5.482
 8061SOL     OW24526   5.086   6.730   4.269
 8061SOL    HW124527   5.169   6.701   4.221
 8061SOL    HW224528   5.037   6.797   4.213
 8062SOL     OW24529   4.274   5.782   4.609
 8062SOL    HW124530   4.269   5.777   4.709
 8062SOL    HW224531   4.276   5.878   4.580
 8063SOL     OW24532   4.732   7.042   4.201
 8063SOL    HW124533   4.686   7.114   4.149
 8063SOL    HW224534   4.728   7.062   4.299
 8064SOL     OW24535   5.519   6.652   4.597
 8064SOL    HW124536   5.457   6.637   4.521
 8064SOL    HW224537   5.467   6.663   4.682
 8065SOL     OW24538   4.951   7.136   5.230
 8065SOL    HW124539   4.957   7.059   5.294
 8065SOL    HW224540   4.899   7.110   5.150
 8066SOL     OW24541   4.045   6.529   3.966
 8066SOL    HW124542   4.127   6.568   3.924
 8066SOL    HW224543   4.018   6.447   3.917
 8067SOL     OW24544   5.182   6.321   4.452
 8067SOL    HW124545   5.177   6.256   4.527
 8067SOL    HW224546   5.262   6.380   4.465
 8068SOL     OW24547   4.185   6.852   5.451
 8068SOL    HW124548   4.135   6.853   5.365
 8068SOL    HW224549   4.122   6.834   5.527
 8069SOL     OW24550   3.926   5.871   5.222
 8069SOL    HW124551   3.846   5.931   5.209
 8069SOL    HW224552   3.916   5.822   5.308
 8070SOL     OW24553   5.356   6.963   3.805
 8070SOL    HW124554   5.324   7.057   3.795
 8070SOL    HW224555   5.280   6.900   3.793
 8071SOL     OW24556   5.124   5.693   4.150
 8071SOL    HW124557   5.100   5.656   4.060
 8071SOL    HW224558   5.223   5.709   4.154
 8072SOL     OW24559   4.664   7.284   4.628
 8072SOL    HW124560   4.744   7.227   4.649
 8072SOL    HW224561   4.615   7.244   4.551
 8073SOL     OW24562   4.106   6.286   4.204
 8073SOL    HW124563   4.151   6.196   4.201
 8073SOL    HW224564   4.012   6.275   4.237
 8074SOL     OW24565   5.271   5.808   5.453
 8074SOL    HW124566   5.266   5.845   5.545
 8074SOL    HW224567   5.199   5.739   5.441
 8075SOL     OW24568   4.505   5.850   5.473
 8075SOL    HW124569   4.572   5.789   5.516
 8075SOL    HW224570   4.432   5.869   5.538
 8076SOL     OW24571   4.612   7.100   4.919
 8076SOL    HW124572   4.589   7.075   4.825
 8076SOL    HW224573   4.673   7.031   4.958
 8077SOL     OW24574   5.075   6.176   5.157
 8077SOL    HW124575   5.103   6.133   5.242
 8077SOL    HW224576   5.100   6.272   5.158
 8078SOL     OW24577   4.527   6.988   4.648
 8078SOL    HW124578   4.617   7.002   4.606
 8078SOL    HW224579   4.456   6.990   4.577
 8079SOL     OW24580   4.646   6.089   4.623
 8079SOL    HW124581   4.621   6.080   4.527
 8079SOL    HW224582   4.694   6.007   4.654
 8080SOL     OW24583   4.263   5.650   4.236
 8080SOL    HW124584   4.182   5.651   4.294
 8080SOL    HW224585   4.266   5.733   4.181
 8081SOL     OW24586   5.158   6.774   3.765
 8081SOL    HW124587   5.190   6.698   3.822
 8081SOL    HW224588   5.066   6.801   3.795
 8082SOL     OW24589   4.659   5.822   4.204
 8082SOL    HW124590   4.611   5.863   4.126
 8082SOL    HW224591   4.758   5.820   4.185
 8083SOL     OW24592   4.800   6.269   5.188
 8083SOL    HW124593   4.720   6.208   5.191
 8083SOL    HW224594   4.881   6.216   5.164
 8084SOL     OW24595   4.951   7.156   4.517
 8084SOL    HW124596   4.972   7.230   4.452
 8084SOL    HW224597   5.019   7.156   4.590
 8085SOL     OW24598   4.183   6.738   4.465
 8085SOL    HW124599   4.112   6.711   4.530
 8085SOL    HW224600   4.157   6.710   4.372
 8086SOL     OW24601   4.995   7.383   4.315
 8086SOL    HW124602   5.039   7.447   4.251
 8086SOL    HW224603   4.945   7.435   4.385
 8087SOL     OW24604   4.756   6.135   3.740
 8087SOL    HW124605   4.715   6.217   3.701
 8087SOL    HW224606   4.820   6.161   3.813
 8088SOL     OW24607   3.802   6.142   5.110
 8088SOL    HW124608   3.894   6.141   5.069
 8088SOL    HW224609   3.796   6.216   5.177
 8089SOL     OW24610   4.285   5.808   4.871
 8089SOL    HW124611   4.323   5.724   4.908
 8089SOL    HW224612   4.197   5.827   4.915
 8090SOL     OW24613   4.590   6.040   4.366
 8090SOL    HW124614   4.558   6.112   4.304
 8090SOL    HW224615   4.614   5.959   4.313
 8091SOL     OW24616   4.741   5.625   4.477
 8091SOL    HW124617   4.669   5.630   4.408
 8091SOL    HW224618   4.717   5.556   4.546
 8092SOL     OW24619   5.153   6.759   4.591
 8092SOL    HW124620   5.098   6.675   4.584
 8092SOL    HW224621   5.179   6.788   4.499
 8093SOL     OW24622   5.190   6.176   4.716
 8093SOL    HW124623   5.160   6.081   4.723
 8093SOL    HW224624   5.263   6.192   4.782
 8094SOL     OW24625   5.581   6.419   4.101
 8094SOL    HW124626   5.623   6.355   4.165
 8094SOL    HW224627   5.543   6.368   4.023
 8095SOL     OW24628   4.212   6.971   3.898
 8095SOL    HW124629   4.125   6.956   3.945
 8095SOL    HW224630   4.195   6.997   3.803
 8096SOL     OW24631   5.388   6.866   4.381
 8096SOL    HW124632   5.487   6.874   4.395
 8096SOL    HW224633   5.343   6.950   4.412
 8097SOL     OW24634   5.114   6.161   3.802
 8097SOL    HW124635   5.060   6.140   3.883
 8097SOL    HW224636   5.205   6.120   3.811
 8098SOL     OW24637   4.251   5.842   4.052
 8098SOL    HW124638   4.278   5.783   3.977
 8098SOL    HW224639   4.251   5.937   4.021
 8099SOL     OW24640   5.478   6.809   5.312
 8099SOL    HW124641   5.569   6.770   5.299
 8099SOL    HW224642   5.486   6.905   5.336
 8100SOL     OW24643   4.788   6.933   5.064
 8100SOL    HW124644   4.708   6.910   5.119
 8100SOL    HW224645   4.871   6.907   5.113
 8101SOL     OW24646   4.835   6.781   4.824
 8101SOL    HW124647   4.795   6.825   4.905
 8101SOL    HW224648   4.794   6.818   4.741
 8102SOL     OW24649   5.362   6.685   4.803
 8102SOL    HW124650   5.367   6.766   4.862
 8102SOL    HW224651   5.276   6.687   4.752
 8103SOL     OW24652   4.639   5.675   5.126
 8103SOL    HW124653   4.664   5.655   5.031
 8103SOL    HW224654   4.711   5.731   5.168
 8104SOL     OW24655   4.704   6.702   5.443
 8104SOL    HW124656   4.605   6.708   5.453
 8104SOL    HW224657   4.727   6.622   5.387
 8105SOL     OW24658   4.429   6.636   4.092
 8105SOL    HW124659   4.415   6.643   4.191
 8105SOL    HW224660   4.513   6.585   4.074
 8106SOL     OW24661   4.134   6.399   4.975
 8106SOL    HW124662   4.220   6.411   5.025
 8106SOL    HW224663   4.092   6.312   5.002
 8107SOL     OW24664   4.998   5.972   4.986
 8107SOL    HW124665   5.019   6.046   5.050
 8107SOL    HW224666   4.909   5.989   4.943
 8108SOL     OW24667   3.788   7.150   5.055
 8108SOL    HW124668   3.742   7.232   5.021
 8108SOL    HW224669   3.886   7.169   5.064
 8109SOL     OW24670   4.091   6.686   4.225
 8109SOL    HW124671   4.084   6.769   4.169
 8109SOL    HW224672   4.095   6.606   4.165
 8110SOL     OW24673   4.290   6.123   4.589
 8110SOL    HW124674   4.302   6.189   4.515
 8110SOL    HW224675   4.336   6.157   4.672
 8111SOL     OW24676   4.976   6.934   4.112
 8111SOL    HW124677   5.026   7.011   4.152
 8111SOL    HW224678   4.881   6.936   4.144
 8112SOL     OW24679   4.996   7.031   4.866
 8112SOL    HW124680   5.043   7.044   4.953
 8112SOL    HW224681   4.930   6.957   4.875
 8113SOL     OW24682   5.306   6.225   4.196
 8113SOL    HW124683   5.275   6.286   4.269
 8113SOL    HW224684   5.356   6.277   4.127
 8114SOL     OW24685   4.078   7.096   5.053
 8114SOL    HW124686   4.057   7.052   4.966
 8114SOL    HW224687   4.175   7.122   5.056
 8115SOL     OW24688   4.126   6.337   5.322
 8115SOL    HW124689   4.194   6.392   5.275
 8115SOL    HW224690   4.166   6.249   5.349
 8116SOL     OW24691   5.311   6.365   5.394
 8116SOL    HW124692   5.219   6.403   5.389
 8116SOL    HW224693   5.371   6.412   5.329
 8117SOL     OW24694   4.737   5.691   5.494
 8117SOL    HW124695   4.743   5.776   5.442
 8117SOL    HW224696   4.769   5.615   5.437
 8118SOL     OW24697   4.228   5.636   5.464
 8118SOL    HW124698   4.186   5.579   5.394
 8118SOL    HW224699   4.162   5.705   5.496
 8119SOL     OW24700   4.297   6.456   4.753
 8119SOL    HW124701   4.341   6.545   4.744
 8119SOL    HW224702   4.234   6.456   4.830
 8120SOL     OW24703   5.084   6.448   4.769
 8120SOL    HW124704   5.009   6.448   4.703
 8120SOL    HW224705   5.121   6.356   4.778
 8121SOL     OW24706   4.933   6.111   3.999
 8121SOL    HW124707   4.946   6.027   4.053
 8121SOL    HW224708   4.904   6.185   4.059
 8122SOL     OW24709   4.031   5.799   4.955
 8122SOL    HW124710   4.008   5.836   5.045
 8122SOL    HW224711   4.001   5.704   4.949
 8123SOL     OW24712   3.761   6.896   5.006
 8123SOL    HW124713   3.814   6.847   5.074
 8123SOL    HW224714   3.783   6.994   5.011
 8124SOL     OW24715   4.456   6.220   4.788
 8124SOL    HW124716   4.515   6.194   4.712
 8124SOL    HW224717   4.428   6.316   4.777
 8125SOL     OW24718   5.452   6.521   5.578
 8125SOL    HW124719   5.406   6.514   5.489
 8125SOL    HW224720   5.390   6.565   5.644
 8126SOL     OW24721   4.031   5.649   4.342
 8126SOL    HW124722   4.020   5.743   4.375
 8126SOL    HW224723   4.026   5.586   4.419
 8127SOL     OW24724   5.346   5.953   4.098
 8127SOL    HW124725   5.348   5.877   4.162
 8127SOL    HW224726   5.298   6.030   4.138
 8128SOL     OW24727   4.747   6.352   4.690
 8128SOL    HW124728   4.762   6.373   4.786
 8128SOL    HW224729   4.717   6.257   4.681
 8129SOL     OW24730   4.704   7.159   5.424
 8129SOL    HW124731   4.684   7.203   5.336
 8129SOL    HW224732   4.743   7.068   5.408
 8130SOL     OW24733   5.583   7.104   5.329
 8130SOL    HW124734   5.597   7.131   5.234
 8130SOL    HW224735   5.666   7.126   5.382
 8131SOL     OW24736   4.074   6.484   5.528
 8131SOL    HW124737   4.150   6.528   5.576
 8131SOL    HW224738   4.109   6.437   5.446
 8132SOL     OW24739   5.264   5.860   3.849
 8132SOL    HW124740   5.203   5.785   3.872
 8132SOL    HW224741   5.286   5.912   3.932
 8133SOL     OW24742   5.027   6.424   3.766
 8133SOL    HW124743   5.061   6.331   3.781
 8133SOL    HW224744   5.045   6.451   3.671
 8134SOL     OW24745   4.792   6.919   4.573
 8134SOL    HW124746   4.799   6.835   4.518
 8134SOL    HW224747   4.854   6.988   4.537
 8135SOL     OW24748   4.043   6.396   4.673
 8135SOL    HW124749   4.136   6.432   4.678
 8135SOL    HW224750   4.037   6.311   4.725
 8136SOL     OW24751   4.063   6.095   4.730
 8136SOL    HW124752   4.011   6.012   4.713
 8136SOL    HW224753   4.140   6.100   4.666
 8137SOL     OW24754   4.862   5.966   5.402
 8137SOL    HW124755   4.817   6.029   5.466
 8137SOL    HW224756   4.955   5.997   5.385
 8138SOL     OW24757   4.884   5.793   5.201
 8138SOL    HW124758   4.884   5.857   5.278
 8138SOL    HW224759   4.912   5.841   5.118
 8139SOL     OW24760   3.732   6.912   3.924
 8139SOL    HW124761   3.639   6.933   3.893
 8139SOL    HW224762   3.742   6.813   3.937
 8140SOL     OW24763   4.726   6.382   4.962
 8140SOL    HW124764   4.767   6.350   5.048
 8140SOL    HW224765   4.630   6.355   4.959
 8141SOL     OW24766   3.764   6.130   4.838
 8141SOL    HW124767   3.849   6.097   4.797
 8141SOL    HW224768   3.777   6.145   4.936
 8142SOL     OW24769   3.913   6.106   5.446
 8142SOL    HW124770   3.972   6.066   5.376
 8142SOL    HW224771   3.855   6.177   5.405
 8143SOL     OW24772   5.093   6.536   5.384
 8143SOL    HW124773   5.132   6.625   5.404
 8143SOL    HW224774   5.103   6.516   5.287
 8144SOL     OW24775   4.539   6.158   4.049
 8144SOL    HW124776   4.546   6.069   4.003
 8144SOL    HW224777   4.445   6.192   4.041
 8145SOL     OW24778   5.381   6.190   4.930
 8145SOL    HW124779   5.343   6.121   4.992
 8145SOL    HW224780   5.463   6.154   4.886
 8146SOL     OW24781   4.395   6.050   4.993
 8146SOL    HW124782   4.361   5.961   4.963
 8146SOL    HW224783   4.421   6.104   4.913
 8147SOL     OW24784   4.197   6.086   3.915
 8147SOL    HW124785   4.258   6.166   3.919
 8147SOL    HW224786   4.102   6.117   3.922
 8148SOL     OW24787   3.883   6.723   5.190
 8148SOL    HW124788   3.905   6.662   5.266
 8148SOL    HW224789   3.893   6.674   5.104
 8149SOL     OW24790   5.071   6.645   4.958
 8149SOL    HW124791   5.095   6.582   4.884
 8149SOL    HW224792   4.981   6.685   4.940
 8150SOL     OW24793   5.026   6.441   4.033
 8150SOL    HW124794   4.940   6.410   4.075
 8150SOL    HW224795   5.022   6.427   3.934
 8151SOL     OW24796   3.807   6.844   4.746
 8151SOL    HW124797   3.802   6.843   4.846
 8151SOL    HW224798   3.724   6.803   4.708
 8152SOL     OW24799   4.412   7.248   5.440
 8152SOL    HW124800   4.356   7.329   5.449
 8152SOL    HW224801   4.464   7.252   5.354
 8153SOL     OW24802   5.450   5.721   4.247
 8153SOL    HW124803   5.523   5.704   4.180
 8153SOL    HW224804   5.419   5.634   4.285
 8154SOL     OW24805   3.854   7.380   5.575
 8154SOL    HW124806   3.813   7.306   5.628
 8154SOL    HW224807   3.918   7.431   5.633
 8155SOL     OW24808   5.004   6.513   4.396
 8155SOL    HW124809   5.064   6.432   4.398
 8155SOL    HW224810   5.044   6.582   4.336
 8156SOL     OW24811   4.554   6.859   5.146
 8156SOL    HW124812   4.549   6.892   5.241
 8156SOL    HW224813   4.468   6.878   5.100
 8157SOL     OW24814   4.396   7.202   3.878
 8157SOL    HW124815   4.405   7.212   3.779
 8157SOL    HW224816   4.356   7.113   3.899
 8158SOL     OW24817   5.565   5.761   4.687
 8158SOL    HW124818   5.604   5.676   4.651
 8158SOL    HW224819   5.467   5.763   4.668
 8159SOL     OW24820   3.987   5.912   4.444
 8159SOL    HW124821   3.908   5.963   4.410
 8159SOL    HW224822   3.978   5.897   4.542
 8160SOL     OW24823   4.546   6.588   5.096
 8160SOL    HW124824   4.586   6.587   5.004
 8160SOL    HW224825   4.556   6.680   5.136
 8161SOL     OW24826   4.640   6.496   4.015
 8161SOL    HW124827   4.703   6.534   3.947
 8161SOL    HW224828   4.680   6.413   4.054
 8162SOL     OW24829   4.096   6.874   5.214
 8162SOL    HW124830   4.083   6.967   5.180
 8162SOL    HW224831   4.012   6.822   5.201
 8163SOL     OW24832   5.338   6.878   5.013
 8163SOL    HW124833   5.398   6.881   5.093
 8163SOL    HW224834   5.263   6.942   5.026
 8164SOL     OW24835   4.763   6.684   4.420
 8164SOL    HW124836   4.693   6.637   4.474
 8164SOL    HW224837   4.822   6.616   4.377
 8165SOL     OW24838   4.738   5.822   4.695
 8165SOL    HW124839   4.730   5.786   4.602
 8165SOL    HW224840   4.736   5.746   4.760
 8166SOL     OW24841   4.314   7.073   4.215
 8166SOL    HW124842   4.356   7.015   4.145
 8166SOL    HW224843   4.270   7.152   4.171
 8167SOL     OW24844   5.433   5.971   5.105
 8167SOL    HW124845   5.506   6.040   5.109
 8167SOL    HW224846   5.461   5.896   5.046
 8168SOL     OW24847   3.979   6.934   4.014
 8168SOL    HW124848   3.883   6.935   3.987
 8168SOL    HW224849   3.991   6.987   4.098
 8169SOL     OW24850   3.829   6.599   5.450
 8169SOL    HW124851   3.752   6.566   5.504
 8169SOL    HW224852   3.914   6.569   5.492
 8170SOL     OW24853   4.396   5.789   5.213
 8170SOL    HW124854   4.486   5.773   5.173
 8170SOL    HW224855   4.404   5.794   5.312
 8171SOL     OW24856   3.799   5.931   3.757
 8171SOL    HW124857   3.707   5.903   3.728
 8171SOL    HW224858   3.830   6.008   3.701
 8172SOL     OW24859   5.164   6.442   5.122
 8172SOL    HW124860   5.107   6.494   5.059
 8172SOL    HW224861   5.260   6.454   5.098
 8173SOL     OW24862   4.907   6.921   3.843
 8173SOL    HW124863   4.808   6.910   3.845
 8173SOL    HW224864   4.941   6.936   3.936
 8174SOL     OW24865   4.337   6.428   5.155
 8174SOL    HW124866   4.393   6.509   5.138
 8174SOL    HW224867   4.396   6.348   5.158
 8175SOL     OW24868   4.440   6.151   5.432
 8175SOL    HW124869   4.459   6.216   5.506
 8175SOL    HW224870   4.500   6.071   5.441
 8176SOL     OW24871   5.174   6.806   5.357
 8176SOL    HW124872   5.165   6.796   5.456
 8176SOL    HW224873   5.270   6.799   5.331
 8177SOL     OW24874   5.398   6.469   4.978
 8177SOL    HW124875   5.371   6.380   4.941
 8177SOL    HW224876   5.399   6.537   4.905
 8178SOL     OW24877   4.949   5.911   4.173
 8178SOL    HW124878   5.014   5.837   4.162
 8178SOL    HW224879   4.969   5.961   4.257
 8179SOL     OW24880   4.318   6.331   4.376
 8179SOL    HW124881   4.368   6.416   4.357
 8179SOL    HW224882   4.230   6.333   4.328
 8180SOL     OW24883   5.501   5.928   5.366
 8180SOL    HW124884   5.484   5.959   5.272
 8180SOL    HW224885   5.417   5.891   5.404
 8181SOL     OW24886   5.454   6.520   5.241
 8181SOL    HW124887   5.492   6.611   5.256
 8181SOL    HW224888   5.446   6.503   5.142
 8182SOL     OW24889   4.583   6.960   3.740
 8182SOL    HW124890   4.537   6.975   3.828
 8182SOL    HW224891   4.627   7.045   3.710
 8183SOL     OW24892   4.583   6.542   4.585
 8183SOL    HW124893   4.637   6.473   4.633
 8183SOL    HW224894   4.551   6.611   4.651
 8184SOL     OW24895   4.807   6.570   3.811
 8184SOL    HW124896   4.784   6.623   3.729
 8184SOL    HW224897   4.888   6.514   3.792
 8185SOL     OW24898   3.945   6.900   5.568
 8185SOL    HW124899   3.880   6.827   5.547
 8185SOL    HW224900   3.949   6.914   5.666
 8186SOL     OW24901   3.803   6.826   4.377
 8186SOL    HW124902   3.802   6.779   4.465
 8186SOL    HW224903   3.885   6.798   4.326
 8187SOL     OW24904   4.396   6.977   5.348
 8187SOL    HW124905   4.318   6.927   5.386
 8187SOL    HW224906   4.393   7.072   5.379
 8188SOL     OW24907   5.548   5.778   4.951
 8188SOL    HW124908   5.544   5.688   4.995
 8188SOL    HW224909   5.551   5.767   4.852
 8189SOL     OW24910   4.152   6.010   4.244
 8189SOL    HW124911   4.182   5.938   4.182
 8189SOL    HW224912   4.113   5.970   4.327
 8190SOL     OW24913   4.041   6.133   5.004
 8190SOL    HW124914   4.079   6.074   5.076
 8190SOL    HW224915   4.081   6.107   4.916
 8191SOL     OW24916   5.148   5.800   4.836
 8191SOL    HW124917   5.200   5.735   4.891
 8191SOL    HW224918   5.099   5.863   4.897
 8192SOL     OW24919   4.725   5.620   4.878
 8192SOL    HW124920   4.662   5.548   4.847
 8192SOL    HW224921   4.818   5.584   4.878
 8193SOL     OW24922   4.494   6.916   4.025
 8193SOL    HW124923   4.448   6.829   4.042
 8193SOL    HW224924   4.585   6.913   4.066
 8194SOL     OW24925   5.076   5.638   3.892
 8194SOL    HW124926   5.111   5.597   3.808
 8194SOL    HW224927   4.986   5.600   3.912
 8195SOL     OW24928   5.024   6.039   4.415
 8195SOL    HW124929   4.965   6.119   4.419
 8195SOL    HW224930   5.039   6.004   4.508
 8196SOL     OW24931   5.317   5.807   4.606
 8196SOL    HW124932   5.233   5.806   4.660
 8196SOL    HW224933   5.319   5.890   4.550
 8197SOL     OW24934   3.763   6.663   4.024
 8197SOL    HW124935   3.862   6.652   4.015
 8197SOL    HW224936   3.723   6.577   4.056
 8198SOL     OW24937   3.954   6.214   5.699
 8198SOL    HW124938   3.861   6.212   5.736
 8198SOL    HW224939   3.955   6.175   5.607
 8199SOL     OW24940   3.743   5.954   6.233
 8199SOL    HW124941   3.661   5.997   6.272
 8199SOL    HW224942   3.715   5.881   6.170
 8200SOL     OW24943   4.859   6.289   6.303
 8200SOL    HW124944   4.916   6.367   6.278
 8200SOL    HW224945   4.799   6.315   6.379
 8201SOL     OW24946   5.479   6.193   5.817
 8201SOL    HW124947   5.467   6.180   5.718
 8201SOL    HW224948   5.449   6.112   5.866
 8202SOL     OW24949   4.409   6.598   6.251
 8202SOL    HW124950   4.478   6.582   6.321
 8202SOL    HW224951   4.336   6.655   6.289
 8203SOL     OW24952   3.954   7.020   6.124
 8203SOL    HW124953   3.928   7.116   6.124
 8203SOL    HW224954   3.883   6.966   6.169
 8204SOL     OW24955   3.964   6.677   6.472
 8204SOL    HW124956   3.978   6.593   6.524
 8204SOL    HW224957   3.909   6.741   6.527
 8205SOL     OW24958   4.330   6.550   5.709
 8205SOL    HW124959   4.337   6.634   5.655
 8205SOL    HW224960   4.376   6.563   5.797
 8206SOL     OW24961   3.846   6.229   6.149
 8206SOL    HW124962   3.801   6.141   6.166
 8206SOL    HW224963   3.845   6.283   6.233
 8207SOL     OW24964   5.413   6.508   6.198
 8207SOL    HW124965   5.508   6.479   6.206
 8207SOL    HW224966   5.405   6.573   6.123
 8208SOL     OW24967   5.365   6.694   6.018
 8208SOL    HW124968   5.451   6.696   5.966
 8208SOL    HW224969   5.379   6.741   6.106
 8209SOL     OW24970   4.337   6.951   6.312
 8209SOL    HW124971   4.288   6.864   6.321
 8209SOL    HW224972   4.314   6.994   6.225
 8210SOL     OW24973   4.533   5.590   6.088
 8210SOL    HW124974   4.573   5.681   6.079
 8210SOL    HW224975   4.433   5.598   6.094
 8211SOL     OW24976   5.249   6.585   5.776
 8211SOL    HW124977   5.186   6.509   5.789
 8211SOL    HW224978   5.297   6.603   5.862
 8212SOL     OW24979   4.322   6.315   5.856
 8212SOL    HW124980   4.346   6.384   5.788
 8212SOL    HW224981   4.244   6.348   5.910
 8213SOL     OW24982   5.300   7.248   5.893
 8213SOL    HW124983   5.389   7.294   5.896
 8213SOL    HW224984   5.279   7.224   5.798
 8214SOL     OW24985   4.765   6.287   6.015
 8214SOL    HW124986   4.791   6.283   6.111
 8214SOL    HW224987   4.680   6.236   6.001
 8215SOL     OW24988   3.800   6.397   6.375
 8215SOL    HW124989   3.899   6.385   6.384
 8215SOL    HW224990   3.776   6.492   6.396
 8216SOL     OW24991   4.589   5.934   5.781
 8216SOL    HW124992   4.648   5.997   5.732
 8216SOL    HW224993   4.608   5.840   5.752
 8217SOL     OW24994   5.086   6.730   6.131
 8217SOL    HW124995   5.169   6.701   6.083
 8217SOL    HW224996   5.037   6.797   6.075
 8218SOL     OW24997   4.274   5.782   6.471
 8218SOL    HW124998   4.269   5.777   6.571
 8218SOL    HW224999   4.276   5.878   6.442
 8219SOL     OW25000   4.732   7.042   6.063
 8219SOL    HW125001   4.686   7.114   6.011
 8219SOL    HW225002   4.728   7.062   6.161
 8220SOL     OW25003   4.045   6.529   5.828
 8220SOL    HW125004   4.127   6.568   5.786
 8220SOL    HW225005   4.018   6.447   5.779
 8221SOL     OW25006   5.182   6.321   6.314
 8221SOL    HW125007   5.177   6.256   6.389
 8221SOL    HW225008   5.262   6.380   6.327
 8222SOL     OW25009   5.356   6.963   5.667
 8222SOL    HW125010   5.324   7.057   5.657
 8222SOL    HW225011   5.280   6.900   5.655
 8223SOL     OW25012   5.124   5.693   6.012
 8223SOL    HW125013   5.100   5.656   5.922
 8223SOL    HW225014   5.223   5.709   6.016
 8224SOL     OW25015   4.664   7.284   6.490
 8224SOL    HW125016   4.744   7.227   6.511
 8224SOL    HW225017   4.615   7.244   6.413
 8225SOL     OW25018   4.106   6.286   6.066
 8225SOL    HW125019   4.151   6.196   6.063
 8225SOL    HW225020   4.012   6.275   6.099
 8226SOL     OW25021   4.338   5.708   5.703
 8226SOL    HW125022   4.436   5.686   5.710
 8226SOL    HW225023   4.307   5.691   5.610
 8227SOL     OW25024   4.527   6.988   6.510
 8227SOL    HW125025   4.617   7.002   6.468
 8227SOL    HW225026   4.456   6.990   6.439
 8228SOL     OW25027   4.646   6.089   6.485
 8228SOL    HW125028   4.621   6.080   6.389
 8228SOL    HW225029   4.694   6.007   6.516
 8229SOL     OW25030   4.263   5.650   6.098
 8229SOL    HW125031   4.182   5.651   6.156
 8229SOL    HW225032   4.266   5.733   6.043
 8230SOL     OW25033   5.158   6.774   5.627
 8230SOL    HW125034   5.190   6.698   5.684
 8230SOL    HW225035   5.066   6.801   5.657
 8231SOL     OW25036   4.021   5.621   5.757
 8231SOL    HW125037   4.070   5.705   5.736
 8231SOL    HW225038   4.083   5.556   5.802
 8232SOL     OW25039   4.659   5.822   6.066
 8232SOL    HW125040   4.611   5.863   5.988
 8232SOL    HW225041   4.758   5.820   6.047
 8233SOL     OW25042   4.183   6.738   6.327
 8233SOL    HW125043   4.112   6.711   6.392
 8233SOL    HW225044   4.157   6.710   6.234
 8234SOL     OW25045   4.995   7.383   6.177
 8234SOL    HW125046   5.039   7.447   6.113
 8234SOL    HW225047   4.945   7.435   6.247
 8235SOL     OW25048   4.756   6.135   5.602
 8235SOL    HW125049   4.715   6.217   5.563
 8235SOL    HW225050   4.820   6.161   5.675
 8236SOL     OW25051   4.590   6.040   6.228
 8236SOL    HW125052   4.558   6.112   6.166
 8236SOL    HW225053   4.614   5.959   6.175
 8237SOL     OW25054   4.741   5.625   6.339
 8237SOL    HW125055   4.669   5.630   6.270
 8237SOL    HW225056   4.717   5.556   6.408
 8238SOL     OW25057   5.581   6.419   5.963
 8238SOL    HW125058   5.623   6.355   6.027
 8238SOL    HW225059   5.543   6.368   5.885
 8239SOL     OW25060   4.212   6.971   5.760
 8239SOL    HW125061   4.125   6.956   5.807
 8239SOL    HW225062   4.195   6.997   5.665
 8240SOL     OW25063   5.114   6.161   5.664
 8240SOL    HW125064   5.060   6.140   5.745
 8240SOL    HW225065   5.205   6.120   5.673
 8241SOL     OW25066   4.251   5.842   5.914
 8241SOL    HW125067   4.278   5.783   5.839
 8241SOL    HW225068   4.251   5.937   5.883
 8242SOL     OW25069   4.429   6.636   5.954
 8242SOL    HW125070   4.415   6.643   6.053
 8242SOL    HW225071   4.513   6.585   5.936
 8243SOL     OW25072   4.091   6.686   6.087
 8243SOL    HW125073   4.084   6.769   6.031
 8243SOL    HW225074   4.095   6.606   6.027
 8244SOL     OW25075   4.290   6.123   6.451
 8244SOL    HW125076   4.302   6.189   6.377
 8244SOL    HW225077   4.336   6.157   6.534
 8245SOL     OW25078   4.976   6.934   5.974
 8245SOL    HW125079   5.026   7.011   6.014
 8245SOL    HW225080   4.881   6.936   6.006
 8246SOL     OW25081   5.306   6.225   6.058
 8246SOL    HW125082   5.275   6.286   6.131
 8246SOL    HW225083   5.356   6.277   5.989
 8247SOL     OW25084   4.933   6.111   5.861
 8247SOL    HW125085   4.946   6.027   5.915
 8247SOL    HW225086   4.904   6.185   5.921
 8248SOL     OW25087   4.031   5.649   6.204
 8248SOL    HW125088   4.020   5.743   6.237
 8248SOL    HW225089   4.026   5.586   6.281
 8249SOL     OW25090   5.346   5.953   5.960
 8249SOL    HW125091   5.348   5.877   6.024
 8249SOL    HW225092   5.298   6.030   6.000
 8250SOL     OW25093   5.264   5.860   5.711
 8250SOL    HW125094   5.203   5.785   5.734
 8250SOL    HW225095   5.286   5.912   5.794
 8251SOL     OW25096   5.027   6.424   5.628
 8251SOL    HW125097   5.061   6.331   5.643
 8251SOL    HW225098   5.045   6.451   5.533
 8252SOL     OW25099   4.792   6.919   6.435
 8252SOL    HW125100   4.799   6.835   6.380
 8252SOL    HW225101   4.854   6.988   6.399
 8253SOL     OW25102   3.732   6.912   5.786
 8253SOL    HW125103   3.639   6.933   5.755
 8253SOL    HW225104   3.742   6.813   5.799
 8254SOL     OW25105   4.228   7.154   6.496
 8254SOL    HW125106   4.294   7.228   6.505
 8254SOL    HW225107   4.272   7.075   6.454
 8255SOL     OW25108   4.539   6.158   5.911
 8255SOL    HW125109   4.546   6.069   5.865
 8255SOL    HW225110   4.445   6.192   5.903
 8256SOL     OW25111   4.197   6.086   5.777
 8256SOL    HW125112   4.258   6.166   5.781
 8256SOL    HW225113   4.102   6.117   5.784
 8257SOL     OW25114   5.026   6.441   5.895
 8257SOL    HW125115   4.940   6.410   5.937
 8257SOL    HW225116   5.022   6.427   5.796
 8258SOL     OW25117   5.450   5.721   6.109
 8258SOL    HW125118   5.523   5.704   6.042
 8258SOL    HW225119   5.419   5.634   6.147
 8259SOL     OW25120   5.004   6.513   6.258
 8259SOL    HW125121   5.064   6.432   6.260
 8259SOL    HW225122   5.044   6.582   6.198
 8260SOL     OW25123   4.396   7.202   5.740
 8260SOL    HW125124   4.405   7.212   5.641
 8260SOL    HW225125   4.356   7.113   5.761
 8261SOL     OW25126   3.987   5.912   6.306
 8261SOL    HW125127   3.908   5.963   6.272
 8261SOL    HW225128   3.978   5.897   6.404
 8262SOL     OW25129   4.640   6.496   5.877
 8262SOL    HW125130   4.703   6.534   5.809
 8262SOL    HW225131   4.680   6.413   5.916
 8263SOL     OW25132   4.763   6.684   6.282
 8263SOL    HW125133   4.693   6.637   6.336
 8263SOL    HW225134   4.822   6.616   6.239
 8264SOL     OW25135   4.738   5.822   6.557
 8264SOL    HW125136   4.730   5.786   6.464
 8264SOL    HW225137   4.736   5.746   6.622
 8265SOL     OW25138   4.314   7.073   6.077
 8265SOL    HW125139   4.356   7.015   6.007
 8265SOL    HW225140   4.270   7.152   6.033
 8266SOL     OW25141   3.979   6.934   5.876
 8266SOL    HW125142   3.883   6.935   5.849
 8266SOL    HW225143   3.991   6.987   5.960
 8267SOL     OW25144   3.799   5.931   5.619
 8267SOL    HW125145   3.707   5.903   5.590
 8267SOL    HW225146   3.830   6.008   5.563
 8268SOL     OW25147   3.796   5.752   5.904
 8268SOL    HW125148   3.779   5.835   5.850
 8268SOL    HW225149   3.886   5.715   5.882
 8269SOL     OW25150   4.907   6.921   5.705
 8269SOL    HW125151   4.808   6.910   5.707
 8269SOL    HW225152   4.941   6.936   5.798
 8270SOL     OW25153   4.949   5.911   6.035
 8270SOL    HW125154   5.014   5.837   6.024
 8270SOL    HW225155   4.969   5.961   6.119
 8271SOL     OW25156   4.318   6.331   6.238
 8271SOL    HW125157   4.368   6.416   6.219
 8271SOL    HW225158   4.230   6.333   6.190
 8272SOL     OW25159   4.583   6.960   5.602
 8272SOL    HW125160   4.537   6.975   5.690
 8272SOL    HW225161   4.627   7.045   5.572
 8273SOL     OW25162   4.583   6.542   6.447
 8273SOL    HW125163   4.637   6.473   6.495
 8273SOL    HW225164   4.551   6.611   6.513
 8274SOL     OW25165   4.807   6.570   5.673
 8274SOL    HW125166   4.784   6.623   5.591
 8274SOL    HW225167   4.888   6.514   5.654
 8275SOL     OW25168   3.803   6.826   6.239
 8275SOL    HW125169   3.802   6.779   6.327
 8275SOL    HW225170   3.885   6.798   6.188
 8276SOL     OW25171   4.152   6.010   6.106
 8276SOL    HW125172   4.182   5.938   6.044
 8276SOL    HW225173   4.113   5.970   6.189
 8277SOL     OW25174   4.494   6.916   5.887
 8277SOL    HW125175   4.448   6.829   5.904
 8277SOL    HW225176   4.585   6.913   5.928
 8278SOL     OW25177   5.076   5.638   5.754
 8278SOL    HW125178   5.111   5.597   5.670
 8278SOL    HW225179   4.986   5.600   5.774
 8279SOL     OW25180   5.024   6.039   6.277
 8279SOL    HW125181   4.965   6.119   6.281
 8279SOL    HW225182   5.039   6.004   6.370
 8280SOL     OW25183   5.317   5.807   6.468
 8280SOL    HW125184   5.233   5.806   6.522
 8280SOL    HW225185   5.319   5.890   6.412
 8281SOL     OW25186   3.763   6.663   5.886
 8281SOL    HW125187   3.862   6.652   5.877
 8281SOL    HW225188   3.723   6.577   5.918
 8282SOL     OW25189   5.605   0.368   0.647
 8282SOL    HW125190   5.523   0.411   0.686
 8282SOL    HW225191   5.577   0.295   0.584
 8283SOL     OW25192   6.155   1.275   1.165
 8283SOL    HW125193   6.062   1.268   1.128
 8283SOL    HW225194   6.166   1.364   1.209
 8284SOL     OW25195   7.141   1.511   0.703
 8284SOL    HW125196   7.084   1.495   0.784
 8284SOL    HW225197   7.082   1.521   0.623
 8285SOL     OW25198   6.721   0.703   0.717
 8285SOL    HW125199   6.778   0.781   0.692
 8285SOL    HW225200   6.661   0.729   0.793
 8286SOL     OW25201   6.354   1.144   1.023
 8286SOL    HW125202   6.276   1.161   1.083
 8286SOL    HW225203   6.388   1.231   0.987
 8287SOL     OW25204   6.436   0.798   1.823
 8287SOL    HW125205   6.432   0.874   1.888
 8287SOL    HW225206   6.458   0.834   1.732
 8288SOL     OW25207   6.271   1.012   0.665
 8288SOL    HW125208   6.340   0.996   0.735
 8288SOL    HW225209   6.198   1.069   0.703
 8289SOL     OW25210   6.272   1.161   1.803
 8289SOL    HW125211   6.332   1.240   1.817
 8289SOL    HW225212   6.186   1.192   1.762
 8290SOL     OW25213   5.921   1.435   1.061
 8290SOL    HW125214   5.843   1.404   1.008
 8290SOL    HW225215   5.979   1.493   1.004
 8291SOL     OW25216   7.046   1.505   1.339
 8291SOL    HW125217   7.070   1.599   1.365
 8291SOL    HW225218   7.030   1.451   1.421
 8292SOL     OW25219   6.024   0.392   1.499
 8292SOL    HW125220   6.106   0.336   1.508
 8292SOL    HW225221   5.943   0.334   1.503
 8293SOL     OW25222   7.189   0.447   0.737
 8293SOL    HW125223   7.115   0.493   0.687
 8293SOL    HW225224   7.240   0.515   0.790
 8294SOL     OW25225   5.817   1.713   0.483
 8294SOL    HW125226   5.851   1.790   0.537
 8294SOL    HW225227   5.861   1.713   0.393
 8295SOL     OW25228   6.713   1.341   1.690
 8295SOL    HW125229   6.760   1.341   1.778
 8295SOL    HW225230   6.665   1.254   1.679
 8296SOL     OW25231   5.816   1.434   0.538
 8296SOL    HW125232   5.790   1.530   0.538
 8296SOL    HW225233   5.745   1.380   0.583
 8297SOL     OW25234   5.826   1.091   0.886
 8297SOL    HW125235   5.840   1.007   0.938
 8297SOL    HW225236   5.771   1.155   0.941
 8298SOL     OW25237   6.206   1.786   1.439
 8298SOL    HW125238   6.114   1.769   1.474
 8298SOL    HW225239   6.234   1.878   1.465
 8299SOL     OW25240   5.708   0.643   0.563
 8299SOL    HW125241   5.663   0.555   0.580
 8299SOL    HW225242   5.707   0.697   0.647
 8300SOL     OW25243   7.428   1.767   0.359
 8300SOL    HW125244   7.482   1.738   0.439
 8300SOL    HW225245   7.458   1.857   0.330
 8301SOL     OW25246   7.275   0.922   0.612
 8301SOL    HW125247   7.370   0.893   0.620
 8301SOL    HW225248   7.267   0.987   0.537
 8302SOL     OW25249   7.227   1.108   0.432
 8302SOL    HW125250   7.313   1.110   0.380
 8302SOL    HW225251   7.241   1.155   0.520
 8303SOL     OW25252   5.699   0.737   1.597
 8303SOL    HW125253   5.787   0.724   1.642
 8303SOL    HW225254   5.686   0.834   1.575
 8304SOL     OW25255   6.199   1.365   0.726
 8304SOL    HW125256   6.150   1.278   0.735
 8304SOL    HW225257   6.176   1.408   0.639
 8305SOL     OW25258   6.879   1.228   1.423
 8305SOL    HW125259   6.916   1.155   1.365
 8305SOL    HW225260   6.931   1.233   1.508
 8306SOL     OW25261   5.783   0.976   1.264
 8306SOL    HW125262   5.872   0.931   1.250
 8306SOL    HW225263   5.710   0.911   1.245
 8307SOL     OW25264   6.773   1.792   1.616
 8307SOL    HW125265   6.797   1.852   1.540
 8307SOL    HW225266   6.780   1.697   1.586
 8308SOL     OW25267   5.903   0.251   1.801
 8308SOL    HW125268   5.974   0.322   1.807
 8308SOL    HW225269   5.815   0.290   1.829
 8309SOL     OW25270   7.052   1.417   0.953
 8309SOL    HW125271   6.993   1.423   1.033
 8309SOL    HW225272   7.037   1.329   0.907
 8310SOL     OW25273   7.253   1.714   0.572
 8310SOL    HW125274   7.212   1.691   0.484
 8310SOL    HW225275   7.235   1.640   0.637
 8311SOL     OW25276   6.184   0.729   0.270
 8311SOL    HW125277   6.208   0.798   0.202
 8311SOL    HW225278   6.106   0.762   0.324
 8312SOL     OW25279   6.393   0.605   1.465
 8312SOL    HW125280   6.346   0.602   1.554
 8312SOL    HW225281   6.342   0.550   1.399
 8313SOL     OW25282   6.980   0.469   1.674
 8313SOL    HW125283   6.960   0.512   1.762
 8313SOL    HW225284   7.058   0.407   1.683
 8314SOL     OW25285   6.559   0.890   1.572
 8314SOL    HW125286   6.605   0.806   1.543
 8314SOL    HW225287   6.503   0.924   1.497
 8315SOL     OW25288   6.577   0.410   1.242
 8315SOL    HW125289   6.500   0.444   1.296
 8315SOL    HW225290   6.543   0.359   1.163
 8316SOL     OW25291   6.627   0.701   0.429
 8316SOL    HW125292   6.653   0.697   0.525
 8316SOL    HW225293   6.542   0.650   0.415
 8317SOL     OW25294   5.662   0.811   0.789
 8317SOL    HW125295   5.761   0.799   0.798
 8317SOL    HW225296   5.638   0.906   0.810
 8318SOL     OW25297   5.716   1.821   1.571
 8318SOL    HW125298   5.706   1.806   1.670
 8318SOL    HW225299   5.630   1.857   1.535
 8319SOL     OW25300   7.305   0.585   1.831
 8319SOL    HW125301   7.279   0.674   1.795
 8319SOL    HW225302   7.303   0.517   1.758
 8320SOL     OW25303   6.948   1.144   0.545
 8320SOL    HW125304   7.031   1.115   0.497
 8320SOL    HW225305   6.899   1.211   0.489
 8321SOL     OW25306   6.594   1.456   0.477
 8321SOL    HW125307   6.548   1.528   0.425
 8321SOL    HW225308   6.590   1.476   0.575
 8322SOL     OW25309   5.937   1.801   0.853
 8322SOL    HW125310   5.987   1.715   0.859
 8322SOL    HW225311   6.002   1.878   0.850
 8323SOL     OW25312   7.381   1.066   0.873
 8323SOL    HW125313   7.319   1.051   0.797
 8323SOL    HW225314   7.329   1.077   0.958
 8324SOL     OW25315   6.813   1.550   1.506
 8324SOL    HW125316   6.819   1.473   1.570
 8324SOL    HW225317   6.761   1.524   1.426
 8325SOL     OW25318   7.044   0.735   0.728
 8325SOL    HW125319   7.039   0.670   0.803
 8325SOL    HW225320   7.124   0.794   0.741
 8326SOL     OW25321   6.047   1.266   1.727
 8326SOL    HW125322   5.997   1.267   1.641
 8326SOL    HW225323   5.984   1.248   1.803
 8327SOL     OW25324   5.835   1.785   1.241
 8327SOL    HW125325   5.892   1.720   1.291
 8327SOL    HW225326   5.819   1.752   1.148
 8328SOL     OW25327   6.526   1.698   0.904
 8328SOL    HW125328   6.606   1.641   0.925
 8328SOL    HW225329   6.477   1.658   0.827
 8329SOL     OW25330   5.968   0.700   0.480
 8329SOL    HW125331   6.013   0.610   0.477
 8329SOL    HW225332   5.874   0.689   0.513
 8330SOL     OW25333   6.367   0.264   1.749
 8330SOL    HW125334   6.434   0.203   1.792
 8330SOL    HW225335   6.294   0.283   1.814
 8331SOL     OW25336   6.474   1.514   1.195
 8331SOL    HW125337   6.451   1.489   1.101
 8331SOL    HW225338   6.535   1.445   1.234
 8332SOL     OW25339   6.937   0.590   1.433
 8332SOL    HW125340   6.965   0.547   1.518
 8332SOL    HW225341   6.962   0.686   1.434
 8333SOL     OW25342   6.389   1.402   0.924
 8333SOL    HW125343   6.479   1.416   0.882
 8333SOL    HW225344   6.318   1.404   0.853
 8334SOL     OW25345   6.508   0.503   0.899
 8334SOL    HW125346   6.483   0.494   0.803
 8334SOL    HW225347   6.556   0.421   0.930
 8335SOL     OW25348   6.125   0.064   0.512
 8335SOL    HW125349   6.044   0.065   0.570
 8335SOL    HW225350   6.128   0.147   0.457
 8336SOL     OW25351   6.662   0.683   1.464
 8336SOL    HW125352   6.582   0.622   1.467
 8336SOL    HW225353   6.743   0.630   1.440
 8337SOL     OW25354   6.813   1.570   0.793
 8337SOL    HW125355   6.834   1.644   0.728
 8337SOL    HW225356   6.881   1.570   0.866
 8338SOL     OW25357   6.045   1.152   0.741
 8338SOL    HW125358   5.974   1.125   0.806
 8338SOL    HW225359   6.019   1.124   0.648
 8339SOL     OW25360   6.857   1.797   0.591
 8339SOL    HW125361   6.901   1.861   0.527
 8339SOL    HW225362   6.807   1.849   0.661
 8340SOL     OW25363   5.664   0.556   1.386
 8340SOL    HW125364   5.756   0.555   1.345
 8340SOL    HW225365   5.658   0.630   1.453
 8341SOL     OW25366   6.452   0.454   0.642
 8341SOL    HW125367   6.420   0.526   0.580
 8341SOL    HW225368   6.476   0.373   0.589
 8342SOL     OW25369   7.015   1.173   0.867
 8342SOL    HW125370   6.960   1.089   0.860
 8342SOL    HW225371   7.041   1.202   0.775
 8343SOL     OW25372   7.052   0.590   0.992
 8343SOL    HW125373   7.022   0.495   0.999
 8343SOL    HW225374   7.125   0.606   1.058
 8344SOL     OW25375   7.443   0.833   0.377
 8344SOL    HW125376   7.485   0.769   0.441
 8344SOL    HW225377   7.405   0.782   0.299
 8345SOL     OW25378   7.250   1.280   0.657
 8345SOL    HW125379   7.349   1.288   0.671
 8345SOL    HW225380   7.205   1.364   0.688
 8346SOL     OW25381   7.340   1.223   1.588
 8346SOL    HW125382   7.431   1.184   1.575
 8346SOL    HW225383   7.348   1.319   1.612
 8347SOL     OW25384   6.650   1.347   1.340
 8347SOL    HW125385   6.570   1.324   1.395
 8347SOL    HW225386   6.733   1.321   1.389
 8348SOL     OW25387   7.178   1.629   1.625
 8348SOL    HW125388   7.205   1.663   1.535
 8348SOL    HW225389   7.257   1.591   1.671
 8349SOL     OW25390   6.697   1.195   1.100
 8349SOL    HW125391   6.657   1.239   1.181
 8349SOL    HW225392   6.656   1.232   1.017
 8350SOL     OW25393   7.224   1.099   1.079
 8350SOL    HW125394   7.229   1.180   1.138
 8350SOL    HW225395   7.138   1.101   1.028
 8351SOL     OW25396   6.566   1.116   1.719
 8351SOL    HW125397   6.467   1.122   1.729
 8351SOL    HW225398   6.589   1.036   1.663
 8352SOL     OW25399   6.291   1.050   0.368
 8352SOL    HW125400   6.277   1.057   0.467
 8352SOL    HW225401   6.375   0.999   0.350
 8353SOL     OW25402   5.996   0.813   1.251
 8353SOL    HW125403   6.082   0.825   1.301
 8353SOL    HW225404   5.954   0.726   1.278
 8354SOL     OW25405   6.860   0.386   1.262
 8354SOL    HW125406   6.881   0.460   1.326
 8354SOL    HW225407   6.771   0.403   1.219
 8355SOL     OW25408   5.650   1.564   1.331
 8355SOL    HW125409   5.604   1.646   1.297
 8355SOL    HW225410   5.748   1.583   1.340
 8356SOL     OW25411   5.953   1.100   0.501
 8356SOL    HW125412   5.946   1.183   0.445
 8356SOL    HW225413   5.957   1.020   0.441
 8357SOL     OW25414   6.152   0.537   0.865
 8357SOL    HW125415   6.164   0.603   0.791
 8357SOL    HW225416   6.198   0.571   0.948
 8358SOL     OW25417   6.838   1.348   0.388
 8358SOL    HW125418   6.888   1.425   0.428
 8358SOL    HW225419   6.743   1.350   0.420
 8359SOL     OW25420   6.858   1.445   1.142
 8359SOL    HW125421   6.905   1.458   1.229
 8359SOL    HW225422   6.792   1.371   1.151
 8360SOL     OW25423   5.940   1.510   1.329
 8360SOL    HW125424   5.919   1.466   1.242
 8360SOL    HW225425   6.037   1.536   1.332
 8361SOL     OW25426   5.988   0.751   1.598
 8361SOL    HW125427   6.056   0.806   1.551
 8361SOL    HW225428   6.028   0.663   1.625
 8362SOL     OW25429   7.173   0.779   1.670
 8362SOL    HW125430   7.081   0.817   1.665
 8362SOL    HW225431   7.233   0.826   1.605
 8363SOL     OW25432   6.159   0.870   1.029
 8363SOL    HW125433   6.203   0.959   1.020
 8363SOL    HW225434   6.096   0.870   1.106
 8364SOL     OW25435   6.946   0.862   1.045
 8364SOL    HW125436   6.871   0.862   0.979
 8364SOL    HW225437   6.983   0.770   1.054
 8365SOL     OW25438   5.893   0.213   1.231
 8365SOL    HW125439   5.870   0.250   1.321
 8365SOL    HW225440   5.863   0.118   1.225
 8366SOL     OW25441   5.623   1.310   1.282
 8366SOL    HW125442   5.676   1.261   1.350
 8366SOL    HW225443   5.645   1.408   1.287
 8367SOL     OW25444   6.318   0.634   1.064
 8367SOL    HW125445   6.377   0.608   0.988
 8367SOL    HW225446   6.290   0.730   1.053
 8368SOL     OW25447   7.314   0.935   1.854
 8368SOL    HW125448   7.268   0.928   1.765
 8368SOL    HW225449   7.252   0.979   1.920
 8369SOL     OW25450   6.609   0.766   0.966
 8369SOL    HW125451   6.624   0.787   1.062
 8369SOL    HW225452   6.579   0.671   0.957
 8370SOL     OW25453   6.566   1.573   1.700
 8370SOL    HW125454   6.546   1.617   1.612
 8370SOL    HW225455   6.605   1.482   1.684
 8371SOL     OW25456   7.445   1.518   1.605
 8371SOL    HW125457   7.459   1.545   1.510
 8371SOL    HW225458   7.528   1.540   1.658
 8372SOL     OW25459   5.936   0.898   1.804
 8372SOL    HW125460   6.012   0.942   1.852
 8372SOL    HW225461   5.971   0.851   1.722
 8373SOL     OW25462   6.654   1.333   0.849
 8373SOL    HW125463   6.661   1.249   0.794
 8373SOL    HW225464   6.716   1.402   0.813
 8374SOL     OW25465   5.905   0.810   0.949
 8374SOL    HW125466   5.998   0.846   0.954
 8374SOL    HW225467   5.899   0.725   1.001
 8375SOL     OW25468   5.925   0.509   1.006
 8375SOL    HW125469   5.873   0.426   0.989
 8375SOL    HW225470   6.002   0.514   0.942
 8376SOL     OW25471   6.724   0.380   1.678
 8376SOL    HW125472   6.679   0.443   1.742
 8376SOL    HW225473   6.817   0.411   1.661
 8377SOL     OW25474   5.674   1.801   0.927
 8377SOL    HW125475   5.632   1.715   0.900
 8377SOL    HW225476   5.768   1.804   0.893
 8378SOL     OW25477   6.090   1.568   0.910
 8378SOL    HW125478   6.156   1.642   0.919
 8378SOL    HW225479   6.134   1.489   0.868
 8379SOL     OW25480   6.588   0.796   1.238
 8379SOL    HW125481   6.629   0.764   1.324
 8379SOL    HW225482   6.492   0.769   1.235
 8380SOL     OW25483   5.626   0.544   1.114
 8380SOL    HW125484   5.711   0.511   1.073
 8380SOL    HW225485   5.639   0.559   1.212
 8381SOL     OW25486   5.775   0.520   1.722
 8381SOL    HW125487   5.834   0.480   1.652
 8381SOL    HW225488   5.717   0.591   1.681
 8382SOL     OW25489   6.955   0.950   1.660
 8382SOL    HW125490   6.994   1.039   1.680
 8382SOL    HW225491   6.965   0.930   1.563
 8383SOL     OW25492   6.401   0.572   0.325
 8383SOL    HW125493   6.408   0.483   0.279
 8383SOL    HW225494   6.307   0.606   0.317
 8384SOL     OW25495   7.243   0.604   1.206
 8384SOL    HW125496   7.205   0.535   1.268
 8384SOL    HW225497   7.325   0.568   1.162
 8385SOL     OW25498   5.838   1.564   1.744
 8385SOL    HW125499   5.808   1.621   1.820
 8385SOL    HW225500   5.831   1.467   1.770
 8386SOL     OW25501   6.257   0.464   1.269
 8386SOL    HW125502   6.223   0.375   1.239
 8386SOL    HW225503   6.283   0.518   1.189
 8387SOL     OW25504   6.516   1.678   1.465
 8387SOL    HW125505   6.492   1.660   1.370
 8387SOL    HW225506   6.546   1.772   1.475
 8388SOL     OW25507   5.745   1.137   1.466
 8388SOL    HW125508   5.767   1.076   1.542
 8388SOL    HW225509   5.755   1.088   1.380
 8389SOL     OW25510   6.933   1.059   1.234
 8389SOL    HW125511   6.957   0.996   1.160
 8389SOL    HW225512   6.843   1.099   1.216
 8390SOL     OW25513   7.345   1.747   1.154
 8390SOL    HW125514   7.406   1.777   1.081
 8390SOL    HW225515   7.307   1.658   1.132
 8391SOL     OW25516   6.838   1.731   1.128
 8391SOL    HW125517   6.922   1.736   1.074
 8391SOL    HW225518   6.815   1.635   1.146
 8392SOL     OW25519   5.669   1.258   1.022
 8392SOL    HW125520   5.664   1.257   1.122
 8392SOL    HW225521   5.586   1.217   0.984
 8393SOL     OW25522   6.274   1.662   1.716
 8393SOL    HW125523   6.218   1.743   1.725
 8393SOL    HW225524   6.326   1.666   1.630
 8394SOL     OW25525   5.716   1.794   1.851
 8394SOL    HW125526   5.675   1.720   1.904
 8394SOL    HW225527   5.780   1.845   1.909
 8395SOL     OW25528   6.866   0.927   0.672
 8395SOL    HW125529   6.926   0.846   0.674
 8395SOL    HW225530   6.906   0.996   0.612
 8396SOL     OW25531   6.416   1.273   1.422
 8396SOL    HW125532   6.411   1.306   1.517
 8396SOL    HW225533   6.330   1.292   1.376
 8397SOL     OW25534   7.236   1.720   1.394
 8397SOL    HW125535   7.289   1.730   1.310
 8397SOL    HW225536   7.209   1.810   1.428
 8398SOL     OW25537   5.849   0.326   0.720
 8398SOL    HW125538   5.770   0.377   0.686
 8398SOL    HW225539   5.840   0.311   0.818
 8399SOL     OW25540   6.408   1.002   1.372
 8399SOL    HW125541   6.448   1.001   1.280
 8399SOL    HW225542   6.418   1.094   1.412
 8400SOL     OW25543   5.958   1.288   1.490
 8400SOL    HW125544   5.945   1.381   1.456
 8400SOL    HW225545   5.874   1.236   1.477
 8401SOL     OW25546   7.200   1.292   1.289
 8401SOL    HW125547   7.260   1.295   1.369
 8401SOL    HW225548   7.125   1.356   1.302
 8402SOL     OW25549   6.625   1.098   0.696
 8402SOL    HW125550   6.555   1.051   0.750
 8402SOL    HW225551   6.684   1.030   0.653
 8403SOL     OW25552   6.176   1.487   0.491
 8403SOL    HW125553   6.218   1.429   0.421
 8403SOL    HW225554   6.132   1.566   0.447
 8404SOL     OW25555   7.295   0.385   1.381
 8404SOL    HW125556   7.368   0.454   1.385
 8404SOL    HW225557   7.323   0.310   1.322
 8405SOL     OW25558   5.691   1.013   1.726
 8405SOL    HW125559   5.614   0.980   1.780
 8405SOL    HW225560   5.776   0.983   1.768
 8406SOL     OW25561   7.026   0.856   1.398
 8406SOL    HW125562   6.969   0.908   1.335
 8406SOL    HW225563   7.122   0.868   1.374
 8407SOL     OW25564   6.199   0.842   1.431
 8407SOL    HW125565   6.255   0.923   1.414
 8407SOL    HW225566   6.258   0.762   1.434
 8408SOL     OW25567   7.079   1.767   0.959
 8408SOL    HW125568   7.112   1.831   0.890
 8408SOL    HW225569   7.145   1.761   1.034
 8409SOL     OW25570   6.302   0.565   1.708
 8409SOL    HW125571   6.321   0.630   1.782
 8409SOL    HW225572   6.362   0.485   1.717
 8410SOL     OW25573   7.036   1.220   1.633
 8410SOL    HW125574   7.027   1.210   1.732
 8410SOL    HW225575   7.132   1.213   1.607
 8411SOL     OW25576   5.976   1.741   1.560
 8411SOL    HW125577   5.885   1.782   1.558
 8411SOL    HW225578   5.969   1.647   1.592
 8412SOL     OW25579   7.260   0.883   1.254
 8412SOL    HW125580   7.233   0.794   1.217
 8412SOL    HW225581   7.261   0.951   1.181
 8413SOL     OW25582   6.180   0.745   0.652
 8413SOL    HW125583   6.230   0.830   0.633
 8413SOL    HW225584   6.092   0.747   0.604
 8414SOL     OW25585   7.363   0.342   1.642
 8414SOL    HW125586   7.346   0.373   1.548
 8414SOL    HW225587   7.279   0.305   1.680
 8415SOL     OW25588   7.316   0.934   1.517
 8415SOL    HW125589   7.354   1.025   1.532
 8415SOL    HW225590   7.308   0.917   1.418
 8416SOL     OW25591   6.247   1.790   0.953
 8416SOL    HW125592   6.201   1.878   0.940
 8416SOL    HW225593   6.346   1.802   0.946
 8417SOL     OW25594   6.445   0.956   0.861
 8417SOL    HW125595   6.499   0.887   0.909
 8417SOL    HW225596   6.413   1.025   0.927
 8418SOL     OW25597   7.447   1.569   0.851
 8418SOL    HW125598   7.376   1.557   0.781
 8418SOL    HW225599   7.448   1.490   0.911
 8419SOL     OW25600   5.807   1.314   1.844
 8419SOL    HW125601   5.742   1.241   1.823
 8419SOL    HW225602   5.811   1.328   1.942
 8420SOL     OW25603   5.665   1.240   0.653
 8420SOL    HW125604   5.664   1.193   0.741
 8420SOL    HW225605   5.747   1.212   0.602
 8421SOL     OW25606   6.258   1.391   1.624
 8421SOL    HW125607   6.180   1.341   1.662
 8421SOL    HW225608   6.255   1.486   1.655
 8422SOL     OW25609   7.410   0.192   1.227
 8422SOL    HW125610   7.406   0.102   1.271
 8422SOL    HW225611   7.413   0.181   1.128
 8423SOL     OW25612   6.014   0.424   0.520
 8423SOL    HW125613   6.044   0.352   0.458
 8423SOL    HW225614   5.975   0.384   0.603
 8424SOL     OW25615   7.291   1.487   1.104
 8424SOL    HW125616   7.198   1.462   1.077
 8424SOL    HW225617   7.317   1.437   1.186
 8425SOL     OW25618   5.903   0.547   1.280
 8425SOL    HW125619   5.941   0.488   1.352
 8425SOL    HW225620   5.943   0.521   1.192
 8426SOL     OW25621   6.398   1.586   0.687
 8426SOL    HW125622   6.430   1.596   0.593
 8426SOL    HW225623   6.319   1.524   0.689
 8427SOL     OW25624   6.204   1.567   1.284
 8427SOL    HW125625   6.199   1.649   1.341
 8427SOL    HW225626   6.293   1.564   1.239
 8428SOL     OW25627   6.886   0.453   0.691
 8428SOL    HW125628   6.827   0.533   0.695
 8428SOL    HW225629   6.901   0.418   0.784
 8429SOL     OW25630   5.625   1.077   0.300
 8429SOL    HW125631   5.724   1.066   0.291
 8429SOL    HW225632   5.585   0.991   0.332
 8430SOL     OW25633   5.816   0.628   1.975
 8430SOL    HW125634   5.723   0.626   2.012
 8430SOL    HW225635   5.817   0.589   1.883
 8431SOL     OW25636   5.605   0.368   2.509
 8431SOL    HW125637   5.523   0.411   2.548
 8431SOL    HW225638   5.577   0.295   2.446
 8432SOL     OW25639   6.155   1.275   3.027
 8432SOL    HW125640   6.062   1.268   2.990
 8432SOL    HW225641   6.166   1.364   3.071
 8433SOL     OW25642   7.141   1.511   2.565
 8433SOL    HW125643   7.084   1.495   2.646
 8433SOL    HW225644   7.082   1.521   2.485
 8434SOL     OW25645   6.721   0.703   2.579
 8434SOL    HW125646   6.778   0.781   2.554
 8434SOL    HW225647   6.661   0.729   2.655
 8435SOL     OW25648   7.341   0.607   2.093
 8435SOL    HW125649   7.329   0.594   1.994
 8435SOL    HW225650   7.311   0.526   2.142
 8436SOL     OW25651   6.354   1.144   2.885
 8436SOL    HW125652   6.276   1.161   2.945
 8436SOL    HW225653   6.388   1.231   2.849
 8437SOL     OW25654   6.436   0.798   3.685
 8437SOL    HW125655   6.432   0.874   3.750
 8437SOL    HW225656   6.458   0.834   3.594
 8438SOL     OW25657   6.271   1.012   2.527
 8438SOL    HW125658   6.340   0.996   2.597
 8438SOL    HW225659   6.198   1.069   2.565
 8439SOL     OW25660   6.272   1.161   3.665
 8439SOL    HW125661   6.332   1.240   3.679
 8439SOL    HW225662   6.186   1.192   3.624
 8440SOL     OW25663   5.921   1.435   2.923
 8440SOL    HW125664   5.843   1.404   2.870
 8440SOL    HW225665   5.979   1.493   2.866
 8441SOL     OW25666   7.046   1.505   3.201
 8441SOL    HW125667   7.070   1.599   3.227
 8441SOL    HW225668   7.030   1.451   3.283
 8442SOL     OW25669   6.024   0.392   3.361
 8442SOL    HW125670   6.106   0.336   3.370
 8442SOL    HW225671   5.943   0.334   3.365
 8443SOL     OW25672   7.189   0.447   2.599
 8443SOL    HW125673   7.115   0.493   2.549
 8443SOL    HW225674   7.240   0.515   2.652
 8444SOL     OW25675   5.817   1.713   2.345
 8444SOL    HW125676   5.851   1.790   2.399
 8444SOL    HW225677   5.861   1.713   2.255
 8445SOL     OW25678   6.713   1.341   3.552
 8445SOL    HW125679   6.760   1.341   3.640
 8445SOL    HW225680   6.665   1.254   3.541
 8446SOL     OW25681   5.816   1.434   2.400
 8446SOL    HW125682   5.790   1.530   2.400
 8446SOL    HW225683   5.745   1.380   2.445
 8447SOL     OW25684   5.826   1.091   2.748
 8447SOL    HW125685   5.840   1.007   2.800
 8447SOL    HW225686   5.771   1.155   2.803
 8448SOL     OW25687   6.206   1.786   3.301
 8448SOL    HW125688   6.114   1.769   3.336
 8448SOL    HW225689   6.234   1.878   3.327
 8449SOL     OW25690   6.192   0.964   1.985
 8449SOL    HW125691   6.199   1.048   1.931
 8449SOL    HW225692   6.238   0.977   2.073
 8450SOL     OW25693   5.708   0.643   2.425
 8450SOL    HW125694   5.663   0.555   2.442
 8450SOL    HW225695   5.707   0.697   2.509
 8451SOL     OW25696   7.428   1.767   2.221
 8451SOL    HW125697   7.482   1.738   2.301
 8451SOL    HW225698   7.458   1.857   2.192
 8452SOL     OW25699   5.613   1.596   1.979
 8452SOL    HW125700   5.594   1.500   2.000
 8452SOL    HW225701   5.580   1.654   2.054
 8453SOL     OW25702   7.275   0.922   2.474
 8453SOL    HW125703   7.370   0.893   2.482
 8453SOL    HW225704   7.267   0.987   2.399
 8454SOL     OW25705   7.227   1.108   2.294
 8454SOL    HW125706   7.313   1.110   2.242
 8454SOL    HW225707   7.241   1.155   2.382
 8455SOL     OW25708   5.699   0.737   3.459
 8455SOL    HW125709   5.787   0.724   3.504
 8455SOL    HW225710   5.686   0.834   3.437
 8456SOL     OW25711   6.199   1.365   2.588
 8456SOL    HW125712   6.150   1.278   2.597
 8456SOL    HW225713   6.176   1.408   2.501
 8457SOL     OW25714   6.879   1.228   3.285
 8457SOL    HW125715   6.916   1.155   3.227
 8457SOL    HW225716   6.931   1.233   3.370
 8458SOL     OW25717   5.783   0.976   3.126
 8458SOL    HW125718   5.872   0.931   3.112
 8458SOL    HW225719   5.710   0.911   3.107
 8459SOL     OW25720   7.111   0.999   2.052
 8459SOL    HW125721   7.048   0.923   2.065
 8459SOL    HW225722   7.159   1.017   2.138
 8460SOL     OW25723   6.773   1.792   3.478
 8460SOL    HW125724   6.797   1.852   3.402
 8460SOL    HW225725   6.780   1.697   3.448
 8461SOL     OW25726   5.903   0.251   3.663
 8461SOL    HW125727   5.974   0.322   3.669
 8461SOL    HW225728   5.815   0.290   3.691
 8462SOL     OW25729   7.052   1.417   2.815
 8462SOL    HW125730   6.993   1.423   2.895
 8462SOL    HW225731   7.037   1.329   2.769
 8463SOL     OW25732   7.253   1.714   2.434
 8463SOL    HW125733   7.212   1.691   2.346
 8463SOL    HW225734   7.235   1.640   2.499
 8464SOL     OW25735   6.184   0.729   2.132
 8464SOL    HW125736   6.208   0.798   2.064
 8464SOL    HW225737   6.106   0.762   2.186
 8465SOL     OW25738   7.162   1.662   2.169
 8465SOL    HW125739   7.251   1.708   2.172
 8465SOL    HW225740   7.141   1.638   2.074
 8466SOL     OW25741   6.393   0.605   3.327
 8466SOL    HW125742   6.346   0.602   3.416
 8466SOL    HW225743   6.342   0.550   3.261
 8467SOL     OW25744   6.980   0.469   3.536
 8467SOL    HW125745   6.960   0.512   3.624
 8467SOL    HW225746   7.058   0.407   3.545
 8468SOL     OW25747   6.559   0.890   3.434
 8468SOL    HW125748   6.605   0.806   3.405
 8468SOL    HW225749   6.503   0.924   3.359
 8469SOL     OW25750   6.577   0.410   3.104
 8469SOL    HW125751   6.500   0.444   3.158
 8469SOL    HW225752   6.543   0.359   3.025
 8470SOL     OW25753   6.627   0.701   2.291
 8470SOL    HW125754   6.653   0.697   2.387
 8470SOL    HW225755   6.542   0.650   2.277
 8471SOL     OW25756   5.662   0.811   2.651
 8471SOL    HW125757   5.761   0.799   2.660
 8471SOL    HW225758   5.638   0.906   2.672
 8472SOL     OW25759   5.716   1.821   3.433
 8472SOL    HW125760   5.706   1.806   3.532
 8472SOL    HW225761   5.630   1.857   3.397
 8473SOL     OW25762   6.451   0.348   2.057
 8473SOL    HW125763   6.510   0.411   2.008
 8473SOL    HW225764   6.470   0.254   2.028
 8474SOL     OW25765   7.305   0.585   3.693
 8474SOL    HW125766   7.279   0.674   3.657
 8474SOL    HW225767   7.303   0.517   3.620
 8475SOL     OW25768   6.948   1.144   2.407
 8475SOL    HW125769   7.031   1.115   2.359
 8475SOL    HW225770   6.899   1.211   2.351
 8476SOL     OW25771   6.594   1.456   2.339
 8476SOL    HW125772   6.548   1.528   2.287
 8476SOL    HW225773   6.590   1.476   2.437
 8477SOL     OW25774   5.937   1.801   2.715
 8477SOL    HW125775   5.987   1.715   2.721
 8477SOL    HW225776   6.002   1.878   2.712
 8478SOL     OW25777   7.381   1.066   2.735
 8478SOL    HW125778   7.319   1.051   2.659
 8478SOL    HW225779   7.329   1.077   2.820
 8479SOL     OW25780   6.813   1.550   3.368
 8479SOL    HW125781   6.819   1.473   3.432
 8479SOL    HW225782   6.761   1.524   3.288
 8480SOL     OW25783   5.907   0.943   2.104
 8480SOL    HW125784   5.989   0.982   2.062
 8480SOL    HW225785   5.880   0.861   2.055
 8481SOL     OW25786   7.044   0.735   2.590
 8481SOL    HW125787   7.039   0.670   2.665
 8481SOL    HW225788   7.124   0.794   2.603
 8482SOL     OW25789   6.047   1.266   3.589
 8482SOL    HW125790   5.997   1.267   3.503
 8482SOL    HW225791   5.984   1.248   3.665
 8483SOL     OW25792   6.697   1.776   2.099
 8483SOL    HW125793   6.637   1.714   2.149
 8483SOL    HW225794   6.728   1.732   2.014
 8484SOL     OW25795   7.218   1.377   1.943
 8484SOL    HW125796   7.186   1.471   1.933
 8484SOL    HW225797   7.142   1.314   1.931
 8485SOL     OW25798   6.050   1.743   2.185
 8485SOL    HW125799   6.083   1.782   2.271
 8485SOL    HW225800   6.126   1.736   2.120
 8486SOL     OW25801   5.835   1.785   3.103
 8486SOL    HW125802   5.892   1.720   3.153
 8486SOL    HW225803   5.819   1.752   3.010
 8487SOL     OW25804   6.526   1.698   2.766
 8487SOL    HW125805   6.606   1.641   2.787
 8487SOL    HW225806   6.477   1.658   2.689
 8488SOL     OW25807   5.968   0.700   2.342
 8488SOL    HW125808   6.013   0.610   2.339
 8488SOL    HW225809   5.874   0.689   2.375
 8489SOL     OW25810   6.367   0.264   3.611
 8489SOL    HW125811   6.434   0.203   3.654
 8489SOL    HW225812   6.294   0.283   3.676
 8490SOL     OW25813   6.474   1.514   3.057
 8490SOL    HW125814   6.451   1.489   2.963
 8490SOL    HW225815   6.535   1.445   3.096
 8491SOL     OW25816   6.937   0.590   3.295
 8491SOL    HW125817   6.965   0.547   3.380
 8491SOL    HW225818   6.962   0.686   3.296
 8492SOL     OW25819   6.389   1.402   2.786
 8492SOL    HW125820   6.479   1.416   2.744
 8492SOL    HW225821   6.318   1.404   2.715
 8493SOL     OW25822   6.508   0.503   2.761
 8493SOL    HW125823   6.483   0.494   2.665
 8493SOL    HW225824   6.556   0.421   2.792
 8494SOL     OW25825   6.125   0.064   2.374
 8494SOL    HW125826   6.044   0.065   2.432
 8494SOL    HW225827   6.128   0.147   2.319
 8495SOL     OW25828   7.020   1.188   1.903
 8495SOL    HW125829   7.052   1.112   1.960
 8495SOL    HW225830   6.928   1.215   1.933
 8496SOL     OW25831   6.662   0.683   3.326
 8496SOL    HW125832   6.582   0.622   3.329
 8496SOL    HW225833   6.743   0.630   3.302
 8497SOL     OW25834   6.813   1.570   2.655
 8497SOL    HW125835   6.834   1.644   2.590
 8497SOL    HW225836   6.881   1.570   2.728
 8498SOL     OW25837   6.045   1.152   2.603
 8498SOL    HW125838   5.974   1.125   2.668
 8498SOL    HW225839   6.019   1.124   2.510
 8499SOL     OW25840   6.857   1.797   2.453
 8499SOL    HW125841   6.901   1.861   2.389
 8499SOL    HW225842   6.807   1.849   2.523
 8500SOL     OW25843   6.618   0.549   1.878
 8500SOL    HW125844   6.577   0.631   1.839
 8500SOL    HW225845   6.682   0.575   1.951
 8501SOL     OW25846   5.664   0.556   3.248
 8501SOL    HW125847   5.756   0.555   3.207
 8501SOL    HW225848   5.658   0.630   3.315
 8502SOL     OW25849   6.452   0.454   2.504
 8502SOL    HW125850   6.420   0.526   2.442
 8502SOL    HW225851   6.476   0.373   2.451
 8503SOL     OW25852   7.015   1.173   2.729
 8503SOL    HW125853   6.960   1.089   2.722
 8503SOL    HW225854   7.041   1.202   2.637
 8504SOL     OW25855   7.052   0.590   2.854
 8504SOL    HW125856   7.022   0.495   2.861
 8504SOL    HW225857   7.125   0.606   2.920
 8505SOL     OW25858   7.443   0.833   2.239
 8505SOL    HW125859   7.485   0.769   2.303
 8505SOL    HW225860   7.405   0.782   2.161
 8506SOL     OW25861   6.074   1.385   2.036
 8506SOL    HW125862   5.987   1.370   2.083
 8506SOL    HW225863   6.057   1.411   1.941
 8507SOL     OW25864   7.250   1.280   2.519
 8507SOL    HW125865   7.349   1.288   2.533
 8507SOL    HW225866   7.205   1.364   2.550
 8508SOL     OW25867   6.976   0.575   1.940
 8508SOL    HW125868   6.922   0.554   2.021
 8508SOL    HW225869   7.067   0.534   1.949
 8509SOL     OW25870   7.340   1.223   3.450
 8509SOL    HW125871   7.431   1.184   3.437
 8509SOL    HW225872   7.348   1.319   3.474
 8510SOL     OW25873   6.650   1.347   3.202
 8510SOL    HW125874   6.570   1.324   3.257
 8510SOL    HW225875   6.733   1.321   3.251
 8511SOL     OW25876   7.178   1.629   3.487
 8511SOL    HW125877   7.205   1.663   3.397
 8511SOL    HW225878   7.257   1.591   3.533
 8512SOL     OW25879   6.697   1.195   2.962
 8512SOL    HW125880   6.657   1.239   3.043
 8512SOL    HW225881   6.656   1.232   2.879
 8513SOL     OW25882   7.224   1.099   2.941
 8513SOL    HW125883   7.229   1.180   3.000
 8513SOL    HW225884   7.138   1.101   2.890
 8514SOL     OW25885   6.566   1.116   3.581
 8514SOL    HW125886   6.467   1.122   3.591
 8514SOL    HW225887   6.589   1.036   3.525
 8515SOL     OW25888   6.291   1.050   2.230
 8515SOL    HW125889   6.277   1.057   2.329
 8515SOL    HW225890   6.375   0.999   2.212
 8516SOL     OW25891   5.996   0.813   3.113
 8516SOL    HW125892   6.082   0.825   3.163
 8516SOL    HW225893   5.954   0.726   3.140
 8517SOL     OW25894   6.860   0.386   3.124
 8517SOL    HW125895   6.881   0.460   3.188
 8517SOL    HW225896   6.771   0.403   3.081
 8518SOL     OW25897   5.650   1.564   3.193
 8518SOL    HW125898   5.604   1.646   3.159
 8518SOL    HW225899   5.748   1.583   3.202
 8519SOL     OW25900   5.953   1.100   2.363
 8519SOL    HW125901   5.946   1.183   2.307
 8519SOL    HW225902   5.957   1.020   2.303
 8520SOL     OW25903   6.152   0.537   2.727
 8520SOL    HW125904   6.164   0.603   2.653
 8520SOL    HW225905   6.198   0.571   2.810
 8521SOL     OW25906   6.838   1.348   2.250
 8521SOL    HW125907   6.888   1.425   2.290
 8521SOL    HW225908   6.743   1.350   2.282
 8522SOL     OW25909   6.858   1.445   3.004
 8522SOL    HW125910   6.905   1.458   3.091
 8522SOL    HW225911   6.792   1.371   3.013
 8523SOL     OW25912   7.168   0.639   2.334
 8523SOL    HW125913   7.137   0.700   2.407
 8523SOL    HW225914   7.218   0.691   2.265
 8524SOL     OW25915   5.940   1.510   3.191
 8524SOL    HW125916   5.919   1.466   3.104
 8524SOL    HW225917   6.037   1.536   3.194
 8525SOL     OW25918   5.988   0.751   3.460
 8525SOL    HW125919   6.056   0.806   3.413
 8525SOL    HW225920   6.028   0.663   3.487
 8526SOL     OW25921   7.173   0.779   3.532
 8526SOL    HW125922   7.081   0.817   3.527
 8526SOL    HW225923   7.233   0.826   3.467
 8527SOL     OW25924   6.159   0.870   2.891
 8527SOL    HW125925   6.203   0.959   2.882
 8527SOL    HW225926   6.096   0.870   2.968
 8528SOL     OW25927   6.946   0.862   2.907
 8528SOL    HW125928   6.871   0.862   2.841
 8528SOL    HW225929   6.983   0.770   2.916
 8529SOL     OW25930   6.795   0.525   2.137
 8529SOL    HW125931   6.808   0.441   2.191
 8529SOL    HW225932   6.766   0.599   2.197
 8530SOL     OW25933   5.893   0.213   3.093
 8530SOL    HW125934   5.870   0.250   3.183
 8530SOL    HW225935   5.863   0.118   3.087
 8531SOL     OW25936   5.623   1.310   3.144
 8531SOL    HW125937   5.676   1.261   3.212
 8531SOL    HW225938   5.645   1.408   3.149
 8532SOL     OW25939   6.318   0.634   2.926
 8532SOL    HW125940   6.377   0.608   2.850
 8532SOL    HW225941   6.290   0.730   2.915
 8533SOL     OW25942   7.314   0.935   3.716
 8533SOL    HW125943   7.268   0.928   3.627
 8533SOL    HW225944   7.252   0.979   3.782
 8534SOL     OW25945   6.609   0.766   2.828
 8534SOL    HW125946   6.624   0.787   2.924
 8534SOL    HW225947   6.579   0.671   2.819
 8535SOL     OW25948   6.566   1.573   3.562
 8535SOL    HW125949   6.546   1.617   3.474
 8535SOL    HW225950   6.605   1.482   3.546
 8536SOL     OW25951   7.445   1.518   3.467
 8536SOL    HW125952   7.459   1.545   3.372
 8536SOL    HW225953   7.528   1.540   3.520
 8537SOL     OW25954   5.936   0.898   3.666
 8537SOL    HW125955   6.012   0.942   3.714
 8537SOL    HW225956   5.971   0.851   3.584
 8538SOL     OW25957   6.889   0.838   1.904
 8538SOL    HW125958   6.923   0.745   1.919
 8538SOL    HW225959   6.907   0.865   1.809
 8539SOL     OW25960   6.654   1.333   2.711
 8539SOL    HW125961   6.661   1.249   2.656
 8539SOL    HW225962   6.716   1.402   2.675
 8540SOL     OW25963   5.905   0.810   2.811
 8540SOL    HW125964   5.998   0.846   2.816
 8540SOL    HW225965   5.899   0.725   2.863
 8541SOL     OW25966   5.925   0.509   2.868
 8541SOL    HW125967   5.873   0.426   2.851
 8541SOL    HW225968   6.002   0.514   2.804
 8542SOL     OW25969   6.724   0.380   3.540
 8542SOL    HW125970   6.679   0.443   3.604
 8542SOL    HW225971   6.817   0.411   3.523
 8543SOL     OW25972   5.594   1.326   2.062
 8543SOL    HW125973   5.501   1.347   2.031
 8543SOL    HW225974   5.604   1.227   2.075
 8544SOL     OW25975   5.674   1.801   2.789
 8544SOL    HW125976   5.632   1.715   2.762
 8544SOL    HW225977   5.768   1.804   2.755
 8545SOL     OW25978   6.090   1.568   2.772
 8545SOL    HW125979   6.156   1.642   2.781
 8545SOL    HW225980   6.134   1.489   2.730
 8546SOL     OW25981   6.588   0.796   3.100
 8546SOL    HW125982   6.629   0.764   3.186
 8546SOL    HW225983   6.492   0.769   3.097
 8547SOL     OW25984   5.626   0.544   2.976
 8547SOL    HW125985   5.711   0.511   2.935
 8547SOL    HW225986   5.639   0.559   3.074
 8548SOL     OW25987   5.775   0.520   3.584
 8548SOL    HW125988   5.834   0.480   3.514
 8548SOL    HW225989   5.717   0.591   3.543
 8549SOL     OW25990   6.955   0.950   3.522
 8549SOL    HW125991   6.994   1.039   3.542
 8549SOL    HW225992   6.965   0.930   3.425
 8550SOL     OW25993   6.401   0.572   2.187
 8550SOL    HW125994   6.408   0.483   2.141
 8550SOL    HW225995   6.307   0.606   2.179
 8551SOL     OW25996   7.243   0.604   3.068
 8551SOL    HW125997   7.205   0.535   3.130
 8551SOL    HW225998   7.325   0.568   3.024
 8552SOL     OW25999   5.838   1.564   3.606
 8552SOL    HW126000   5.808   1.621   3.682
 8552SOL    HW226001   5.831   1.467   3.632
 8553SOL     OW26002   6.257   0.464   3.131
 8553SOL    HW126003   6.223   0.375   3.101
 8553SOL    HW226004   6.283   0.518   3.051
 8554SOL     OW26005   6.516   1.678   3.327
 8554SOL    HW126006   6.492   1.660   3.232
 8554SOL    HW226007   6.546   1.772   3.337
 8555SOL     OW26008   6.059   0.500   2.053
 8555SOL    HW126009   6.120   0.580   2.057
 8555SOL    HW226010   5.964   0.531   2.060
 8556SOL     OW26011   5.745   1.137   3.328
 8556SOL    HW126012   5.767   1.076   3.404
 8556SOL    HW226013   5.755   1.088   3.242
 8557SOL     OW26014   6.933   1.059   3.096
 8557SOL    HW126015   6.957   0.996   3.022
 8557SOL    HW226016   6.843   1.099   3.078
 8558SOL     OW26017   6.888   0.855   2.171
 8558SOL    HW126018   6.802   0.824   2.213
 8558SOL    HW226019   6.884   0.841   2.072
 8559SOL     OW26020   7.345   1.747   3.016
 8559SOL    HW126021   7.406   1.777   2.943
 8559SOL    HW226022   7.307   1.658   2.994
 8560SOL     OW26023   6.838   1.731   2.990
 8560SOL    HW126024   6.922   1.736   2.936
 8560SOL    HW226025   6.815   1.635   3.008
 8561SOL     OW26026   5.669   1.258   2.884
 8561SOL    HW126027   5.664   1.257   2.984
 8561SOL    HW226028   5.586   1.217   2.846
 8562SOL     OW26029   6.274   1.662   3.578
 8562SOL    HW126030   6.218   1.743   3.587
 8562SOL    HW226031   6.326   1.666   3.492
 8563SOL     OW26032   6.974   1.573   2.339
 8563SOL    HW126033   7.041   1.585   2.265
 8563SOL    HW226034   6.934   1.662   2.362
 8564SOL     OW26035   5.716   1.794   3.713
 8564SOL    HW126036   5.675   1.720   3.766
 8564SOL    HW226037   5.780   1.845   3.771
 8565SOL     OW26038   6.866   0.927   2.534
 8565SOL    HW126039   6.926   0.846   2.536
 8565SOL    HW226040   6.906   0.996   2.474
 8566SOL     OW26041   6.416   1.273   3.284
 8566SOL    HW126042   6.411   1.306   3.379
 8566SOL    HW226043   6.330   1.292   3.238
 8567SOL     OW26044   6.258   1.616   2.016
 8567SOL    HW126045   6.267   1.626   1.917
 8567SOL    HW226046   6.218   1.527   2.037
 8568SOL     OW26047   7.236   1.720   3.256
 8568SOL    HW126048   7.289   1.730   3.172
 8568SOL    HW226049   7.209   1.810   3.290
 8569SOL     OW26050   5.849   0.326   2.582
 8569SOL    HW126051   5.770   0.377   2.548
 8569SOL    HW226052   5.840   0.311   2.680
 8570SOL     OW26053   6.780   1.612   1.893
 8570SOL    HW126054   6.786   1.519   1.930
 8570SOL    HW226055   6.721   1.612   1.813
 8571SOL     OW26056   6.408   1.002   3.234
 8571SOL    HW126057   6.448   1.001   3.142
 8571SOL    HW226058   6.418   1.094   3.274
 8572SOL     OW26059   6.502   0.910   2.153
 8572SOL    HW126060   6.565   0.948   2.085
 8572SOL    HW226061   6.542   0.827   2.192
 8573SOL     OW26062   7.090   1.607   1.906
 8573SOL    HW126063   6.998   1.644   1.913
 8573SOL    HW226064   7.128   1.627   1.816
 8574SOL     OW26065   5.958   1.288   3.352
 8574SOL    HW126066   5.945   1.381   3.318
 8574SOL    HW226067   5.874   1.236   3.339
 8575SOL     OW26068   7.200   1.292   3.151
 8575SOL    HW126069   7.260   1.295   3.231
 8575SOL    HW226070   7.125   1.356   3.164
 8576SOL     OW26071   6.625   1.098   2.558
 8576SOL    HW126072   6.555   1.051   2.612
 8576SOL    HW226073   6.684   1.030   2.515
 8577SOL     OW26074   6.176   1.487   2.353
 8577SOL    HW126075   6.218   1.429   2.283
 8577SOL    HW226076   6.132   1.566   2.309
 8578SOL     OW26077   7.295   0.385   3.243
 8578SOL    HW126078   7.368   0.454   3.247
 8578SOL    HW226079   7.323   0.310   3.184
 8579SOL     OW26080   5.841   1.348   2.152
 8579SOL    HW126081   5.745   1.349   2.125
 8579SOL    HW226082   5.853   1.401   2.236
 8580SOL     OW26083   5.691   1.013   3.588
 8580SOL    HW126084   5.614   0.980   3.642
 8580SOL    HW226085   5.776   0.983   3.630
 8581SOL     OW26086   5.661   0.345   1.895
 8581SOL    HW126087   5.569   0.317   1.866
 8581SOL    HW226088   5.692   0.422   1.839
 8582SOL     OW26089   7.026   0.856   3.260
 8582SOL    HW126090   6.969   0.908   3.197
 8582SOL    HW226091   7.122   0.868   3.236
 8583SOL     OW26092   6.769   1.335   1.981
 8583SOL    HW126093   6.670   1.324   1.983
 8583SOL    HW226094   6.803   1.350   2.074
 8584SOL     OW26095   6.199   0.842   3.293
 8584SOL    HW126096   6.255   0.923   3.276
 8584SOL    HW226097   6.258   0.762   3.296
 8585SOL     OW26098   7.079   1.767   2.821
 8585SOL    HW126099   7.112   1.831   2.752
 8585SOL    HW226100   7.145   1.761   2.896
 8586SOL     OW26101   6.302   0.565   3.570
 8586SOL    HW126102   6.321   0.630   3.644
 8586SOL    HW226103   6.362   0.485   3.579
 8587SOL     OW26104   7.036   1.220   3.495
 8587SOL    HW126105   7.027   1.210   3.594
 8587SOL    HW226106   7.132   1.213   3.469
 8588SOL     OW26107   5.976   1.741   3.422
 8588SOL    HW126108   5.885   1.782   3.420
 8588SOL    HW226109   5.969   1.647   3.454
 8589SOL     OW26110   7.260   0.883   3.116
 8589SOL    HW126111   7.233   0.794   3.079
 8589SOL    HW226112   7.261   0.951   3.043
 8590SOL     OW26113   6.180   0.745   2.514
 8590SOL    HW126114   6.230   0.830   2.495
 8590SOL    HW226115   6.092   0.747   2.466
 8591SOL     OW26116   7.363   0.342   3.504
 8591SOL    HW126117   7.346   0.373   3.410
 8591SOL    HW226118   7.279   0.305   3.542
 8592SOL     OW26119   7.316   0.934   3.379
 8592SOL    HW126120   7.354   1.025   3.394
 8592SOL    HW226121   7.308   0.917   3.280
 8593SOL     OW26122   6.445   1.374   1.878
 8593SOL    HW126123   6.399   1.389   1.966
 8593SOL    HW226124   6.489   1.459   1.848
 8594SOL     OW26125   6.247   1.790   2.815
 8594SOL    HW126126   6.201   1.878   2.802
 8594SOL    HW226127   6.346   1.802   2.808
 8595SOL     OW26128   6.445   0.956   2.723
 8595SOL    HW126129   6.499   0.887   2.771
 8595SOL    HW226130   6.413   1.025   2.789
 8596SOL     OW26131   6.669   0.984   1.949
 8596SOL    HW126132   6.646   1.037   1.867
 8596SOL    HW226133   6.750   0.928   1.930
 8597SOL     OW26134   7.447   1.569   2.713
 8597SOL    HW126135   7.376   1.557   2.643
 8597SOL    HW226136   7.448   1.490   2.773
 8598SOL     OW26137   5.807   1.314   3.706
 8598SOL    HW126138   5.742   1.241   3.685
 8598SOL    HW226139   5.811   1.328   3.804
 8599SOL     OW26140   5.665   1.240   2.515
 8599SOL    HW126141   5.664   1.193   2.603
 8599SOL    HW226142   5.747   1.212   2.464
 8600SOL     OW26143   6.258   1.391   3.486
 8600SOL    HW126144   6.180   1.341   3.524
 8600SOL    HW226145   6.255   1.486   3.517
 8601SOL     OW26146   7.410   0.192   3.089
 8601SOL    HW126147   7.406   0.102   3.133
 8601SOL    HW226148   7.413   0.181   2.990
 8602SOL     OW26149   6.014   0.424   2.382
 8602SOL    HW126150   6.044   0.352   2.320
 8602SOL    HW226151   5.975   0.384   2.465
 8603SOL     OW26152   7.291   1.487   2.966
 8603SOL    HW126153   7.198   1.462   2.939
 8603SOL    HW226154   7.317   1.437   3.048
 8604SOL     OW26155   5.903   0.547   3.142
 8604SOL    HW126156   5.941   0.488   3.214
 8604SOL    HW226157   5.943   0.521   3.054
 8605SOL     OW26158   6.398   1.586   2.549
 8605SOL    HW126159   6.430   1.596   2.455
 8605SOL    HW226160   6.319   1.524   2.551
 8606SOL     OW26161   6.356   1.330   2.163
 8606SOL    HW126162   6.310   1.243   2.180
 8606SOL    HW226163   6.447   1.327   2.204
 8607SOL     OW26164   6.204   1.567   3.146
 8607SOL    HW126165   6.199   1.649   3.203
 8607SOL    HW226166   6.293   1.564   3.101
 8608SOL     OW26167   6.886   0.453   2.553
 8608SOL    HW126168   6.827   0.533   2.557
 8608SOL    HW226169   6.901   0.418   2.646
 8609SOL     OW26170   5.625   1.077   2.162
 8609SOL    HW126171   5.724   1.066   2.153
 8609SOL    HW226172   5.585   0.991   2.194
 8610SOL     OW26173   6.461   1.646   2.199
 8610SOL    HW126174   6.384   1.611   2.145
 8610SOL    HW226175   6.429   1.717   2.261
 8611SOL     OW26176   5.816   0.628   3.837
 8611SOL    HW126177   5.723   0.626   3.874
 8611SOL    HW226178   5.817   0.589   3.745
 8612SOL     OW26179   5.605   0.368   4.371
 8612SOL    HW126180   5.523   0.411   4.410
 8612SOL    HW226181   5.577   0.295   4.308
 8613SOL     OW26182   6.155   1.275   4.889
 8613SOL    HW126183   6.062   1.268   4.852
 8613SOL    HW226184   6.166   1.364   4.933
 8614SOL     OW26185   7.141   1.511   4.427
 8614SOL    HW126186   7.084   1.495   4.508
 8614SOL    HW226187   7.082   1.521   4.347
 8615SOL     OW26188   6.721   0.703   4.441
 8615SOL    HW126189   6.778   0.781   4.416
 8615SOL    HW226190   6.661   0.729   4.517
 8616SOL     OW26191   7.341   0.607   3.955
 8616SOL    HW126192   7.329   0.594   3.856
 8616SOL    HW226193   7.311   0.526   4.004
 8617SOL     OW26194   6.354   1.144   4.747
 8617SOL    HW126195   6.276   1.161   4.807
 8617SOL    HW226196   6.388   1.231   4.711
 8618SOL     OW26197   6.436   0.798   5.547
 8618SOL    HW126198   6.432   0.874   5.612
 8618SOL    HW226199   6.458   0.834   5.456
 8619SOL     OW26200   6.271   1.012   4.389
 8619SOL    HW126201   6.340   0.996   4.459
 8619SOL    HW226202   6.198   1.069   4.427
 8620SOL     OW26203   6.272   1.161   5.527
 8620SOL    HW126204   6.332   1.240   5.541
 8620SOL    HW226205   6.186   1.192   5.486
 8621SOL     OW26206   5.921   1.435   4.785
 8621SOL    HW126207   5.843   1.404   4.732
 8621SOL    HW226208   5.979   1.493   4.728
 8622SOL     OW26209   7.046   1.505   5.063
 8622SOL    HW126210   7.070   1.599   5.089
 8622SOL    HW226211   7.030   1.451   5.145
 8623SOL     OW26212   6.024   0.392   5.223
 8623SOL    HW126213   6.106   0.336   5.232
 8623SOL    HW226214   5.943   0.334   5.227
 8624SOL     OW26215   7.189   0.447   4.461
 8624SOL    HW126216   7.115   0.493   4.411
 8624SOL    HW226217   7.240   0.515   4.514
 8625SOL     OW26218   5.817   1.713   4.207
 8625SOL    HW126219   5.851   1.790   4.261
 8625SOL    HW226220   5.861   1.713   4.117
 8626SOL     OW26221   6.713   1.341   5.414
 8626SOL    HW126222   6.760   1.341   5.502
 8626SOL    HW226223   6.665   1.254   5.403
 8627SOL     OW26224   5.816   1.434   4.262
 8627SOL    HW126225   5.790   1.530   4.262
 8627SOL    HW226226   5.745   1.380   4.307
 8628SOL     OW26227   5.826   1.091   4.610
 8628SOL    HW126228   5.840   1.007   4.662
 8628SOL    HW226229   5.771   1.155   4.665
 8629SOL     OW26230   6.206   1.786   5.163
 8629SOL    HW126231   6.114   1.769   5.198
 8629SOL    HW226232   6.234   1.878   5.189
 8630SOL     OW26233   6.192   0.964   3.847
 8630SOL    HW126234   6.199   1.048   3.793
 8630SOL    HW226235   6.238   0.977   3.935
 8631SOL     OW26236   5.708   0.643   4.287
 8631SOL    HW126237   5.663   0.555   4.304
 8631SOL    HW226238   5.707   0.697   4.371
 8632SOL     OW26239   7.428   1.767   4.083
 8632SOL    HW126240   7.482   1.738   4.163
 8632SOL    HW226241   7.458   1.857   4.054
 8633SOL     OW26242   5.613   1.596   3.841
 8633SOL    HW126243   5.594   1.500   3.862
 8633SOL    HW226244   5.580   1.654   3.916
 8634SOL     OW26245   7.275   0.922   4.336
 8634SOL    HW126246   7.370   0.893   4.344
 8634SOL    HW226247   7.267   0.987   4.261
 8635SOL     OW26248   7.227   1.108   4.156
 8635SOL    HW126249   7.313   1.110   4.104
 8635SOL    HW226250   7.241   1.155   4.244
 8636SOL     OW26251   5.699   0.737   5.321
 8636SOL    HW126252   5.787   0.724   5.366
 8636SOL    HW226253   5.686   0.834   5.299
 8637SOL     OW26254   6.199   1.365   4.450
 8637SOL    HW126255   6.150   1.278   4.459
 8637SOL    HW226256   6.176   1.408   4.363
 8638SOL     OW26257   6.879   1.228   5.147
 8638SOL    HW126258   6.916   1.155   5.089
 8638SOL    HW226259   6.931   1.233   5.232
 8639SOL     OW26260   5.783   0.976   4.988
 8639SOL    HW126261   5.872   0.931   4.974
 8639SOL    HW226262   5.710   0.911   4.969
 8640SOL     OW26263   7.111   0.999   3.914
 8640SOL    HW126264   7.048   0.923   3.927
 8640SOL    HW226265   7.159   1.017   4.000
 8641SOL     OW26266   6.773   1.792   5.340
 8641SOL    HW126267   6.797   1.852   5.264
 8641SOL    HW226268   6.780   1.697   5.310
 8642SOL     OW26269   5.903   0.251   5.525
 8642SOL    HW126270   5.974   0.322   5.531
 8642SOL    HW226271   5.815   0.290   5.553
 8643SOL     OW26272   7.052   1.417   4.677
 8643SOL    HW126273   6.993   1.423   4.757
 8643SOL    HW226274   7.037   1.329   4.631
 8644SOL     OW26275   7.253   1.714   4.296
 8644SOL    HW126276   7.212   1.691   4.208
 8644SOL    HW226277   7.235   1.640   4.361
 8645SOL     OW26278   6.184   0.729   3.994
 8645SOL    HW126279   6.208   0.798   3.926
 8645SOL    HW226280   6.106   0.762   4.048
 8646SOL     OW26281   7.162   1.662   4.031
 8646SOL    HW126282   7.251   1.708   4.034
 8646SOL    HW226283   7.141   1.638   3.936
 8647SOL     OW26284   6.393   0.605   5.189
 8647SOL    HW126285   6.346   0.602   5.278
 8647SOL    HW226286   6.342   0.550   5.123
 8648SOL     OW26287   6.980   0.469   5.398
 8648SOL    HW126288   6.960   0.512   5.486
 8648SOL    HW226289   7.058   0.407   5.407
 8649SOL     OW26290   6.559   0.890   5.296
 8649SOL    HW126291   6.605   0.806   5.267
 8649SOL    HW226292   6.503   0.924   5.221
 8650SOL     OW26293   6.577   0.410   4.966
 8650SOL    HW126294   6.500   0.444   5.020
 8650SOL    HW226295   6.543   0.359   4.887
 8651SOL     OW26296   6.627   0.701   4.153
 8651SOL    HW126297   6.653   0.697   4.249
 8651SOL    HW226298   6.542   0.650   4.139
 8652SOL     OW26299   5.662   0.811   4.513
 8652SOL    HW126300   5.761   0.799   4.522
 8652SOL    HW226301   5.638   0.906   4.534
 8653SOL     OW26302   5.716   1.821   5.295
 8653SOL    HW126303   5.706   1.806   5.394
 8653SOL    HW226304   5.630   1.857   5.259
 8654SOL     OW26305   6.451   0.348   3.919
 8654SOL    HW126306   6.510   0.411   3.870
 8654SOL    HW226307   6.470   0.254   3.890
 8655SOL     OW26308   7.305   0.585   5.555
 8655SOL    HW126309   7.279   0.674   5.519
 8655SOL    HW226310   7.303   0.517   5.482
 8656SOL     OW26311   6.948   1.144   4.269
 8656SOL    HW126312   7.031   1.115   4.221
 8656SOL    HW226313   6.899   1.211   4.213
 8657SOL     OW26314   6.594   1.456   4.201
 8657SOL    HW126315   6.548   1.528   4.149
 8657SOL    HW226316   6.590   1.476   4.299
 8658SOL     OW26317   5.937   1.801   4.577
 8658SOL    HW126318   5.987   1.715   4.583
 8658SOL    HW226319   6.002   1.878   4.574
 8659SOL     OW26320   7.381   1.066   4.597
 8659SOL    HW126321   7.319   1.051   4.521
 8659SOL    HW226322   7.329   1.077   4.682
 8660SOL     OW26323   6.813   1.550   5.230
 8660SOL    HW126324   6.819   1.473   5.294
 8660SOL    HW226325   6.761   1.524   5.150
 8661SOL     OW26326   5.907   0.943   3.966
 8661SOL    HW126327   5.989   0.982   3.924
 8661SOL    HW226328   5.880   0.861   3.917
 8662SOL     OW26329   7.044   0.735   4.452
 8662SOL    HW126330   7.039   0.670   4.527
 8662SOL    HW226331   7.124   0.794   4.465
 8663SOL     OW26332   6.047   1.266   5.451
 8663SOL    HW126333   5.997   1.267   5.365
 8663SOL    HW226334   5.984   1.248   5.527
 8664SOL     OW26335   6.697   1.776   3.961
 8664SOL    HW126336   6.637   1.714   4.011
 8664SOL    HW226337   6.728   1.732   3.876
 8665SOL     OW26338   7.218   1.377   3.805
 8665SOL    HW126339   7.186   1.471   3.795
 8665SOL    HW226340   7.142   1.314   3.793
 8666SOL     OW26341   6.050   1.743   4.047
 8666SOL    HW126342   6.083   1.782   4.133
 8666SOL    HW226343   6.126   1.736   3.982
 8667SOL     OW26344   5.835   1.785   4.965
 8667SOL    HW126345   5.892   1.720   5.015
 8667SOL    HW226346   5.819   1.752   4.872
 8668SOL     OW26347   6.526   1.698   4.628
 8668SOL    HW126348   6.606   1.641   4.649
 8668SOL    HW226349   6.477   1.658   4.551
 8669SOL     OW26350   5.968   0.700   4.204
 8669SOL    HW126351   6.013   0.610   4.201
 8669SOL    HW226352   5.874   0.689   4.237
 8670SOL     OW26353   6.367   0.264   5.473
 8670SOL    HW126354   6.434   0.203   5.516
 8670SOL    HW226355   6.294   0.283   5.538
 8671SOL     OW26356   6.474   1.514   4.919
 8671SOL    HW126357   6.451   1.489   4.825
 8671SOL    HW226358   6.535   1.445   4.958
 8672SOL     OW26359   6.937   0.590   5.157
 8672SOL    HW126360   6.965   0.547   5.242
 8672SOL    HW226361   6.962   0.686   5.158
 8673SOL     OW26362   6.389   1.402   4.648
 8673SOL    HW126363   6.479   1.416   4.606
 8673SOL    HW226364   6.318   1.404   4.577
 8674SOL     OW26365   6.508   0.503   4.623
 8674SOL    HW126366   6.483   0.494   4.527
 8674SOL    HW226367   6.556   0.421   4.654
 8675SOL     OW26368   6.125   0.064   4.236
 8675SOL    HW126369   6.044   0.065   4.294
 8675SOL    HW226370   6.128   0.147   4.181
 8676SOL     OW26371   7.020   1.188   3.765
 8676SOL    HW126372   7.052   1.112   3.822
 8676SOL    HW226373   6.928   1.215   3.795
 8677SOL     OW26374   6.662   0.683   5.188
 8677SOL    HW126375   6.582   0.622   5.191
 8677SOL    HW226376   6.743   0.630   5.164
 8678SOL     OW26377   6.813   1.570   4.517
 8678SOL    HW126378   6.834   1.644   4.452
 8678SOL    HW226379   6.881   1.570   4.590
 8679SOL     OW26380   6.045   1.152   4.465
 8679SOL    HW126381   5.974   1.125   4.530
 8679SOL    HW226382   6.019   1.124   4.372
 8680SOL     OW26383   6.857   1.797   4.315
 8680SOL    HW126384   6.901   1.861   4.251
 8680SOL    HW226385   6.807   1.849   4.385
 8681SOL     OW26386   6.618   0.549   3.740
 8681SOL    HW126387   6.577   0.631   3.701
 8681SOL    HW226388   6.682   0.575   3.813
 8682SOL     OW26389   5.664   0.556   5.110
 8682SOL    HW126390   5.756   0.555   5.069
 8682SOL    HW226391   5.658   0.630   5.177
 8683SOL     OW26392   6.452   0.454   4.366
 8683SOL    HW126393   6.420   0.526   4.304
 8683SOL    HW226394   6.476   0.373   4.313
 8684SOL     OW26395   7.015   1.173   4.591
 8684SOL    HW126396   6.960   1.089   4.584
 8684SOL    HW226397   7.041   1.202   4.499
 8685SOL     OW26398   7.052   0.590   4.716
 8685SOL    HW126399   7.022   0.495   4.723
 8685SOL    HW226400   7.125   0.606   4.782
 8686SOL     OW26401   7.443   0.833   4.101
 8686SOL    HW126402   7.485   0.769   4.165
 8686SOL    HW226403   7.405   0.782   4.023
 8687SOL     OW26404   6.074   1.385   3.898
 8687SOL    HW126405   5.987   1.370   3.945
 8687SOL    HW226406   6.057   1.411   3.803
 8688SOL     OW26407   7.250   1.280   4.381
 8688SOL    HW126408   7.349   1.288   4.395
 8688SOL    HW226409   7.205   1.364   4.412
 8689SOL     OW26410   6.976   0.575   3.802
 8689SOL    HW126411   6.922   0.554   3.883
 8689SOL    HW226412   7.067   0.534   3.811
 8690SOL     OW26413   7.340   1.223   5.312
 8690SOL    HW126414   7.431   1.184   5.299
 8690SOL    HW226415   7.348   1.319   5.336
 8691SOL     OW26416   6.650   1.347   5.064
 8691SOL    HW126417   6.570   1.324   5.119
 8691SOL    HW226418   6.733   1.321   5.113
 8692SOL     OW26419   7.178   1.629   5.349
 8692SOL    HW126420   7.205   1.663   5.259
 8692SOL    HW226421   7.257   1.591   5.395
 8693SOL     OW26422   6.697   1.195   4.824
 8693SOL    HW126423   6.657   1.239   4.905
 8693SOL    HW226424   6.656   1.232   4.741
 8694SOL     OW26425   7.224   1.099   4.803
 8694SOL    HW126426   7.229   1.180   4.862
 8694SOL    HW226427   7.138   1.101   4.752
 8695SOL     OW26428   6.566   1.116   5.443
 8695SOL    HW126429   6.467   1.122   5.453
 8695SOL    HW226430   6.589   1.036   5.387
 8696SOL     OW26431   6.291   1.050   4.092
 8696SOL    HW126432   6.277   1.057   4.191
 8696SOL    HW226433   6.375   0.999   4.074
 8697SOL     OW26434   5.996   0.813   4.975
 8697SOL    HW126435   6.082   0.825   5.025
 8697SOL    HW226436   5.954   0.726   5.002
 8698SOL     OW26437   6.860   0.386   4.986
 8698SOL    HW126438   6.881   0.460   5.050
 8698SOL    HW226439   6.771   0.403   4.943
 8699SOL     OW26440   5.650   1.564   5.055
 8699SOL    HW126441   5.604   1.646   5.021
 8699SOL    HW226442   5.748   1.583   5.064
 8700SOL     OW26443   5.953   1.100   4.225
 8700SOL    HW126444   5.946   1.183   4.169
 8700SOL    HW226445   5.957   1.020   4.165
 8701SOL     OW26446   6.152   0.537   4.589
 8701SOL    HW126447   6.164   0.603   4.515
 8701SOL    HW226448   6.198   0.571   4.672
 8702SOL     OW26449   6.838   1.348   4.112
 8702SOL    HW126450   6.888   1.425   4.152
 8702SOL    HW226451   6.743   1.350   4.144
 8703SOL     OW26452   6.858   1.445   4.866
 8703SOL    HW126453   6.905   1.458   4.953
 8703SOL    HW226454   6.792   1.371   4.875
 8704SOL     OW26455   7.168   0.639   4.196
 8704SOL    HW126456   7.137   0.700   4.269
 8704SOL    HW226457   7.218   0.691   4.127
 8705SOL     OW26458   5.940   1.510   5.053
 8705SOL    HW126459   5.919   1.466   4.966
 8705SOL    HW226460   6.037   1.536   5.056
 8706SOL     OW26461   5.988   0.751   5.322
 8706SOL    HW126462   6.056   0.806   5.275
 8706SOL    HW226463   6.028   0.663   5.349
 8707SOL     OW26464   7.173   0.779   5.394
 8707SOL    HW126465   7.081   0.817   5.389
 8707SOL    HW226466   7.233   0.826   5.329
 8708SOL     OW26467   6.159   0.870   4.753
 8708SOL    HW126468   6.203   0.959   4.744
 8708SOL    HW226469   6.096   0.870   4.830
 8709SOL     OW26470   6.946   0.862   4.769
 8709SOL    HW126471   6.871   0.862   4.703
 8709SOL    HW226472   6.983   0.770   4.778
 8710SOL     OW26473   6.795   0.525   3.999
 8710SOL    HW126474   6.808   0.441   4.053
 8710SOL    HW226475   6.766   0.599   4.059
 8711SOL     OW26476   5.893   0.213   4.955
 8711SOL    HW126477   5.870   0.250   5.045
 8711SOL    HW226478   5.863   0.118   4.949
 8712SOL     OW26479   5.623   1.310   5.006
 8712SOL    HW126480   5.676   1.261   5.074
 8712SOL    HW226481   5.645   1.408   5.011
 8713SOL     OW26482   6.318   0.634   4.788
 8713SOL    HW126483   6.377   0.608   4.712
 8713SOL    HW226484   6.290   0.730   4.777
 8714SOL     OW26485   7.314   0.935   5.578
 8714SOL    HW126486   7.268   0.928   5.489
 8714SOL    HW226487   7.252   0.979   5.644
 8715SOL     OW26488   6.609   0.766   4.690
 8715SOL    HW126489   6.624   0.787   4.786
 8715SOL    HW226490   6.579   0.671   4.681
 8716SOL     OW26491   6.566   1.573   5.424
 8716SOL    HW126492   6.546   1.617   5.336
 8716SOL    HW226493   6.605   1.482   5.408
 8717SOL     OW26494   7.445   1.518   5.329
 8717SOL    HW126495   7.459   1.545   5.234
 8717SOL    HW226496   7.528   1.540   5.382
 8718SOL     OW26497   5.936   0.898   5.528
 8718SOL    HW126498   6.012   0.942   5.576
 8718SOL    HW226499   5.971   0.851   5.446
 8719SOL     OW26500   6.889   0.838   3.766
 8719SOL    HW126501   6.923   0.745   3.781
 8719SOL    HW226502   6.907   0.865   3.671
 8720SOL     OW26503   6.654   1.333   4.573
 8720SOL    HW126504   6.661   1.249   4.518
 8720SOL    HW226505   6.716   1.402   4.537
 8721SOL     OW26506   5.905   0.810   4.673
 8721SOL    HW126507   5.998   0.846   4.678
 8721SOL    HW226508   5.899   0.725   4.725
 8722SOL     OW26509   5.925   0.509   4.730
 8722SOL    HW126510   5.873   0.426   4.713
 8722SOL    HW226511   6.002   0.514   4.666
 8723SOL     OW26512   6.724   0.380   5.402
 8723SOL    HW126513   6.679   0.443   5.466
 8723SOL    HW226514   6.817   0.411   5.385
 8724SOL     OW26515   5.594   1.326   3.924
 8724SOL    HW126516   5.501   1.347   3.893
 8724SOL    HW226517   5.604   1.227   3.937
 8725SOL     OW26518   5.674   1.801   4.651
 8725SOL    HW126519   5.632   1.715   4.624
 8725SOL    HW226520   5.768   1.804   4.617
 8726SOL     OW26521   6.090   1.568   4.634
 8726SOL    HW126522   6.156   1.642   4.643
 8726SOL    HW226523   6.134   1.489   4.592
 8727SOL     OW26524   6.588   0.796   4.962
 8727SOL    HW126525   6.629   0.764   5.048
 8727SOL    HW226526   6.492   0.769   4.959
 8728SOL     OW26527   5.626   0.544   4.838
 8728SOL    HW126528   5.711   0.511   4.797
 8728SOL    HW226529   5.639   0.559   4.936
 8729SOL     OW26530   5.775   0.520   5.446
 8729SOL    HW126531   5.834   0.480   5.376
 8729SOL    HW226532   5.717   0.591   5.405
 8730SOL     OW26533   6.955   0.950   5.384
 8730SOL    HW126534   6.994   1.039   5.404
 8730SOL    HW226535   6.965   0.930   5.287
 8731SOL     OW26536   6.401   0.572   4.049
 8731SOL    HW126537   6.408   0.483   4.003
 8731SOL    HW226538   6.307   0.606   4.041
 8732SOL     OW26539   7.243   0.604   4.930
 8732SOL    HW126540   7.205   0.535   4.992
 8732SOL    HW226541   7.325   0.568   4.886
 8733SOL     OW26542   5.838   1.564   5.468
 8733SOL    HW126543   5.808   1.621   5.544
 8733SOL    HW226544   5.831   1.467   5.494
 8734SOL     OW26545   6.257   0.464   4.993
 8734SOL    HW126546   6.223   0.375   4.963
 8734SOL    HW226547   6.283   0.518   4.913
 8735SOL     OW26548   6.516   1.678   5.189
 8735SOL    HW126549   6.492   1.660   5.094
 8735SOL    HW226550   6.546   1.772   5.199
 8736SOL     OW26551   6.059   0.500   3.915
 8736SOL    HW126552   6.120   0.580   3.919
 8736SOL    HW226553   5.964   0.531   3.922
 8737SOL     OW26554   5.745   1.137   5.190
 8737SOL    HW126555   5.767   1.076   5.266
 8737SOL    HW226556   5.755   1.088   5.104
 8738SOL     OW26557   6.933   1.059   4.958
 8738SOL    HW126558   6.957   0.996   4.884
 8738SOL    HW226559   6.843   1.099   4.940
 8739SOL     OW26560   6.888   0.855   4.033
 8739SOL    HW126561   6.802   0.824   4.075
 8739SOL    HW226562   6.884   0.841   3.934
 8740SOL     OW26563   7.345   1.747   4.878
 8740SOL    HW126564   7.406   1.777   4.805
 8740SOL    HW226565   7.307   1.658   4.856
 8741SOL     OW26566   6.838   1.731   4.852
 8741SOL    HW126567   6.922   1.736   4.798
 8741SOL    HW226568   6.815   1.635   4.870
 8742SOL     OW26569   5.669   1.258   4.746
 8742SOL    HW126570   5.664   1.257   4.846
 8742SOL    HW226571   5.586   1.217   4.708
 8743SOL     OW26572   6.274   1.662   5.440
 8743SOL    HW126573   6.218   1.743   5.449
 8743SOL    HW226574   6.326   1.666   5.354
 8744SOL     OW26575   6.974   1.573   4.201
 8744SOL    HW126576   7.041   1.585   4.127
 8744SOL    HW226577   6.934   1.662   4.224
 8745SOL     OW26578   5.716   1.794   5.575
 8745SOL    HW126579   5.675   1.720   5.628
 8745SOL    HW226580   5.780   1.845   5.633
 8746SOL     OW26581   6.866   0.927   4.396
 8746SOL    HW126582   6.926   0.846   4.398
 8746SOL    HW226583   6.906   0.996   4.336
 8747SOL     OW26584   6.416   1.273   5.146
 8747SOL    HW126585   6.411   1.306   5.241
 8747SOL    HW226586   6.330   1.292   5.100
 8748SOL     OW26587   6.258   1.616   3.878
 8748SOL    HW126588   6.267   1.626   3.779
 8748SOL    HW226589   6.218   1.527   3.899
 8749SOL     OW26590   7.236   1.720   5.118
 8749SOL    HW126591   7.289   1.730   5.034
 8749SOL    HW226592   7.209   1.810   5.152
 8750SOL     OW26593   5.849   0.326   4.444
 8750SOL    HW126594   5.770   0.377   4.410
 8750SOL    HW226595   5.840   0.311   4.542
 8751SOL     OW26596   6.780   1.612   3.755
 8751SOL    HW126597   6.786   1.519   3.792
 8751SOL    HW226598   6.721   1.612   3.675
 8752SOL     OW26599   6.408   1.002   5.096
 8752SOL    HW126600   6.448   1.001   5.004
 8752SOL    HW226601   6.418   1.094   5.136
 8753SOL     OW26602   6.502   0.910   4.015
 8753SOL    HW126603   6.565   0.948   3.947
 8753SOL    HW226604   6.542   0.827   4.054
 8754SOL     OW26605   7.090   1.607   3.768
 8754SOL    HW126606   6.998   1.644   3.775
 8754SOL    HW226607   7.128   1.627   3.678
 8755SOL     OW26608   5.958   1.288   5.214
 8755SOL    HW126609   5.945   1.381   5.180
 8755SOL    HW226610   5.874   1.236   5.201
 8756SOL     OW26611   7.200   1.292   5.013
 8756SOL    HW126612   7.260   1.295   5.093
 8756SOL    HW226613   7.125   1.356   5.026
 8757SOL     OW26614   6.625   1.098   4.420
 8757SOL    HW126615   6.555   1.051   4.474
 8757SOL    HW226616   6.684   1.030   4.377
 8758SOL     OW26617   6.176   1.487   4.215
 8758SOL    HW126618   6.218   1.429   4.145
 8758SOL    HW226619   6.132   1.566   4.171
 8759SOL     OW26620   7.295   0.385   5.105
 8759SOL    HW126621   7.368   0.454   5.109
 8759SOL    HW226622   7.323   0.310   5.046
 8760SOL     OW26623   5.841   1.348   4.014
 8760SOL    HW126624   5.745   1.349   3.987
 8760SOL    HW226625   5.853   1.401   4.098
 8761SOL     OW26626   5.691   1.013   5.450
 8761SOL    HW126627   5.614   0.980   5.504
 8761SOL    HW226628   5.776   0.983   5.492
 8762SOL     OW26629   5.661   0.345   3.757
 8762SOL    HW126630   5.569   0.317   3.728
 8762SOL    HW226631   5.692   0.422   3.701
 8763SOL     OW26632   7.026   0.856   5.122
 8763SOL    HW126633   6.969   0.908   5.059
 8763SOL    HW226634   7.122   0.868   5.098
 8764SOL     OW26635   6.769   1.335   3.843
 8764SOL    HW126636   6.670   1.324   3.845
 8764SOL    HW226637   6.803   1.350   3.936
 8765SOL     OW26638   6.199   0.842   5.155
 8765SOL    HW126639   6.255   0.923   5.138
 8765SOL    HW226640   6.258   0.762   5.158
 8766SOL     OW26641   7.079   1.767   4.683
 8766SOL    HW126642   7.112   1.831   4.614
 8766SOL    HW226643   7.145   1.761   4.758
 8767SOL     OW26644   6.302   0.565   5.432
 8767SOL    HW126645   6.321   0.630   5.506
 8767SOL    HW226646   6.362   0.485   5.441
 8768SOL     OW26647   7.036   1.220   5.357
 8768SOL    HW126648   7.027   1.210   5.456
 8768SOL    HW226649   7.132   1.213   5.331
 8769SOL     OW26650   5.976   1.741   5.284
 8769SOL    HW126651   5.885   1.782   5.282
 8769SOL    HW226652   5.969   1.647   5.316
 8770SOL     OW26653   7.260   0.883   4.978
 8770SOL    HW126654   7.233   0.794   4.941
 8770SOL    HW226655   7.261   0.951   4.905
 8771SOL     OW26656   6.180   0.745   4.376
 8771SOL    HW126657   6.230   0.830   4.357
 8771SOL    HW226658   6.092   0.747   4.328
 8772SOL     OW26659   7.363   0.342   5.366
 8772SOL    HW126660   7.346   0.373   5.272
 8772SOL    HW226661   7.279   0.305   5.404
 8773SOL     OW26662   7.316   0.934   5.241
 8773SOL    HW126663   7.354   1.025   5.256
 8773SOL    HW226664   7.308   0.917   5.142
 8774SOL     OW26665   6.445   1.374   3.740
 8774SOL    HW126666   6.399   1.389   3.828
 8774SOL    HW226667   6.489   1.459   3.710
 8775SOL     OW26668   6.247   1.790   4.677
 8775SOL    HW126669   6.201   1.878   4.664
 8775SOL    HW226670   6.346   1.802   4.670
 8776SOL     OW26671   6.445   0.956   4.585
 8776SOL    HW126672   6.499   0.887   4.633
 8776SOL    HW226673   6.413   1.025   4.651
 8777SOL     OW26674   6.669   0.984   3.811
 8777SOL    HW126675   6.646   1.037   3.729
 8777SOL    HW226676   6.750   0.928   3.792
 8778SOL     OW26677   7.447   1.569   4.575
 8778SOL    HW126678   7.376   1.557   4.505
 8778SOL    HW226679   7.448   1.490   4.635
 8779SOL     OW26680   5.807   1.314   5.568
 8779SOL    HW126681   5.742   1.241   5.547
 8779SOL    HW226682   5.811   1.328   5.666
 8780SOL     OW26683   5.665   1.240   4.377
 8780SOL    HW126684   5.664   1.193   4.465
 8780SOL    HW226685   5.747   1.212   4.326
 8781SOL     OW26686   6.258   1.391   5.348
 8781SOL    HW126687   6.180   1.341   5.386
 8781SOL    HW226688   6.255   1.486   5.379
 8782SOL     OW26689   7.410   0.192   4.951
 8782SOL    HW126690   7.406   0.102   4.995
 8782SOL    HW226691   7.413   0.181   4.852
 8783SOL     OW26692   6.014   0.424   4.244
 8783SOL    HW126693   6.044   0.352   4.182
 8783SOL    HW226694   5.975   0.384   4.327
 8784SOL     OW26695   7.291   1.487   4.828
 8784SOL    HW126696   7.198   1.462   4.801
 8784SOL    HW226697   7.317   1.437   4.910
 8785SOL     OW26698   5.903   0.547   5.004
 8785SOL    HW126699   5.941   0.488   5.076
 8785SOL    HW226700   5.943   0.521   4.916
 8786SOL     OW26701   6.398   1.586   4.411
 8786SOL    HW126702   6.430   1.596   4.317
 8786SOL    HW226703   6.319   1.524   4.413
 8787SOL     OW26704   6.356   1.330   4.025
 8787SOL    HW126705   6.310   1.243   4.042
 8787SOL    HW226706   6.447   1.327   4.066
 8788SOL     OW26707   6.204   1.567   5.008
 8788SOL    HW126708   6.199   1.649   5.065
 8788SOL    HW226709   6.293   1.564   4.963
 8789SOL     OW26710   6.886   0.453   4.415
 8789SOL    HW126711   6.827   0.533   4.419
 8789SOL    HW226712   6.901   0.418   4.508
 8790SOL     OW26713   5.625   1.077   4.024
 8790SOL    HW126714   5.724   1.066   4.015
 8790SOL    HW226715   5.585   0.991   4.056
 8791SOL     OW26716   6.461   1.646   4.061
 8791SOL    HW126717   6.384   1.611   4.007
 8791SOL    HW226718   6.429   1.717   4.123
 8792SOL     OW26719   5.816   0.628   5.699
 8792SOL    HW126720   5.723   0.626   5.736
 8792SOL    HW226721   5.817   0.589   5.607
 8793SOL     OW26722   5.605   0.368   6.233
 8793SOL    HW126723   5.523   0.411   6.272
 8793SOL    HW226724   5.577   0.295   6.170
 8794SOL     OW26725   7.341   0.607   5.817
 8794SOL    HW126726   7.329   0.594   5.718
 8794SOL    HW226727   7.311   0.526   5.866
 8795SOL     OW26728   6.271   1.012   6.251
 8795SOL    HW126729   6.340   0.996   6.321
 8795SOL    HW226730   6.198   1.069   6.289
 8796SOL     OW26731   6.192   0.964   5.709
 8796SOL    HW126732   6.199   1.048   5.655
 8796SOL    HW226733   6.238   0.977   5.797
 8797SOL     OW26734   7.428   1.767   5.945
 8797SOL    HW126735   7.482   1.738   6.025
 8797SOL    HW226736   7.458   1.857   5.916
 8798SOL     OW26737   5.613   1.596   5.703
 8798SOL    HW126738   5.594   1.500   5.724
 8798SOL    HW226739   5.580   1.654   5.778
 8799SOL     OW26740   7.275   0.922   6.198
 8799SOL    HW126741   7.370   0.893   6.206
 8799SOL    HW226742   7.267   0.987   6.123
 8800SOL     OW26743   7.227   1.108   6.018
 8800SOL    HW126744   7.313   1.110   5.966
 8800SOL    HW226745   7.241   1.155   6.106
 8801SOL     OW26746   7.111   0.999   5.776
 8801SOL    HW126747   7.048   0.923   5.789
 8801SOL    HW226748   7.159   1.017   5.862
 8802SOL     OW26749   6.184   0.729   5.856
 8802SOL    HW126750   6.208   0.798   5.788
 8802SOL    HW226751   6.106   0.762   5.910
 8803SOL     OW26752   7.162   1.662   5.893
 8803SOL    HW126753   7.251   1.708   5.896
 8803SOL    HW226754   7.141   1.638   5.798
 8804SOL     OW26755   6.627   0.701   6.015
 8804SOL    HW126756   6.653   0.697   6.111
 8804SOL    HW226757   6.542   0.650   6.001
 8805SOL     OW26758   6.451   0.348   5.781
 8805SOL    HW126759   6.510   0.411   5.732
 8805SOL    HW226760   6.470   0.254   5.752
 8806SOL     OW26761   6.948   1.144   6.131
 8806SOL    HW126762   7.031   1.115   6.083
 8806SOL    HW226763   6.899   1.211   6.075
 8807SOL     OW26764   6.594   1.456   6.063
 8807SOL    HW126765   6.548   1.528   6.011
 8807SOL    HW226766   6.590   1.476   6.161
 8808SOL     OW26767   5.907   0.943   5.828
 8808SOL    HW126768   5.989   0.982   5.786
 8808SOL    HW226769   5.880   0.861   5.779
 8809SOL     OW26770   6.697   1.776   5.823
 8809SOL    HW126771   6.637   1.714   5.873
 8809SOL    HW226772   6.728   1.732   5.738
 8810SOL     OW26773   7.218   1.377   5.667
 8810SOL    HW126774   7.186   1.471   5.657
 8810SOL    HW226775   7.142   1.314   5.655
 8811SOL     OW26776   6.050   1.743   5.909
 8811SOL    HW126777   6.083   1.782   5.995
 8811SOL    HW226778   6.126   1.736   5.844
 8812SOL     OW26779   6.526   1.698   6.490
 8812SOL    HW126780   6.606   1.641   6.511
 8812SOL    HW226781   6.477   1.658   6.413
 8813SOL     OW26782   5.968   0.700   6.066
 8813SOL    HW126783   6.013   0.610   6.063
 8813SOL    HW226784   5.874   0.689   6.099
 8814SOL     OW26785   6.508   0.503   6.485
 8814SOL    HW126786   6.483   0.494   6.389
 8814SOL    HW226787   6.556   0.421   6.516
 8815SOL     OW26788   6.125   0.064   6.098
 8815SOL    HW126789   6.044   0.065   6.156
 8815SOL    HW226790   6.128   0.147   6.043
 8816SOL     OW26791   7.020   1.188   5.627
 8816SOL    HW126792   7.052   1.112   5.684
 8816SOL    HW226793   6.928   1.215   5.657
 8817SOL     OW26794   6.618   0.549   5.602
 8817SOL    HW126795   6.577   0.631   5.563
 8817SOL    HW226796   6.682   0.575   5.675
 8818SOL     OW26797   7.443   0.833   5.963
 8818SOL    HW126798   7.485   0.769   6.027
 8818SOL    HW226799   7.405   0.782   5.885
 8819SOL     OW26800   6.074   1.385   5.760
 8819SOL    HW126801   5.987   1.370   5.807
 8819SOL    HW226802   6.057   1.411   5.665
 8820SOL     OW26803   6.976   0.575   5.664
 8820SOL    HW126804   6.922   0.554   5.745
 8820SOL    HW226805   7.067   0.534   5.673
 8821SOL     OW26806   6.291   1.050   5.954
 8821SOL    HW126807   6.277   1.057   6.053
 8821SOL    HW226808   6.375   0.999   5.936
 8822SOL     OW26809   5.953   1.100   6.087
 8822SOL    HW126810   5.946   1.183   6.031
 8822SOL    HW226811   5.957   1.020   6.027
 8823SOL     OW26812   6.838   1.348   5.974
 8823SOL    HW126813   6.888   1.425   6.014
 8823SOL    HW226814   6.743   1.350   6.006
 8824SOL     OW26815   7.168   0.639   6.058
 8824SOL    HW126816   7.137   0.700   6.131
 8824SOL    HW226817   7.218   0.691   5.989
 8825SOL     OW26818   6.795   0.525   5.861
 8825SOL    HW126819   6.808   0.441   5.915
 8825SOL    HW226820   6.766   0.599   5.921
 8826SOL     OW26821   6.889   0.838   5.628
 8826SOL    HW126822   6.923   0.745   5.643
 8826SOL    HW226823   6.907   0.865   5.533
 8827SOL     OW26824   5.594   1.326   5.786
 8827SOL    HW126825   5.501   1.347   5.755
 8827SOL    HW226826   5.604   1.227   5.799
 8828SOL     OW26827   6.401   0.572   5.911
 8828SOL    HW126828   6.408   0.483   5.865
 8828SOL    HW226829   6.307   0.606   5.903
 8829SOL     OW26830   6.059   0.500   5.777
 8829SOL    HW126831   6.120   0.580   5.781
 8829SOL    HW226832   5.964   0.531   5.784
 8830SOL     OW26833   6.888   0.855   5.895
 8830SOL    HW126834   6.802   0.824   5.937
 8830SOL    HW226835   6.884   0.841   5.796
 8831SOL     OW26836   6.974   1.573   6.063
 8831SOL    HW126837   7.041   1.585   5.989
 8831SOL    HW226838   6.934   1.662   6.086
 8832SOL     OW26839   6.866   0.927   6.258
 8832SOL    HW126840   6.926   0.846   6.260
 8832SOL    HW226841   6.906   0.996   6.198
 8833SOL     OW26842   6.258   1.616   5.740
 8833SOL    HW126843   6.267   1.626   5.641
 8833SOL    HW226844   6.218   1.527   5.761
 8834SOL     OW26845   6.780   1.612   5.617
 8834SOL    HW126846   6.786   1.519   5.654
 8834SOL    HW226847   6.721   1.612   5.537
 8835SOL     OW26848   6.502   0.910   5.877
 8835SOL    HW126849   6.565   0.948   5.809
 8835SOL    HW226850   6.542   0.827   5.916
 8836SOL     OW26851   7.090   1.607   5.630
 8836SOL    HW126852   6.998   1.644   5.637
 8836SOL    HW226853   7.128   1.627   5.540
 8837SOL     OW26854   6.176   1.487   6.077
 8837SOL    HW126855   6.218   1.429   6.007
 8837SOL    HW226856   6.132   1.566   6.033
 8838SOL     OW26857   5.841   1.348   5.876
 8838SOL    HW126858   5.745   1.349   5.849
 8838SOL    HW226859   5.853   1.401   5.960
 8839SOL     OW26860   5.661   0.345   5.619
 8839SOL    HW126861   5.569   0.317   5.590
 8839SOL    HW226862   5.692   0.422   5.563
 8840SOL     OW26863   6.769   1.335   5.705
 8840SOL    HW126864   6.670   1.324   5.707
 8840SOL    HW226865   6.803   1.350   5.798
 8841SOL     OW26866   6.445   1.374   5.602
 8841SOL    HW126867   6.399   1.389   5.690
 8841SOL    HW226868   6.489   1.459   5.572
 8842SOL     OW26869   6.669   0.984   5.673
 8842SOL    HW126870   6.646   1.037   5.591
 8842SOL    HW226871   6.750   0.928   5.654
 8843SOL     OW26872   6.014   0.424   6.106
 8843SOL    HW126873   6.044   0.352   6.044
 8843SOL    HW226874   5.975   0.384   6.189
 8844SOL     OW26875   6.398   1.586   6.273
 8844SOL    HW126876   6.430   1.596   6.179
 8844SOL    HW226877   6.319   1.524   6.275
 8845SOL     OW26878   6.356   1.330   5.887
 8845SOL    HW126879   6.310   1.243   5.904
 8845SOL    HW226880   6.447   1.327   5.928
 8846SOL     OW26881   6.886   0.453   6.277
 8846SOL    HW126882   6.827   0.533   6.281
 8846SOL    HW226883   6.901   0.418   6.370
 8847SOL     OW26884   5.625   1.077   5.886
 8847SOL    HW126885   5.724   1.066   5.877
 8847SOL    HW226886   5.585   0.991   5.918
 8848SOL     OW26887   6.461   1.646   5.923
 8848SOL    HW126888   6.384   1.611   5.869
 8848SOL    HW226889   6.429   1.717   5.985
 8849SOL     OW26890   5.811   2.137   0.996
 8849SOL    HW126891   5.846   2.120   1.088
 8849SOL    HW226892   5.723   2.092   0.984
 8850SOL     OW26893   5.605   2.230   0.647
 8850SOL    HW126894   5.523   2.273   0.686
 8850SOL    HW226895   5.577   2.157   0.584
 8851SOL     OW26896   6.155   3.137   1.165
 8851SOL    HW126897   6.062   3.130   1.128
 8851SOL    HW226898   6.166   3.226   1.209
 8852SOL     OW26899   7.141   3.373   0.703
 8852SOL    HW126900   7.084   3.357   0.784
 8852SOL    HW226901   7.082   3.383   0.623
 8853SOL     OW26902   6.721   2.565   0.717
 8853SOL    HW126903   6.778   2.643   0.692
 8853SOL    HW226904   6.661   2.591   0.793
 8854SOL     OW26905   6.354   3.006   1.023
 8854SOL    HW126906   6.276   3.023   1.083
 8854SOL    HW226907   6.388   3.093   0.987
 8855SOL     OW26908   6.436   2.660   1.823
 8855SOL    HW126909   6.432   2.736   1.888
 8855SOL    HW226910   6.458   2.696   1.732
 8856SOL     OW26911   6.271   2.874   0.665
 8856SOL    HW126912   6.340   2.858   0.735
 8856SOL    HW226913   6.198   2.931   0.703
 8857SOL     OW26914   6.272   3.023   1.803
 8857SOL    HW126915   6.332   3.102   1.817
 8857SOL    HW226916   6.186   3.054   1.762
 8858SOL     OW26917   5.921   3.297   1.061
 8858SOL    HW126918   5.843   3.266   1.008
 8858SOL    HW226919   5.979   3.355   1.004
 8859SOL     OW26920   7.046   3.367   1.339
 8859SOL    HW126921   7.070   3.461   1.365
 8859SOL    HW226922   7.030   3.313   1.421
 8860SOL     OW26923   6.024   2.254   1.499
 8860SOL    HW126924   6.106   2.198   1.508
 8860SOL    HW226925   5.943   2.196   1.503
 8861SOL     OW26926   7.189   2.309   0.737
 8861SOL    HW126927   7.115   2.355   0.687
 8861SOL    HW226928   7.240   2.377   0.790
 8862SOL     OW26929   5.817   3.575   0.483
 8862SOL    HW126930   5.851   3.652   0.537
 8862SOL    HW226931   5.861   3.575   0.393
 8863SOL     OW26932   6.713   3.203   1.690
 8863SOL    HW126933   6.760   3.203   1.778
 8863SOL    HW226934   6.665   3.116   1.679
 8864SOL     OW26935   5.816   3.296   0.538
 8864SOL    HW126936   5.790   3.392   0.538
 8864SOL    HW226937   5.745   3.242   0.583
 8865SOL     OW26938   5.826   2.953   0.886
 8865SOL    HW126939   5.840   2.869   0.938
 8865SOL    HW226940   5.771   3.017   0.941
 8866SOL     OW26941   6.206   3.648   1.439
 8866SOL    HW126942   6.114   3.631   1.474
 8866SOL    HW226943   6.234   3.740   1.465
 8867SOL     OW26944   7.180   1.976   1.480
 8867SOL    HW126945   7.162   2.043   1.408
 8867SOL    HW226946   7.177   2.022   1.569
 8868SOL     OW26947   5.708   2.505   0.563
 8868SOL    HW126948   5.663   2.417   0.580
 8868SOL    HW226949   5.707   2.559   0.647
 8869SOL     OW26950   7.275   2.784   0.612
 8869SOL    HW126951   7.370   2.755   0.620
 8869SOL    HW226952   7.267   2.849   0.537
 8870SOL     OW26953   7.227   2.970   0.432
 8870SOL    HW126954   7.313   2.972   0.380
 8870SOL    HW226955   7.241   3.017   0.520
 8871SOL     OW26956   5.699   2.599   1.597
 8871SOL    HW126957   5.787   2.586   1.642
 8871SOL    HW226958   5.686   2.696   1.575
 8872SOL     OW26959   6.199   3.227   0.726
 8872SOL    HW126960   6.150   3.140   0.735
 8872SOL    HW226961   6.176   3.270   0.639
 8873SOL     OW26962   6.879   3.090   1.423
 8873SOL    HW126963   6.916   3.017   1.365
 8873SOL    HW226964   6.931   3.095   1.508
 8874SOL     OW26965   6.395   1.866   0.502
 8874SOL    HW126966   6.435   1.957   0.493
 8874SOL    HW226967   6.295   1.874   0.508
 8875SOL     OW26968   5.783   2.838   1.264
 8875SOL    HW126969   5.872   2.793   1.250
 8875SOL    HW226970   5.710   2.773   1.245
 8876SOL     OW26971   6.773   3.654   1.616
 8876SOL    HW126972   6.797   3.714   1.540
 8876SOL    HW226973   6.780   3.559   1.586
 8877SOL     OW26974   5.903   2.113   1.801
 8877SOL    HW126975   5.974   2.184   1.807
 8877SOL    HW226976   5.815   2.152   1.829
 8878SOL     OW26977   7.052   3.279   0.953
 8878SOL    HW126978   6.993   3.285   1.033
 8878SOL    HW226979   7.037   3.191   0.907
 8879SOL     OW26980   7.253   3.576   0.572
 8879SOL    HW126981   7.212   3.553   0.484
 8879SOL    HW226982   7.235   3.502   0.637
 8880SOL     OW26983   6.184   2.591   0.270
 8880SOL    HW126984   6.208   2.660   0.202
 8880SOL    HW226985   6.106   2.624   0.324
 8881SOL     OW26986   6.867   2.207   0.944
 8881SOL    HW126987   6.781   2.157   0.931
 8881SOL    HW226988   6.929   2.153   1.000
 8882SOL     OW26989   6.393   2.467   1.465
 8882SOL    HW126990   6.346   2.464   1.554
 8882SOL    HW226991   6.342   2.412   1.399
 8883SOL     OW26992   6.980   2.331   1.674
 8883SOL    HW126993   6.960   2.374   1.762
 8883SOL    HW226994   7.058   2.269   1.683
 8884SOL     OW26995   6.559   2.752   1.572
 8884SOL    HW126996   6.605   2.668   1.543
 8884SOL    HW226997   6.503   2.786   1.497
 8885SOL     OW26998   6.577   2.272   1.242
 8885SOL    HW126999   6.500   2.306   1.296
 8885SOL    HW227000   6.543   2.221   1.163
 8886SOL     OW27001   6.627   2.563   0.429
 8886SOL    HW127002   6.653   2.559   0.525
 8886SOL    HW227003   6.542   2.512   0.415
 8887SOL     OW27004   5.662   2.673   0.789
 8887SOL    HW127005   5.761   2.661   0.798
 8887SOL    HW227006   5.638   2.768   0.810
 8888SOL     OW27007   5.716   3.683   1.571
 8888SOL    HW127008   5.706   3.668   1.670
 8888SOL    HW227009   5.630   3.719   1.535
 8889SOL     OW27010   7.305   2.447   1.831
 8889SOL    HW127011   7.279   2.536   1.795
 8889SOL    HW227012   7.303   2.379   1.758
 8890SOL     OW27013   6.948   3.006   0.545
 8890SOL    HW127014   7.031   2.977   0.497
 8890SOL    HW227015   6.899   3.073   0.489
 8891SOL     OW27016   6.136   2.058   0.885
 8891SOL    HW127017   6.131   2.053   0.985
 8891SOL    HW227018   6.138   2.154   0.856
 8892SOL     OW27019   6.594   3.318   0.477
 8892SOL    HW127020   6.548   3.390   0.425
 8892SOL    HW227021   6.590   3.338   0.575
 8893SOL     OW27022   5.937   3.663   0.853
 8893SOL    HW127023   5.987   3.577   0.859
 8893SOL    HW227024   6.002   3.740   0.850
 8894SOL     OW27025   7.381   2.928   0.873
 8894SOL    HW127026   7.319   2.913   0.797
 8894SOL    HW227027   7.329   2.939   0.958
 8895SOL     OW27028   6.813   3.412   1.506
 8895SOL    HW127029   6.819   3.335   1.570
 8895SOL    HW227030   6.761   3.386   1.426
 8896SOL     OW27031   7.044   2.597   0.728
 8896SOL    HW127032   7.039   2.532   0.803
 8896SOL    HW227033   7.124   2.656   0.741
 8897SOL     OW27034   6.047   3.128   1.727
 8897SOL    HW127035   5.997   3.129   1.641
 8897SOL    HW227036   5.984   3.110   1.803
 8898SOL     OW27037   5.788   2.147   1.498
 8898SOL    HW127038   5.708   2.207   1.485
 8898SOL    HW227039   5.778   2.098   1.584
 8899SOL     OW27040   6.986   1.969   0.426
 8899SOL    HW127041   6.962   1.932   0.336
 8899SOL    HW227042   7.085   1.985   0.430
 8900SOL     OW27043   5.835   3.647   1.241
 8900SOL    HW127044   5.892   3.582   1.291
 8900SOL    HW227045   5.819   3.614   1.148
 8901SOL     OW27046   6.526   3.560   0.904
 8901SOL    HW127047   6.606   3.503   0.925
 8901SOL    HW227048   6.477   3.520   0.827
 8902SOL     OW27049   5.968   2.562   0.480
 8902SOL    HW127050   6.013   2.472   0.477
 8902SOL    HW227051   5.874   2.551   0.513
 8903SOL     OW27052   7.133   2.084   1.729
 8903SOL    HW127053   7.128   2.121   1.821
 8903SOL    HW227054   7.061   2.015   1.717
 8904SOL     OW27055   6.200   1.984   0.117
 8904SOL    HW127056   6.298   1.962   0.124
 8904SOL    HW227057   6.169   1.967   0.024
 8905SOL     OW27058   6.367   2.126   1.749
 8905SOL    HW127059   6.434   2.065   1.792
 8905SOL    HW227060   6.294   2.145   1.814
 8906SOL     OW27061   6.474   3.376   1.195
 8906SOL    HW127062   6.451   3.351   1.101
 8906SOL    HW227063   6.535   3.307   1.234
 8907SOL     OW27064   6.937   2.452   1.433
 8907SOL    HW127065   6.965   2.409   1.518
 8907SOL    HW227066   6.962   2.548   1.434
 8908SOL     OW27067   6.389   3.264   0.924
 8908SOL    HW127068   6.479   3.278   0.882
 8908SOL    HW227069   6.318   3.266   0.853
 8909SOL     OW27070   6.508   2.365   0.899
 8909SOL    HW127071   6.483   2.356   0.803
 8909SOL    HW227072   6.556   2.283   0.930
 8910SOL     OW27073   6.125   1.926   0.512
 8910SOL    HW127074   6.044   1.927   0.570
 8910SOL    HW227075   6.128   2.009   0.457
 8911SOL     OW27076   5.883   1.897   0.171
 8911SOL    HW127077   5.932   1.981   0.150
 8911SOL    HW227078   5.945   1.832   0.216
 8912SOL     OW27079   6.521   2.098   0.480
 8912SOL    HW127080   6.473   2.139   0.402
 8912SOL    HW227081   6.620   2.096   0.461
 8913SOL     OW27082   6.662   2.545   1.464
 8913SOL    HW127083   6.582   2.484   1.467
 8913SOL    HW227084   6.743   2.492   1.440
 8914SOL     OW27085   6.813   3.432   0.793
 8914SOL    HW127086   6.834   3.506   0.728
 8914SOL    HW227087   6.881   3.432   0.866
 8915SOL     OW27088   6.045   3.014   0.741
 8915SOL    HW127089   5.974   2.987   0.806
 8915SOL    HW227090   6.019   2.986   0.648
 8916SOL     OW27091   6.857   3.659   0.591
 8916SOL    HW127092   6.901   3.723   0.527
 8916SOL    HW227093   6.807   3.711   0.661
 8917SOL     OW27094   5.664   2.418   1.386
 8917SOL    HW127095   5.756   2.417   1.345
 8917SOL    HW227096   5.658   2.492   1.453
 8918SOL     OW27097   6.147   2.084   1.147
 8918SOL    HW127098   6.185   2.000   1.184
 8918SOL    HW227099   6.059   2.103   1.191
 8919SOL     OW27100   6.452   2.316   0.642
 8919SOL    HW127101   6.420   2.388   0.580
 8919SOL    HW227102   6.476   2.235   0.589
 8920SOL     OW27103   6.603   1.901   0.753
 8920SOL    HW127104   6.531   1.906   0.684
 8920SOL    HW227105   6.579   1.832   0.822
 8921SOL     OW27106   7.015   3.035   0.867
 8921SOL    HW127107   6.960   2.951   0.860
 8921SOL    HW227108   7.041   3.064   0.775
 8922SOL     OW27109   7.052   2.452   0.992
 8922SOL    HW127110   7.022   2.357   0.999
 8922SOL    HW227111   7.125   2.468   1.058
 8923SOL     OW27112   7.443   2.695   0.377
 8923SOL    HW127113   7.485   2.631   0.441
 8923SOL    HW227114   7.405   2.644   0.299
 8924SOL     OW27115   7.250   3.142   0.657
 8924SOL    HW127116   7.349   3.150   0.671
 8924SOL    HW227117   7.205   3.226   0.688
 8925SOL     OW27118   7.340   3.085   1.588
 8925SOL    HW127119   7.431   3.046   1.575
 8925SOL    HW227120   7.348   3.181   1.612
 8926SOL     OW27121   6.650   3.209   1.340
 8926SOL    HW127122   6.570   3.186   1.395
 8926SOL    HW227123   6.733   3.183   1.389
 8927SOL     OW27124   7.178   3.491   1.625
 8927SOL    HW127125   7.205   3.525   1.535
 8927SOL    HW227126   7.257   3.453   1.671
 8928SOL     OW27127   6.697   3.057   1.100
 8928SOL    HW127128   6.657   3.101   1.181
 8928SOL    HW227129   6.656   3.094   1.017
 8929SOL     OW27130   7.224   2.961   1.079
 8929SOL    HW127131   7.229   3.042   1.138
 8929SOL    HW227132   7.138   2.963   1.028
 8930SOL     OW27133   6.501   1.951   1.402
 8930SOL    HW127134   6.526   1.931   1.307
 8930SOL    HW227135   6.573   2.007   1.444
 8931SOL     OW27136   6.566   2.978   1.719
 8931SOL    HW127137   6.467   2.984   1.729
 8931SOL    HW227138   6.589   2.898   1.663
 8932SOL     OW27139   6.291   2.912   0.368
 8932SOL    HW127140   6.277   2.919   0.467
 8932SOL    HW227141   6.375   2.861   0.350
 8933SOL     OW27142   5.996   2.675   1.251
 8933SOL    HW127143   6.082   2.687   1.301
 8933SOL    HW227144   5.954   2.588   1.278
 8934SOL     OW27145   6.860   2.248   1.262
 8934SOL    HW127146   6.881   2.322   1.326
 8934SOL    HW227147   6.771   2.265   1.219
 8935SOL     OW27148   5.650   3.426   1.331
 8935SOL    HW127149   5.604   3.508   1.297
 8935SOL    HW227150   5.748   3.445   1.340
 8936SOL     OW27151   5.953   2.962   0.501
 8936SOL    HW127152   5.946   3.045   0.445
 8936SOL    HW227153   5.957   2.882   0.441
 8937SOL     OW27154   6.152   2.399   0.865
 8937SOL    HW127155   6.164   2.465   0.791
 8937SOL    HW227156   6.198   2.433   0.948
 8938SOL     OW27157   6.838   3.210   0.388
 8938SOL    HW127158   6.888   3.287   0.428
 8938SOL    HW227159   6.743   3.212   0.420
 8939SOL     OW27160   6.858   3.307   1.142
 8939SOL    HW127161   6.905   3.320   1.229
 8939SOL    HW227162   6.792   3.233   1.151
 8940SOL     OW27163   5.940   3.372   1.329
 8940SOL    HW127164   5.919   3.328   1.242
 8940SOL    HW227165   6.037   3.398   1.332
 8941SOL     OW27166   5.988   2.613   1.598
 8941SOL    HW127167   6.056   2.668   1.551
 8941SOL    HW227168   6.028   2.525   1.625
 8942SOL     OW27169   7.173   2.641   1.670
 8942SOL    HW127170   7.081   2.679   1.665
 8942SOL    HW227171   7.233   2.688   1.605
 8943SOL     OW27172   6.599   1.967   1.770
 8943SOL    HW127173   6.605   2.052   1.718
 8943SOL    HW227174   6.631   1.891   1.713
 8944SOL     OW27175   6.090   1.912   1.740
 8944SOL    HW127176   6.048   1.855   1.670
 8944SOL    HW227177   6.024   1.981   1.772
 8945SOL     OW27178   6.159   2.732   1.029
 8945SOL    HW127179   6.203   2.821   1.020
 8945SOL    HW227180   6.096   2.732   1.106
 8946SOL     OW27181   6.946   2.724   1.045
 8946SOL    HW127182   6.871   2.724   0.979
 8946SOL    HW227183   6.983   2.632   1.054
 8947SOL     OW27184   5.893   2.075   1.231
 8947SOL    HW127185   5.870   2.112   1.321
 8947SOL    HW227186   5.863   1.980   1.225
 8948SOL     OW27187   5.623   3.172   1.282
 8948SOL    HW127188   5.676   3.123   1.350
 8948SOL    HW227189   5.645   3.270   1.287
 8949SOL     OW27190   6.318   2.496   1.064
 8949SOL    HW127191   6.377   2.470   0.988
 8949SOL    HW227192   6.290   2.592   1.053
 8950SOL     OW27193   7.314   2.797   1.854
 8950SOL    HW127194   7.268   2.790   1.765
 8950SOL    HW227195   7.252   2.841   1.920
 8951SOL     OW27196   5.893   1.925   0.618
 8951SOL    HW127197   5.882   2.019   0.651
 8951SOL    HW227198   5.888   1.862   0.695
 8952SOL     OW27199   6.609   2.628   0.966
 8952SOL    HW127200   6.624   2.649   1.062
 8952SOL    HW227201   6.579   2.533   0.957
 8953SOL     OW27202   6.566   3.435   1.700
 8953SOL    HW127203   6.546   3.479   1.612
 8953SOL    HW227204   6.605   3.344   1.684
 8954SOL     OW27205   7.445   3.380   1.605
 8954SOL    HW127206   7.459   3.407   1.510
 8954SOL    HW227207   7.528   3.402   1.658
 8955SOL     OW27208   5.936   2.760   1.804
 8955SOL    HW127209   6.012   2.804   1.852
 8955SOL    HW227210   5.971   2.713   1.722
 8956SOL     OW27211   6.654   3.195   0.849
 8956SOL    HW127212   6.661   3.111   0.794
 8956SOL    HW227213   6.716   3.264   0.813
 8957SOL     OW27214   5.905   2.672   0.949
 8957SOL    HW127215   5.998   2.708   0.954
 8957SOL    HW227216   5.899   2.587   1.001
 8958SOL     OW27217   5.925   2.371   1.006
 8958SOL    HW127218   5.873   2.288   0.989
 8958SOL    HW227219   6.002   2.376   0.942
 8959SOL     OW27220   6.724   2.242   1.678
 8959SOL    HW127221   6.679   2.305   1.742
 8959SOL    HW227222   6.817   2.273   1.661
 8960SOL     OW27223   6.746   2.069   1.477
 8960SOL    HW127224   6.746   2.133   1.554
 8960SOL    HW227225   6.774   2.117   1.394
 8961SOL     OW27226   5.674   3.663   0.927
 8961SOL    HW127227   5.632   3.577   0.900
 8961SOL    HW227228   5.768   3.666   0.893
 8962SOL     OW27229   6.090   3.430   0.910
 8962SOL    HW127230   6.156   3.504   0.919
 8962SOL    HW227231   6.134   3.351   0.868
 8963SOL     OW27232   6.588   2.658   1.238
 8963SOL    HW127233   6.629   2.626   1.324
 8963SOL    HW227234   6.492   2.631   1.235
 8964SOL     OW27235   5.626   2.406   1.114
 8964SOL    HW127236   5.711   2.373   1.073
 8964SOL    HW227237   5.639   2.421   1.212
 8965SOL     OW27238   5.775   2.382   1.722
 8965SOL    HW127239   5.834   2.342   1.652
 8965SOL    HW227240   5.717   2.453   1.681
 8966SOL     OW27241   6.955   2.812   1.660
 8966SOL    HW127242   6.994   2.901   1.680
 8966SOL    HW227243   6.965   2.792   1.563
 8967SOL     OW27244   6.401   2.434   0.325
 8967SOL    HW127245   6.408   2.345   0.279
 8967SOL    HW227246   6.307   2.468   0.317
 8968SOL     OW27247   7.243   2.466   1.206
 8968SOL    HW127248   7.205   2.397   1.268
 8968SOL    HW227249   7.325   2.430   1.162
 8969SOL     OW27250   5.838   3.426   1.744
 8969SOL    HW127251   5.808   3.483   1.820
 8969SOL    HW227252   5.831   3.329   1.770
 8970SOL     OW27253   6.257   2.326   1.269
 8970SOL    HW127254   6.223   2.237   1.239
 8970SOL    HW227255   6.283   2.380   1.189
 8971SOL     OW27256   6.516   3.540   1.465
 8971SOL    HW127257   6.492   3.522   1.370
 8971SOL    HW227258   6.546   3.634   1.475
 8972SOL     OW27259   5.745   2.999   1.466
 8972SOL    HW127260   5.767   2.938   1.542
 8972SOL    HW227261   5.755   2.950   1.380
 8973SOL     OW27262   6.933   2.921   1.234
 8973SOL    HW127263   6.957   2.858   1.160
 8973SOL    HW227264   6.843   2.961   1.216
 8974SOL     OW27265   7.345   3.609   1.154
 8974SOL    HW127266   7.406   3.639   1.081
 8974SOL    HW227267   7.307   3.520   1.132
 8975SOL     OW27268   6.838   3.593   1.128
 8975SOL    HW127269   6.922   3.598   1.074
 8975SOL    HW227270   6.815   3.497   1.146
 8976SOL     OW27271   5.669   3.120   1.022
 8976SOL    HW127272   5.664   3.119   1.122
 8976SOL    HW227273   5.586   3.079   0.984
 8977SOL     OW27274   6.274   3.524   1.716
 8977SOL    HW127275   6.218   3.605   1.725
 8977SOL    HW227276   6.326   3.528   1.630
 8978SOL     OW27277   7.312   1.997   0.523
 8978SOL    HW127278   7.385   1.980   0.456
 8978SOL    HW227279   7.281   1.910   0.561
 8979SOL     OW27280   5.716   3.656   1.851
 8979SOL    HW127281   5.675   3.582   1.904
 8979SOL    HW227282   5.780   3.707   1.909
 8980SOL     OW27283   6.866   2.789   0.672
 8980SOL    HW127284   6.926   2.708   0.674
 8980SOL    HW227285   6.906   2.858   0.612
 8981SOL     OW27286   6.416   3.135   1.422
 8981SOL    HW127287   6.411   3.168   1.517
 8981SOL    HW227288   6.330   3.154   1.376
 8982SOL     OW27289   6.258   3.478   0.154
 8982SOL    HW127290   6.267   3.488   0.055
 8982SOL    HW227291   6.218   3.389   0.175
 8983SOL     OW27292   7.236   3.582   1.394
 8983SOL    HW127293   7.289   3.592   1.310
 8983SOL    HW227294   7.209   3.672   1.428
 8984SOL     OW27295   7.427   2.037   0.963
 8984SOL    HW127296   7.466   1.952   0.927
 8984SOL    HW227297   7.329   2.039   0.944
 8985SOL     OW27298   5.849   2.188   0.720
 8985SOL    HW127299   5.770   2.239   0.686
 8985SOL    HW227300   5.840   2.173   0.818
 8986SOL     OW27301   6.408   2.864   1.372
 8986SOL    HW127302   6.448   2.863   1.280
 8986SOL    HW227303   6.418   2.956   1.412
 8987SOL     OW27304   7.090   3.469   0.044
 8987SOL    HW127305   6.998   3.506   0.051
 8987SOL    HW227306   7.128   3.489  -0.046
 8988SOL     OW27307   5.958   3.150   1.490
 8988SOL    HW127308   5.945   3.243   1.456
 8988SOL    HW227309   5.874   3.098   1.477
 8989SOL     OW27310   7.200   3.154   1.289
 8989SOL    HW127311   7.260   3.157   1.369
 8989SOL    HW227312   7.125   3.218   1.302
 8990SOL     OW27313   6.625   2.960   0.696
 8990SOL    HW127314   6.555   2.913   0.750
 8990SOL    HW227315   6.684   2.892   0.653
 8991SOL     OW27316   6.600   2.098   0.971
 8991SOL    HW127317   6.592   2.062   0.878
 8991SOL    HW227318   6.598   2.022   1.036
 8992SOL     OW27319   6.176   3.349   0.491
 8992SOL    HW127320   6.218   3.291   0.421
 8992SOL    HW227321   6.132   3.428   0.447
 8993SOL     OW27322   7.295   2.247   1.381
 8993SOL    HW127323   7.368   2.316   1.385
 8993SOL    HW227324   7.323   2.172   1.322
 8994SOL     OW27325   5.691   2.875   1.726
 8994SOL    HW127326   5.614   2.842   1.780
 8994SOL    HW227327   5.776   2.845   1.768
 8995SOL     OW27328   6.258   2.065   1.489
 8995SOL    HW127329   6.348   2.049   1.449
 8995SOL    HW227330   6.266   2.070   1.588
 8996SOL     OW27331   7.026   2.718   1.398
 8996SOL    HW127332   6.969   2.770   1.335
 8996SOL    HW227333   7.122   2.730   1.374
 8997SOL     OW27334   5.658   2.028   0.318
 8997SOL    HW127335   5.641   2.111   0.264
 8997SOL    HW227336   5.748   1.991   0.296
 8998SOL     OW27337   6.199   2.704   1.431
 8998SOL    HW127338   6.255   2.785   1.414
 8998SOL    HW227339   6.258   2.624   1.434
 8999SOL     OW27340   7.079   3.629   0.959
 8999SOL    HW127341   7.112   3.693   0.890
 8999SOL    HW227342   7.145   3.623   1.034
 9000SOL     OW27343   6.302   2.427   1.708
 9000SOL    HW127344   6.321   2.492   1.782
 9000SOL    HW227345   6.362   2.347   1.717
 9001SOL     OW27346   7.036   3.082   1.633
 9001SOL    HW127347   7.027   3.072   1.732
 9001SOL    HW227348   7.132   3.075   1.607
 9002SOL     OW27349   5.976   3.603   1.560
 9002SOL    HW127350   5.885   3.644   1.558
 9002SOL    HW227351   5.969   3.509   1.592
 9003SOL     OW27352   7.260   2.745   1.254
 9003SOL    HW127353   7.233   2.656   1.217
 9003SOL    HW227354   7.261   2.813   1.181
 9004SOL     OW27355   6.180   2.607   0.652
 9004SOL    HW127356   6.230   2.692   0.633
 9004SOL    HW227357   6.092   2.609   0.604
 9005SOL     OW27358   7.363   2.204   1.642
 9005SOL    HW127359   7.346   2.235   1.548
 9005SOL    HW227360   7.279   2.167   1.680
 9006SOL     OW27361   7.316   2.796   1.517
 9006SOL    HW127362   7.354   2.887   1.532
 9006SOL    HW227363   7.308   2.779   1.418
 9007SOL     OW27364   6.247   3.652   0.953
 9007SOL    HW127365   6.201   3.740   0.940
 9007SOL    HW227366   6.346   3.664   0.946
 9008SOL     OW27367   6.445   2.818   0.861
 9008SOL    HW127368   6.499   2.749   0.909
 9008SOL    HW227369   6.413   2.887   0.927
 9009SOL     OW27370   7.447   3.431   0.851
 9009SOL    HW127371   7.376   3.419   0.781
 9009SOL    HW227372   7.448   3.352   0.911
 9010SOL     OW27373   5.807   3.176   1.844
 9010SOL    HW127374   5.742   3.103   1.823
 9010SOL    HW227375   5.811   3.190   1.942
 9011SOL     OW27376   5.665   3.102   0.653
 9011SOL    HW127377   5.664   3.055   0.741
 9011SOL    HW227378   5.747   3.074   0.602
 9012SOL     OW27379   6.258   3.253   1.624
 9012SOL    HW127380   6.180   3.203   1.662
 9012SOL    HW227381   6.255   3.348   1.655
 9013SOL     OW27382   7.410   2.054   1.227
 9013SOL    HW127383   7.406   1.964   1.271
 9013SOL    HW227384   7.413   2.043   1.128
 9014SOL     OW27385   6.014   2.286   0.520
 9014SOL    HW127386   6.044   2.214   0.458
 9014SOL    HW227387   5.975   2.246   0.603
 9015SOL     OW27388   7.291   3.349   1.104
 9015SOL    HW127389   7.198   3.324   1.077
 9015SOL    HW227390   7.317   3.299   1.186
 9016SOL     OW27391   5.903   2.409   1.280
 9016SOL    HW127392   5.941   2.350   1.352
 9016SOL    HW227393   5.943   2.383   1.192
 9017SOL     OW27394   6.398   3.448   0.687
 9017SOL    HW127395   6.430   3.458   0.593
 9017SOL    HW227396   6.319   3.386   0.689
 9018SOL     OW27397   7.010   2.076   1.112
 9018SOL    HW127398   7.062   2.011   1.167
 9018SOL    HW227399   6.961   2.139   1.173
 9019SOL     OW27400   6.587   1.896   1.154
 9019SOL    HW127401   6.524   1.824   1.123
 9019SOL    HW227402   6.680   1.860   1.154
 9020SOL     OW27403   6.204   3.429   1.284
 9020SOL    HW127404   6.199   3.511   1.341
 9020SOL    HW227405   6.293   3.426   1.239
 9021SOL     OW27406   6.938   1.914   0.168
 9021SOL    HW127407   6.973   1.873   0.084
 9021SOL    HW227408   6.848   1.876   0.188
 9022SOL     OW27409   6.886   2.315   0.691
 9022SOL    HW127410   6.827   2.395   0.695
 9022SOL    HW227411   6.901   2.280   0.784
 9023SOL     OW27412   7.179   2.083   0.882
 9023SOL    HW127413   7.095   2.082   0.936
 9023SOL    HW227414   7.181   2.166   0.826
 9024SOL     OW27415   5.625   2.939   0.300
 9024SOL    HW127416   5.724   2.928   0.291
 9024SOL    HW227417   5.585   2.853   0.332
 9025SOL     OW27418   6.461   3.508   0.337
 9025SOL    HW127419   6.384   3.473   0.283
 9025SOL    HW227420   6.429   3.579   0.399
 9026SOL     OW27421   5.816   2.490   1.975
 9026SOL    HW127422   5.723   2.488   2.012
 9026SOL    HW227423   5.817   2.451   1.883
 9027SOL     OW27424   5.811   2.137   2.858
 9027SOL    HW127425   5.846   2.120   2.950
 9027SOL    HW227426   5.723   2.092   2.846
 9028SOL     OW27427   5.605   2.230   2.509
 9028SOL    HW127428   5.523   2.273   2.548
 9028SOL    HW227429   5.577   2.157   2.446
 9029SOL     OW27430   6.155   3.137   3.027
 9029SOL    HW127431   6.062   3.130   2.990
 9029SOL    HW227432   6.166   3.226   3.071
 9030SOL     OW27433   7.141   3.373   2.565
 9030SOL    HW127434   7.084   3.357   2.646
 9030SOL    HW227435   7.082   3.383   2.485
 9031SOL     OW27436   6.721   2.565   2.579
 9031SOL    HW127437   6.778   2.643   2.554
 9031SOL    HW227438   6.661   2.591   2.655
 9032SOL     OW27439   7.341   2.469   2.093
 9032SOL    HW127440   7.329   2.456   1.994
 9032SOL    HW227441   7.311   2.388   2.142
 9033SOL     OW27442   6.354   3.006   2.885
 9033SOL    HW127443   6.276   3.023   2.945
 9033SOL    HW227444   6.388   3.093   2.849
 9034SOL     OW27445   6.436   2.660   3.685
 9034SOL    HW127446   6.432   2.736   3.750
 9034SOL    HW227447   6.458   2.696   3.594
 9035SOL     OW27448   6.271   2.874   2.527
 9035SOL    HW127449   6.340   2.858   2.597
 9035SOL    HW227450   6.198   2.931   2.565
 9036SOL     OW27451   6.272   3.023   3.665
 9036SOL    HW127452   6.332   3.102   3.679
 9036SOL    HW227453   6.186   3.054   3.624
 9037SOL     OW27454   5.921   3.297   2.923
 9037SOL    HW127455   5.843   3.266   2.870
 9037SOL    HW227456   5.979   3.355   2.866
 9038SOL     OW27457   7.046   3.367   3.201
 9038SOL    HW127458   7.070   3.461   3.227
 9038SOL    HW227459   7.030   3.313   3.283
 9039SOL     OW27460   6.024   2.254   3.361
 9039SOL    HW127461   6.106   2.198   3.370
 9039SOL    HW227462   5.943   2.196   3.365
 9040SOL     OW27463   7.189   2.309   2.599
 9040SOL    HW127464   7.115   2.355   2.549
 9040SOL    HW227465   7.240   2.377   2.652
 9041SOL     OW27466   5.817   3.575   2.345
 9041SOL    HW127467   5.851   3.652   2.399
 9041SOL    HW227468   5.861   3.575   2.255
 9042SOL     OW27469   6.713   3.203   3.552
 9042SOL    HW127470   6.760   3.203   3.640
 9042SOL    HW227471   6.665   3.116   3.541
 9043SOL     OW27472   5.816   3.296   2.400
 9043SOL    HW127473   5.790   3.392   2.400
 9043SOL    HW227474   5.745   3.242   2.445
 9044SOL     OW27475   5.826   2.953   2.748
 9044SOL    HW127476   5.840   2.869   2.800
 9044SOL    HW227477   5.771   3.017   2.803
 9045SOL     OW27478   6.206   3.648   3.301
 9045SOL    HW127479   6.114   3.631   3.336
 9045SOL    HW227480   6.234   3.740   3.327
 9046SOL     OW27481   6.192   2.826   1.985
 9046SOL    HW127482   6.199   2.910   1.931
 9046SOL    HW227483   6.238   2.839   2.073
 9047SOL     OW27484   7.180   1.976   3.342
 9047SOL    HW127485   7.162   2.043   3.270
 9047SOL    HW227486   7.177   2.022   3.431
 9048SOL     OW27487   5.708   2.505   2.425
 9048SOL    HW127488   5.663   2.417   2.442
 9048SOL    HW227489   5.707   2.559   2.509
 9049SOL     OW27490   7.428   3.629   2.221
 9049SOL    HW127491   7.482   3.600   2.301
 9049SOL    HW227492   7.458   3.719   2.192
 9050SOL     OW27493   5.613   3.458   1.979
 9050SOL    HW127494   5.594   3.362   2.000
 9050SOL    HW227495   5.580   3.516   2.054
 9051SOL     OW27496   7.275   2.784   2.474
 9051SOL    HW127497   7.370   2.755   2.482
 9051SOL    HW227498   7.267   2.849   2.399
 9052SOL     OW27499   7.227   2.970   2.294
 9052SOL    HW127500   7.313   2.972   2.242
 9052SOL    HW227501   7.241   3.017   2.382
 9053SOL     OW27502   5.699   2.599   3.459
 9053SOL    HW127503   5.787   2.586   3.504
 9053SOL    HW227504   5.686   2.696   3.437
 9054SOL     OW27505   6.199   3.227   2.588
 9054SOL    HW127506   6.150   3.140   2.597
 9054SOL    HW227507   6.176   3.270   2.501
 9055SOL     OW27508   6.879   3.090   3.285
 9055SOL    HW127509   6.916   3.017   3.227
 9055SOL    HW227510   6.931   3.095   3.370
 9056SOL     OW27511   6.395   1.866   2.364
 9056SOL    HW127512   6.435   1.957   2.355
 9056SOL    HW227513   6.295   1.874   2.370
 9057SOL     OW27514   5.783   2.838   3.126
 9057SOL    HW127515   5.872   2.793   3.112
 9057SOL    HW227516   5.710   2.773   3.107
 9058SOL     OW27517   7.111   2.861   2.052
 9058SOL    HW127518   7.048   2.785   2.065
 9058SOL    HW227519   7.159   2.879   2.138
 9059SOL     OW27520   6.773   3.654   3.478
 9059SOL    HW127521   6.797   3.714   3.402
 9059SOL    HW227522   6.780   3.559   3.448
 9060SOL     OW27523   5.903   2.113   3.663
 9060SOL    HW127524   5.974   2.184   3.669
 9060SOL    HW227525   5.815   2.152   3.691
 9061SOL     OW27526   7.052   3.279   2.815
 9061SOL    HW127527   6.993   3.285   2.895
 9061SOL    HW227528   7.037   3.191   2.769
 9062SOL     OW27529   7.253   3.576   2.434
 9062SOL    HW127530   7.212   3.553   2.346
 9062SOL    HW227531   7.235   3.502   2.499
 9063SOL     OW27532   6.184   2.591   2.132
 9063SOL    HW127533   6.208   2.660   2.064
 9063SOL    HW227534   6.106   2.624   2.186
 9064SOL     OW27535   6.867   2.207   2.806
 9064SOL    HW127536   6.781   2.157   2.793
 9064SOL    HW227537   6.929   2.153   2.862
 9065SOL     OW27538   7.162   3.524   2.169
 9065SOL    HW127539   7.251   3.570   2.172
 9065SOL    HW227540   7.141   3.500   2.074
 9066SOL     OW27541   6.393   2.467   3.327
 9066SOL    HW127542   6.346   2.464   3.416
 9066SOL    HW227543   6.342   2.412   3.261
 9067SOL     OW27544   6.980   2.331   3.536
 9067SOL    HW127545   6.960   2.374   3.624
 9067SOL    HW227546   7.058   2.269   3.545
 9068SOL     OW27547   6.559   2.752   3.434
 9068SOL    HW127548   6.605   2.668   3.405
 9068SOL    HW227549   6.503   2.786   3.359
 9069SOL     OW27550   6.577   2.272   3.104
 9069SOL    HW127551   6.500   2.306   3.158
 9069SOL    HW227552   6.543   2.221   3.025
 9070SOL     OW27553   6.627   2.563   2.291
 9070SOL    HW127554   6.653   2.559   2.387
 9070SOL    HW227555   6.542   2.512   2.277
 9071SOL     OW27556   5.662   2.673   2.651
 9071SOL    HW127557   5.761   2.661   2.660
 9071SOL    HW227558   5.638   2.768   2.672
 9072SOL     OW27559   5.716   3.683   3.433
 9072SOL    HW127560   5.706   3.668   3.532
 9072SOL    HW227561   5.630   3.719   3.397
 9073SOL     OW27562   6.451   2.210   2.057
 9073SOL    HW127563   6.510   2.273   2.008
 9073SOL    HW227564   6.470   2.116   2.028
 9074SOL     OW27565   7.305   2.447   3.693
 9074SOL    HW127566   7.279   2.536   3.657
 9074SOL    HW227567   7.303   2.379   3.620
 9075SOL     OW27568   6.948   3.006   2.407
 9075SOL    HW127569   7.031   2.977   2.359
 9075SOL    HW227570   6.899   3.073   2.351
 9076SOL     OW27571   6.136   2.058   2.747
 9076SOL    HW127572   6.131   2.053   2.847
 9076SOL    HW227573   6.138   2.154   2.718
 9077SOL     OW27574   6.594   3.318   2.339
 9077SOL    HW127575   6.548   3.390   2.287
 9077SOL    HW227576   6.590   3.338   2.437
 9078SOL     OW27577   5.937   3.663   2.715
 9078SOL    HW127578   5.987   3.577   2.721
 9078SOL    HW227579   6.002   3.740   2.712
 9079SOL     OW27580   7.381   2.928   2.735
 9079SOL    HW127581   7.319   2.913   2.659
 9079SOL    HW227582   7.329   2.939   2.820
 9080SOL     OW27583   6.813   3.412   3.368
 9080SOL    HW127584   6.819   3.335   3.432
 9080SOL    HW227585   6.761   3.386   3.288
 9081SOL     OW27586   5.907   2.805   2.104
 9081SOL    HW127587   5.989   2.844   2.062
 9081SOL    HW227588   5.880   2.723   2.055
 9082SOL     OW27589   7.044   2.597   2.590
 9082SOL    HW127590   7.039   2.532   2.665
 9082SOL    HW227591   7.124   2.656   2.603
 9083SOL     OW27592   6.047   3.128   3.589
 9083SOL    HW127593   5.997   3.129   3.503
 9083SOL    HW227594   5.984   3.110   3.665
 9084SOL     OW27595   6.697   3.638   2.099
 9084SOL    HW127596   6.637   3.576   2.149
 9084SOL    HW227597   6.728   3.594   2.014
 9085SOL     OW27598   5.788   2.147   3.360
 9085SOL    HW127599   5.708   2.207   3.347
 9085SOL    HW227600   5.778   2.098   3.446
 9086SOL     OW27601   7.218   3.239   1.943
 9086SOL    HW127602   7.186   3.333   1.933
 9086SOL    HW227603   7.142   3.176   1.931
 9087SOL     OW27604   6.050   3.605   2.185
 9087SOL    HW127605   6.083   3.644   2.271
 9087SOL    HW227606   6.126   3.598   2.120
 9088SOL     OW27607   6.986   1.969   2.288
 9088SOL    HW127608   6.962   1.932   2.198
 9088SOL    HW227609   7.085   1.985   2.292
 9089SOL     OW27610   5.835   3.647   3.103
 9089SOL    HW127611   5.892   3.582   3.153
 9089SOL    HW227612   5.819   3.614   3.010
 9090SOL     OW27613   6.526   3.560   2.766
 9090SOL    HW127614   6.606   3.503   2.787
 9090SOL    HW227615   6.477   3.520   2.689
 9091SOL     OW27616   5.968   2.562   2.342
 9091SOL    HW127617   6.013   2.472   2.339
 9091SOL    HW227618   5.874   2.551   2.375
 9092SOL     OW27619   7.133   2.084   3.591
 9092SOL    HW127620   7.128   2.121   3.683
 9092SOL    HW227621   7.061   2.015   3.579
 9093SOL     OW27622   6.200   1.984   1.979
 9093SOL    HW127623   6.298   1.962   1.986
 9093SOL    HW227624   6.169   1.967   1.886
 9094SOL     OW27625   6.367   2.126   3.611
 9094SOL    HW127626   6.434   2.065   3.654
 9094SOL    HW227627   6.294   2.145   3.676
 9095SOL     OW27628   6.474   3.376   3.057
 9095SOL    HW127629   6.451   3.351   2.963
 9095SOL    HW227630   6.535   3.307   3.096
 9096SOL     OW27631   6.937   2.452   3.295
 9096SOL    HW127632   6.965   2.409   3.380
 9096SOL    HW227633   6.962   2.548   3.296
 9097SOL     OW27634   6.389   3.264   2.786
 9097SOL    HW127635   6.479   3.278   2.744
 9097SOL    HW227636   6.318   3.266   2.715
 9098SOL     OW27637   6.508   2.365   2.761
 9098SOL    HW127638   6.483   2.356   2.665
 9098SOL    HW227639   6.556   2.283   2.792
 9099SOL     OW27640   6.125   1.926   2.374
 9099SOL    HW127641   6.044   1.927   2.432
 9099SOL    HW227642   6.128   2.009   2.319
 9100SOL     OW27643   7.020   3.050   1.903
 9100SOL    HW127644   7.052   2.974   1.960
 9100SOL    HW227645   6.928   3.077   1.933
 9101SOL     OW27646   5.883   1.897   2.033
 9101SOL    HW127647   5.932   1.981   2.012
 9101SOL    HW227648   5.945   1.832   2.078
 9102SOL     OW27649   6.521   2.098   2.342
 9102SOL    HW127650   6.473   2.139   2.264
 9102SOL    HW227651   6.620   2.096   2.323
 9103SOL     OW27652   6.662   2.545   3.326
 9103SOL    HW127653   6.582   2.484   3.329
 9103SOL    HW227654   6.743   2.492   3.302
 9104SOL     OW27655   6.813   3.432   2.655
 9104SOL    HW127656   6.834   3.506   2.590
 9104SOL    HW227657   6.881   3.432   2.728
 9105SOL     OW27658   6.045   3.014   2.603
 9105SOL    HW127659   5.974   2.987   2.668
 9105SOL    HW227660   6.019   2.986   2.510
 9106SOL     OW27661   6.857   3.659   2.453
 9106SOL    HW127662   6.901   3.723   2.389
 9106SOL    HW227663   6.807   3.711   2.523
 9107SOL     OW27664   6.618   2.411   1.878
 9107SOL    HW127665   6.577   2.493   1.839
 9107SOL    HW227666   6.682   2.437   1.951
 9108SOL     OW27667   5.664   2.418   3.248
 9108SOL    HW127668   5.756   2.417   3.207
 9108SOL    HW227669   5.658   2.492   3.315
 9109SOL     OW27670   6.147   2.084   3.009
 9109SOL    HW127671   6.185   2.000   3.046
 9109SOL    HW227672   6.059   2.103   3.053
 9110SOL     OW27673   6.452   2.316   2.504
 9110SOL    HW127674   6.420   2.388   2.442
 9110SOL    HW227675   6.476   2.235   2.451
 9111SOL     OW27676   6.603   1.901   2.615
 9111SOL    HW127677   6.531   1.906   2.546
 9111SOL    HW227678   6.579   1.832   2.684
 9112SOL     OW27679   7.015   3.035   2.729
 9112SOL    HW127680   6.960   2.951   2.722
 9112SOL    HW227681   7.041   3.064   2.637
 9113SOL     OW27682   7.052   2.452   2.854
 9113SOL    HW127683   7.022   2.357   2.861
 9113SOL    HW227684   7.125   2.468   2.920
 9114SOL     OW27685   7.443   2.695   2.239
 9114SOL    HW127686   7.485   2.631   2.303
 9114SOL    HW227687   7.405   2.644   2.161
 9115SOL     OW27688   6.074   3.247   2.036
 9115SOL    HW127689   5.987   3.232   2.083
 9115SOL    HW227690   6.057   3.273   1.941
 9116SOL     OW27691   7.250   3.142   2.519
 9116SOL    HW127692   7.349   3.150   2.533
 9116SOL    HW227693   7.205   3.226   2.550
 9117SOL     OW27694   6.976   2.437   1.940
 9117SOL    HW127695   6.922   2.416   2.021
 9117SOL    HW227696   7.067   2.396   1.949
 9118SOL     OW27697   6.113   2.118   2.190
 9118SOL    HW127698   6.140   2.059   2.115
 9118SOL    HW227699   6.113   2.213   2.159
 9119SOL     OW27700   7.340   3.085   3.450
 9119SOL    HW127701   7.431   3.046   3.437
 9119SOL    HW227702   7.348   3.181   3.474
 9120SOL     OW27703   6.650   3.209   3.202
 9120SOL    HW127704   6.570   3.186   3.257
 9120SOL    HW227705   6.733   3.183   3.251
 9121SOL     OW27706   7.178   3.491   3.487
 9121SOL    HW127707   7.205   3.525   3.397
 9121SOL    HW227708   7.257   3.453   3.533
 9122SOL     OW27709   6.697   3.057   2.962
 9122SOL    HW127710   6.657   3.101   3.043
 9122SOL    HW227711   6.656   3.094   2.879
 9123SOL     OW27712   7.224   2.961   2.941
 9123SOL    HW127713   7.229   3.042   3.000
 9123SOL    HW227714   7.138   2.963   2.890
 9124SOL     OW27715   6.501   1.951   3.264
 9124SOL    HW127716   6.526   1.931   3.169
 9124SOL    HW227717   6.573   2.007   3.306
 9125SOL     OW27718   6.566   2.978   3.581
 9125SOL    HW127719   6.467   2.984   3.591
 9125SOL    HW227720   6.589   2.898   3.525
 9126SOL     OW27721   6.291   2.912   2.230
 9126SOL    HW127722   6.277   2.919   2.329
 9126SOL    HW227723   6.375   2.861   2.212
 9127SOL     OW27724   5.996   2.675   3.113
 9127SOL    HW127725   6.082   2.687   3.163
 9127SOL    HW227726   5.954   2.588   3.140
 9128SOL     OW27727   6.860   2.248   3.124
 9128SOL    HW127728   6.881   2.322   3.188
 9128SOL    HW227729   6.771   2.265   3.081
 9129SOL     OW27730   5.650   3.426   3.193
 9129SOL    HW127731   5.604   3.508   3.159
 9129SOL    HW227732   5.748   3.445   3.202
 9130SOL     OW27733   5.953   2.962   2.363
 9130SOL    HW127734   5.946   3.045   2.307
 9130SOL    HW227735   5.957   2.882   2.303
 9131SOL     OW27736   6.152   2.399   2.727
 9131SOL    HW127737   6.164   2.465   2.653
 9131SOL    HW227738   6.198   2.433   2.810
 9132SOL     OW27739   6.838   3.210   2.250
 9132SOL    HW127740   6.888   3.287   2.290
 9132SOL    HW227741   6.743   3.212   2.282
 9133SOL     OW27742   6.858   3.307   3.004
 9133SOL    HW127743   6.905   3.320   3.091
 9133SOL    HW227744   6.792   3.233   3.013
 9134SOL     OW27745   7.168   2.501   2.334
 9134SOL    HW127746   7.137   2.562   2.407
 9134SOL    HW227747   7.218   2.553   2.265
 9135SOL     OW27748   5.940   3.372   3.191
 9135SOL    HW127749   5.919   3.328   3.104
 9135SOL    HW227750   6.037   3.398   3.194
 9136SOL     OW27751   5.988   2.613   3.460
 9136SOL    HW127752   6.056   2.668   3.413
 9136SOL    HW227753   6.028   2.525   3.487
 9137SOL     OW27754   7.173   2.641   3.532
 9137SOL    HW127755   7.081   2.679   3.527
 9137SOL    HW227756   7.233   2.688   3.467
 9138SOL     OW27757   6.599   1.967   3.632
 9138SOL    HW127758   6.605   2.052   3.580
 9138SOL    HW227759   6.631   1.891   3.575
 9139SOL     OW27760   6.090   1.912   3.602
 9139SOL    HW127761   6.048   1.855   3.532
 9139SOL    HW227762   6.024   1.981   3.634
 9140SOL     OW27763   6.159   2.732   2.891
 9140SOL    HW127764   6.203   2.821   2.882
 9140SOL    HW227765   6.096   2.732   2.968
 9141SOL     OW27766   6.946   2.724   2.907
 9141SOL    HW127767   6.871   2.724   2.841
 9141SOL    HW227768   6.983   2.632   2.916
 9142SOL     OW27769   6.795   2.387   2.137
 9142SOL    HW127770   6.808   2.303   2.191
 9142SOL    HW227771   6.766   2.461   2.197
 9143SOL     OW27772   5.893   2.075   3.093
 9143SOL    HW127773   5.870   2.112   3.183
 9143SOL    HW227774   5.863   1.980   3.087
 9144SOL     OW27775   5.623   3.172   3.144
 9144SOL    HW127776   5.676   3.123   3.212
 9144SOL    HW227777   5.645   3.270   3.149
 9145SOL     OW27778   6.318   2.496   2.926
 9145SOL    HW127779   6.377   2.470   2.850
 9145SOL    HW227780   6.290   2.592   2.915
 9146SOL     OW27781   7.314   2.797   3.716
 9146SOL    HW127782   7.268   2.790   3.627
 9146SOL    HW227783   7.252   2.841   3.782
 9147SOL     OW27784   5.893   1.925   2.480
 9147SOL    HW127785   5.882   2.019   2.513
 9147SOL    HW227786   5.888   1.862   2.557
 9148SOL     OW27787   7.208   2.229   2.236
 9148SOL    HW127788   7.210   2.153   2.300
 9148SOL    HW227789   7.160   2.306   2.276
 9149SOL     OW27790   6.609   2.628   2.828
 9149SOL    HW127791   6.624   2.649   2.924
 9149SOL    HW227792   6.579   2.533   2.819
 9150SOL     OW27793   6.566   3.435   3.562
 9150SOL    HW127794   6.546   3.479   3.474
 9150SOL    HW227795   6.605   3.344   3.546
 9151SOL     OW27796   7.445   3.380   3.467
 9151SOL    HW127797   7.459   3.407   3.372
 9151SOL    HW227798   7.528   3.402   3.520
 9152SOL     OW27799   5.936   2.760   3.666
 9152SOL    HW127800   6.012   2.804   3.714
 9152SOL    HW227801   5.971   2.713   3.584
 9153SOL     OW27802   7.126   2.136   1.987
 9153SOL    HW127803   7.065   2.061   2.010
 9153SOL    HW227804   7.148   2.188   2.070
 9154SOL     OW27805   6.889   2.700   1.904
 9154SOL    HW127806   6.923   2.607   1.919
 9154SOL    HW227807   6.907   2.727   1.809
 9155SOL     OW27808   6.654   3.195   2.711
 9155SOL    HW127809   6.661   3.111   2.656
 9155SOL    HW227810   6.716   3.264   2.675
 9156SOL     OW27811   5.905   2.672   2.811
 9156SOL    HW127812   5.998   2.708   2.816
 9156SOL    HW227813   5.899   2.587   2.863
 9157SOL     OW27814   5.925   2.371   2.868
 9157SOL    HW127815   5.873   2.288   2.851
 9157SOL    HW227816   6.002   2.376   2.804
 9158SOL     OW27817   6.724   2.242   3.540
 9158SOL    HW127818   6.679   2.305   3.604
 9158SOL    HW227819   6.817   2.273   3.523
 9159SOL     OW27820   6.746   2.069   3.339
 9159SOL    HW127821   6.746   2.133   3.416
 9159SOL    HW227822   6.774   2.117   3.256
 9160SOL     OW27823   5.594   3.188   2.062
 9160SOL    HW127824   5.501   3.209   2.031
 9160SOL    HW227825   5.604   3.089   2.075
 9161SOL     OW27826   5.674   3.663   2.789
 9161SOL    HW127827   5.632   3.577   2.762
 9161SOL    HW227828   5.768   3.666   2.755
 9162SOL     OW27829   6.090   3.430   2.772
 9162SOL    HW127830   6.156   3.504   2.781
 9162SOL    HW227831   6.134   3.351   2.730
 9163SOL     OW27832   6.588   2.658   3.100
 9163SOL    HW127833   6.629   2.626   3.186
 9163SOL    HW227834   6.492   2.631   3.097
 9164SOL     OW27835   5.626   2.406   2.976
 9164SOL    HW127836   5.711   2.373   2.935
 9164SOL    HW227837   5.639   2.421   3.074
 9165SOL     OW27838   5.775   2.382   3.584
 9165SOL    HW127839   5.834   2.342   3.514
 9165SOL    HW227840   5.717   2.453   3.543
 9166SOL     OW27841   6.955   2.812   3.522
 9166SOL    HW127842   6.994   2.901   3.542
 9166SOL    HW227843   6.965   2.792   3.425
 9167SOL     OW27844   6.401   2.434   2.187
 9167SOL    HW127845   6.408   2.345   2.141
 9167SOL    HW227846   6.307   2.468   2.179
 9168SOL     OW27847   7.243   2.466   3.068
 9168SOL    HW127848   7.205   2.397   3.130
 9168SOL    HW227849   7.325   2.430   3.024
 9169SOL     OW27850   5.838   3.426   3.606
 9169SOL    HW127851   5.808   3.483   3.682
 9169SOL    HW227852   5.831   3.329   3.632
 9170SOL     OW27853   6.257   2.326   3.131
 9170SOL    HW127854   6.223   2.237   3.101
 9170SOL    HW227855   6.283   2.380   3.051
 9171SOL     OW27856   6.516   3.540   3.327
 9171SOL    HW127857   6.492   3.522   3.232
 9171SOL    HW227858   6.546   3.634   3.337
 9172SOL     OW27859   6.059   2.362   2.053
 9172SOL    HW127860   6.120   2.442   2.057
 9172SOL    HW227861   5.964   2.393   2.060
 9173SOL     OW27862   5.745   2.999   3.328
 9173SOL    HW127863   5.767   2.938   3.404
 9173SOL    HW227864   5.755   2.950   3.242
 9174SOL     OW27865   6.933   2.921   3.096
 9174SOL    HW127866   6.957   2.858   3.022
 9174SOL    HW227867   6.843   2.961   3.078
 9175SOL     OW27868   6.888   2.717   2.171
 9175SOL    HW127869   6.802   2.686   2.213
 9175SOL    HW227870   6.884   2.703   2.072
 9176SOL     OW27871   7.345   3.609   3.016
 9176SOL    HW127872   7.406   3.639   2.943
 9176SOL    HW227873   7.307   3.520   2.994
 9177SOL     OW27874   6.838   3.593   2.990
 9177SOL    HW127875   6.922   3.598   2.936
 9177SOL    HW227876   6.815   3.497   3.008
 9178SOL     OW27877   5.669   3.120   2.884
 9178SOL    HW127878   5.664   3.119   2.984
 9178SOL    HW227879   5.586   3.079   2.846
 9179SOL     OW27880   6.274   3.524   3.578
 9179SOL    HW127881   6.218   3.605   3.587
 9179SOL    HW227882   6.326   3.528   3.492
 9180SOL     OW27883   7.312   1.997   2.385
 9180SOL    HW127884   7.385   1.980   2.318
 9180SOL    HW227885   7.281   1.910   2.423
 9181SOL     OW27886   6.974   3.435   2.339
 9181SOL    HW127887   7.041   3.447   2.265
 9181SOL    HW227888   6.934   3.524   2.362
 9182SOL     OW27889   5.716   3.656   3.713
 9182SOL    HW127890   5.675   3.582   3.766
 9182SOL    HW227891   5.780   3.707   3.771
 9183SOL     OW27892   6.866   2.789   2.534
 9183SOL    HW127893   6.926   2.708   2.536
 9183SOL    HW227894   6.906   2.858   2.474
 9184SOL     OW27895   6.416   3.135   3.284
 9184SOL    HW127896   6.411   3.168   3.379
 9184SOL    HW227897   6.330   3.154   3.238
 9185SOL     OW27898   6.258   3.478   2.016
 9185SOL    HW127899   6.267   3.488   1.917
 9185SOL    HW227900   6.218   3.389   2.037
 9186SOL     OW27901   7.236   3.582   3.256
 9186SOL    HW127902   7.289   3.592   3.172
 9186SOL    HW227903   7.209   3.672   3.290
 9187SOL     OW27904   7.427   2.037   2.825
 9187SOL    HW127905   7.466   1.952   2.789
 9187SOL    HW227906   7.329   2.039   2.806
 9188SOL     OW27907   5.849   2.188   2.582
 9188SOL    HW127908   5.770   2.239   2.548
 9188SOL    HW227909   5.840   2.173   2.680
 9189SOL     OW27910   6.780   3.474   1.893
 9189SOL    HW127911   6.786   3.381   1.930
 9189SOL    HW227912   6.721   3.474   1.813
 9190SOL     OW27913   6.408   2.864   3.234
 9190SOL    HW127914   6.448   2.863   3.142
 9190SOL    HW227915   6.418   2.956   3.274
 9191SOL     OW27916   6.502   2.772   2.153
 9191SOL    HW127917   6.565   2.810   2.085
 9191SOL    HW227918   6.542   2.689   2.192
 9192SOL     OW27919   7.090   3.469   1.906
 9192SOL    HW127920   6.998   3.506   1.913
 9192SOL    HW227921   7.128   3.489   1.816
 9193SOL     OW27922   5.958   3.150   3.352
 9193SOL    HW127923   5.945   3.243   3.318
 9193SOL    HW227924   5.874   3.098   3.339
 9194SOL     OW27925   7.200   3.154   3.151
 9194SOL    HW127926   7.260   3.157   3.231
 9194SOL    HW227927   7.125   3.218   3.164
 9195SOL     OW27928   6.625   2.960   2.558
 9195SOL    HW127929   6.555   2.913   2.612
 9195SOL    HW227930   6.684   2.892   2.515
 9196SOL     OW27931   6.600   2.098   2.833
 9196SOL    HW127932   6.592   2.062   2.740
 9196SOL    HW227933   6.598   2.022   2.898
 9197SOL     OW27934   6.176   3.349   2.353
 9197SOL    HW127935   6.218   3.291   2.283
 9197SOL    HW227936   6.132   3.428   2.309
 9198SOL     OW27937   7.295   2.247   3.243
 9198SOL    HW127938   7.368   2.316   3.247
 9198SOL    HW227939   7.323   2.172   3.184
 9199SOL     OW27940   5.841   3.210   2.152
 9199SOL    HW127941   5.745   3.211   2.125
 9199SOL    HW227942   5.853   3.263   2.236
 9200SOL     OW27943   5.691   2.875   3.588
 9200SOL    HW127944   5.614   2.842   3.642
 9200SOL    HW227945   5.776   2.845   3.630
 9201SOL     OW27946   6.258   2.065   3.351
 9201SOL    HW127947   6.348   2.049   3.311
 9201SOL    HW227948   6.266   2.070   3.450
 9202SOL     OW27949   5.661   2.207   1.895
 9202SOL    HW127950   5.569   2.179   1.866
 9202SOL    HW227951   5.692   2.284   1.839
 9203SOL     OW27952   7.026   2.718   3.260
 9203SOL    HW127953   6.969   2.770   3.197
 9203SOL    HW227954   7.122   2.730   3.236
 9204SOL     OW27955   5.658   2.028   2.180
 9204SOL    HW127956   5.641   2.111   2.126
 9204SOL    HW227957   5.748   1.991   2.158
 9205SOL     OW27958   6.769   3.197   1.981
 9205SOL    HW127959   6.670   3.186   1.983
 9205SOL    HW227960   6.803   3.212   2.074
 9206SOL     OW27961   6.199   2.704   3.293
 9206SOL    HW127962   6.255   2.785   3.276
 9206SOL    HW227963   6.258   2.624   3.296
 9207SOL     OW27964   7.079   3.629   2.821
 9207SOL    HW127965   7.112   3.693   2.752
 9207SOL    HW227966   7.145   3.623   2.896
 9208SOL     OW27967   6.302   2.427   3.570
 9208SOL    HW127968   6.321   2.492   3.644
 9208SOL    HW227969   6.362   2.347   3.579
 9209SOL     OW27970   7.036   3.082   3.495
 9209SOL    HW127971   7.027   3.072   3.594
 9209SOL    HW227972   7.132   3.075   3.469
 9210SOL     OW27973   5.976   3.603   3.422
 9210SOL    HW127974   5.885   3.644   3.420
 9210SOL    HW227975   5.969   3.509   3.454
 9211SOL     OW27976   7.260   2.745   3.116
 9211SOL    HW127977   7.233   2.656   3.079
 9211SOL    HW227978   7.261   2.813   3.043
 9212SOL     OW27979   6.811   2.187   2.311
 9212SOL    HW127980   6.876   2.113   2.300
 9212SOL    HW227981   6.831   2.237   2.395
 9213SOL     OW27982   6.180   2.607   2.514
 9213SOL    HW127983   6.230   2.692   2.495
 9213SOL    HW227984   6.092   2.609   2.466
 9214SOL     OW27985   7.363   2.204   3.504
 9214SOL    HW127986   7.346   2.235   3.410
 9214SOL    HW227987   7.279   2.167   3.542
 9215SOL     OW27988   7.316   2.796   3.379
 9215SOL    HW127989   7.354   2.887   3.394
 9215SOL    HW227990   7.308   2.779   3.280
 9216SOL     OW27991   6.445   3.236   1.878
 9216SOL    HW127992   6.399   3.251   1.966
 9216SOL    HW227993   6.489   3.321   1.848
 9217SOL     OW27994   6.247   3.652   2.815
 9217SOL    HW127995   6.201   3.740   2.802
 9217SOL    HW227996   6.346   3.664   2.808
 9218SOL     OW27997   6.445   2.818   2.723
 9218SOL    HW127998   6.499   2.749   2.771
 9218SOL    HW227999   6.413   2.887   2.789
 9219SOL     OW28000   6.669   2.846   1.949
 9219SOL    HW128001   6.646   2.899   1.867
 9219SOL    HW228002   6.750   2.790   1.930
 9220SOL     OW28003   7.447   3.431   2.713
 9220SOL    HW128004   7.376   3.419   2.643
 9220SOL    HW228005   7.448   3.352   2.773
 9221SOL     OW28006   5.807   3.176   3.706
 9221SOL    HW128007   5.742   3.103   3.685
 9221SOL    HW228008   5.811   3.190   3.804
 9222SOL     OW28009   5.665   3.102   2.515
 9222SOL    HW128010   5.664   3.055   2.603
 9222SOL    HW228011   5.747   3.074   2.464
 9223SOL     OW28012   6.258   3.253   3.486
 9223SOL    HW128013   6.180   3.203   3.524
 9223SOL    HW228014   6.255   3.348   3.517
 9224SOL     OW28015   7.410   2.054   3.089
 9224SOL    HW128016   7.406   1.964   3.133
 9224SOL    HW228017   7.413   2.043   2.990
 9225SOL     OW28018   6.014   2.286   2.382
 9225SOL    HW128019   6.044   2.214   2.320
 9225SOL    HW228020   5.975   2.246   2.465
 9226SOL     OW28021   7.291   3.349   2.966
 9226SOL    HW128022   7.198   3.324   2.939
 9226SOL    HW228023   7.317   3.299   3.048
 9227SOL     OW28024   5.903   2.409   3.142
 9227SOL    HW128025   5.941   2.350   3.214
 9227SOL    HW228026   5.943   2.383   3.054
 9228SOL     OW28027   6.398   3.448   2.549
 9228SOL    HW128028   6.430   3.458   2.455
 9228SOL    HW228029   6.319   3.386   2.551
 9229SOL     OW28030   7.010   2.076   2.974
 9229SOL    HW128031   7.062   2.011   3.029
 9229SOL    HW228032   6.961   2.139   3.035
 9230SOL     OW28033   6.587   1.896   3.016
 9230SOL    HW128034   6.524   1.824   2.985
 9230SOL    HW228035   6.680   1.860   3.016
 9231SOL     OW28036   6.356   3.192   2.163
 9231SOL    HW128037   6.310   3.105   2.180
 9231SOL    HW228038   6.447   3.189   2.204
 9232SOL     OW28039   6.204   3.429   3.146
 9232SOL    HW128040   6.199   3.511   3.203
 9232SOL    HW228041   6.293   3.426   3.101
 9233SOL     OW28042   6.938   1.914   2.030
 9233SOL    HW128043   6.973   1.873   1.946
 9233SOL    HW228044   6.848   1.876   2.050
 9234SOL     OW28045   6.886   2.315   2.553
 9234SOL    HW128046   6.827   2.395   2.557
 9234SOL    HW228047   6.901   2.280   2.646
 9235SOL     OW28048   7.179   2.083   2.744
 9235SOL    HW128049   7.095   2.082   2.798
 9235SOL    HW228050   7.181   2.166   2.688
 9236SOL     OW28051   5.625   2.939   2.162
 9236SOL    HW128052   5.724   2.928   2.153
 9236SOL    HW228053   5.585   2.853   2.194
 9237SOL     OW28054   6.461   3.508   2.199
 9237SOL    HW128055   6.384   3.473   2.145
 9237SOL    HW228056   6.429   3.579   2.261
 9238SOL     OW28057   5.816   2.490   3.837
 9238SOL    HW128058   5.723   2.488   3.874
 9238SOL    HW228059   5.817   2.451   3.745
 9239SOL     OW28060   5.811   2.137   4.720
 9239SOL    HW128061   5.846   2.120   4.812
 9239SOL    HW228062   5.723   2.092   4.708
 9240SOL     OW28063   5.605   2.230   4.371
 9240SOL    HW128064   5.523   2.273   4.410
 9240SOL    HW228065   5.577   2.157   4.308
 9241SOL     OW28066   6.155   3.137   4.889
 9241SOL    HW128067   6.062   3.130   4.852
 9241SOL    HW228068   6.166   3.226   4.933
 9242SOL     OW28069   7.141   3.373   4.427
 9242SOL    HW128070   7.084   3.357   4.508
 9242SOL    HW228071   7.082   3.383   4.347
 9243SOL     OW28072   6.721   2.565   4.441
 9243SOL    HW128073   6.778   2.643   4.416
 9243SOL    HW228074   6.661   2.591   4.517
 9244SOL     OW28075   7.341   2.469   3.955
 9244SOL    HW128076   7.329   2.456   3.856
 9244SOL    HW228077   7.311   2.388   4.004
 9245SOL     OW28078   6.354   3.006   4.747
 9245SOL    HW128079   6.276   3.023   4.807
 9245SOL    HW228080   6.388   3.093   4.711
 9246SOL     OW28081   6.436   2.660   5.547
 9246SOL    HW128082   6.432   2.736   5.612
 9246SOL    HW228083   6.458   2.696   5.456
 9247SOL     OW28084   6.271   2.874   4.389
 9247SOL    HW128085   6.340   2.858   4.459
 9247SOL    HW228086   6.198   2.931   4.427
 9248SOL     OW28087   6.272   3.023   5.527
 9248SOL    HW128088   6.332   3.102   5.541
 9248SOL    HW228089   6.186   3.054   5.486
 9249SOL     OW28090   5.921   3.297   4.785
 9249SOL    HW128091   5.843   3.266   4.732
 9249SOL    HW228092   5.979   3.355   4.728
 9250SOL     OW28093   7.046   3.367   5.063
 9250SOL    HW128094   7.070   3.461   5.089
 9250SOL    HW228095   7.030   3.313   5.145
 9251SOL     OW28096   6.024   2.254   5.223
 9251SOL    HW128097   6.106   2.198   5.232
 9251SOL    HW228098   5.943   2.196   5.227
 9252SOL     OW28099   7.189   2.309   4.461
 9252SOL    HW128100   7.115   2.355   4.411
 9252SOL    HW228101   7.240   2.377   4.514
 9253SOL     OW28102   5.817   3.575   4.207
 9253SOL    HW128103   5.851   3.652   4.261
 9253SOL    HW228104   5.861   3.575   4.117
 9254SOL     OW28105   6.713   3.203   5.414
 9254SOL    HW128106   6.760   3.203   5.502
 9254SOL    HW228107   6.665   3.116   5.403
 9255SOL     OW28108   5.816   3.296   4.262
 9255SOL    HW128109   5.790   3.392   4.262
 9255SOL    HW228110   5.745   3.242   4.307
 9256SOL     OW28111   5.826   2.953   4.610
 9256SOL    HW128112   5.840   2.869   4.662
 9256SOL    HW228113   5.771   3.017   4.665
 9257SOL     OW28114   6.206   3.648   5.163
 9257SOL    HW128115   6.114   3.631   5.198
 9257SOL    HW228116   6.234   3.740   5.189
 9258SOL     OW28117   6.192   2.826   3.847
 9258SOL    HW128118   6.199   2.910   3.793
 9258SOL    HW228119   6.238   2.839   3.935
 9259SOL     OW28120   7.180   1.976   5.204
 9259SOL    HW128121   7.162   2.043   5.132
 9259SOL    HW228122   7.177   2.022   5.293
 9260SOL     OW28123   5.708   2.505   4.287
 9260SOL    HW128124   5.663   2.417   4.304
 9260SOL    HW228125   5.707   2.559   4.371
 9261SOL     OW28126   7.428   3.629   4.083
 9261SOL    HW128127   7.482   3.600   4.163
 9261SOL    HW228128   7.458   3.719   4.054
 9262SOL     OW28129   5.613   3.458   3.841
 9262SOL    HW128130   5.594   3.362   3.862
 9262SOL    HW228131   5.580   3.516   3.916
 9263SOL     OW28132   7.275   2.784   4.336
 9263SOL    HW128133   7.370   2.755   4.344
 9263SOL    HW228134   7.267   2.849   4.261
 9264SOL     OW28135   7.227   2.970   4.156
 9264SOL    HW128136   7.313   2.972   4.104
 9264SOL    HW228137   7.241   3.017   4.244
 9265SOL     OW28138   5.699   2.599   5.321
 9265SOL    HW128139   5.787   2.586   5.366
 9265SOL    HW228140   5.686   2.696   5.299
 9266SOL     OW28141   6.199   3.227   4.450
 9266SOL    HW128142   6.150   3.140   4.459
 9266SOL    HW228143   6.176   3.270   4.363
 9267SOL     OW28144   6.879   3.090   5.147
 9267SOL    HW128145   6.916   3.017   5.089
 9267SOL    HW228146   6.931   3.095   5.232
 9268SOL     OW28147   6.395   1.866   4.226
 9268SOL    HW128148   6.435   1.957   4.217
 9268SOL    HW228149   6.295   1.874   4.232
 9269SOL     OW28150   5.783   2.838   4.988
 9269SOL    HW128151   5.872   2.793   4.974
 9269SOL    HW228152   5.710   2.773   4.969
 9270SOL     OW28153   7.111   2.861   3.914
 9270SOL    HW128154   7.048   2.785   3.927
 9270SOL    HW228155   7.159   2.879   4.000
 9271SOL     OW28156   6.773   3.654   5.340
 9271SOL    HW128157   6.797   3.714   5.264
 9271SOL    HW228158   6.780   3.559   5.310
 9272SOL     OW28159   5.903   2.113   5.525
 9272SOL    HW128160   5.974   2.184   5.531
 9272SOL    HW228161   5.815   2.152   5.553
 9273SOL     OW28162   7.052   3.279   4.677
 9273SOL    HW128163   6.993   3.285   4.757
 9273SOL    HW228164   7.037   3.191   4.631
 9274SOL     OW28165   7.253   3.576   4.296
 9274SOL    HW128166   7.212   3.553   4.208
 9274SOL    HW228167   7.235   3.502   4.361
 9275SOL     OW28168   6.184   2.591   3.994
 9275SOL    HW128169   6.208   2.660   3.926
 9275SOL    HW228170   6.106   2.624   4.048
 9276SOL     OW28171   6.867   2.207   4.668
 9276SOL    HW128172   6.781   2.157   4.655
 9276SOL    HW228173   6.929   2.153   4.724
 9277SOL     OW28174   7.162   3.524   4.031
 9277SOL    HW128175   7.251   3.570   4.034
 9277SOL    HW228176   7.141   3.500   3.936
 9278SOL     OW28177   6.393   2.467   5.189
 9278SOL    HW128178   6.346   2.464   5.278
 9278SOL    HW228179   6.342   2.412   5.123
 9279SOL     OW28180   6.980   2.331   5.398
 9279SOL    HW128181   6.960   2.374   5.486
 9279SOL    HW228182   7.058   2.269   5.407
 9280SOL     OW28183   6.559   2.752   5.296
 9280SOL    HW128184   6.605   2.668   5.267
 9280SOL    HW228185   6.503   2.786   5.221
 9281SOL     OW28186   6.577   2.272   4.966
 9281SOL    HW128187   6.500   2.306   5.020
 9281SOL    HW228188   6.543   2.221   4.887
 9282SOL     OW28189   6.627   2.563   4.153
 9282SOL    HW128190   6.653   2.559   4.249
 9282SOL    HW228191   6.542   2.512   4.139
 9283SOL     OW28192   5.662   2.673   4.513
 9283SOL    HW128193   5.761   2.661   4.522
 9283SOL    HW228194   5.638   2.768   4.534
 9284SOL     OW28195   5.716   3.683   5.295
 9284SOL    HW128196   5.706   3.668   5.394
 9284SOL    HW228197   5.630   3.719   5.259
 9285SOL     OW28198   6.451   2.210   3.919
 9285SOL    HW128199   6.510   2.273   3.870
 9285SOL    HW228200   6.470   2.116   3.890
 9286SOL     OW28201   7.305   2.447   5.555
 9286SOL    HW128202   7.279   2.536   5.519
 9286SOL    HW228203   7.303   2.379   5.482
 9287SOL     OW28204   6.948   3.006   4.269
 9287SOL    HW128205   7.031   2.977   4.221
 9287SOL    HW228206   6.899   3.073   4.213
 9288SOL     OW28207   6.136   2.058   4.609
 9288SOL    HW128208   6.131   2.053   4.709
 9288SOL    HW228209   6.138   2.154   4.580
 9289SOL     OW28210   6.594   3.318   4.201
 9289SOL    HW128211   6.548   3.390   4.149
 9289SOL    HW228212   6.590   3.338   4.299
 9290SOL     OW28213   5.937   3.663   4.577
 9290SOL    HW128214   5.987   3.577   4.583
 9290SOL    HW228215   6.002   3.740   4.574
 9291SOL     OW28216   7.381   2.928   4.597
 9291SOL    HW128217   7.319   2.913   4.521
 9291SOL    HW228218   7.329   2.939   4.682
 9292SOL     OW28219   6.813   3.412   5.230
 9292SOL    HW128220   6.819   3.335   5.294
 9292SOL    HW228221   6.761   3.386   5.150
 9293SOL     OW28222   5.907   2.805   3.966
 9293SOL    HW128223   5.989   2.844   3.924
 9293SOL    HW228224   5.880   2.723   3.917
 9294SOL     OW28225   7.044   2.597   4.452
 9294SOL    HW128226   7.039   2.532   4.527
 9294SOL    HW228227   7.124   2.656   4.465
 9295SOL     OW28228   6.047   3.128   5.451
 9295SOL    HW128229   5.997   3.129   5.365
 9295SOL    HW228230   5.984   3.110   5.527
 9296SOL     OW28231   6.697   3.638   3.961
 9296SOL    HW128232   6.637   3.576   4.011
 9296SOL    HW228233   6.728   3.594   3.876
 9297SOL     OW28234   5.788   2.147   5.222
 9297SOL    HW128235   5.708   2.207   5.209
 9297SOL    HW228236   5.778   2.098   5.308
 9298SOL     OW28237   7.218   3.239   3.805
 9298SOL    HW128238   7.186   3.333   3.795
 9298SOL    HW228239   7.142   3.176   3.793
 9299SOL     OW28240   6.050   3.605   4.047
 9299SOL    HW128241   6.083   3.644   4.133
 9299SOL    HW228242   6.126   3.598   3.982
 9300SOL     OW28243   6.986   1.969   4.150
 9300SOL    HW128244   6.962   1.932   4.060
 9300SOL    HW228245   7.085   1.985   4.154
 9301SOL     OW28246   5.835   3.647   4.965
 9301SOL    HW128247   5.892   3.582   5.015
 9301SOL    HW228248   5.819   3.614   4.872
 9302SOL     OW28249   6.526   3.560   4.628
 9302SOL    HW128250   6.606   3.503   4.649
 9302SOL    HW228251   6.477   3.520   4.551
 9303SOL     OW28252   5.968   2.562   4.204
 9303SOL    HW128253   6.013   2.472   4.201
 9303SOL    HW228254   5.874   2.551   4.237
 9304SOL     OW28255   7.133   2.084   5.453
 9304SOL    HW128256   7.128   2.121   5.545
 9304SOL    HW228257   7.061   2.015   5.441
 9305SOL     OW28258   6.200   1.984   3.841
 9305SOL    HW128259   6.298   1.962   3.848
 9305SOL    HW228260   6.169   1.967   3.748
 9306SOL     OW28261   6.367   2.126   5.473
 9306SOL    HW128262   6.434   2.065   5.516
 9306SOL    HW228263   6.294   2.145   5.538
 9307SOL     OW28264   6.474   3.376   4.919
 9307SOL    HW128265   6.451   3.351   4.825
 9307SOL    HW228266   6.535   3.307   4.958
 9308SOL     OW28267   6.937   2.452   5.157
 9308SOL    HW128268   6.965   2.409   5.242
 9308SOL    HW228269   6.962   2.548   5.158
 9309SOL     OW28270   6.389   3.264   4.648
 9309SOL    HW128271   6.479   3.278   4.606
 9309SOL    HW228272   6.318   3.266   4.577
 9310SOL     OW28273   6.508   2.365   4.623
 9310SOL    HW128274   6.483   2.356   4.527
 9310SOL    HW228275   6.556   2.283   4.654
 9311SOL     OW28276   6.125   1.926   4.236
 9311SOL    HW128277   6.044   1.927   4.294
 9311SOL    HW228278   6.128   2.009   4.181
 9312SOL     OW28279   7.020   3.050   3.765
 9312SOL    HW128280   7.052   2.974   3.822
 9312SOL    HW228281   6.928   3.077   3.795
 9313SOL     OW28282   5.883   1.897   3.895
 9313SOL    HW128283   5.932   1.981   3.874
 9313SOL    HW228284   5.945   1.832   3.940
 9314SOL     OW28285   6.521   2.098   4.204
 9314SOL    HW128286   6.473   2.139   4.126
 9314SOL    HW228287   6.620   2.096   4.185
 9315SOL     OW28288   6.662   2.545   5.188
 9315SOL    HW128289   6.582   2.484   5.191
 9315SOL    HW228290   6.743   2.492   5.164
 9316SOL     OW28291   6.813   3.432   4.517
 9316SOL    HW128292   6.834   3.506   4.452
 9316SOL    HW228293   6.881   3.432   4.590
 9317SOL     OW28294   6.045   3.014   4.465
 9317SOL    HW128295   5.974   2.987   4.530
 9317SOL    HW228296   6.019   2.986   4.372
 9318SOL     OW28297   6.857   3.659   4.315
 9318SOL    HW128298   6.901   3.723   4.251
 9318SOL    HW228299   6.807   3.711   4.385
 9319SOL     OW28300   6.618   2.411   3.740
 9319SOL    HW128301   6.577   2.493   3.701
 9319SOL    HW228302   6.682   2.437   3.813
 9320SOL     OW28303   5.664   2.418   5.110
 9320SOL    HW128304   5.756   2.417   5.069
 9320SOL    HW228305   5.658   2.492   5.177
 9321SOL     OW28306   6.147   2.084   4.871
 9321SOL    HW128307   6.185   2.000   4.908
 9321SOL    HW228308   6.059   2.103   4.915
 9322SOL     OW28309   6.452   2.316   4.366
 9322SOL    HW128310   6.420   2.388   4.304
 9322SOL    HW228311   6.476   2.235   4.313
 9323SOL     OW28312   6.603   1.901   4.477
 9323SOL    HW128313   6.531   1.906   4.408
 9323SOL    HW228314   6.579   1.832   4.546
 9324SOL     OW28315   7.015   3.035   4.591
 9324SOL    HW128316   6.960   2.951   4.584
 9324SOL    HW228317   7.041   3.064   4.499
 9325SOL     OW28318   7.052   2.452   4.716
 9325SOL    HW128319   7.022   2.357   4.723
 9325SOL    HW228320   7.125   2.468   4.782
 9326SOL     OW28321   7.443   2.695   4.101
 9326SOL    HW128322   7.485   2.631   4.165
 9326SOL    HW228323   7.405   2.644   4.023
 9327SOL     OW28324   6.074   3.247   3.898
 9327SOL    HW128325   5.987   3.232   3.945
 9327SOL    HW228326   6.057   3.273   3.803
 9328SOL     OW28327   7.250   3.142   4.381
 9328SOL    HW128328   7.349   3.150   4.395
 9328SOL    HW228329   7.205   3.226   4.412
 9329SOL     OW28330   6.976   2.437   3.802
 9329SOL    HW128331   6.922   2.416   3.883
 9329SOL    HW228332   7.067   2.396   3.811
 9330SOL     OW28333   6.113   2.118   4.052
 9330SOL    HW128334   6.140   2.059   3.977
 9330SOL    HW228335   6.113   2.213   4.021
 9331SOL     OW28336   7.340   3.085   5.312
 9331SOL    HW128337   7.431   3.046   5.299
 9331SOL    HW228338   7.348   3.181   5.336
 9332SOL     OW28339   6.650   3.209   5.064
 9332SOL    HW128340   6.570   3.186   5.119
 9332SOL    HW228341   6.733   3.183   5.113
 9333SOL     OW28342   7.178   3.491   5.349
 9333SOL    HW128343   7.205   3.525   5.259
 9333SOL    HW228344   7.257   3.453   5.395
 9334SOL     OW28345   6.697   3.057   4.824
 9334SOL    HW128346   6.657   3.101   4.905
 9334SOL    HW228347   6.656   3.094   4.741
 9335SOL     OW28348   7.224   2.961   4.803
 9335SOL    HW128349   7.229   3.042   4.862
 9335SOL    HW228350   7.138   2.963   4.752
 9336SOL     OW28351   6.501   1.951   5.126
 9336SOL    HW128352   6.526   1.931   5.031
 9336SOL    HW228353   6.573   2.007   5.168
 9337SOL     OW28354   6.566   2.978   5.443
 9337SOL    HW128355   6.467   2.984   5.453
 9337SOL    HW228356   6.589   2.898   5.387
 9338SOL     OW28357   6.291   2.912   4.092
 9338SOL    HW128358   6.277   2.919   4.191
 9338SOL    HW228359   6.375   2.861   4.074
 9339SOL     OW28360   5.996   2.675   4.975
 9339SOL    HW128361   6.082   2.687   5.025
 9339SOL    HW228362   5.954   2.588   5.002
 9340SOL     OW28363   6.860   2.248   4.986
 9340SOL    HW128364   6.881   2.322   5.050
 9340SOL    HW228365   6.771   2.265   4.943
 9341SOL     OW28366   5.650   3.426   5.055
 9341SOL    HW128367   5.604   3.508   5.021
 9341SOL    HW228368   5.748   3.445   5.064
 9342SOL     OW28369   5.953   2.962   4.225
 9342SOL    HW128370   5.946   3.045   4.169
 9342SOL    HW228371   5.957   2.882   4.165
 9343SOL     OW28372   6.152   2.399   4.589
 9343SOL    HW128373   6.164   2.465   4.515
 9343SOL    HW228374   6.198   2.433   4.672
 9344SOL     OW28375   6.838   3.210   4.112
 9344SOL    HW128376   6.888   3.287   4.152
 9344SOL    HW228377   6.743   3.212   4.144
 9345SOL     OW28378   6.858   3.307   4.866
 9345SOL    HW128379   6.905   3.320   4.953
 9345SOL    HW228380   6.792   3.233   4.875
 9346SOL     OW28381   7.168   2.501   4.196
 9346SOL    HW128382   7.137   2.562   4.269
 9346SOL    HW228383   7.218   2.553   4.127
 9347SOL     OW28384   5.940   3.372   5.053
 9347SOL    HW128385   5.919   3.328   4.966
 9347SOL    HW228386   6.037   3.398   5.056
 9348SOL     OW28387   5.988   2.613   5.322
 9348SOL    HW128388   6.056   2.668   5.275
 9348SOL    HW228389   6.028   2.525   5.349
 9349SOL     OW28390   7.173   2.641   5.394
 9349SOL    HW128391   7.081   2.679   5.389
 9349SOL    HW228392   7.233   2.688   5.329
 9350SOL     OW28393   6.599   1.967   5.494
 9350SOL    HW128394   6.605   2.052   5.442
 9350SOL    HW228395   6.631   1.891   5.437
 9351SOL     OW28396   6.090   1.912   5.464
 9351SOL    HW128397   6.048   1.855   5.394
 9351SOL    HW228398   6.024   1.981   5.496
 9352SOL     OW28399   6.159   2.732   4.753
 9352SOL    HW128400   6.203   2.821   4.744
 9352SOL    HW228401   6.096   2.732   4.830
 9353SOL     OW28402   6.946   2.724   4.769
 9353SOL    HW128403   6.871   2.724   4.703
 9353SOL    HW228404   6.983   2.632   4.778
 9354SOL     OW28405   6.795   2.387   3.999
 9354SOL    HW128406   6.808   2.303   4.053
 9354SOL    HW228407   6.766   2.461   4.059
 9355SOL     OW28408   5.893   2.075   4.955
 9355SOL    HW128409   5.870   2.112   5.045
 9355SOL    HW228410   5.863   1.980   4.949
 9356SOL     OW28411   5.623   3.172   5.006
 9356SOL    HW128412   5.676   3.123   5.074
 9356SOL    HW228413   5.645   3.270   5.011
 9357SOL     OW28414   6.318   2.496   4.788
 9357SOL    HW128415   6.377   2.470   4.712
 9357SOL    HW228416   6.290   2.592   4.777
 9358SOL     OW28417   7.314   2.797   5.578
 9358SOL    HW128418   7.268   2.790   5.489
 9358SOL    HW228419   7.252   2.841   5.644
 9359SOL     OW28420   5.893   1.925   4.342
 9359SOL    HW128421   5.882   2.019   4.375
 9359SOL    HW228422   5.888   1.862   4.419
 9360SOL     OW28423   7.208   2.229   4.098
 9360SOL    HW128424   7.210   2.153   4.162
 9360SOL    HW228425   7.160   2.306   4.138
 9361SOL     OW28426   6.609   2.628   4.690
 9361SOL    HW128427   6.624   2.649   4.786
 9361SOL    HW228428   6.579   2.533   4.681
 9362SOL     OW28429   6.566   3.435   5.424
 9362SOL    HW128430   6.546   3.479   5.336
 9362SOL    HW228431   6.605   3.344   5.408
 9363SOL     OW28432   7.445   3.380   5.329
 9363SOL    HW128433   7.459   3.407   5.234
 9363SOL    HW228434   7.528   3.402   5.382
 9364SOL     OW28435   5.936   2.760   5.528
 9364SOL    HW128436   6.012   2.804   5.576
 9364SOL    HW228437   5.971   2.713   5.446
 9365SOL     OW28438   7.126   2.136   3.849
 9365SOL    HW128439   7.065   2.061   3.872
 9365SOL    HW228440   7.148   2.188   3.932
 9366SOL     OW28441   6.889   2.700   3.766
 9366SOL    HW128442   6.923   2.607   3.781
 9366SOL    HW228443   6.907   2.727   3.671
 9367SOL     OW28444   6.654   3.195   4.573
 9367SOL    HW128445   6.661   3.111   4.518
 9367SOL    HW228446   6.716   3.264   4.537
 9368SOL     OW28447   5.905   2.672   4.673
 9368SOL    HW128448   5.998   2.708   4.678
 9368SOL    HW228449   5.899   2.587   4.725
 9369SOL     OW28450   5.925   2.371   4.730
 9369SOL    HW128451   5.873   2.288   4.713
 9369SOL    HW228452   6.002   2.376   4.666
 9370SOL     OW28453   6.724   2.242   5.402
 9370SOL    HW128454   6.679   2.305   5.466
 9370SOL    HW228455   6.817   2.273   5.385
 9371SOL     OW28456   6.746   2.069   5.201
 9371SOL    HW128457   6.746   2.133   5.278
 9371SOL    HW228458   6.774   2.117   5.118
 9372SOL     OW28459   5.594   3.188   3.924
 9372SOL    HW128460   5.501   3.209   3.893
 9372SOL    HW228461   5.604   3.089   3.937
 9373SOL     OW28462   5.674   3.663   4.651
 9373SOL    HW128463   5.632   3.577   4.624
 9373SOL    HW228464   5.768   3.666   4.617
 9374SOL     OW28465   6.090   3.430   4.634
 9374SOL    HW128466   6.156   3.504   4.643
 9374SOL    HW228467   6.134   3.351   4.592
 9375SOL     OW28468   6.588   2.658   4.962
 9375SOL    HW128469   6.629   2.626   5.048
 9375SOL    HW228470   6.492   2.631   4.959
 9376SOL     OW28471   5.626   2.406   4.838
 9376SOL    HW128472   5.711   2.373   4.797
 9376SOL    HW228473   5.639   2.421   4.936
 9377SOL     OW28474   5.775   2.382   5.446
 9377SOL    HW128475   5.834   2.342   5.376
 9377SOL    HW228476   5.717   2.453   5.405
 9378SOL     OW28477   6.955   2.812   5.384
 9378SOL    HW128478   6.994   2.901   5.404
 9378SOL    HW228479   6.965   2.792   5.287
 9379SOL     OW28480   6.401   2.434   4.049
 9379SOL    HW128481   6.408   2.345   4.003
 9379SOL    HW228482   6.307   2.468   4.041
 9380SOL     OW28483   7.243   2.466   4.930
 9380SOL    HW128484   7.205   2.397   4.992
 9380SOL    HW228485   7.325   2.430   4.886
 9381SOL     OW28486   5.838   3.426   5.468
 9381SOL    HW128487   5.808   3.483   5.544
 9381SOL    HW228488   5.831   3.329   5.494
 9382SOL     OW28489   6.257   2.326   4.993
 9382SOL    HW128490   6.223   2.237   4.963
 9382SOL    HW228491   6.283   2.380   4.913
 9383SOL     OW28492   6.516   3.540   5.189
 9383SOL    HW128493   6.492   3.522   5.094
 9383SOL    HW228494   6.546   3.634   5.199
 9384SOL     OW28495   6.059   2.362   3.915
 9384SOL    HW128496   6.120   2.442   3.919
 9384SOL    HW228497   5.964   2.393   3.922
 9385SOL     OW28498   5.745   2.999   5.190
 9385SOL    HW128499   5.767   2.938   5.266
 9385SOL    HW228500   5.755   2.950   5.104
 9386SOL     OW28501   6.933   2.921   4.958
 9386SOL    HW128502   6.957   2.858   4.884
 9386SOL    HW228503   6.843   2.961   4.940
 9387SOL     OW28504   6.888   2.717   4.033
 9387SOL    HW128505   6.802   2.686   4.075
 9387SOL    HW228506   6.884   2.703   3.934
 9388SOL     OW28507   7.345   3.609   4.878
 9388SOL    HW128508   7.406   3.639   4.805
 9388SOL    HW228509   7.307   3.520   4.856
 9389SOL     OW28510   6.838   3.593   4.852
 9389SOL    HW128511   6.922   3.598   4.798
 9389SOL    HW228512   6.815   3.497   4.870
 9390SOL     OW28513   5.669   3.120   4.746
 9390SOL    HW128514   5.664   3.119   4.846
 9390SOL    HW228515   5.586   3.079   4.708
 9391SOL     OW28516   6.274   3.524   5.440
 9391SOL    HW128517   6.218   3.605   5.449
 9391SOL    HW228518   6.326   3.528   5.354
 9392SOL     OW28519   7.312   1.997   4.247
 9392SOL    HW128520   7.385   1.980   4.180
 9392SOL    HW228521   7.281   1.910   4.285
 9393SOL     OW28522   6.974   3.435   4.201
 9393SOL    HW128523   7.041   3.447   4.127
 9393SOL    HW228524   6.934   3.524   4.224
 9394SOL     OW28525   5.716   3.656   5.575
 9394SOL    HW128526   5.675   3.582   5.628
 9394SOL    HW228527   5.780   3.707   5.633
 9395SOL     OW28528   6.866   2.789   4.396
 9395SOL    HW128529   6.926   2.708   4.398
 9395SOL    HW228530   6.906   2.858   4.336
 9396SOL     OW28531   6.416   3.135   5.146
 9396SOL    HW128532   6.411   3.168   5.241
 9396SOL    HW228533   6.330   3.154   5.100
 9397SOL     OW28534   6.258   3.478   3.878
 9397SOL    HW128535   6.267   3.488   3.779
 9397SOL    HW228536   6.218   3.389   3.899
 9398SOL     OW28537   7.236   3.582   5.118
 9398SOL    HW128538   7.289   3.592   5.034
 9398SOL    HW228539   7.209   3.672   5.152
 9399SOL     OW28540   7.427   2.037   4.687
 9399SOL    HW128541   7.466   1.952   4.651
 9399SOL    HW228542   7.329   2.039   4.668
 9400SOL     OW28543   5.849   2.188   4.444
 9400SOL    HW128544   5.770   2.239   4.410
 9400SOL    HW228545   5.840   2.173   4.542
 9401SOL     OW28546   6.780   3.474   3.755
 9401SOL    HW128547   6.786   3.381   3.792
 9401SOL    HW228548   6.721   3.474   3.675
 9402SOL     OW28549   6.408   2.864   5.096
 9402SOL    HW128550   6.448   2.863   5.004
 9402SOL    HW228551   6.418   2.956   5.136
 9403SOL     OW28552   6.502   2.772   4.015
 9403SOL    HW128553   6.565   2.810   3.947
 9403SOL    HW228554   6.542   2.689   4.054
 9404SOL     OW28555   7.090   3.469   3.768
 9404SOL    HW128556   6.998   3.506   3.775
 9404SOL    HW228557   7.128   3.489   3.678
 9405SOL     OW28558   5.958   3.150   5.214
 9405SOL    HW128559   5.945   3.243   5.180
 9405SOL    HW228560   5.874   3.098   5.201
 9406SOL     OW28561   7.200   3.154   5.013
 9406SOL    HW128562   7.260   3.157   5.093
 9406SOL    HW228563   7.125   3.218   5.026
 9407SOL     OW28564   6.625   2.960   4.420
 9407SOL    HW128565   6.555   2.913   4.474
 9407SOL    HW228566   6.684   2.892   4.377
 9408SOL     OW28567   6.600   2.098   4.695
 9408SOL    HW128568   6.592   2.062   4.602
 9408SOL    HW228569   6.598   2.022   4.760
 9409SOL     OW28570   6.176   3.349   4.215
 9409SOL    HW128571   6.218   3.291   4.145
 9409SOL    HW228572   6.132   3.428   4.171
 9410SOL     OW28573   7.295   2.247   5.105
 9410SOL    HW128574   7.368   2.316   5.109
 9410SOL    HW228575   7.323   2.172   5.046
 9411SOL     OW28576   5.841   3.210   4.014
 9411SOL    HW128577   5.745   3.211   3.987
 9411SOL    HW228578   5.853   3.263   4.098
 9412SOL     OW28579   5.691   2.875   5.450
 9412SOL    HW128580   5.614   2.842   5.504
 9412SOL    HW228581   5.776   2.845   5.492
 9413SOL     OW28582   6.258   2.065   5.213
 9413SOL    HW128583   6.348   2.049   5.173
 9413SOL    HW228584   6.266   2.070   5.312
 9414SOL     OW28585   5.661   2.207   3.757
 9414SOL    HW128586   5.569   2.179   3.728
 9414SOL    HW228587   5.692   2.284   3.701
 9415SOL     OW28588   7.026   2.718   5.122
 9415SOL    HW128589   6.969   2.770   5.059
 9415SOL    HW228590   7.122   2.730   5.098
 9416SOL     OW28591   5.658   2.028   4.042
 9416SOL    HW128592   5.641   2.111   3.988
 9416SOL    HW228593   5.748   1.991   4.020
 9417SOL     OW28594   6.769   3.197   3.843
 9417SOL    HW128595   6.670   3.186   3.845
 9417SOL    HW228596   6.803   3.212   3.936
 9418SOL     OW28597   6.199   2.704   5.155
 9418SOL    HW128598   6.255   2.785   5.138
 9418SOL    HW228599   6.258   2.624   5.158
 9419SOL     OW28600   7.079   3.629   4.683
 9419SOL    HW128601   7.112   3.693   4.614
 9419SOL    HW228602   7.145   3.623   4.758
 9420SOL     OW28603   6.302   2.427   5.432
 9420SOL    HW128604   6.321   2.492   5.506
 9420SOL    HW228605   6.362   2.347   5.441
 9421SOL     OW28606   7.036   3.082   5.357
 9421SOL    HW128607   7.027   3.072   5.456
 9421SOL    HW228608   7.132   3.075   5.331
 9422SOL     OW28609   5.976   3.603   5.284
 9422SOL    HW128610   5.885   3.644   5.282
 9422SOL    HW228611   5.969   3.509   5.316
 9423SOL     OW28612   7.260   2.745   4.978
 9423SOL    HW128613   7.233   2.656   4.941
 9423SOL    HW228614   7.261   2.813   4.905
 9424SOL     OW28615   6.811   2.187   4.173
 9424SOL    HW128616   6.876   2.113   4.162
 9424SOL    HW228617   6.831   2.237   4.257
 9425SOL     OW28618   6.180   2.607   4.376
 9425SOL    HW128619   6.230   2.692   4.357
 9425SOL    HW228620   6.092   2.609   4.328
 9426SOL     OW28621   7.363   2.204   5.366
 9426SOL    HW128622   7.346   2.235   5.272
 9426SOL    HW228623   7.279   2.167   5.404
 9427SOL     OW28624   7.316   2.796   5.241
 9427SOL    HW128625   7.354   2.887   5.256
 9427SOL    HW228626   7.308   2.779   5.142
 9428SOL     OW28627   6.445   3.236   3.740
 9428SOL    HW128628   6.399   3.251   3.828
 9428SOL    HW228629   6.489   3.321   3.710
 9429SOL     OW28630   6.247   3.652   4.677
 9429SOL    HW128631   6.201   3.740   4.664
 9429SOL    HW228632   6.346   3.664   4.670
 9430SOL     OW28633   6.445   2.818   4.585
 9430SOL    HW128634   6.499   2.749   4.633
 9430SOL    HW228635   6.413   2.887   4.651
 9431SOL     OW28636   6.669   2.846   3.811
 9431SOL    HW128637   6.646   2.899   3.729
 9431SOL    HW228638   6.750   2.790   3.792
 9432SOL     OW28639   7.447   3.431   4.575
 9432SOL    HW128640   7.376   3.419   4.505
 9432SOL    HW228641   7.448   3.352   4.635
 9433SOL     OW28642   5.807   3.176   5.568
 9433SOL    HW128643   5.742   3.103   5.547
 9433SOL    HW228644   5.811   3.190   5.666
 9434SOL     OW28645   5.665   3.102   4.377
 9434SOL    HW128646   5.664   3.055   4.465
 9434SOL    HW228647   5.747   3.074   4.326
 9435SOL     OW28648   6.258   3.253   5.348
 9435SOL    HW128649   6.180   3.203   5.386
 9435SOL    HW228650   6.255   3.348   5.379
 9436SOL     OW28651   7.410   2.054   4.951
 9436SOL    HW128652   7.406   1.964   4.995
 9436SOL    HW228653   7.413   2.043   4.852
 9437SOL     OW28654   6.014   2.286   4.244
 9437SOL    HW128655   6.044   2.214   4.182
 9437SOL    HW228656   5.975   2.246   4.327
 9438SOL     OW28657   7.291   3.349   4.828
 9438SOL    HW128658   7.198   3.324   4.801
 9438SOL    HW228659   7.317   3.299   4.910
 9439SOL     OW28660   5.903   2.409   5.004
 9439SOL    HW128661   5.941   2.350   5.076
 9439SOL    HW228662   5.943   2.383   4.916
 9440SOL     OW28663   6.398   3.448   4.411
 9440SOL    HW128664   6.430   3.458   4.317
 9440SOL    HW228665   6.319   3.386   4.413
 9441SOL     OW28666   7.010   2.076   4.836
 9441SOL    HW128667   7.062   2.011   4.891
 9441SOL    HW228668   6.961   2.139   4.897
 9442SOL     OW28669   6.587   1.896   4.878
 9442SOL    HW128670   6.524   1.824   4.847
 9442SOL    HW228671   6.680   1.860   4.878
 9443SOL     OW28672   6.356   3.192   4.025
 9443SOL    HW128673   6.310   3.105   4.042
 9443SOL    HW228674   6.447   3.189   4.066
 9444SOL     OW28675   6.204   3.429   5.008
 9444SOL    HW128676   6.199   3.511   5.065
 9444SOL    HW228677   6.293   3.426   4.963
 9445SOL     OW28678   6.938   1.914   3.892
 9445SOL    HW128679   6.973   1.873   3.808
 9445SOL    HW228680   6.848   1.876   3.912
 9446SOL     OW28681   6.886   2.315   4.415
 9446SOL    HW128682   6.827   2.395   4.419
 9446SOL    HW228683   6.901   2.280   4.508
 9447SOL     OW28684   7.179   2.083   4.606
 9447SOL    HW128685   7.095   2.082   4.660
 9447SOL    HW228686   7.181   2.166   4.550
 9448SOL     OW28687   5.625   2.939   4.024
 9448SOL    HW128688   5.724   2.928   4.015
 9448SOL    HW228689   5.585   2.853   4.056
 9449SOL     OW28690   6.461   3.508   4.061
 9449SOL    HW128691   6.384   3.473   4.007
 9449SOL    HW228692   6.429   3.579   4.123
 9450SOL     OW28693   5.816   2.490   5.699
 9450SOL    HW128694   5.723   2.488   5.736
 9450SOL    HW228695   5.817   2.451   5.607
 9451SOL     OW28696   5.605   2.230   6.233
 9451SOL    HW128697   5.523   2.273   6.272
 9451SOL    HW228698   5.577   2.157   6.170
 9452SOL     OW28699   7.341   2.469   5.817
 9452SOL    HW128700   7.329   2.456   5.718
 9452SOL    HW228701   7.311   2.388   5.866
 9453SOL     OW28702   6.271   2.874   6.251
 9453SOL    HW128703   6.340   2.858   6.321
 9453SOL    HW228704   6.198   2.931   6.289
 9454SOL     OW28705   5.817   3.575   6.069
 9454SOL    HW128706   5.851   3.652   6.123
 9454SOL    HW228707   5.861   3.575   5.979
 9455SOL     OW28708   6.192   2.826   5.709
 9455SOL    HW128709   6.199   2.910   5.655
 9455SOL    HW228710   6.238   2.839   5.797
 9456SOL     OW28711   7.428   3.629   5.945
 9456SOL    HW128712   7.482   3.600   6.025
 9456SOL    HW228713   7.458   3.719   5.916
 9457SOL     OW28714   5.613   3.458   5.703
 9457SOL    HW128715   5.594   3.362   5.724
 9457SOL    HW228716   5.580   3.516   5.778
 9458SOL     OW28717   7.275   2.784   6.198
 9458SOL    HW128718   7.370   2.755   6.206
 9458SOL    HW228719   7.267   2.849   6.123
 9459SOL     OW28720   7.227   2.970   6.018
 9459SOL    HW128721   7.313   2.972   5.966
 9459SOL    HW228722   7.241   3.017   6.106
 9460SOL     OW28723   6.395   1.866   6.088
 9460SOL    HW128724   6.435   1.957   6.079
 9460SOL    HW228725   6.295   1.874   6.094
 9461SOL     OW28726   7.111   2.861   5.776
 9461SOL    HW128727   7.048   2.785   5.789
 9461SOL    HW228728   7.159   2.879   5.862
 9462SOL     OW28729   6.184   2.591   5.856
 9462SOL    HW128730   6.208   2.660   5.788
 9462SOL    HW228731   6.106   2.624   5.910
 9463SOL     OW28732   7.162   3.524   5.893
 9463SOL    HW128733   7.251   3.570   5.896
 9463SOL    HW228734   7.141   3.500   5.798
 9464SOL     OW28735   6.627   2.563   6.015
 9464SOL    HW128736   6.653   2.559   6.111
 9464SOL    HW228737   6.542   2.512   6.001
 9465SOL     OW28738   6.451   2.210   5.781
 9465SOL    HW128739   6.510   2.273   5.732
 9465SOL    HW228740   6.470   2.116   5.752
 9466SOL     OW28741   6.948   3.006   6.131
 9466SOL    HW128742   7.031   2.977   6.083
 9466SOL    HW228743   6.899   3.073   6.075
 9467SOL     OW28744   6.594   3.318   6.063
 9467SOL    HW128745   6.548   3.390   6.011
 9467SOL    HW228746   6.590   3.338   6.161
 9468SOL     OW28747   5.907   2.805   5.828
 9468SOL    HW128748   5.989   2.844   5.786
 9468SOL    HW228749   5.880   2.723   5.779
 9469SOL     OW28750   6.697   3.638   5.823
 9469SOL    HW128751   6.637   3.576   5.873
 9469SOL    HW228752   6.728   3.594   5.738
 9470SOL     OW28753   7.218   3.239   5.667
 9470SOL    HW128754   7.186   3.333   5.657
 9470SOL    HW228755   7.142   3.176   5.655
 9471SOL     OW28756   6.050   3.605   5.909
 9471SOL    HW128757   6.083   3.644   5.995
 9471SOL    HW228758   6.126   3.598   5.844
 9472SOL     OW28759   6.986   1.969   6.012
 9472SOL    HW128760   6.962   1.932   5.922
 9472SOL    HW228761   7.085   1.985   6.016
 9473SOL     OW28762   5.968   2.562   6.066
 9473SOL    HW128763   6.013   2.472   6.063
 9473SOL    HW228764   5.874   2.551   6.099
 9474SOL     OW28765   6.200   1.984   5.703
 9474SOL    HW128766   6.298   1.962   5.710
 9474SOL    HW228767   6.169   1.967   5.610
 9475SOL     OW28768   6.508   2.365   6.485
 9475SOL    HW128769   6.483   2.356   6.389
 9475SOL    HW228770   6.556   2.283   6.516
 9476SOL     OW28771   6.125   1.926   6.098
 9476SOL    HW128772   6.044   1.927   6.156
 9476SOL    HW228773   6.128   2.009   6.043
 9477SOL     OW28774   7.020   3.050   5.627
 9477SOL    HW128775   7.052   2.974   5.684
 9477SOL    HW228776   6.928   3.077   5.657
 9478SOL     OW28777   5.883   1.897   5.757
 9478SOL    HW128778   5.932   1.981   5.736
 9478SOL    HW228779   5.945   1.832   5.802
 9479SOL     OW28780   6.521   2.098   6.066
 9479SOL    HW128781   6.473   2.139   5.988
 9479SOL    HW228782   6.620   2.096   6.047
 9480SOL     OW28783   6.618   2.411   5.602
 9480SOL    HW128784   6.577   2.493   5.563
 9480SOL    HW228785   6.682   2.437   5.675
 9481SOL     OW28786   7.443   2.695   5.963
 9481SOL    HW128787   7.485   2.631   6.027
 9481SOL    HW228788   7.405   2.644   5.885
 9482SOL     OW28789   6.074   3.247   5.760
 9482SOL    HW128790   5.987   3.232   5.807
 9482SOL    HW228791   6.057   3.273   5.665
 9483SOL     OW28792   6.976   2.437   5.664
 9483SOL    HW128793   6.922   2.416   5.745
 9483SOL    HW228794   7.067   2.396   5.673
 9484SOL     OW28795   6.113   2.118   5.914
 9484SOL    HW128796   6.140   2.059   5.839
 9484SOL    HW228797   6.113   2.213   5.883
 9485SOL     OW28798   6.291   2.912   5.954
 9485SOL    HW128799   6.277   2.919   6.053
 9485SOL    HW228800   6.375   2.861   5.936
 9486SOL     OW28801   5.953   2.962   6.087
 9486SOL    HW128802   5.946   3.045   6.031
 9486SOL    HW228803   5.957   2.882   6.027
 9487SOL     OW28804   6.838   3.210   5.974
 9487SOL    HW128805   6.888   3.287   6.014
 9487SOL    HW228806   6.743   3.212   6.006
 9488SOL     OW28807   7.168   2.501   6.058
 9488SOL    HW128808   7.137   2.562   6.131
 9488SOL    HW228809   7.218   2.553   5.989
 9489SOL     OW28810   6.795   2.387   5.861
 9489SOL    HW128811   6.808   2.303   5.915
 9489SOL    HW228812   6.766   2.461   5.921
 9490SOL     OW28813   7.208   2.229   5.960
 9490SOL    HW128814   7.210   2.153   6.024
 9490SOL    HW228815   7.160   2.306   6.000
 9491SOL     OW28816   7.126   2.136   5.711
 9491SOL    HW128817   7.065   2.061   5.734
 9491SOL    HW228818   7.148   2.188   5.794
 9492SOL     OW28819   6.889   2.700   5.628
 9492SOL    HW128820   6.923   2.607   5.643
 9492SOL    HW228821   6.907   2.727   5.533
 9493SOL     OW28822   5.594   3.188   5.786
 9493SOL    HW128823   5.501   3.209   5.755
 9493SOL    HW228824   5.604   3.089   5.799
 9494SOL     OW28825   6.401   2.434   5.911
 9494SOL    HW128826   6.408   2.345   5.865
 9494SOL    HW228827   6.307   2.468   5.903
 9495SOL     OW28828   6.059   2.362   5.777
 9495SOL    HW128829   6.120   2.442   5.781
 9495SOL    HW228830   5.964   2.393   5.784
 9496SOL     OW28831   6.888   2.717   5.895
 9496SOL    HW128832   6.802   2.686   5.937
 9496SOL    HW228833   6.884   2.703   5.796
 9497SOL     OW28834   7.312   1.997   6.109
 9497SOL    HW128835   7.385   1.980   6.042
 9497SOL    HW228836   7.281   1.910   6.147
 9498SOL     OW28837   6.974   3.435   6.063
 9498SOL    HW128838   7.041   3.447   5.989
 9498SOL    HW228839   6.934   3.524   6.086
 9499SOL     OW28840   6.866   2.789   6.258
 9499SOL    HW128841   6.926   2.708   6.260
 9499SOL    HW228842   6.906   2.858   6.198
 9500SOL     OW28843   6.258   3.478   5.740
 9500SOL    HW128844   6.267   3.488   5.641
 9500SOL    HW228845   6.218   3.389   5.761
 9501SOL     OW28846   6.780   3.474   5.617
 9501SOL    HW128847   6.786   3.381   5.654
 9501SOL    HW228848   6.721   3.474   5.537
 9502SOL     OW28849   6.502   2.772   5.877
 9502SOL    HW128850   6.565   2.810   5.809
 9502SOL    HW228851   6.542   2.689   5.916
 9503SOL     OW28852   7.090   3.469   5.630
 9503SOL    HW128853   6.998   3.506   5.637
 9503SOL    HW228854   7.128   3.489   5.540
 9504SOL     OW28855   6.176   3.349   6.077
 9504SOL    HW128856   6.218   3.291   6.007
 9504SOL    HW228857   6.132   3.428   6.033
 9505SOL     OW28858   5.841   3.210   5.876
 9505SOL    HW128859   5.745   3.211   5.849
 9505SOL    HW228860   5.853   3.263   5.960
 9506SOL     OW28861   5.661   2.207   5.619
 9506SOL    HW128862   5.569   2.179   5.590
 9506SOL    HW228863   5.692   2.284   5.563
 9507SOL     OW28864   5.658   2.028   5.904
 9507SOL    HW128865   5.641   2.111   5.850
 9507SOL    HW228866   5.748   1.991   5.882
 9508SOL     OW28867   6.769   3.197   5.705
 9508SOL    HW128868   6.670   3.186   5.707
 9508SOL    HW228869   6.803   3.212   5.798
 9509SOL     OW28870   6.811   2.187   6.035
 9509SOL    HW128871   6.876   2.113   6.024
 9509SOL    HW228872   6.831   2.237   6.119
 9510SOL     OW28873   6.445   3.236   5.602
 9510SOL    HW128874   6.399   3.251   5.690
 9510SOL    HW228875   6.489   3.321   5.572
 9511SOL     OW28876   6.669   2.846   5.673
 9511SOL    HW128877   6.646   2.899   5.591
 9511SOL    HW228878   6.750   2.790   5.654
 9512SOL     OW28879   6.014   2.286   6.106
 9512SOL    HW128880   6.044   2.214   6.044
 9512SOL    HW228881   5.975   2.246   6.189
 9513SOL     OW28882   6.398   3.448   6.273
 9513SOL    HW128883   6.430   3.458   6.179
 9513SOL    HW228884   6.319   3.386   6.275
 9514SOL     OW28885   6.356   3.192   5.887
 9514SOL    HW128886   6.310   3.105   5.904
 9514SOL    HW228887   6.447   3.189   5.928
 9515SOL     OW28888   6.938   1.914   5.754
 9515SOL    HW128889   6.973   1.873   5.670
 9515SOL    HW228890   6.848   1.876   5.774
 9516SOL     OW28891   6.886   2.315   6.277
 9516SOL    HW128892   6.827   2.395   6.281
 9516SOL    HW228893   6.901   2.280   6.370
 9517SOL     OW28894   5.625   2.939   5.886
 9517SOL    HW128895   5.724   2.928   5.877
 9517SOL    HW228896   5.585   2.853   5.918
 9518SOL     OW28897   6.461   3.508   5.923
 9518SOL    HW128898   6.384   3.473   5.869
 9518SOL    HW228899   6.429   3.579   5.985
 9519SOL     OW28900   5.811   3.999   0.996
 9519SOL    HW128901   5.846   3.982   1.088
 9519SOL    HW228902   5.723   3.954   0.984
 9520SOL     OW28903   5.605   4.092   0.647
 9520SOL    HW128904   5.523   4.135   0.686
 9520SOL    HW228905   5.577   4.019   0.584
 9521SOL     OW28906   6.155   4.999   1.165
 9521SOL    HW128907   6.062   4.992   1.128
 9521SOL    HW228908   6.166   5.088   1.209
 9522SOL     OW28909   7.141   5.235   0.703
 9522SOL    HW128910   7.084   5.219   0.784
 9522SOL    HW228911   7.082   5.245   0.623
 9523SOL     OW28912   6.721   4.427   0.717
 9523SOL    HW128913   6.778   4.505   0.692
 9523SOL    HW228914   6.661   4.453   0.793
 9524SOL     OW28915   7.341   4.331   0.231
 9524SOL    HW128916   7.329   4.318   0.132
 9524SOL    HW228917   7.311   4.250   0.280
 9525SOL     OW28918   6.354   4.868   1.023
 9525SOL    HW128919   6.276   4.885   1.083
 9525SOL    HW228920   6.388   4.955   0.987
 9526SOL     OW28921   6.436   4.522   1.823
 9526SOL    HW128922   6.432   4.598   1.888
 9526SOL    HW228923   6.458   4.558   1.732
 9527SOL     OW28924   6.271   4.736   0.665
 9527SOL    HW128925   6.340   4.720   0.735
 9527SOL    HW228926   6.198   4.793   0.703
 9528SOL     OW28927   6.272   4.885   1.803
 9528SOL    HW128928   6.332   4.964   1.817
 9528SOL    HW228929   6.186   4.916   1.762
 9529SOL     OW28930   5.921   5.159   1.061
 9529SOL    HW128931   5.843   5.128   1.008
 9529SOL    HW228932   5.979   5.217   1.004
 9530SOL     OW28933   7.046   5.229   1.339
 9530SOL    HW128934   7.070   5.323   1.365
 9530SOL    HW228935   7.030   5.175   1.421
 9531SOL     OW28936   6.024   4.116   1.499
 9531SOL    HW128937   6.106   4.060   1.508
 9531SOL    HW228938   5.943   4.058   1.503
 9532SOL     OW28939   7.189   4.171   0.737
 9532SOL    HW128940   7.115   4.217   0.687
 9532SOL    HW228941   7.240   4.239   0.790
 9533SOL     OW28942   5.817   5.437   0.483
 9533SOL    HW128943   5.851   5.514   0.537
 9533SOL    HW228944   5.861   5.437   0.393
 9534SOL     OW28945   6.713   5.065   1.690
 9534SOL    HW128946   6.760   5.065   1.778
 9534SOL    HW228947   6.665   4.978   1.679
 9535SOL     OW28948   5.816   5.158   0.538
 9535SOL    HW128949   5.790   5.254   0.538
 9535SOL    HW228950   5.745   5.104   0.583
 9536SOL     OW28951   5.826   4.815   0.886
 9536SOL    HW128952   5.840   4.731   0.938
 9536SOL    HW228953   5.771   4.879   0.941
 9537SOL     OW28954   6.206   5.510   1.439
 9537SOL    HW128955   6.114   5.493   1.474
 9537SOL    HW228956   6.234   5.602   1.465
 9538SOL     OW28957   7.180   3.838   1.480
 9538SOL    HW128958   7.162   3.905   1.408
 9538SOL    HW228959   7.177   3.884   1.569
 9539SOL     OW28960   5.708   4.367   0.563
 9539SOL    HW128961   5.663   4.279   0.580
 9539SOL    HW228962   5.707   4.421   0.647
 9540SOL     OW28963   7.275   4.646   0.612
 9540SOL    HW128964   7.370   4.617   0.620
 9540SOL    HW228965   7.267   4.711   0.537
 9541SOL     OW28966   7.227   4.832   0.432
 9541SOL    HW128967   7.313   4.834   0.380
 9541SOL    HW228968   7.241   4.879   0.520
 9542SOL     OW28969   5.699   4.461   1.597
 9542SOL    HW128970   5.787   4.448   1.642
 9542SOL    HW228971   5.686   4.558   1.575
 9543SOL     OW28972   6.199   5.089   0.726
 9543SOL    HW128973   6.150   5.002   0.735
 9543SOL    HW228974   6.176   5.132   0.639
 9544SOL     OW28975   6.879   4.952   1.423
 9544SOL    HW128976   6.916   4.879   1.365
 9544SOL    HW228977   6.931   4.957   1.508
 9545SOL     OW28978   6.395   3.728   0.502
 9545SOL    HW128979   6.435   3.819   0.493
 9545SOL    HW228980   6.295   3.736   0.508
 9546SOL     OW28981   5.783   4.700   1.264
 9546SOL    HW128982   5.872   4.655   1.250
 9546SOL    HW228983   5.710   4.635   1.245
 9547SOL     OW28984   6.773   5.516   1.616
 9547SOL    HW128985   6.797   5.576   1.540
 9547SOL    HW228986   6.780   5.421   1.586
 9548SOL     OW28987   5.903   3.975   1.801
 9548SOL    HW128988   5.974   4.046   1.807
 9548SOL    HW228989   5.815   4.014   1.829
 9549SOL     OW28990   7.052   5.141   0.953
 9549SOL    HW128991   6.993   5.147   1.033
 9549SOL    HW228992   7.037   5.053   0.907
 9550SOL     OW28993   7.253   5.438   0.572
 9550SOL    HW128994   7.212   5.415   0.484
 9550SOL    HW228995   7.235   5.364   0.637
 9551SOL     OW28996   6.867   4.069   0.944
 9551SOL    HW128997   6.781   4.019   0.931
 9551SOL    HW228998   6.929   4.015   1.000
 9552SOL     OW28999   6.393   4.329   1.465
 9552SOL    HW129000   6.346   4.326   1.554
 9552SOL    HW229001   6.342   4.274   1.399
 9553SOL     OW29002   6.980   4.193   1.674
 9553SOL    HW129003   6.960   4.236   1.762
 9553SOL    HW229004   7.058   4.131   1.683
 9554SOL     OW29005   6.559   4.614   1.572
 9554SOL    HW129006   6.605   4.530   1.543
 9554SOL    HW229007   6.503   4.648   1.497
 9555SOL     OW29008   6.577   4.134   1.242
 9555SOL    HW129009   6.500   4.168   1.296
 9555SOL    HW229010   6.543   4.083   1.163
 9556SOL     OW29011   6.627   4.425   0.429
 9556SOL    HW129012   6.653   4.421   0.525
 9556SOL    HW229013   6.542   4.374   0.415
 9557SOL     OW29014   5.662   4.535   0.789
 9557SOL    HW129015   5.761   4.523   0.798
 9557SOL    HW229016   5.638   4.630   0.810
 9558SOL     OW29017   5.716   5.545   1.571
 9558SOL    HW129018   5.706   5.530   1.670
 9558SOL    HW229019   5.630   5.581   1.535
 9559SOL     OW29020   7.305   4.309   1.831
 9559SOL    HW129021   7.279   4.398   1.795
 9559SOL    HW229022   7.303   4.241   1.758
 9560SOL     OW29023   6.948   4.868   0.545
 9560SOL    HW129024   7.031   4.839   0.497
 9560SOL    HW229025   6.899   4.935   0.489
 9561SOL     OW29026   6.136   3.920   0.885
 9561SOL    HW129027   6.131   3.915   0.985
 9561SOL    HW229028   6.138   4.016   0.856
 9562SOL     OW29029   6.594   5.180   0.477
 9562SOL    HW129030   6.548   5.252   0.425
 9562SOL    HW229031   6.590   5.200   0.575
 9563SOL     OW29032   5.937   5.525   0.853
 9563SOL    HW129033   5.987   5.439   0.859
 9563SOL    HW229034   6.002   5.602   0.850
 9564SOL     OW29035   7.381   4.790   0.873
 9564SOL    HW129036   7.319   4.775   0.797
 9564SOL    HW229037   7.329   4.801   0.958
 9565SOL     OW29038   6.813   5.274   1.506
 9565SOL    HW129039   6.819   5.197   1.570
 9565SOL    HW229040   6.761   5.248   1.426
 9566SOL     OW29041   7.044   4.459   0.728
 9566SOL    HW129042   7.039   4.394   0.803
 9566SOL    HW229043   7.124   4.518   0.741
 9567SOL     OW29044   6.047   4.990   1.727
 9567SOL    HW129045   5.997   4.991   1.641
 9567SOL    HW229046   5.984   4.972   1.803
 9568SOL     OW29047   6.697   5.500   0.237
 9568SOL    HW129048   6.637   5.438   0.287
 9568SOL    HW229049   6.728   5.456   0.152
 9569SOL     OW29050   5.788   4.009   1.498
 9569SOL    HW129051   5.708   4.069   1.485
 9569SOL    HW229052   5.778   3.960   1.584
 9570SOL     OW29053   7.218   5.101   0.081
 9570SOL    HW129054   7.186   5.195   0.071
 9570SOL    HW229055   7.142   5.038   0.069
 9571SOL     OW29056   6.986   3.831   0.426
 9571SOL    HW129057   6.962   3.794   0.336
 9571SOL    HW229058   7.085   3.847   0.430
 9572SOL     OW29059   5.835   5.509   1.241
 9572SOL    HW129060   5.892   5.444   1.291
 9572SOL    HW229061   5.819   5.476   1.148
 9573SOL     OW29062   6.526   5.422   0.904
 9573SOL    HW129063   6.606   5.365   0.925
 9573SOL    HW229064   6.477   5.382   0.827
 9574SOL     OW29065   5.968   4.424   0.480
 9574SOL    HW129066   6.013   4.334   0.477
 9574SOL    HW229067   5.874   4.413   0.513
 9575SOL     OW29068   7.133   3.946   1.729
 9575SOL    HW129069   7.128   3.983   1.821
 9575SOL    HW229070   7.061   3.877   1.717
 9576SOL     OW29071   6.200   3.846   0.117
 9576SOL    HW129072   6.298   3.824   0.124
 9576SOL    HW229073   6.169   3.829   0.024
 9577SOL     OW29074   6.367   3.988   1.749
 9577SOL    HW129075   6.434   3.927   1.792
 9577SOL    HW229076   6.294   4.007   1.814
 9578SOL     OW29077   6.474   5.238   1.195
 9578SOL    HW129078   6.451   5.213   1.101
 9578SOL    HW229079   6.535   5.169   1.234
 9579SOL     OW29080   6.937   4.314   1.433
 9579SOL    HW129081   6.965   4.271   1.518
 9579SOL    HW229082   6.962   4.410   1.434
 9580SOL     OW29083   6.389   5.126   0.924
 9580SOL    HW129084   6.479   5.140   0.882
 9580SOL    HW229085   6.318   5.128   0.853
 9581SOL     OW29086   6.508   4.227   0.899
 9581SOL    HW129087   6.483   4.218   0.803
 9581SOL    HW229088   6.556   4.145   0.930
 9582SOL     OW29089   5.883   3.759   0.171
 9582SOL    HW129090   5.932   3.843   0.150
 9582SOL    HW229091   5.945   3.694   0.216
 9583SOL     OW29092   6.521   3.960   0.480
 9583SOL    HW129093   6.473   4.001   0.402
 9583SOL    HW229094   6.620   3.958   0.461
 9584SOL     OW29095   6.662   4.407   1.464
 9584SOL    HW129096   6.582   4.346   1.467
 9584SOL    HW229097   6.743   4.354   1.440
 9585SOL     OW29098   6.813   5.294   0.793
 9585SOL    HW129099   6.834   5.368   0.728
 9585SOL    HW229100   6.881   5.294   0.866
 9586SOL     OW29101   6.045   4.876   0.741
 9586SOL    HW129102   5.974   4.849   0.806
 9586SOL    HW229103   6.019   4.848   0.648
 9587SOL     OW29104   6.857   5.521   0.591
 9587SOL    HW129105   6.901   5.585   0.527
 9587SOL    HW229106   6.807   5.573   0.661
 9588SOL     OW29107   5.664   4.280   1.386
 9588SOL    HW129108   5.756   4.279   1.345
 9588SOL    HW229109   5.658   4.354   1.453
 9589SOL     OW29110   6.147   3.946   1.147
 9589SOL    HW129111   6.185   3.862   1.184
 9589SOL    HW229112   6.059   3.965   1.191
 9590SOL     OW29113   6.452   4.178   0.642
 9590SOL    HW129114   6.420   4.250   0.580
 9590SOL    HW229115   6.476   4.097   0.589
 9591SOL     OW29116   6.603   3.763   0.753
 9591SOL    HW129117   6.531   3.768   0.684
 9591SOL    HW229118   6.579   3.694   0.822
 9592SOL     OW29119   7.015   4.897   0.867
 9592SOL    HW129120   6.960   4.813   0.860
 9592SOL    HW229121   7.041   4.926   0.775
 9593SOL     OW29122   7.052   4.314   0.992
 9593SOL    HW129123   7.022   4.219   0.999
 9593SOL    HW229124   7.125   4.330   1.058
 9594SOL     OW29125   7.443   4.557   0.377
 9594SOL    HW129126   7.485   4.493   0.441
 9594SOL    HW229127   7.405   4.506   0.299
 9595SOL     OW29128   7.250   5.004   0.657
 9595SOL    HW129129   7.349   5.012   0.671
 9595SOL    HW229130   7.205   5.088   0.688
 9596SOL     OW29131   7.340   4.947   1.588
 9596SOL    HW129132   7.431   4.908   1.575
 9596SOL    HW229133   7.348   5.043   1.612
 9597SOL     OW29134   6.650   5.071   1.340
 9597SOL    HW129135   6.570   5.048   1.395
 9597SOL    HW229136   6.733   5.045   1.389
 9598SOL     OW29137   7.178   5.353   1.625
 9598SOL    HW129138   7.205   5.387   1.535
 9598SOL    HW229139   7.257   5.315   1.671
 9599SOL     OW29140   6.697   4.919   1.100
 9599SOL    HW129141   6.657   4.963   1.181
 9599SOL    HW229142   6.656   4.956   1.017
 9600SOL     OW29143   7.224   4.823   1.079
 9600SOL    HW129144   7.229   4.904   1.138
 9600SOL    HW229145   7.138   4.825   1.028
 9601SOL     OW29146   6.501   3.813   1.402
 9601SOL    HW129147   6.526   3.793   1.307
 9601SOL    HW229148   6.573   3.869   1.444
 9602SOL     OW29149   6.566   4.840   1.719
 9602SOL    HW129150   6.467   4.846   1.729
 9602SOL    HW229151   6.589   4.760   1.663
 9603SOL     OW29152   6.291   4.774   0.368
 9603SOL    HW129153   6.277   4.781   0.467
 9603SOL    HW229154   6.375   4.723   0.350
 9604SOL     OW29155   5.996   4.537   1.251
 9604SOL    HW129156   6.082   4.549   1.301
 9604SOL    HW229157   5.954   4.450   1.278
 9605SOL     OW29158   6.860   4.110   1.262
 9605SOL    HW129159   6.881   4.184   1.326
 9605SOL    HW229160   6.771   4.127   1.219
 9606SOL     OW29161   5.650   5.288   1.331
 9606SOL    HW129162   5.604   5.370   1.297
 9606SOL    HW229163   5.748   5.307   1.340
 9607SOL     OW29164   5.953   4.824   0.501
 9607SOL    HW129165   5.946   4.907   0.445
 9607SOL    HW229166   5.957   4.744   0.441
 9608SOL     OW29167   6.152   4.261   0.865
 9608SOL    HW129168   6.164   4.327   0.791
 9608SOL    HW229169   6.198   4.295   0.948
 9609SOL     OW29170   6.858   5.169   1.142
 9609SOL    HW129171   6.905   5.182   1.229
 9609SOL    HW229172   6.792   5.095   1.151
 9610SOL     OW29173   7.168   4.363   0.472
 9610SOL    HW129174   7.137   4.424   0.545
 9610SOL    HW229175   7.218   4.415   0.403
 9611SOL     OW29176   5.940   5.234   1.329
 9611SOL    HW129177   5.919   5.190   1.242
 9611SOL    HW229178   6.037   5.260   1.332
 9612SOL     OW29179   5.988   4.475   1.598
 9612SOL    HW129180   6.056   4.530   1.551
 9612SOL    HW229181   6.028   4.387   1.625
 9613SOL     OW29182   7.173   4.503   1.670
 9613SOL    HW129183   7.081   4.541   1.665
 9613SOL    HW229184   7.233   4.550   1.605
 9614SOL     OW29185   6.599   3.829   1.770
 9614SOL    HW129186   6.605   3.914   1.718
 9614SOL    HW229187   6.631   3.753   1.713
 9615SOL     OW29188   6.090   3.774   1.740
 9615SOL    HW129189   6.048   3.717   1.670
 9615SOL    HW229190   6.024   3.843   1.772
 9616SOL     OW29191   6.159   4.594   1.029
 9616SOL    HW129192   6.203   4.683   1.020
 9616SOL    HW229193   6.096   4.594   1.106
 9617SOL     OW29194   6.946   4.586   1.045
 9617SOL    HW129195   6.871   4.586   0.979
 9617SOL    HW229196   6.983   4.494   1.054
 9618SOL     OW29197   6.795   4.249   0.275
 9618SOL    HW129198   6.808   4.165   0.329
 9618SOL    HW229199   6.766   4.323   0.335
 9619SOL     OW29200   5.893   3.937   1.231
 9619SOL    HW129201   5.870   3.974   1.321
 9619SOL    HW229202   5.863   3.842   1.225
 9620SOL     OW29203   5.623   5.034   1.282
 9620SOL    HW129204   5.676   4.985   1.350
 9620SOL    HW229205   5.645   5.132   1.287
 9621SOL     OW29206   6.318   4.358   1.064
 9621SOL    HW129207   6.377   4.332   0.988
 9621SOL    HW229208   6.290   4.454   1.053
 9622SOL     OW29209   7.314   4.659   1.854
 9622SOL    HW129210   7.268   4.652   1.765
 9622SOL    HW229211   7.252   4.703   1.920
 9623SOL     OW29212   5.893   3.787   0.618
 9623SOL    HW129213   5.882   3.881   0.651
 9623SOL    HW229214   5.888   3.724   0.695
 9624SOL     OW29215   7.208   4.091   0.374
 9624SOL    HW129216   7.210   4.015   0.438
 9624SOL    HW229217   7.160   4.168   0.414
 9625SOL     OW29218   6.609   4.490   0.966
 9625SOL    HW129219   6.624   4.511   1.062
 9625SOL    HW229220   6.579   4.395   0.957
 9626SOL     OW29221   6.566   5.297   1.700
 9626SOL    HW129222   6.546   5.341   1.612
 9626SOL    HW229223   6.605   5.206   1.684
 9627SOL     OW29224   7.445   5.242   1.605
 9627SOL    HW129225   7.459   5.269   1.510
 9627SOL    HW229226   7.528   5.264   1.658
 9628SOL     OW29227   5.936   4.622   1.804
 9628SOL    HW129228   6.012   4.666   1.852
 9628SOL    HW229229   5.971   4.575   1.722
 9629SOL     OW29230   6.654   5.057   0.849
 9629SOL    HW129231   6.661   4.973   0.794
 9629SOL    HW229232   6.716   5.126   0.813
 9630SOL     OW29233   5.905   4.534   0.949
 9630SOL    HW129234   5.998   4.570   0.954
 9630SOL    HW229235   5.899   4.449   1.001
 9631SOL     OW29236   5.925   4.233   1.006
 9631SOL    HW129237   5.873   4.150   0.989
 9631SOL    HW229238   6.002   4.238   0.942
 9632SOL     OW29239   6.724   4.104   1.678
 9632SOL    HW129240   6.679   4.167   1.742
 9632SOL    HW229241   6.817   4.135   1.661
 9633SOL     OW29242   6.746   3.931   1.477
 9633SOL    HW129243   6.746   3.995   1.554
 9633SOL    HW229244   6.774   3.979   1.394
 9634SOL     OW29245   5.674   5.525   0.927
 9634SOL    HW129246   5.632   5.439   0.900
 9634SOL    HW229247   5.768   5.528   0.893
 9635SOL     OW29248   6.090   5.292   0.910
 9635SOL    HW129249   6.156   5.366   0.919
 9635SOL    HW229250   6.134   5.213   0.868
 9636SOL     OW29251   6.588   4.520   1.238
 9636SOL    HW129252   6.629   4.488   1.324
 9636SOL    HW229253   6.492   4.493   1.235
 9637SOL     OW29254   5.626   4.268   1.114
 9637SOL    HW129255   5.711   4.235   1.073
 9637SOL    HW229256   5.639   4.283   1.212
 9638SOL     OW29257   5.775   4.244   1.722
 9638SOL    HW129258   5.834   4.204   1.652
 9638SOL    HW229259   5.717   4.315   1.681
 9639SOL     OW29260   6.955   4.674   1.660
 9639SOL    HW129261   6.994   4.763   1.680
 9639SOL    HW229262   6.965   4.654   1.563
 9640SOL     OW29263   6.401   4.296   0.325
 9640SOL    HW129264   6.408   4.207   0.279
 9640SOL    HW229265   6.307   4.330   0.317
 9641SOL     OW29266   7.243   4.328   1.206
 9641SOL    HW129267   7.205   4.259   1.268
 9641SOL    HW229268   7.325   4.292   1.162
 9642SOL     OW29269   5.838   5.288   1.744
 9642SOL    HW129270   5.808   5.345   1.820
 9642SOL    HW229271   5.831   5.191   1.770
 9643SOL     OW29272   6.257   4.188   1.269
 9643SOL    HW129273   6.223   4.099   1.239
 9643SOL    HW229274   6.283   4.242   1.189
 9644SOL     OW29275   6.516   5.402   1.465
 9644SOL    HW129276   6.492   5.384   1.370
 9644SOL    HW229277   6.546   5.496   1.475
 9645SOL     OW29278   5.745   4.861   1.466
 9645SOL    HW129279   5.767   4.800   1.542
 9645SOL    HW229280   5.755   4.812   1.380
 9646SOL     OW29281   6.933   4.783   1.234
 9646SOL    HW129282   6.957   4.720   1.160
 9646SOL    HW229283   6.843   4.823   1.216
 9647SOL     OW29284   7.345   5.471   1.154
 9647SOL    HW129285   7.406   5.501   1.081
 9647SOL    HW229286   7.307   5.382   1.132
 9648SOL     OW29287   6.838   5.455   1.128
 9648SOL    HW129288   6.922   5.460   1.074
 9648SOL    HW229289   6.815   5.359   1.146
 9649SOL     OW29290   5.669   4.982   1.022
 9649SOL    HW129291   5.664   4.981   1.122
 9649SOL    HW229292   5.586   4.941   0.984
 9650SOL     OW29293   6.274   5.386   1.716
 9650SOL    HW129294   6.218   5.467   1.725
 9650SOL    HW229295   6.326   5.390   1.630
 9651SOL     OW29296   7.312   3.859   0.523
 9651SOL    HW129297   7.385   3.842   0.456
 9651SOL    HW229298   7.281   3.772   0.561
 9652SOL     OW29299   6.974   5.297   0.477
 9652SOL    HW129300   7.041   5.309   0.403
 9652SOL    HW229301   6.934   5.386   0.500
 9653SOL     OW29302   5.716   5.518   1.851
 9653SOL    HW129303   5.675   5.444   1.904
 9653SOL    HW229304   5.780   5.569   1.909
 9654SOL     OW29305   6.866   4.651   0.672
 9654SOL    HW129306   6.926   4.570   0.674
 9654SOL    HW229307   6.906   4.720   0.612
 9655SOL     OW29308   6.416   4.997   1.422
 9655SOL    HW129309   6.411   5.030   1.517
 9655SOL    HW229310   6.330   5.016   1.376
 9656SOL     OW29311   7.236   5.444   1.394
 9656SOL    HW129312   7.289   5.454   1.310
 9656SOL    HW229313   7.209   5.534   1.428
 9657SOL     OW29314   7.427   3.899   0.963
 9657SOL    HW129315   7.466   3.814   0.927
 9657SOL    HW229316   7.329   3.901   0.944
 9658SOL     OW29317   5.849   4.050   0.720
 9658SOL    HW129318   5.770   4.101   0.686
 9658SOL    HW229319   5.840   4.035   0.818
 9659SOL     OW29320   6.408   4.726   1.372
 9659SOL    HW129321   6.448   4.725   1.280
 9659SOL    HW229322   6.418   4.818   1.412
 9660SOL     OW29323   5.958   5.012   1.490
 9660SOL    HW129324   5.945   5.105   1.456
 9660SOL    HW229325   5.874   4.960   1.477
 9661SOL     OW29326   7.200   5.016   1.289
 9661SOL    HW129327   7.260   5.019   1.369
 9661SOL    HW229328   7.125   5.080   1.302
 9662SOL     OW29329   6.625   4.822   0.696
 9662SOL    HW129330   6.555   4.775   0.750
 9662SOL    HW229331   6.684   4.754   0.653
 9663SOL     OW29332   6.600   3.960   0.971
 9663SOL    HW129333   6.592   3.924   0.878
 9663SOL    HW229334   6.598   3.884   1.036
 9664SOL     OW29335   6.176   5.211   0.491
 9664SOL    HW129336   6.218   5.153   0.421
 9664SOL    HW229337   6.132   5.290   0.447
 9665SOL     OW29338   7.295   4.109   1.381
 9665SOL    HW129339   7.368   4.178   1.385
 9665SOL    HW229340   7.323   4.034   1.322
 9666SOL     OW29341   5.691   4.737   1.726
 9666SOL    HW129342   5.614   4.704   1.780
 9666SOL    HW229343   5.776   4.707   1.768
 9667SOL     OW29344   6.258   3.927   1.489
 9667SOL    HW129345   6.348   3.911   1.449
 9667SOL    HW229346   6.266   3.932   1.588
 9668SOL     OW29347   7.026   4.580   1.398
 9668SOL    HW129348   6.969   4.632   1.335
 9668SOL    HW229349   7.122   4.592   1.374
 9669SOL     OW29350   6.199   4.566   1.431
 9669SOL    HW129351   6.255   4.647   1.414
 9669SOL    HW229352   6.258   4.486   1.434
 9670SOL     OW29353   7.079   5.491   0.959
 9670SOL    HW129354   7.112   5.555   0.890
 9670SOL    HW229355   7.145   5.485   1.034
 9671SOL     OW29356   6.302   4.289   1.708
 9671SOL    HW129357   6.321   4.354   1.782
 9671SOL    HW229358   6.362   4.209   1.717
 9672SOL     OW29359   7.036   4.944   1.633
 9672SOL    HW129360   7.027   4.934   1.732
 9672SOL    HW229361   7.132   4.937   1.607
 9673SOL     OW29362   5.976   5.465   1.560
 9673SOL    HW129363   5.885   5.506   1.558
 9673SOL    HW229364   5.969   5.371   1.592
 9674SOL     OW29365   7.260   4.607   1.254
 9674SOL    HW129366   7.233   4.518   1.217
 9674SOL    HW229367   7.261   4.675   1.181
 9675SOL     OW29368   6.811   4.049   0.449
 9675SOL    HW129369   6.876   3.975   0.438
 9675SOL    HW229370   6.831   4.099   0.533
 9676SOL     OW29371   6.180   4.469   0.652
 9676SOL    HW129372   6.230   4.554   0.633
 9676SOL    HW229373   6.092   4.471   0.604
 9677SOL     OW29374   7.363   4.066   1.642
 9677SOL    HW129375   7.346   4.097   1.548
 9677SOL    HW229376   7.279   4.029   1.680
 9678SOL     OW29377   7.316   4.658   1.517
 9678SOL    HW129378   7.354   4.749   1.532
 9678SOL    HW229379   7.308   4.641   1.418
 9679SOL     OW29380   6.247   5.514   0.953
 9679SOL    HW129381   6.201   5.602   0.940
 9679SOL    HW229382   6.346   5.526   0.946
 9680SOL     OW29383   6.445   4.680   0.861
 9680SOL    HW129384   6.499   4.611   0.909
 9680SOL    HW229385   6.413   4.749   0.927
 9681SOL     OW29386   7.447   5.293   0.851
 9681SOL    HW129387   7.376   5.281   0.781
 9681SOL    HW229388   7.448   5.214   0.911
 9682SOL     OW29389   5.807   5.038   1.844
 9682SOL    HW129390   5.742   4.965   1.823
 9682SOL    HW229391   5.811   5.052   1.942
 9683SOL     OW29392   5.665   4.964   0.653
 9683SOL    HW129393   5.664   4.917   0.741
 9683SOL    HW229394   5.747   4.936   0.602
 9684SOL     OW29395   6.258   5.115   1.624
 9684SOL    HW129396   6.180   5.065   1.662
 9684SOL    HW229397   6.255   5.210   1.655
 9685SOL     OW29398   7.410   3.916   1.227
 9685SOL    HW129399   7.406   3.826   1.271
 9685SOL    HW229400   7.413   3.905   1.128
 9686SOL     OW29401   6.014   4.148   0.520
 9686SOL    HW129402   6.044   4.076   0.458
 9686SOL    HW229403   5.975   4.108   0.603
 9687SOL     OW29404   7.291   5.211   1.104
 9687SOL    HW129405   7.198   5.186   1.077
 9687SOL    HW229406   7.317   5.161   1.186
 9688SOL     OW29407   5.903   4.271   1.280
 9688SOL    HW129408   5.941   4.212   1.352
 9688SOL    HW229409   5.943   4.245   1.192
 9689SOL     OW29410   6.398   5.310   0.687
 9689SOL    HW129411   6.430   5.320   0.593
 9689SOL    HW229412   6.319   5.248   0.689
 9690SOL     OW29413   7.010   3.938   1.112
 9690SOL    HW129414   7.062   3.873   1.167
 9690SOL    HW229415   6.961   4.001   1.173
 9691SOL     OW29416   6.587   3.758   1.154
 9691SOL    HW129417   6.524   3.686   1.123
 9691SOL    HW229418   6.680   3.722   1.154
 9692SOL     OW29419   6.204   5.291   1.284
 9692SOL    HW129420   6.199   5.373   1.341
 9692SOL    HW229421   6.293   5.288   1.239
 9693SOL     OW29422   6.938   3.776   0.168
 9693SOL    HW129423   6.973   3.735   0.084
 9693SOL    HW229424   6.848   3.738   0.188
 9694SOL     OW29425   6.886   4.177   0.691
 9694SOL    HW129426   6.827   4.257   0.695
 9694SOL    HW229427   6.901   4.142   0.784
 9695SOL     OW29428   7.179   3.945   0.882
 9695SOL    HW129429   7.095   3.944   0.936
 9695SOL    HW229430   7.181   4.028   0.826
 9696SOL     OW29431   5.625   4.801   0.300
 9696SOL    HW129432   5.724   4.790   0.291
 9696SOL    HW229433   5.585   4.715   0.332
 9697SOL     OW29434   6.461   5.370   0.337
 9697SOL    HW129435   6.384   5.335   0.283
 9697SOL    HW229436   6.429   5.441   0.399
 9698SOL     OW29437   5.816   4.352   1.975
 9698SOL    HW129438   5.723   4.350   2.012
 9698SOL    HW229439   5.817   4.313   1.883
 9699SOL     OW29440   5.811   3.999   2.858
 9699SOL    HW129441   5.846   3.982   2.950
 9699SOL    HW229442   5.723   3.954   2.846
 9700SOL     OW29443   5.605   4.092   2.509
 9700SOL    HW129444   5.523   4.135   2.548
 9700SOL    HW229445   5.577   4.019   2.446
 9701SOL     OW29446   6.155   4.999   3.027
 9701SOL    HW129447   6.062   4.992   2.990
 9701SOL    HW229448   6.166   5.088   3.071
 9702SOL     OW29449   7.141   5.235   2.565
 9702SOL    HW129450   7.084   5.219   2.646
 9702SOL    HW229451   7.082   5.245   2.485
 9703SOL     OW29452   6.721   4.427   2.579
 9703SOL    HW129453   6.778   4.505   2.554
 9703SOL    HW229454   6.661   4.453   2.655
 9704SOL     OW29455   7.341   4.331   2.093
 9704SOL    HW129456   7.329   4.318   1.994
 9704SOL    HW229457   7.311   4.250   2.142
 9705SOL     OW29458   6.354   4.868   2.885
 9705SOL    HW129459   6.276   4.885   2.945
 9705SOL    HW229460   6.388   4.955   2.849
 9706SOL     OW29461   6.436   4.522   3.685
 9706SOL    HW129462   6.432   4.598   3.750
 9706SOL    HW229463   6.458   4.558   3.594
 9707SOL     OW29464   6.271   4.736   2.527
 9707SOL    HW129465   6.340   4.720   2.597
 9707SOL    HW229466   6.198   4.793   2.565
 9708SOL     OW29467   6.272   4.885   3.665
 9708SOL    HW129468   6.332   4.964   3.679
 9708SOL    HW229469   6.186   4.916   3.624
 9709SOL     OW29470   5.921   5.159   2.923
 9709SOL    HW129471   5.843   5.128   2.870
 9709SOL    HW229472   5.979   5.217   2.866
 9710SOL     OW29473   7.046   5.229   3.201
 9710SOL    HW129474   7.070   5.323   3.227
 9710SOL    HW229475   7.030   5.175   3.283
 9711SOL     OW29476   6.024   4.116   3.361
 9711SOL    HW129477   6.106   4.060   3.370
 9711SOL    HW229478   5.943   4.058   3.365
 9712SOL     OW29479   7.189   4.171   2.599
 9712SOL    HW129480   7.115   4.217   2.549
 9712SOL    HW229481   7.240   4.239   2.652
 9713SOL     OW29482   5.817   5.437   2.345
 9713SOL    HW129483   5.851   5.514   2.399
 9713SOL    HW229484   5.861   5.437   2.255
 9714SOL     OW29485   6.713   5.065   3.552
 9714SOL    HW129486   6.760   5.065   3.640
 9714SOL    HW229487   6.665   4.978   3.541
 9715SOL     OW29488   5.816   5.158   2.400
 9715SOL    HW129489   5.790   5.254   2.400
 9715SOL    HW229490   5.745   5.104   2.445
 9716SOL     OW29491   5.826   4.815   2.748
 9716SOL    HW129492   5.840   4.731   2.800
 9716SOL    HW229493   5.771   4.879   2.803
 9717SOL     OW29494   6.206   5.510   3.301
 9717SOL    HW129495   6.114   5.493   3.336
 9717SOL    HW229496   6.234   5.602   3.327
 9718SOL     OW29497   6.192   4.688   1.985
 9718SOL    HW129498   6.199   4.772   1.931
 9718SOL    HW229499   6.238   4.701   2.073
 9719SOL     OW29500   7.180   3.838   3.342
 9719SOL    HW129501   7.162   3.905   3.270
 9719SOL    HW229502   7.177   3.884   3.431
 9720SOL     OW29503   5.708   4.367   2.425
 9720SOL    HW129504   5.663   4.279   2.442
 9720SOL    HW229505   5.707   4.421   2.509
 9721SOL     OW29506   7.428   5.491   2.221
 9721SOL    HW129507   7.482   5.462   2.301
 9721SOL    HW229508   7.458   5.581   2.192
 9722SOL     OW29509   5.613   5.320   1.979
 9722SOL    HW129510   5.594   5.224   2.000
 9722SOL    HW229511   5.580   5.378   2.054
 9723SOL     OW29512   7.275   4.646   2.474
 9723SOL    HW129513   7.370   4.617   2.482
 9723SOL    HW229514   7.267   4.711   2.399
 9724SOL     OW29515   7.227   4.832   2.294
 9724SOL    HW129516   7.313   4.834   2.242
 9724SOL    HW229517   7.241   4.879   2.382
 9725SOL     OW29518   5.699   4.461   3.459
 9725SOL    HW129519   5.787   4.448   3.504
 9725SOL    HW229520   5.686   4.558   3.437
 9726SOL     OW29521   6.199   5.089   2.588
 9726SOL    HW129522   6.150   5.002   2.597
 9726SOL    HW229523   6.176   5.132   2.501
 9727SOL     OW29524   6.879   4.952   3.285
 9727SOL    HW129525   6.916   4.879   3.227
 9727SOL    HW229526   6.931   4.957   3.370
 9728SOL     OW29527   6.395   3.728   2.364
 9728SOL    HW129528   6.435   3.819   2.355
 9728SOL    HW229529   6.295   3.736   2.370
 9729SOL     OW29530   5.783   4.700   3.126
 9729SOL    HW129531   5.872   4.655   3.112
 9729SOL    HW229532   5.710   4.635   3.107
 9730SOL     OW29533   7.111   4.723   2.052
 9730SOL    HW129534   7.048   4.647   2.065
 9730SOL    HW229535   7.159   4.741   2.138
 9731SOL     OW29536   6.773   5.516   3.478
 9731SOL    HW129537   6.797   5.576   3.402
 9731SOL    HW229538   6.780   5.421   3.448
 9732SOL     OW29539   5.903   3.975   3.663
 9732SOL    HW129540   5.974   4.046   3.669
 9732SOL    HW229541   5.815   4.014   3.691
 9733SOL     OW29542   7.052   5.141   2.815
 9733SOL    HW129543   6.993   5.147   2.895
 9733SOL    HW229544   7.037   5.053   2.769
 9734SOL     OW29545   7.253   5.438   2.434
 9734SOL    HW129546   7.212   5.415   2.346
 9734SOL    HW229547   7.235   5.364   2.499
 9735SOL     OW29548   6.184   4.453   2.132
 9735SOL    HW129549   6.208   4.522   2.064
 9735SOL    HW229550   6.106   4.486   2.186
 9736SOL     OW29551   6.867   4.069   2.806
 9736SOL    HW129552   6.781   4.019   2.793
 9736SOL    HW229553   6.929   4.015   2.862
 9737SOL     OW29554   7.162   5.386   2.169
 9737SOL    HW129555   7.251   5.432   2.172
 9737SOL    HW229556   7.141   5.362   2.074
 9738SOL     OW29557   6.393   4.329   3.327
 9738SOL    HW129558   6.346   4.326   3.416
 9738SOL    HW229559   6.342   4.274   3.261
 9739SOL     OW29560   6.980   4.193   3.536
 9739SOL    HW129561   6.960   4.236   3.624
 9739SOL    HW229562   7.058   4.131   3.545
 9740SOL     OW29563   6.559   4.614   3.434
 9740SOL    HW129564   6.605   4.530   3.405
 9740SOL    HW229565   6.503   4.648   3.359
 9741SOL     OW29566   6.577   4.134   3.104
 9741SOL    HW129567   6.500   4.168   3.158
 9741SOL    HW229568   6.543   4.083   3.025
 9742SOL     OW29569   6.627   4.425   2.291
 9742SOL    HW129570   6.653   4.421   2.387
 9742SOL    HW229571   6.542   4.374   2.277
 9743SOL     OW29572   5.662   4.535   2.651
 9743SOL    HW129573   5.761   4.523   2.660
 9743SOL    HW229574   5.638   4.630   2.672
 9744SOL     OW29575   5.716   5.545   3.433
 9744SOL    HW129576   5.706   5.530   3.532
 9744SOL    HW229577   5.630   5.581   3.397
 9745SOL     OW29578   6.451   4.072   2.057
 9745SOL    HW129579   6.510   4.135   2.008
 9745SOL    HW229580   6.470   3.978   2.028
 9746SOL     OW29581   7.305   4.309   3.693
 9746SOL    HW129582   7.279   4.398   3.657
 9746SOL    HW229583   7.303   4.241   3.620
 9747SOL     OW29584   6.948   4.868   2.407
 9747SOL    HW129585   7.031   4.839   2.359
 9747SOL    HW229586   6.899   4.935   2.351
 9748SOL     OW29587   6.136   3.920   2.747
 9748SOL    HW129588   6.131   3.915   2.847
 9748SOL    HW229589   6.138   4.016   2.718
 9749SOL     OW29590   6.594   5.180   2.339
 9749SOL    HW129591   6.548   5.252   2.287
 9749SOL    HW229592   6.590   5.200   2.437
 9750SOL     OW29593   5.937   5.525   2.715
 9750SOL    HW129594   5.987   5.439   2.721
 9750SOL    HW229595   6.002   5.602   2.712
 9751SOL     OW29596   7.381   4.790   2.735
 9751SOL    HW129597   7.319   4.775   2.659
 9751SOL    HW229598   7.329   4.801   2.820
 9752SOL     OW29599   6.813   5.274   3.368
 9752SOL    HW129600   6.819   5.197   3.432
 9752SOL    HW229601   6.761   5.248   3.288
 9753SOL     OW29602   5.907   4.667   2.104
 9753SOL    HW129603   5.989   4.706   2.062
 9753SOL    HW229604   5.880   4.585   2.055
 9754SOL     OW29605   7.044   4.459   2.590
 9754SOL    HW129606   7.039   4.394   2.665
 9754SOL    HW229607   7.124   4.518   2.603
 9755SOL     OW29608   6.047   4.990   3.589
 9755SOL    HW129609   5.997   4.991   3.503
 9755SOL    HW229610   5.984   4.972   3.665
 9756SOL     OW29611   6.697   5.500   2.099
 9756SOL    HW129612   6.637   5.438   2.149
 9756SOL    HW229613   6.728   5.456   2.014
 9757SOL     OW29614   5.788   4.009   3.360
 9757SOL    HW129615   5.708   4.069   3.347
 9757SOL    HW229616   5.778   3.960   3.446
 9758SOL     OW29617   7.218   5.101   1.943
 9758SOL    HW129618   7.186   5.195   1.933
 9758SOL    HW229619   7.142   5.038   1.931
 9759SOL     OW29620   6.050   5.467   2.185
 9759SOL    HW129621   6.083   5.506   2.271
 9759SOL    HW229622   6.126   5.460   2.120
 9760SOL     OW29623   6.986   3.831   2.288
 9760SOL    HW129624   6.962   3.794   2.198
 9760SOL    HW229625   7.085   3.847   2.292
 9761SOL     OW29626   5.835   5.509   3.103
 9761SOL    HW129627   5.892   5.444   3.153
 9761SOL    HW229628   5.819   5.476   3.010
 9762SOL     OW29629   6.526   5.422   2.766
 9762SOL    HW129630   6.606   5.365   2.787
 9762SOL    HW229631   6.477   5.382   2.689
 9763SOL     OW29632   5.968   4.424   2.342
 9763SOL    HW129633   6.013   4.334   2.339
 9763SOL    HW229634   5.874   4.413   2.375
 9764SOL     OW29635   7.133   3.946   3.591
 9764SOL    HW129636   7.128   3.983   3.683
 9764SOL    HW229637   7.061   3.877   3.579
 9765SOL     OW29638   6.200   3.846   1.979
 9765SOL    HW129639   6.298   3.824   1.986
 9765SOL    HW229640   6.169   3.829   1.886
 9766SOL     OW29641   6.367   3.988   3.611
 9766SOL    HW129642   6.434   3.927   3.654
 9766SOL    HW229643   6.294   4.007   3.676
 9767SOL     OW29644   6.474   5.238   3.057
 9767SOL    HW129645   6.451   5.213   2.963
 9767SOL    HW229646   6.535   5.169   3.096
 9768SOL     OW29647   6.937   4.314   3.295
 9768SOL    HW129648   6.965   4.271   3.380
 9768SOL    HW229649   6.962   4.410   3.296
 9769SOL     OW29650   6.389   5.126   2.786
 9769SOL    HW129651   6.479   5.140   2.744
 9769SOL    HW229652   6.318   5.128   2.715
 9770SOL     OW29653   6.508   4.227   2.761
 9770SOL    HW129654   6.483   4.218   2.665
 9770SOL    HW229655   6.556   4.145   2.792
 9771SOL     OW29656   6.125   3.788   2.374
 9771SOL    HW129657   6.044   3.789   2.432
 9771SOL    HW229658   6.128   3.871   2.319
 9772SOL     OW29659   7.020   4.912   1.903
 9772SOL    HW129660   7.052   4.836   1.960
 9772SOL    HW229661   6.928   4.939   1.933
 9773SOL     OW29662   5.883   3.759   2.033
 9773SOL    HW129663   5.932   3.843   2.012
 9773SOL    HW229664   5.945   3.694   2.078
 9774SOL     OW29665   6.521   3.960   2.342
 9774SOL    HW129666   6.473   4.001   2.264
 9774SOL    HW229667   6.620   3.958   2.323
 9775SOL     OW29668   6.662   4.407   3.326
 9775SOL    HW129669   6.582   4.346   3.329
 9775SOL    HW229670   6.743   4.354   3.302
 9776SOL     OW29671   6.813   5.294   2.655
 9776SOL    HW129672   6.834   5.368   2.590
 9776SOL    HW229673   6.881   5.294   2.728
 9777SOL     OW29674   6.045   4.876   2.603
 9777SOL    HW129675   5.974   4.849   2.668
 9777SOL    HW229676   6.019   4.848   2.510
 9778SOL     OW29677   6.857   5.521   2.453
 9778SOL    HW129678   6.901   5.585   2.389
 9778SOL    HW229679   6.807   5.573   2.523
 9779SOL     OW29680   6.618   4.273   1.878
 9779SOL    HW129681   6.577   4.355   1.839
 9779SOL    HW229682   6.682   4.299   1.951
 9780SOL     OW29683   5.664   4.280   3.248
 9780SOL    HW129684   5.756   4.279   3.207
 9780SOL    HW229685   5.658   4.354   3.315
 9781SOL     OW29686   6.147   3.946   3.009
 9781SOL    HW129687   6.185   3.862   3.046
 9781SOL    HW229688   6.059   3.965   3.053
 9782SOL     OW29689   6.452   4.178   2.504
 9782SOL    HW129690   6.420   4.250   2.442
 9782SOL    HW229691   6.476   4.097   2.451
 9783SOL     OW29692   6.603   3.763   2.615
 9783SOL    HW129693   6.531   3.768   2.546
 9783SOL    HW229694   6.579   3.694   2.684
 9784SOL     OW29695   7.015   4.897   2.729
 9784SOL    HW129696   6.960   4.813   2.722
 9784SOL    HW229697   7.041   4.926   2.637
 9785SOL     OW29698   7.052   4.314   2.854
 9785SOL    HW129699   7.022   4.219   2.861
 9785SOL    HW229700   7.125   4.330   2.920
 9786SOL     OW29701   7.443   4.557   2.239
 9786SOL    HW129702   7.485   4.493   2.303
 9786SOL    HW229703   7.405   4.506   2.161
 9787SOL     OW29704   6.074   5.109   2.036
 9787SOL    HW129705   5.987   5.094   2.083
 9787SOL    HW229706   6.057   5.135   1.941
 9788SOL     OW29707   7.250   5.004   2.519
 9788SOL    HW129708   7.349   5.012   2.533
 9788SOL    HW229709   7.205   5.088   2.550
 9789SOL     OW29710   6.976   4.299   1.940
 9789SOL    HW129711   6.922   4.278   2.021
 9789SOL    HW229712   7.067   4.258   1.949
 9790SOL     OW29713   6.113   3.980   2.190
 9790SOL    HW129714   6.140   3.921   2.115
 9790SOL    HW229715   6.113   4.075   2.159
 9791SOL     OW29716   7.340   4.947   3.450
 9791SOL    HW129717   7.431   4.908   3.437
 9791SOL    HW229718   7.348   5.043   3.474
 9792SOL     OW29719   6.650   5.071   3.202
 9792SOL    HW129720   6.570   5.048   3.257
 9792SOL    HW229721   6.733   5.045   3.251
 9793SOL     OW29722   7.178   5.353   3.487
 9793SOL    HW129723   7.205   5.387   3.397
 9793SOL    HW229724   7.257   5.315   3.533
 9794SOL     OW29725   6.697   4.919   2.962
 9794SOL    HW129726   6.657   4.963   3.043
 9794SOL    HW229727   6.656   4.956   2.879
 9795SOL     OW29728   7.224   4.823   2.941
 9795SOL    HW129729   7.229   4.904   3.000
 9795SOL    HW229730   7.138   4.825   2.890
 9796SOL     OW29731   6.501   3.813   3.264
 9796SOL    HW129732   6.526   3.793   3.169
 9796SOL    HW229733   6.573   3.869   3.306
 9797SOL     OW29734   6.566   4.840   3.581
 9797SOL    HW129735   6.467   4.846   3.591
 9797SOL    HW229736   6.589   4.760   3.525
 9798SOL     OW29737   6.291   4.774   2.230
 9798SOL    HW129738   6.277   4.781   2.329
 9798SOL    HW229739   6.375   4.723   2.212
 9799SOL     OW29740   5.996   4.537   3.113
 9799SOL    HW129741   6.082   4.549   3.163
 9799SOL    HW229742   5.954   4.450   3.140
 9800SOL     OW29743   6.860   4.110   3.124
 9800SOL    HW129744   6.881   4.184   3.188
 9800SOL    HW229745   6.771   4.127   3.081
 9801SOL     OW29746   5.650   5.288   3.193
 9801SOL    HW129747   5.604   5.370   3.159
 9801SOL    HW229748   5.748   5.307   3.202
 9802SOL     OW29749   5.953   4.824   2.363
 9802SOL    HW129750   5.946   4.907   2.307
 9802SOL    HW229751   5.957   4.744   2.303
 9803SOL     OW29752   6.152   4.261   2.727
 9803SOL    HW129753   6.164   4.327   2.653
 9803SOL    HW229754   6.198   4.295   2.810
 9804SOL     OW29755   6.838   5.072   2.250
 9804SOL    HW129756   6.888   5.149   2.290
 9804SOL    HW229757   6.743   5.074   2.282
 9805SOL     OW29758   6.858   5.169   3.004
 9805SOL    HW129759   6.905   5.182   3.091
 9805SOL    HW229760   6.792   5.095   3.013
 9806SOL     OW29761   7.168   4.363   2.334
 9806SOL    HW129762   7.137   4.424   2.407
 9806SOL    HW229763   7.218   4.415   2.265
 9807SOL     OW29764   5.940   5.234   3.191
 9807SOL    HW129765   5.919   5.190   3.104
 9807SOL    HW229766   6.037   5.260   3.194
 9808SOL     OW29767   5.988   4.475   3.460
 9808SOL    HW129768   6.056   4.530   3.413
 9808SOL    HW229769   6.028   4.387   3.487
 9809SOL     OW29770   7.173   4.503   3.532
 9809SOL    HW129771   7.081   4.541   3.527
 9809SOL    HW229772   7.233   4.550   3.467
 9810SOL     OW29773   6.599   3.829   3.632
 9810SOL    HW129774   6.605   3.914   3.580
 9810SOL    HW229775   6.631   3.753   3.575
 9811SOL     OW29776   6.090   3.774   3.602
 9811SOL    HW129777   6.048   3.717   3.532
 9811SOL    HW229778   6.024   3.843   3.634
 9812SOL     OW29779   6.159   4.594   2.891
 9812SOL    HW129780   6.203   4.683   2.882
 9812SOL    HW229781   6.096   4.594   2.968
 9813SOL     OW29782   6.946   4.586   2.907
 9813SOL    HW129783   6.871   4.586   2.841
 9813SOL    HW229784   6.983   4.494   2.916
 9814SOL     OW29785   6.795   4.249   2.137
 9814SOL    HW129786   6.808   4.165   2.191
 9814SOL    HW229787   6.766   4.323   2.197
 9815SOL     OW29788   5.893   3.937   3.093
 9815SOL    HW129789   5.870   3.974   3.183
 9815SOL    HW229790   5.863   3.842   3.087
 9816SOL     OW29791   5.623   5.034   3.144
 9816SOL    HW129792   5.676   4.985   3.212
 9816SOL    HW229793   5.645   5.132   3.149
 9817SOL     OW29794   6.318   4.358   2.926
 9817SOL    HW129795   6.377   4.332   2.850
 9817SOL    HW229796   6.290   4.454   2.915
 9818SOL     OW29797   7.314   4.659   3.716
 9818SOL    HW129798   7.268   4.652   3.627
 9818SOL    HW229799   7.252   4.703   3.782
 9819SOL     OW29800   5.893   3.787   2.480
 9819SOL    HW129801   5.882   3.881   2.513
 9819SOL    HW229802   5.888   3.724   2.557
 9820SOL     OW29803   7.208   4.091   2.236
 9820SOL    HW129804   7.210   4.015   2.300
 9820SOL    HW229805   7.160   4.168   2.276
 9821SOL     OW29806   6.609   4.490   2.828
 9821SOL    HW129807   6.624   4.511   2.924
 9821SOL    HW229808   6.579   4.395   2.819
 9822SOL     OW29809   6.566   5.297   3.562
 9822SOL    HW129810   6.546   5.341   3.474
 9822SOL    HW229811   6.605   5.206   3.546
 9823SOL     OW29812   7.445   5.242   3.467
 9823SOL    HW129813   7.459   5.269   3.372
 9823SOL    HW229814   7.528   5.264   3.520
 9824SOL     OW29815   5.936   4.622   3.666
 9824SOL    HW129816   6.012   4.666   3.714
 9824SOL    HW229817   5.971   4.575   3.584
 9825SOL     OW29818   7.126   3.998   1.987
 9825SOL    HW129819   7.065   3.923   2.010
 9825SOL    HW229820   7.148   4.050   2.070
 9826SOL     OW29821   6.889   4.562   1.904
 9826SOL    HW129822   6.923   4.469   1.919
 9826SOL    HW229823   6.907   4.589   1.809
 9827SOL     OW29824   6.654   5.057   2.711
 9827SOL    HW129825   6.661   4.973   2.656
 9827SOL    HW229826   6.716   5.126   2.675
 9828SOL     OW29827   5.905   4.534   2.811
 9828SOL    HW129828   5.998   4.570   2.816
 9828SOL    HW229829   5.899   4.449   2.863
 9829SOL     OW29830   5.925   4.233   2.868
 9829SOL    HW129831   5.873   4.150   2.851
 9829SOL    HW229832   6.002   4.238   2.804
 9830SOL     OW29833   6.724   4.104   3.540
 9830SOL    HW129834   6.679   4.167   3.604
 9830SOL    HW229835   6.817   4.135   3.523
 9831SOL     OW29836   6.746   3.931   3.339
 9831SOL    HW129837   6.746   3.995   3.416
 9831SOL    HW229838   6.774   3.979   3.256
 9832SOL     OW29839   5.594   5.050   2.062
 9832SOL    HW129840   5.501   5.071   2.031
 9832SOL    HW229841   5.604   4.951   2.075
 9833SOL     OW29842   5.674   5.525   2.789
 9833SOL    HW129843   5.632   5.439   2.762
 9833SOL    HW229844   5.768   5.528   2.755
 9834SOL     OW29845   6.090   5.292   2.772
 9834SOL    HW129846   6.156   5.366   2.781
 9834SOL    HW229847   6.134   5.213   2.730
 9835SOL     OW29848   6.588   4.520   3.100
 9835SOL    HW129849   6.629   4.488   3.186
 9835SOL    HW229850   6.492   4.493   3.097
 9836SOL     OW29851   5.626   4.268   2.976
 9836SOL    HW129852   5.711   4.235   2.935
 9836SOL    HW229853   5.639   4.283   3.074
 9837SOL     OW29854   5.775   4.244   3.584
 9837SOL    HW129855   5.834   4.204   3.514
 9837SOL    HW229856   5.717   4.315   3.543
 9838SOL     OW29857   6.955   4.674   3.522
 9838SOL    HW129858   6.994   4.763   3.542
 9838SOL    HW229859   6.965   4.654   3.425
 9839SOL     OW29860   6.401   4.296   2.187
 9839SOL    HW129861   6.408   4.207   2.141
 9839SOL    HW229862   6.307   4.330   2.179
 9840SOL     OW29863   7.243   4.328   3.068
 9840SOL    HW129864   7.205   4.259   3.130
 9840SOL    HW229865   7.325   4.292   3.024
 9841SOL     OW29866   5.838   5.288   3.606
 9841SOL    HW129867   5.808   5.345   3.682
 9841SOL    HW229868   5.831   5.191   3.632
 9842SOL     OW29869   6.257   4.188   3.131
 9842SOL    HW129870   6.223   4.099   3.101
 9842SOL    HW229871   6.283   4.242   3.051
 9843SOL     OW29872   6.516   5.402   3.327
 9843SOL    HW129873   6.492   5.384   3.232
 9843SOL    HW229874   6.546   5.496   3.337
 9844SOL     OW29875   6.059   4.224   2.053
 9844SOL    HW129876   6.120   4.304   2.057
 9844SOL    HW229877   5.964   4.255   2.060
 9845SOL     OW29878   5.745   4.861   3.328
 9845SOL    HW129879   5.767   4.800   3.404
 9845SOL    HW229880   5.755   4.812   3.242
 9846SOL     OW29881   6.933   4.783   3.096
 9846SOL    HW129882   6.957   4.720   3.022
 9846SOL    HW229883   6.843   4.823   3.078
 9847SOL     OW29884   6.888   4.579   2.171
 9847SOL    HW129885   6.802   4.548   2.213
 9847SOL    HW229886   6.884   4.565   2.072
 9848SOL     OW29887   7.345   5.471   3.016
 9848SOL    HW129888   7.406   5.501   2.943
 9848SOL    HW229889   7.307   5.382   2.994
 9849SOL     OW29890   6.838   5.455   2.990
 9849SOL    HW129891   6.922   5.460   2.936
 9849SOL    HW229892   6.815   5.359   3.008
 9850SOL     OW29893   5.669   4.982   2.884
 9850SOL    HW129894   5.664   4.981   2.984
 9850SOL    HW229895   5.586   4.941   2.846
 9851SOL     OW29896   6.274   5.386   3.578
 9851SOL    HW129897   6.218   5.467   3.587
 9851SOL    HW229898   6.326   5.390   3.492
 9852SOL     OW29899   7.312   3.859   2.385
 9852SOL    HW129900   7.385   3.842   2.318
 9852SOL    HW229901   7.281   3.772   2.423
 9853SOL     OW29902   6.974   5.297   2.339
 9853SOL    HW129903   7.041   5.309   2.265
 9853SOL    HW229904   6.934   5.386   2.362
 9854SOL     OW29905   5.716   5.518   3.713
 9854SOL    HW129906   5.675   5.444   3.766
 9854SOL    HW229907   5.780   5.569   3.771
 9855SOL     OW29908   6.866   4.651   2.534
 9855SOL    HW129909   6.926   4.570   2.536
 9855SOL    HW229910   6.906   4.720   2.474
 9856SOL     OW29911   6.416   4.997   3.284
 9856SOL    HW129912   6.411   5.030   3.379
 9856SOL    HW229913   6.330   5.016   3.238
 9857SOL     OW29914   6.258   5.340   2.016
 9857SOL    HW129915   6.267   5.350   1.917
 9857SOL    HW229916   6.218   5.251   2.037
 9858SOL     OW29917   7.236   5.444   3.256
 9858SOL    HW129918   7.289   5.454   3.172
 9858SOL    HW229919   7.209   5.534   3.290
 9859SOL     OW29920   7.427   3.899   2.825
 9859SOL    HW129921   7.466   3.814   2.789
 9859SOL    HW229922   7.329   3.901   2.806
 9860SOL     OW29923   5.849   4.050   2.582
 9860SOL    HW129924   5.770   4.101   2.548
 9860SOL    HW229925   5.840   4.035   2.680
 9861SOL     OW29926   6.780   5.336   1.893
 9861SOL    HW129927   6.786   5.243   1.930
 9861SOL    HW229928   6.721   5.336   1.813
 9862SOL     OW29929   6.408   4.726   3.234
 9862SOL    HW129930   6.448   4.725   3.142
 9862SOL    HW229931   6.418   4.818   3.274
 9863SOL     OW29932   6.502   4.634   2.153
 9863SOL    HW129933   6.565   4.672   2.085
 9863SOL    HW229934   6.542   4.551   2.192
 9864SOL     OW29935   7.090   5.331   1.906
 9864SOL    HW129936   6.998   5.368   1.913
 9864SOL    HW229937   7.128   5.351   1.816
 9865SOL     OW29938   5.958   5.012   3.352
 9865SOL    HW129939   5.945   5.105   3.318
 9865SOL    HW229940   5.874   4.960   3.339
 9866SOL     OW29941   7.200   5.016   3.151
 9866SOL    HW129942   7.260   5.019   3.231
 9866SOL    HW229943   7.125   5.080   3.164
 9867SOL     OW29944   6.625   4.822   2.558
 9867SOL    HW129945   6.555   4.775   2.612
 9867SOL    HW229946   6.684   4.754   2.515
 9868SOL     OW29947   6.600   3.960   2.833
 9868SOL    HW129948   6.592   3.924   2.740
 9868SOL    HW229949   6.598   3.884   2.898
 9869SOL     OW29950   6.176   5.211   2.353
 9869SOL    HW129951   6.218   5.153   2.283
 9869SOL    HW229952   6.132   5.290   2.309
 9870SOL     OW29953   7.295   4.109   3.243
 9870SOL    HW129954   7.368   4.178   3.247
 9870SOL    HW229955   7.323   4.034   3.184
 9871SOL     OW29956   5.841   5.072   2.152
 9871SOL    HW129957   5.745   5.073   2.125
 9871SOL    HW229958   5.853   5.125   2.236
 9872SOL     OW29959   5.691   4.737   3.588
 9872SOL    HW129960   5.614   4.704   3.642
 9872SOL    HW229961   5.776   4.707   3.630
 9873SOL     OW29962   6.258   3.927   3.351
 9873SOL    HW129963   6.348   3.911   3.311
 9873SOL    HW229964   6.266   3.932   3.450
 9874SOL     OW29965   5.661   4.069   1.895
 9874SOL    HW129966   5.569   4.041   1.866
 9874SOL    HW229967   5.692   4.146   1.839
 9875SOL     OW29968   7.026   4.580   3.260
 9875SOL    HW129969   6.969   4.632   3.197
 9875SOL    HW229970   7.122   4.592   3.236
 9876SOL     OW29971   5.658   3.890   2.180
 9876SOL    HW129972   5.641   3.973   2.126
 9876SOL    HW229973   5.748   3.853   2.158
 9877SOL     OW29974   6.769   5.059   1.981
 9877SOL    HW129975   6.670   5.048   1.983
 9877SOL    HW229976   6.803   5.074   2.074
 9878SOL     OW29977   6.199   4.566   3.293
 9878SOL    HW129978   6.255   4.647   3.276
 9878SOL    HW229979   6.258   4.486   3.296
 9879SOL     OW29980   7.079   5.491   2.821
 9879SOL    HW129981   7.112   5.555   2.752
 9879SOL    HW229982   7.145   5.485   2.896
 9880SOL     OW29983   6.302   4.289   3.570
 9880SOL    HW129984   6.321   4.354   3.644
 9880SOL    HW229985   6.362   4.209   3.579
 9881SOL     OW29986   7.036   4.944   3.495
 9881SOL    HW129987   7.027   4.934   3.594
 9881SOL    HW229988   7.132   4.937   3.469
 9882SOL     OW29989   5.976   5.465   3.422
 9882SOL    HW129990   5.885   5.506   3.420
 9882SOL    HW229991   5.969   5.371   3.454
 9883SOL     OW29992   7.260   4.607   3.116
 9883SOL    HW129993   7.233   4.518   3.079
 9883SOL    HW229994   7.261   4.675   3.043
 9884SOL     OW29995   6.811   4.049   2.311
 9884SOL    HW129996   6.876   3.975   2.300
 9884SOL    HW229997   6.831   4.099   2.395
 9885SOL     OW29998   6.180   4.469   2.514
 9885SOL    HW129999   6.230   4.554   2.495
 9885SOL    HW230000   6.092   4.471   2.466
 9886SOL     OW30001   7.363   4.066   3.504
 9886SOL    HW130002   7.346   4.097   3.410
 9886SOL    HW230003   7.279   4.029   3.542
 9887SOL     OW30004   7.316   4.658   3.379
 9887SOL    HW130005   7.354   4.749   3.394
 9887SOL    HW230006   7.308   4.641   3.280
 9888SOL     OW30007   6.445   5.098   1.878
 9888SOL    HW130008   6.399   5.113   1.966
 9888SOL    HW230009   6.489   5.183   1.848
 9889SOL     OW30010   6.247   5.514   2.815
 9889SOL    HW130011   6.201   5.602   2.802
 9889SOL    HW230012   6.346   5.526   2.808
 9890SOL     OW30013   6.445   4.680   2.723
 9890SOL    HW130014   6.499   4.611   2.771
 9890SOL    HW230015   6.413   4.749   2.789
 9891SOL     OW30016   6.669   4.708   1.949
 9891SOL    HW130017   6.646   4.761   1.867
 9891SOL    HW230018   6.750   4.652   1.930
 9892SOL     OW30019   7.447   5.293   2.713
 9892SOL    HW130020   7.376   5.281   2.643
 9892SOL    HW230021   7.448   5.214   2.773
 9893SOL     OW30022   5.807   5.038   3.706
 9893SOL    HW130023   5.742   4.965   3.685
 9893SOL    HW230024   5.811   5.052   3.804
 9894SOL     OW30025   5.665   4.964   2.515
 9894SOL    HW130026   5.664   4.917   2.603
 9894SOL    HW230027   5.747   4.936   2.464
 9895SOL     OW30028   6.258   5.115   3.486
 9895SOL    HW130029   6.180   5.065   3.524
 9895SOL    HW230030   6.255   5.210   3.517
 9896SOL     OW30031   7.410   3.916   3.089
 9896SOL    HW130032   7.406   3.826   3.133
 9896SOL    HW230033   7.413   3.905   2.990
 9897SOL     OW30034   6.014   4.148   2.382
 9897SOL    HW130035   6.044   4.076   2.320
 9897SOL    HW230036   5.975   4.108   2.465
 9898SOL     OW30037   7.291   5.211   2.966
 9898SOL    HW130038   7.198   5.186   2.939
 9898SOL    HW230039   7.317   5.161   3.048
 9899SOL     OW30040   5.903   4.271   3.142
 9899SOL    HW130041   5.941   4.212   3.214
 9899SOL    HW230042   5.943   4.245   3.054
 9900SOL     OW30043   6.398   5.310   2.549
 9900SOL    HW130044   6.430   5.320   2.455
 9900SOL    HW230045   6.319   5.248   2.551
 9901SOL     OW30046   7.010   3.938   2.974
 9901SOL    HW130047   7.062   3.873   3.029
 9901SOL    HW230048   6.961   4.001   3.035
 9902SOL     OW30049   6.587   3.758   3.016
 9902SOL    HW130050   6.524   3.686   2.985
 9902SOL    HW230051   6.680   3.722   3.016
 9903SOL     OW30052   6.356   5.054   2.163
 9903SOL    HW130053   6.310   4.967   2.180
 9903SOL    HW230054   6.447   5.051   2.204
 9904SOL     OW30055   6.204   5.291   3.146
 9904SOL    HW130056   6.199   5.373   3.203
 9904SOL    HW230057   6.293   5.288   3.101
 9905SOL     OW30058   6.938   3.776   2.030
 9905SOL    HW130059   6.973   3.735   1.946
 9905SOL    HW230060   6.848   3.738   2.050
 9906SOL     OW30061   6.886   4.177   2.553
 9906SOL    HW130062   6.827   4.257   2.557
 9906SOL    HW230063   6.901   4.142   2.646
 9907SOL     OW30064   7.179   3.945   2.744
 9907SOL    HW130065   7.095   3.944   2.798
 9907SOL    HW230066   7.181   4.028   2.688
 9908SOL     OW30067   5.625   4.801   2.162
 9908SOL    HW130068   5.724   4.790   2.153
 9908SOL    HW230069   5.585   4.715   2.194
 9909SOL     OW30070   6.461   5.370   2.199
 9909SOL    HW130071   6.384   5.335   2.145
 9909SOL    HW230072   6.429   5.441   2.261
 9910SOL     OW30073   5.816   4.352   3.837
 9910SOL    HW130074   5.723   4.350   3.874
 9910SOL    HW230075   5.817   4.313   3.745
 9911SOL     OW30076   5.811   3.999   4.720
 9911SOL    HW130077   5.846   3.982   4.812
 9911SOL    HW230078   5.723   3.954   4.708
 9912SOL     OW30079   5.605   4.092   4.371
 9912SOL    HW130080   5.523   4.135   4.410
 9912SOL    HW230081   5.577   4.019   4.308
 9913SOL     OW30082   6.155   4.999   4.889
 9913SOL    HW130083   6.062   4.992   4.852
 9913SOL    HW230084   6.166   5.088   4.933
 9914SOL     OW30085   7.141   5.235   4.427
 9914SOL    HW130086   7.084   5.219   4.508
 9914SOL    HW230087   7.082   5.245   4.347
 9915SOL     OW30088   6.721   4.427   4.441
 9915SOL    HW130089   6.778   4.505   4.416
 9915SOL    HW230090   6.661   4.453   4.517
 9916SOL     OW30091   7.341   4.331   3.955
 9916SOL    HW130092   7.329   4.318   3.856
 9916SOL    HW230093   7.311   4.250   4.004
 9917SOL     OW30094   6.354   4.868   4.747
 9917SOL    HW130095   6.276   4.885   4.807
 9917SOL    HW230096   6.388   4.955   4.711
 9918SOL     OW30097   6.436   4.522   5.547
 9918SOL    HW130098   6.432   4.598   5.612
 9918SOL    HW230099   6.458   4.558   5.456
 9919SOL     OW30100   6.271   4.736   4.389
 9919SOL    HW130101   6.340   4.720   4.459
 9919SOL    HW230102   6.198   4.793   4.427
 9920SOL     OW30103   6.272   4.885   5.527
 9920SOL    HW130104   6.332   4.964   5.541
 9920SOL    HW230105   6.186   4.916   5.486
 9921SOL     OW30106   5.921   5.159   4.785
 9921SOL    HW130107   5.843   5.128   4.732
 9921SOL    HW230108   5.979   5.217   4.728
 9922SOL     OW30109   7.046   5.229   5.063
 9922SOL    HW130110   7.070   5.323   5.089
 9922SOL    HW230111   7.030   5.175   5.145
 9923SOL     OW30112   6.024   4.116   5.223
 9923SOL    HW130113   6.106   4.060   5.232
 9923SOL    HW230114   5.943   4.058   5.227
 9924SOL     OW30115   7.189   4.171   4.461
 9924SOL    HW130116   7.115   4.217   4.411
 9924SOL    HW230117   7.240   4.239   4.514
 9925SOL     OW30118   5.817   5.437   4.207
 9925SOL    HW130119   5.851   5.514   4.261
 9925SOL    HW230120   5.861   5.437   4.117
 9926SOL     OW30121   6.713   5.065   5.414
 9926SOL    HW130122   6.760   5.065   5.502
 9926SOL    HW230123   6.665   4.978   5.403
 9927SOL     OW30124   5.816   5.158   4.262
 9927SOL    HW130125   5.790   5.254   4.262
 9927SOL    HW230126   5.745   5.104   4.307
 9928SOL     OW30127   5.826   4.815   4.610
 9928SOL    HW130128   5.840   4.731   4.662
 9928SOL    HW230129   5.771   4.879   4.665
 9929SOL     OW30130   6.206   5.510   5.163
 9929SOL    HW130131   6.114   5.493   5.198
 9929SOL    HW230132   6.234   5.602   5.189
 9930SOL     OW30133   6.192   4.688   3.847
 9930SOL    HW130134   6.199   4.772   3.793
 9930SOL    HW230135   6.238   4.701   3.935
 9931SOL     OW30136   7.180   3.838   5.204
 9931SOL    HW130137   7.162   3.905   5.132
 9931SOL    HW230138   7.177   3.884   5.293
 9932SOL     OW30139   5.708   4.367   4.287
 9932SOL    HW130140   5.663   4.279   4.304
 9932SOL    HW230141   5.707   4.421   4.371
 9933SOL     OW30142   7.428   5.491   4.083
 9933SOL    HW130143   7.482   5.462   4.163
 9933SOL    HW230144   7.458   5.581   4.054
 9934SOL     OW30145   5.613   5.320   3.841
 9934SOL    HW130146   5.594   5.224   3.862
 9934SOL    HW230147   5.580   5.378   3.916
 9935SOL     OW30148   7.275   4.646   4.336
 9935SOL    HW130149   7.370   4.617   4.344
 9935SOL    HW230150   7.267   4.711   4.261
 9936SOL     OW30151   7.227   4.832   4.156
 9936SOL    HW130152   7.313   4.834   4.104
 9936SOL    HW230153   7.241   4.879   4.244
 9937SOL     OW30154   5.699   4.461   5.321
 9937SOL    HW130155   5.787   4.448   5.366
 9937SOL    HW230156   5.686   4.558   5.299
 9938SOL     OW30157   6.199   5.089   4.450
 9938SOL    HW130158   6.150   5.002   4.459
 9938SOL    HW230159   6.176   5.132   4.363
 9939SOL     OW30160   6.879   4.952   5.147
 9939SOL    HW130161   6.916   4.879   5.089
 9939SOL    HW230162   6.931   4.957   5.232
 9940SOL     OW30163   6.395   3.728   4.226
 9940SOL    HW130164   6.435   3.819   4.217
 9940SOL    HW230165   6.295   3.736   4.232
 9941SOL     OW30166   5.783   4.700   4.988
 9941SOL    HW130167   5.872   4.655   4.974
 9941SOL    HW230168   5.710   4.635   4.969
 9942SOL     OW30169   7.111   4.723   3.914
 9942SOL    HW130170   7.048   4.647   3.927
 9942SOL    HW230171   7.159   4.741   4.000
 9943SOL     OW30172   6.773   5.516   5.340
 9943SOL    HW130173   6.797   5.576   5.264
 9943SOL    HW230174   6.780   5.421   5.310
 9944SOL     OW30175   5.903   3.975   5.525
 9944SOL    HW130176   5.974   4.046   5.531
 9944SOL    HW230177   5.815   4.014   5.553
 9945SOL     OW30178   7.052   5.141   4.677
 9945SOL    HW130179   6.993   5.147   4.757
 9945SOL    HW230180   7.037   5.053   4.631
 9946SOL     OW30181   7.253   5.438   4.296
 9946SOL    HW130182   7.212   5.415   4.208
 9946SOL    HW230183   7.235   5.364   4.361
 9947SOL     OW30184   6.184   4.453   3.994
 9947SOL    HW130185   6.208   4.522   3.926
 9947SOL    HW230186   6.106   4.486   4.048
 9948SOL     OW30187   6.867   4.069   4.668
 9948SOL    HW130188   6.781   4.019   4.655
 9948SOL    HW230189   6.929   4.015   4.724
 9949SOL     OW30190   7.162   5.386   4.031
 9949SOL    HW130191   7.251   5.432   4.034
 9949SOL    HW230192   7.141   5.362   3.936
 9950SOL     OW30193   6.393   4.329   5.189
 9950SOL    HW130194   6.346   4.326   5.278
 9950SOL    HW230195   6.342   4.274   5.123
 9951SOL     OW30196   6.980   4.193   5.398
 9951SOL    HW130197   6.960   4.236   5.486
 9951SOL    HW230198   7.058   4.131   5.407
 9952SOL     OW30199   6.559   4.614   5.296
 9952SOL    HW130200   6.605   4.530   5.267
 9952SOL    HW230201   6.503   4.648   5.221
 9953SOL     OW30202   6.577   4.134   4.966
 9953SOL    HW130203   6.500   4.168   5.020
 9953SOL    HW230204   6.543   4.083   4.887
 9954SOL     OW30205   6.627   4.425   4.153
 9954SOL    HW130206   6.653   4.421   4.249
 9954SOL    HW230207   6.542   4.374   4.139
 9955SOL     OW30208   5.662   4.535   4.513
 9955SOL    HW130209   5.761   4.523   4.522
 9955SOL    HW230210   5.638   4.630   4.534
 9956SOL     OW30211   5.716   5.545   5.295
 9956SOL    HW130212   5.706   5.530   5.394
 9956SOL    HW230213   5.630   5.581   5.259
 9957SOL     OW30214   6.451   4.072   3.919
 9957SOL    HW130215   6.510   4.135   3.870
 9957SOL    HW230216   6.470   3.978   3.890
 9958SOL     OW30217   7.305   4.309   5.555
 9958SOL    HW130218   7.279   4.398   5.519
 9958SOL    HW230219   7.303   4.241   5.482
 9959SOL     OW30220   6.948   4.868   4.269
 9959SOL    HW130221   7.031   4.839   4.221
 9959SOL    HW230222   6.899   4.935   4.213
 9960SOL     OW30223   6.136   3.920   4.609
 9960SOL    HW130224   6.131   3.915   4.709
 9960SOL    HW230225   6.138   4.016   4.580
 9961SOL     OW30226   6.594   5.180   4.201
 9961SOL    HW130227   6.548   5.252   4.149
 9961SOL    HW230228   6.590   5.200   4.299
 9962SOL     OW30229   5.937   5.525   4.577
 9962SOL    HW130230   5.987   5.439   4.583
 9962SOL    HW230231   6.002   5.602   4.574
 9963SOL     OW30232   7.381   4.790   4.597
 9963SOL    HW130233   7.319   4.775   4.521
 9963SOL    HW230234   7.329   4.801   4.682
 9964SOL     OW30235   6.813   5.274   5.230
 9964SOL    HW130236   6.819   5.197   5.294
 9964SOL    HW230237   6.761   5.248   5.150
 9965SOL     OW30238   5.907   4.667   3.966
 9965SOL    HW130239   5.989   4.706   3.924
 9965SOL    HW230240   5.880   4.585   3.917
 9966SOL     OW30241   7.044   4.459   4.452
 9966SOL    HW130242   7.039   4.394   4.527
 9966SOL    HW230243   7.124   4.518   4.465
 9967SOL     OW30244   6.047   4.990   5.451
 9967SOL    HW130245   5.997   4.991   5.365
 9967SOL    HW230246   5.984   4.972   5.527
 9968SOL     OW30247   6.697   5.500   3.961
 9968SOL    HW130248   6.637   5.438   4.011
 9968SOL    HW230249   6.728   5.456   3.876
 9969SOL     OW30250   5.788   4.009   5.222
 9969SOL    HW130251   5.708   4.069   5.209
 9969SOL    HW230252   5.778   3.960   5.308
 9970SOL     OW30253   7.218   5.101   3.805
 9970SOL    HW130254   7.186   5.195   3.795
 9970SOL    HW230255   7.142   5.038   3.793
 9971SOL     OW30256   6.050   5.467   4.047
 9971SOL    HW130257   6.083   5.506   4.133
 9971SOL    HW230258   6.126   5.460   3.982
 9972SOL     OW30259   6.986   3.831   4.150
 9972SOL    HW130260   6.962   3.794   4.060
 9972SOL    HW230261   7.085   3.847   4.154
 9973SOL     OW30262   5.835   5.509   4.965
 9973SOL    HW130263   5.892   5.444   5.015
 9973SOL    HW230264   5.819   5.476   4.872
 9974SOL     OW30265   6.526   5.422   4.628
 9974SOL    HW130266   6.606   5.365   4.649
 9974SOL    HW230267   6.477   5.382   4.551
 9975SOL     OW30268   5.968   4.424   4.204
 9975SOL    HW130269   6.013   4.334   4.201
 9975SOL    HW230270   5.874   4.413   4.237
 9976SOL     OW30271   7.133   3.946   5.453
 9976SOL    HW130272   7.128   3.983   5.545
 9976SOL    HW230273   7.061   3.877   5.441
 9977SOL     OW30274   6.200   3.846   3.841
 9977SOL    HW130275   6.298   3.824   3.848
 9977SOL    HW230276   6.169   3.829   3.748
 9978SOL     OW30277   6.367   3.988   5.473
 9978SOL    HW130278   6.434   3.927   5.516
 9978SOL    HW230279   6.294   4.007   5.538
 9979SOL     OW30280   6.474   5.238   4.919
 9979SOL    HW130281   6.451   5.213   4.825
 9979SOL    HW230282   6.535   5.169   4.958
 9980SOL     OW30283   6.937   4.314   5.157
 9980SOL    HW130284   6.965   4.271   5.242
 9980SOL    HW230285   6.962   4.410   5.158
 9981SOL     OW30286   6.389   5.126   4.648
 9981SOL    HW130287   6.479   5.140   4.606
 9981SOL    HW230288   6.318   5.128   4.577
 9982SOL     OW30289   6.508   4.227   4.623
 9982SOL    HW130290   6.483   4.218   4.527
 9982SOL    HW230291   6.556   4.145   4.654
 9983SOL     OW30292   6.125   3.788   4.236
 9983SOL    HW130293   6.044   3.789   4.294
 9983SOL    HW230294   6.128   3.871   4.181
 9984SOL     OW30295   7.020   4.912   3.765
 9984SOL    HW130296   7.052   4.836   3.822
 9984SOL    HW230297   6.928   4.939   3.795
 9985SOL     OW30298   5.883   3.759   3.895
 9985SOL    HW130299   5.932   3.843   3.874
 9985SOL    HW230300   5.945   3.694   3.940
 9986SOL     OW30301   6.521   3.960   4.204
 9986SOL    HW130302   6.473   4.001   4.126
 9986SOL    HW230303   6.620   3.958   4.185
 9987SOL     OW30304   6.662   4.407   5.188
 9987SOL    HW130305   6.582   4.346   5.191
 9987SOL    HW230306   6.743   4.354   5.164
 9988SOL     OW30307   6.813   5.294   4.517
 9988SOL    HW130308   6.834   5.368   4.452
 9988SOL    HW230309   6.881   5.294   4.590
 9989SOL     OW30310   6.045   4.876   4.465
 9989SOL    HW130311   5.974   4.849   4.530
 9989SOL    HW230312   6.019   4.848   4.372
 9990SOL     OW30313   6.857   5.521   4.315
 9990SOL    HW130314   6.901   5.585   4.251
 9990SOL    HW230315   6.807   5.573   4.385
 9991SOL     OW30316   6.618   4.273   3.740
 9991SOL    HW130317   6.577   4.355   3.701
 9991SOL    HW230318   6.682   4.299   3.813
 9992SOL     OW30319   5.664   4.280   5.110
 9992SOL    HW130320   5.756   4.279   5.069
 9992SOL    HW230321   5.658   4.354   5.177
 9993SOL     OW30322   6.147   3.946   4.871
 9993SOL    HW130323   6.185   3.862   4.908
 9993SOL    HW230324   6.059   3.965   4.915
 9994SOL     OW30325   6.452   4.178   4.366
 9994SOL    HW130326   6.420   4.250   4.304
 9994SOL    HW230327   6.476   4.097   4.313
 9995SOL     OW30328   6.603   3.763   4.477
 9995SOL    HW130329   6.531   3.768   4.408
 9995SOL    HW230330   6.579   3.694   4.546
 9996SOL     OW30331   7.015   4.897   4.591
 9996SOL    HW130332   6.960   4.813   4.584
 9996SOL    HW230333   7.041   4.926   4.499
 9997SOL     OW30334   7.052   4.314   4.716
 9997SOL    HW130335   7.022   4.219   4.723
 9997SOL    HW230336   7.125   4.330   4.782
 9998SOL     OW30337   7.443   4.557   4.101
 9998SOL    HW130338   7.485   4.493   4.165
 9998SOL    HW230339   7.405   4.506   4.023
 9999SOL     OW30340   6.074   5.109   3.898
 9999SOL    HW130341   5.987   5.094   3.945
 9999SOL    HW230342   6.057   5.135   3.803
10000SOL     OW30343   7.250   5.004   4.381
10000SOL    HW130344   7.349   5.012   4.395
10000SOL    HW230345   7.205   5.088   4.412
10001SOL     OW30346   6.976   4.299   3.802
10001SOL    HW130347   6.922   4.278   3.883
10001SOL    HW230348   7.067   4.258   3.811
10002SOL     OW30349   6.113   3.980   4.052
10002SOL    HW130350   6.140   3.921   3.977
10002SOL    HW230351   6.113   4.075   4.021
10003SOL     OW30352   7.340   4.947   5.312
10003SOL    HW130353   7.431   4.908   5.299
10003SOL    HW230354   7.348   5.043   5.336
10004SOL     OW30355   6.650   5.071   5.064
10004SOL    HW130356   6.570   5.048   5.119
10004SOL    HW230357   6.733   5.045   5.113
10005SOL     OW30358   7.178   5.353   5.349
10005SOL    HW130359   7.205   5.387   5.259
10005SOL    HW230360   7.257   5.315   5.395
10006SOL     OW30361   6.697   4.919   4.824
10006SOL    HW130362   6.657   4.963   4.905
10006SOL    HW230363   6.656   4.956   4.741
10007SOL     OW30364   7.224   4.823   4.803
10007SOL    HW130365   7.229   4.904   4.862
10007SOL    HW230366   7.138   4.825   4.752
10008SOL     OW30367   6.501   3.813   5.126
10008SOL    HW130368   6.526   3.793   5.031
10008SOL    HW230369   6.573   3.869   5.168
10009SOL     OW30370   6.566   4.840   5.443
10009SOL    HW130371   6.467   4.846   5.453
10009SOL    HW230372   6.589   4.760   5.387
10010SOL     OW30373   6.291   4.774   4.092
10010SOL    HW130374   6.277   4.781   4.191
10010SOL    HW230375   6.375   4.723   4.074
10011SOL     OW30376   5.996   4.537   4.975
10011SOL    HW130377   6.082   4.549   5.025
10011SOL    HW230378   5.954   4.450   5.002
10012SOL     OW30379   6.860   4.110   4.986
10012SOL    HW130380   6.881   4.184   5.050
10012SOL    HW230381   6.771   4.127   4.943
10013SOL     OW30382   5.650   5.288   5.055
10013SOL    HW130383   5.604   5.370   5.021
10013SOL    HW230384   5.748   5.307   5.064
10014SOL     OW30385   5.953   4.824   4.225
10014SOL    HW130386   5.946   4.907   4.169
10014SOL    HW230387   5.957   4.744   4.165
10015SOL     OW30388   6.152   4.261   4.589
10015SOL    HW130389   6.164   4.327   4.515
10015SOL    HW230390   6.198   4.295   4.672
10016SOL     OW30391   6.838   5.072   4.112
10016SOL    HW130392   6.888   5.149   4.152
10016SOL    HW230393   6.743   5.074   4.144
10017SOL     OW30394   6.858   5.169   4.866
10017SOL    HW130395   6.905   5.182   4.953
10017SOL    HW230396   6.792   5.095   4.875
10018SOL     OW30397   7.168   4.363   4.196
10018SOL    HW130398   7.137   4.424   4.269
10018SOL    HW230399   7.218   4.415   4.127
10019SOL     OW30400   5.940   5.234   5.053
10019SOL    HW130401   5.919   5.190   4.966
10019SOL    HW230402   6.037   5.260   5.056
10020SOL     OW30403   5.988   4.475   5.322
10020SOL    HW130404   6.056   4.530   5.275
10020SOL    HW230405   6.028   4.387   5.349
10021SOL     OW30406   7.173   4.503   5.394
10021SOL    HW130407   7.081   4.541   5.389
10021SOL    HW230408   7.233   4.550   5.329
10022SOL     OW30409   6.599   3.829   5.494
10022SOL    HW130410   6.605   3.914   5.442
10022SOL    HW230411   6.631   3.753   5.437
10023SOL     OW30412   6.090   3.774   5.464
10023SOL    HW130413   6.048   3.717   5.394
10023SOL    HW230414   6.024   3.843   5.496
10024SOL     OW30415   6.159   4.594   4.753
10024SOL    HW130416   6.203   4.683   4.744
10024SOL    HW230417   6.096   4.594   4.830
10025SOL     OW30418   6.946   4.586   4.769
10025SOL    HW130419   6.871   4.586   4.703
10025SOL    HW230420   6.983   4.494   4.778
10026SOL     OW30421   6.795   4.249   3.999
10026SOL    HW130422   6.808   4.165   4.053
10026SOL    HW230423   6.766   4.323   4.059
10027SOL     OW30424   5.893   3.937   4.955
10027SOL    HW130425   5.870   3.974   5.045
10027SOL    HW230426   5.863   3.842   4.949
10028SOL     OW30427   5.623   5.034   5.006
10028SOL    HW130428   5.676   4.985   5.074
10028SOL    HW230429   5.645   5.132   5.011
10029SOL     OW30430   6.318   4.358   4.788
10029SOL    HW130431   6.377   4.332   4.712
10029SOL    HW230432   6.290   4.454   4.777
10030SOL     OW30433   7.314   4.659   5.578
10030SOL    HW130434   7.268   4.652   5.489
10030SOL    HW230435   7.252   4.703   5.644
10031SOL     OW30436   5.893   3.787   4.342
10031SOL    HW130437   5.882   3.881   4.375
10031SOL    HW230438   5.888   3.724   4.419
10032SOL     OW30439   7.208   4.091   4.098
10032SOL    HW130440   7.210   4.015   4.162
10032SOL    HW230441   7.160   4.168   4.138
10033SOL     OW30442   6.609   4.490   4.690
10033SOL    HW130443   6.624   4.511   4.786
10033SOL    HW230444   6.579   4.395   4.681
10034SOL     OW30445   6.566   5.297   5.424
10034SOL    HW130446   6.546   5.341   5.336
10034SOL    HW230447   6.605   5.206   5.408
10035SOL     OW30448   7.445   5.242   5.329
10035SOL    HW130449   7.459   5.269   5.234
10035SOL    HW230450   7.528   5.264   5.382
10036SOL     OW30451   5.936   4.622   5.528
10036SOL    HW130452   6.012   4.666   5.576
10036SOL    HW230453   5.971   4.575   5.446
10037SOL     OW30454   7.126   3.998   3.849
10037SOL    HW130455   7.065   3.923   3.872
10037SOL    HW230456   7.148   4.050   3.932
10038SOL     OW30457   6.889   4.562   3.766
10038SOL    HW130458   6.923   4.469   3.781
10038SOL    HW230459   6.907   4.589   3.671
10039SOL     OW30460   6.654   5.057   4.573
10039SOL    HW130461   6.661   4.973   4.518
10039SOL    HW230462   6.716   5.126   4.537
10040SOL     OW30463   5.905   4.534   4.673
10040SOL    HW130464   5.998   4.570   4.678
10040SOL    HW230465   5.899   4.449   4.725
10041SOL     OW30466   5.925   4.233   4.730
10041SOL    HW130467   5.873   4.150   4.713
10041SOL    HW230468   6.002   4.238   4.666
10042SOL     OW30469   6.724   4.104   5.402
10042SOL    HW130470   6.679   4.167   5.466
10042SOL    HW230471   6.817   4.135   5.385
10043SOL     OW30472   6.746   3.931   5.201
10043SOL    HW130473   6.746   3.995   5.278
10043SOL    HW230474   6.774   3.979   5.118
10044SOL     OW30475   5.594   5.050   3.924
10044SOL    HW130476   5.501   5.071   3.893
10044SOL    HW230477   5.604   4.951   3.937
10045SOL     OW30478   5.674   5.525   4.651
10045SOL    HW130479   5.632   5.439   4.624
10045SOL    HW230480   5.768   5.528   4.617
10046SOL     OW30481   6.090   5.292   4.634
10046SOL    HW130482   6.156   5.366   4.643
10046SOL    HW230483   6.134   5.213   4.592
10047SOL     OW30484   6.588   4.520   4.962
10047SOL    HW130485   6.629   4.488   5.048
10047SOL    HW230486   6.492   4.493   4.959
10048SOL     OW30487   5.626   4.268   4.838
10048SOL    HW130488   5.711   4.235   4.797
10048SOL    HW230489   5.639   4.283   4.936
10049SOL     OW30490   5.775   4.244   5.446
10049SOL    HW130491   5.834   4.204   5.376
10049SOL    HW230492   5.717   4.315   5.405
10050SOL     OW30493   6.955   4.674   5.384
10050SOL    HW130494   6.994   4.763   5.404
10050SOL    HW230495   6.965   4.654   5.287
10051SOL     OW30496   6.401   4.296   4.049
10051SOL    HW130497   6.408   4.207   4.003
10051SOL    HW230498   6.307   4.330   4.041
10052SOL     OW30499   7.243   4.328   4.930
10052SOL    HW130500   7.205   4.259   4.992
10052SOL    HW230501   7.325   4.292   4.886
10053SOL     OW30502   5.838   5.288   5.468
10053SOL    HW130503   5.808   5.345   5.544
10053SOL    HW230504   5.831   5.191   5.494
10054SOL     OW30505   6.257   4.188   4.993
10054SOL    HW130506   6.223   4.099   4.963
10054SOL    HW230507   6.283   4.242   4.913
10055SOL     OW30508   6.516   5.402   5.189
10055SOL    HW130509   6.492   5.384   5.094
10055SOL    HW230510   6.546   5.496   5.199
10056SOL     OW30511   6.059   4.224   3.915
10056SOL    HW130512   6.120   4.304   3.919
10056SOL    HW230513   5.964   4.255   3.922
10057SOL     OW30514   5.745   4.861   5.190
10057SOL    HW130515   5.767   4.800   5.266
10057SOL    HW230516   5.755   4.812   5.104
10058SOL     OW30517   6.933   4.783   4.958
10058SOL    HW130518   6.957   4.720   4.884
10058SOL    HW230519   6.843   4.823   4.940
10059SOL     OW30520   6.888   4.579   4.033
10059SOL    HW130521   6.802   4.548   4.075
10059SOL    HW230522   6.884   4.565   3.934
10060SOL     OW30523   7.345   5.471   4.878
10060SOL    HW130524   7.406   5.501   4.805
10060SOL    HW230525   7.307   5.382   4.856
10061SOL     OW30526   6.838   5.455   4.852
10061SOL    HW130527   6.922   5.460   4.798
10061SOL    HW230528   6.815   5.359   4.870
10062SOL     OW30529   5.669   4.982   4.746
10062SOL    HW130530   5.664   4.981   4.846
10062SOL    HW230531   5.586   4.941   4.708
10063SOL     OW30532   6.274   5.386   5.440
10063SOL    HW130533   6.218   5.467   5.449
10063SOL    HW230534   6.326   5.390   5.354
10064SOL     OW30535   7.312   3.859   4.247
10064SOL    HW130536   7.385   3.842   4.180
10064SOL    HW230537   7.281   3.772   4.285
10065SOL     OW30538   6.974   5.297   4.201
10065SOL    HW130539   7.041   5.309   4.127
10065SOL    HW230540   6.934   5.386   4.224
10066SOL     OW30541   5.716   5.518   5.575
10066SOL    HW130542   5.675   5.444   5.628
10066SOL    HW230543   5.780   5.569   5.633
10067SOL     OW30544   6.866   4.651   4.396
10067SOL    HW130545   6.926   4.570   4.398
10067SOL    HW230546   6.906   4.720   4.336
10068SOL     OW30547   6.416   4.997   5.146
10068SOL    HW130548   6.411   5.030   5.241
10068SOL    HW230549   6.330   5.016   5.100
10069SOL     OW30550   6.258   5.340   3.878
10069SOL    HW130551   6.267   5.350   3.779
10069SOL    HW230552   6.218   5.251   3.899
10070SOL     OW30553   7.236   5.444   5.118
10070SOL    HW130554   7.289   5.454   5.034
10070SOL    HW230555   7.209   5.534   5.152
10071SOL     OW30556   7.427   3.899   4.687
10071SOL    HW130557   7.466   3.814   4.651
10071SOL    HW230558   7.329   3.901   4.668
10072SOL     OW30559   5.849   4.050   4.444
10072SOL    HW130560   5.770   4.101   4.410
10072SOL    HW230561   5.840   4.035   4.542
10073SOL     OW30562   6.780   5.336   3.755
10073SOL    HW130563   6.786   5.243   3.792
10073SOL    HW230564   6.721   5.336   3.675
10074SOL     OW30565   6.408   4.726   5.096
10074SOL    HW130566   6.448   4.725   5.004
10074SOL    HW230567   6.418   4.818   5.136
10075SOL     OW30568   6.502   4.634   4.015
10075SOL    HW130569   6.565   4.672   3.947
10075SOL    HW230570   6.542   4.551   4.054
10076SOL     OW30571   7.090   5.331   3.768
10076SOL    HW130572   6.998   5.368   3.775
10076SOL    HW230573   7.128   5.351   3.678
10077SOL     OW30574   5.958   5.012   5.214
10077SOL    HW130575   5.945   5.105   5.180
10077SOL    HW230576   5.874   4.960   5.201
10078SOL     OW30577   7.200   5.016   5.013
10078SOL    HW130578   7.260   5.019   5.093
10078SOL    HW230579   7.125   5.080   5.026
10079SOL     OW30580   6.625   4.822   4.420
10079SOL    HW130581   6.555   4.775   4.474
10079SOL    HW230582   6.684   4.754   4.377
10080SOL     OW30583   6.600   3.960   4.695
10080SOL    HW130584   6.592   3.924   4.602
10080SOL    HW230585   6.598   3.884   4.760
10081SOL     OW30586   6.176   5.211   4.215
10081SOL    HW130587   6.218   5.153   4.145
10081SOL    HW230588   6.132   5.290   4.171
10082SOL     OW30589   7.295   4.109   5.105
10082SOL    HW130590   7.368   4.178   5.109
10082SOL    HW230591   7.323   4.034   5.046
10083SOL     OW30592   5.841   5.072   4.014
10083SOL    HW130593   5.745   5.073   3.987
10083SOL    HW230594   5.853   5.125   4.098
10084SOL     OW30595   5.691   4.737   5.450
10084SOL    HW130596   5.614   4.704   5.504
10084SOL    HW230597   5.776   4.707   5.492
10085SOL     OW30598   6.258   3.927   5.213
10085SOL    HW130599   6.348   3.911   5.173
10085SOL    HW230600   6.266   3.932   5.312
10086SOL     OW30601   5.661   4.069   3.757
10086SOL    HW130602   5.569   4.041   3.728
10086SOL    HW230603   5.692   4.146   3.701
10087SOL     OW30604   7.026   4.580   5.122
10087SOL    HW130605   6.969   4.632   5.059
10087SOL    HW230606   7.122   4.592   5.098
10088SOL     OW30607   5.658   3.890   4.042
10088SOL    HW130608   5.641   3.973   3.988
10088SOL    HW230609   5.748   3.853   4.020
10089SOL     OW30610   6.769   5.059   3.843
10089SOL    HW130611   6.670   5.048   3.845
10089SOL    HW230612   6.803   5.074   3.936
10090SOL     OW30613   6.199   4.566   5.155
10090SOL    HW130614   6.255   4.647   5.138
10090SOL    HW230615   6.258   4.486   5.158
10091SOL     OW30616   7.079   5.491   4.683
10091SOL    HW130617   7.112   5.555   4.614
10091SOL    HW230618   7.145   5.485   4.758
10092SOL     OW30619   6.302   4.289   5.432
10092SOL    HW130620   6.321   4.354   5.506
10092SOL    HW230621   6.362   4.209   5.441
10093SOL     OW30622   7.036   4.944   5.357
10093SOL    HW130623   7.027   4.934   5.456
10093SOL    HW230624   7.132   4.937   5.331
10094SOL     OW30625   5.976   5.465   5.284
10094SOL    HW130626   5.885   5.506   5.282
10094SOL    HW230627   5.969   5.371   5.316
10095SOL     OW30628   7.260   4.607   4.978
10095SOL    HW130629   7.233   4.518   4.941
10095SOL    HW230630   7.261   4.675   4.905
10096SOL     OW30631   6.811   4.049   4.173
10096SOL    HW130632   6.876   3.975   4.162
10096SOL    HW230633   6.831   4.099   4.257
10097SOL     OW30634   6.180   4.469   4.376
10097SOL    HW130635   6.230   4.554   4.357
10097SOL    HW230636   6.092   4.471   4.328
10098SOL     OW30637   7.363   4.066   5.366
10098SOL    HW130638   7.346   4.097   5.272
10098SOL    HW230639   7.279   4.029   5.404
10099SOL     OW30640   7.316   4.658   5.241
10099SOL    HW130641   7.354   4.749   5.256
10099SOL    HW230642   7.308   4.641   5.142
10100SOL     OW30643   6.445   5.098   3.740
10100SOL    HW130644   6.399   5.113   3.828
10100SOL    HW230645   6.489   5.183   3.710
10101SOL     OW30646   6.247   5.514   4.677
10101SOL    HW130647   6.201   5.602   4.664
10101SOL    HW230648   6.346   5.526   4.670
10102SOL     OW30649   6.445   4.680   4.585
10102SOL    HW130650   6.499   4.611   4.633
10102SOL    HW230651   6.413   4.749   4.651
10103SOL     OW30652   6.669   4.708   3.811
10103SOL    HW130653   6.646   4.761   3.729
10103SOL    HW230654   6.750   4.652   3.792
10104SOL     OW30655   7.447   5.293   4.575
10104SOL    HW130656   7.376   5.281   4.505
10104SOL    HW230657   7.448   5.214   4.635
10105SOL     OW30658   5.807   5.038   5.568
10105SOL    HW130659   5.742   4.965   5.547
10105SOL    HW230660   5.811   5.052   5.666
10106SOL     OW30661   5.665   4.964   4.377
10106SOL    HW130662   5.664   4.917   4.465
10106SOL    HW230663   5.747   4.936   4.326
10107SOL     OW30664   6.258   5.115   5.348
10107SOL    HW130665   6.180   5.065   5.386
10107SOL    HW230666   6.255   5.210   5.379
10108SOL     OW30667   7.410   3.916   4.951
10108SOL    HW130668   7.406   3.826   4.995
10108SOL    HW230669   7.413   3.905   4.852
10109SOL     OW30670   6.014   4.148   4.244
10109SOL    HW130671   6.044   4.076   4.182
10109SOL    HW230672   5.975   4.108   4.327
10110SOL     OW30673   7.291   5.211   4.828
10110SOL    HW130674   7.198   5.186   4.801
10110SOL    HW230675   7.317   5.161   4.910
10111SOL     OW30676   5.903   4.271   5.004
10111SOL    HW130677   5.941   4.212   5.076
10111SOL    HW230678   5.943   4.245   4.916
10112SOL     OW30679   6.398   5.310   4.411
10112SOL    HW130680   6.430   5.320   4.317
10112SOL    HW230681   6.319   5.248   4.413
10113SOL     OW30682   7.010   3.938   4.836
10113SOL    HW130683   7.062   3.873   4.891
10113SOL    HW230684   6.961   4.001   4.897
10114SOL     OW30685   6.587   3.758   4.878
10114SOL    HW130686   6.524   3.686   4.847
10114SOL    HW230687   6.680   3.722   4.878
10115SOL     OW30688   6.356   5.054   4.025
10115SOL    HW130689   6.310   4.967   4.042
10115SOL    HW230690   6.447   5.051   4.066
10116SOL     OW30691   6.204   5.291   5.008
10116SOL    HW130692   6.199   5.373   5.065
10116SOL    HW230693   6.293   5.288   4.963
10117SOL     OW30694   6.938   3.776   3.892
10117SOL    HW130695   6.973   3.735   3.808
10117SOL    HW230696   6.848   3.738   3.912
10118SOL     OW30697   6.886   4.177   4.415
10118SOL    HW130698   6.827   4.257   4.419
10118SOL    HW230699   6.901   4.142   4.508
10119SOL     OW30700   7.179   3.945   4.606
10119SOL    HW130701   7.095   3.944   4.660
10119SOL    HW230702   7.181   4.028   4.550
10120SOL     OW30703   5.625   4.801   4.024
10120SOL    HW130704   5.724   4.790   4.015
10120SOL    HW230705   5.585   4.715   4.056
10121SOL     OW30706   6.461   5.370   4.061
10121SOL    HW130707   6.384   5.335   4.007
10121SOL    HW230708   6.429   5.441   4.123
10122SOL     OW30709   5.816   4.352   5.699
10122SOL    HW130710   5.723   4.350   5.736
10122SOL    HW230711   5.817   4.313   5.607
10123SOL     OW30712   7.341   4.331   5.817
10123SOL    HW130713   7.329   4.318   5.718
10123SOL    HW230714   7.311   4.250   5.866
10124SOL     OW30715   5.817   5.437   6.069
10124SOL    HW130716   5.851   5.514   6.123
10124SOL    HW230717   5.861   5.437   5.979
10125SOL     OW30718   5.816   5.158   6.124
10125SOL    HW130719   5.790   5.254   6.124
10125SOL    HW230720   5.745   5.104   6.169
10126SOL     OW30721   6.192   4.688   5.709
10126SOL    HW130722   6.199   4.772   5.655
10126SOL    HW230723   6.238   4.701   5.797
10127SOL     OW30724   5.708   4.367   6.149
10127SOL    HW130725   5.663   4.279   6.166
10127SOL    HW230726   5.707   4.421   6.233
10128SOL     OW30727   7.428   5.491   5.945
10128SOL    HW130728   7.482   5.462   6.025
10128SOL    HW230729   7.458   5.581   5.916
10129SOL     OW30730   5.613   5.320   5.703
10129SOL    HW130731   5.594   5.224   5.724
10129SOL    HW230732   5.580   5.378   5.778
10130SOL     OW30733   7.275   4.646   6.198
10130SOL    HW130734   7.370   4.617   6.206
10130SOL    HW230735   7.267   4.711   6.123
10131SOL     OW30736   7.227   4.832   6.018
10131SOL    HW130737   7.313   4.834   5.966
10131SOL    HW230738   7.241   4.879   6.106
10132SOL     OW30739   6.395   3.728   6.088
10132SOL    HW130740   6.435   3.819   6.079
10132SOL    HW230741   6.295   3.736   6.094
10133SOL     OW30742   7.111   4.723   5.776
10133SOL    HW130743   7.048   4.647   5.789
10133SOL    HW230744   7.159   4.741   5.862
10134SOL     OW30745   7.253   5.438   6.158
10134SOL    HW130746   7.212   5.415   6.070
10134SOL    HW230747   7.235   5.364   6.223
10135SOL     OW30748   6.184   4.453   5.856
10135SOL    HW130749   6.208   4.522   5.788
10135SOL    HW230750   6.106   4.486   5.910
10136SOL     OW30751   7.162   5.386   5.893
10136SOL    HW130752   7.251   5.432   5.896
10136SOL    HW230753   7.141   5.362   5.798
10137SOL     OW30754   6.627   4.425   6.015
10137SOL    HW130755   6.653   4.421   6.111
10137SOL    HW230756   6.542   4.374   6.001
10138SOL     OW30757   6.451   4.072   5.781
10138SOL    HW130758   6.510   4.135   5.732
10138SOL    HW230759   6.470   3.978   5.752
10139SOL     OW30760   6.948   4.868   6.131
10139SOL    HW130761   7.031   4.839   6.083
10139SOL    HW230762   6.899   4.935   6.075
10140SOL     OW30763   6.136   3.920   6.471
10140SOL    HW130764   6.131   3.915   6.571
10140SOL    HW230765   6.138   4.016   6.442
10141SOL     OW30766   5.907   4.667   5.828
10141SOL    HW130767   5.989   4.706   5.786
10141SOL    HW230768   5.880   4.585   5.779
10142SOL     OW30769   7.044   4.459   6.314
10142SOL    HW130770   7.039   4.394   6.389
10142SOL    HW230771   7.124   4.518   6.327
10143SOL     OW30772   6.697   5.500   5.823
10143SOL    HW130773   6.637   5.438   5.873
10143SOL    HW230774   6.728   5.456   5.738
10144SOL     OW30775   7.218   5.101   5.667
10144SOL    HW130776   7.186   5.195   5.657
10144SOL    HW230777   7.142   5.038   5.655
10145SOL     OW30778   6.050   5.467   5.909
10145SOL    HW130779   6.083   5.506   5.995
10145SOL    HW230780   6.126   5.460   5.844
10146SOL     OW30781   6.986   3.831   6.012
10146SOL    HW130782   6.962   3.794   5.922
10146SOL    HW230783   7.085   3.847   6.016
10147SOL     OW30784   5.968   4.424   6.066
10147SOL    HW130785   6.013   4.334   6.063
10147SOL    HW230786   5.874   4.413   6.099
10148SOL     OW30787   6.200   3.846   5.703
10148SOL    HW130788   6.298   3.824   5.710
10148SOL    HW230789   6.169   3.829   5.610
10149SOL     OW30790   6.389   5.126   6.510
10149SOL    HW130791   6.479   5.140   6.468
10149SOL    HW230792   6.318   5.128   6.439
10150SOL     OW30793   6.125   3.788   6.098
10150SOL    HW130794   6.044   3.789   6.156
10150SOL    HW230795   6.128   3.871   6.043
10151SOL     OW30796   7.020   4.912   5.627
10151SOL    HW130797   7.052   4.836   5.684
10151SOL    HW230798   6.928   4.939   5.657
10152SOL     OW30799   5.883   3.759   5.757
10152SOL    HW130800   5.932   3.843   5.736
10152SOL    HW230801   5.945   3.694   5.802
10153SOL     OW30802   6.521   3.960   6.066
10153SOL    HW130803   6.473   4.001   5.988
10153SOL    HW230804   6.620   3.958   6.047
10154SOL     OW30805   6.857   5.521   6.177
10154SOL    HW130806   6.901   5.585   6.113
10154SOL    HW230807   6.807   5.573   6.247
10155SOL     OW30808   6.618   4.273   5.602
10155SOL    HW130809   6.577   4.355   5.563
10155SOL    HW230810   6.682   4.299   5.675
10156SOL     OW30811   7.443   4.557   5.963
10156SOL    HW130812   7.485   4.493   6.027
10156SOL    HW230813   7.405   4.506   5.885
10157SOL     OW30814   6.074   5.109   5.760
10157SOL    HW130815   5.987   5.094   5.807
10157SOL    HW230816   6.057   5.135   5.665
10158SOL     OW30817   6.976   4.299   5.664
10158SOL    HW130818   6.922   4.278   5.745
10158SOL    HW230819   7.067   4.258   5.673
10159SOL     OW30820   6.113   3.980   5.914
10159SOL    HW130821   6.140   3.921   5.839
10159SOL    HW230822   6.113   4.075   5.883
10160SOL     OW30823   6.291   4.774   5.954
10160SOL    HW130824   6.277   4.781   6.053
10160SOL    HW230825   6.375   4.723   5.936
10161SOL     OW30826   5.953   4.824   6.087
10161SOL    HW130827   5.946   4.907   6.031
10161SOL    HW230828   5.957   4.744   6.027
10162SOL     OW30829   6.838   5.072   5.974
10162SOL    HW130830   6.888   5.149   6.014
10162SOL    HW230831   6.743   5.074   6.006
10163SOL     OW30832   7.168   4.363   6.058
10163SOL    HW130833   7.137   4.424   6.131
10163SOL    HW230834   7.218   4.415   5.989
10164SOL     OW30835   6.795   4.249   5.861
10164SOL    HW130836   6.808   4.165   5.915
10164SOL    HW230837   6.766   4.323   5.921
10165SOL     OW30838   7.208   4.091   5.960
10165SOL    HW130839   7.210   4.015   6.024
10165SOL    HW230840   7.160   4.168   6.000
10166SOL     OW30841   7.126   3.998   5.711
10166SOL    HW130842   7.065   3.923   5.734
10166SOL    HW230843   7.148   4.050   5.794
10167SOL     OW30844   6.889   4.562   5.628
10167SOL    HW130845   6.923   4.469   5.643
10167SOL    HW230846   6.907   4.589   5.533
10168SOL     OW30847   5.594   5.050   5.786
10168SOL    HW130848   5.501   5.071   5.755
10168SOL    HW230849   5.604   4.951   5.799
10169SOL     OW30850   6.401   4.296   5.911
10169SOL    HW130851   6.408   4.207   5.865
10169SOL    HW230852   6.307   4.330   5.903
10170SOL     OW30853   6.059   4.224   5.777
10170SOL    HW130854   6.120   4.304   5.781
10170SOL    HW230855   5.964   4.255   5.784
10171SOL     OW30856   6.888   4.579   5.895
10171SOL    HW130857   6.802   4.548   5.937
10171SOL    HW230858   6.884   4.565   5.796
10172SOL     OW30859   7.312   3.859   6.109
10172SOL    HW130860   7.385   3.842   6.042
10172SOL    HW230861   7.281   3.772   6.147
10173SOL     OW30862   6.974   5.297   6.063
10173SOL    HW130863   7.041   5.309   5.989
10173SOL    HW230864   6.934   5.386   6.086
10174SOL     OW30865   6.866   4.651   6.258
10174SOL    HW130866   6.926   4.570   6.260
10174SOL    HW230867   6.906   4.720   6.198
10175SOL     OW30868   6.258   5.340   5.740
10175SOL    HW130869   6.267   5.350   5.641
10175SOL    HW230870   6.218   5.251   5.761
10176SOL     OW30871   6.780   5.336   5.617
10176SOL    HW130872   6.786   5.243   5.654
10176SOL    HW230873   6.721   5.336   5.537
10177SOL     OW30874   6.502   4.634   5.877
10177SOL    HW130875   6.565   4.672   5.809
10177SOL    HW230876   6.542   4.551   5.916
10178SOL     OW30877   7.090   5.331   5.630
10178SOL    HW130878   6.998   5.368   5.637
10178SOL    HW230879   7.128   5.351   5.540
10179SOL     OW30880   5.841   5.072   5.876
10179SOL    HW130881   5.745   5.073   5.849
10179SOL    HW230882   5.853   5.125   5.960
10180SOL     OW30883   5.661   4.069   5.619
10180SOL    HW130884   5.569   4.041   5.590
10180SOL    HW230885   5.692   4.146   5.563
10181SOL     OW30886   5.658   3.890   5.904
10181SOL    HW130887   5.641   3.973   5.850
10181SOL    HW230888   5.748   3.853   5.882
10182SOL     OW30889   6.769   5.059   5.705
10182SOL    HW130890   6.670   5.048   5.707
10182SOL    HW230891   6.803   5.074   5.798
10183SOL     OW30892   6.811   4.049   6.035
10183SOL    HW130893   6.876   3.975   6.024
10183SOL    HW230894   6.831   4.099   6.119
10184SOL     OW30895   6.445   5.098   5.602
10184SOL    HW130896   6.399   5.113   5.690
10184SOL    HW230897   6.489   5.183   5.572
10185SOL     OW30898   6.669   4.708   5.673
10185SOL    HW130899   6.646   4.761   5.591
10185SOL    HW230900   6.750   4.652   5.654
10186SOL     OW30901   6.356   5.054   5.887
10186SOL    HW130902   6.310   4.967   5.904
10186SOL    HW230903   6.447   5.051   5.928
10187SOL     OW30904   6.938   3.776   5.754
10187SOL    HW130905   6.973   3.735   5.670
10187SOL    HW230906   6.848   3.738   5.774
10188SOL     OW30907   7.179   3.945   6.468
10188SOL    HW130908   7.095   3.944   6.522
10188SOL    HW230909   7.181   4.028   6.412
10189SOL     OW30910   5.625   4.801   5.886
10189SOL    HW130911   5.724   4.790   5.877
10189SOL    HW230912   5.585   4.715   5.918
10190SOL     OW30913   6.461   5.370   5.923
10190SOL    HW130914   6.384   5.335   5.869
10190SOL    HW230915   6.429   5.441   5.985
10191SOL     OW30916   5.811   5.861   0.996
10191SOL    HW130917   5.846   5.844   1.088
10191SOL    HW230918   5.723   5.816   0.984
10192SOL     OW30919   5.605   5.954   0.647
10192SOL    HW130920   5.523   5.997   0.686
10192SOL    HW230921   5.577   5.881   0.584
10193SOL     OW30922   6.155   6.861   1.165
10193SOL    HW130923   6.062   6.854   1.128
10193SOL    HW230924   6.166   6.950   1.209
10194SOL     OW30925   6.721   6.289   0.717
10194SOL    HW130926   6.778   6.367   0.692
10194SOL    HW230927   6.661   6.315   0.793
10195SOL     OW30928   7.341   6.193   0.231
10195SOL    HW130929   7.329   6.180   0.132
10195SOL    HW230930   7.311   6.112   0.280
10196SOL     OW30931   6.354   6.730   1.023
10196SOL    HW130932   6.276   6.747   1.083
10196SOL    HW230933   6.388   6.817   0.987
10197SOL     OW30934   6.436   6.384   1.823
10197SOL    HW130935   6.432   6.460   1.888
10197SOL    HW230936   6.458   6.420   1.732
10198SOL     OW30937   6.271   6.598   0.665
10198SOL    HW130938   6.340   6.582   0.735
10198SOL    HW230939   6.198   6.655   0.703
10199SOL     OW30940   6.272   6.747   1.803
10199SOL    HW130941   6.332   6.826   1.817
10199SOL    HW230942   6.186   6.778   1.762
10200SOL     OW30943   5.921   7.021   1.061
10200SOL    HW130944   5.843   6.990   1.008
10200SOL    HW230945   5.979   7.079   1.004
10201SOL     OW30946   6.024   5.978   1.499
10201SOL    HW130947   6.106   5.922   1.508
10201SOL    HW230948   5.943   5.920   1.503
10202SOL     OW30949   7.189   6.033   0.737
10202SOL    HW130950   7.115   6.079   0.687
10202SOL    HW230951   7.240   6.101   0.790
10203SOL     OW30952   6.713   6.927   1.690
10203SOL    HW130953   6.760   6.927   1.778
10203SOL    HW230954   6.665   6.840   1.679
10204SOL     OW30955   5.816   7.020   0.538
10204SOL    HW130956   5.790   7.116   0.538
10204SOL    HW230957   5.745   6.966   0.583
10205SOL     OW30958   5.826   6.677   0.886
10205SOL    HW130959   5.840   6.593   0.938
10205SOL    HW230960   5.771   6.741   0.941
10206SOL     OW30961   7.180   5.700   1.480
10206SOL    HW130962   7.162   5.767   1.408
10206SOL    HW230963   7.177   5.746   1.569
10207SOL     OW30964   5.708   6.229   0.563
10207SOL    HW130965   5.663   6.141   0.580
10207SOL    HW230966   5.707   6.283   0.647
10208SOL     OW30967   7.275   6.508   0.612
10208SOL    HW130968   7.370   6.479   0.620
10208SOL    HW230969   7.267   6.573   0.537
10209SOL     OW30970   7.227   6.694   0.432
10209SOL    HW130971   7.313   6.696   0.380
10209SOL    HW230972   7.241   6.741   0.520
10210SOL     OW30973   5.699   6.323   1.597
10210SOL    HW130974   5.787   6.310   1.642
10210SOL    HW230975   5.686   6.420   1.575
10211SOL     OW30976   6.199   6.951   0.726
10211SOL    HW130977   6.150   6.864   0.735
10211SOL    HW230978   6.176   6.994   0.639
10212SOL     OW30979   6.879   6.814   1.423
10212SOL    HW130980   6.916   6.741   1.365
10212SOL    HW230981   6.931   6.819   1.508
10213SOL     OW30982   6.395   5.590   0.502
10213SOL    HW130983   6.435   5.681   0.493
10213SOL    HW230984   6.295   5.598   0.508
10214SOL     OW30985   5.783   6.562   1.264
10214SOL    HW130986   5.872   6.517   1.250
10214SOL    HW230987   5.710   6.497   1.245
10215SOL     OW30988   5.903   5.837   1.801
10215SOL    HW130989   5.974   5.908   1.807
10215SOL    HW230990   5.815   5.876   1.829
10216SOL     OW30991   7.052   7.003   0.953
10216SOL    HW130992   6.993   7.009   1.033
10216SOL    HW230993   7.037   6.915   0.907
10217SOL     OW30994   6.867   5.931   0.944
10217SOL    HW130995   6.781   5.881   0.931
10217SOL    HW230996   6.929   5.877   1.000
10218SOL     OW30997   6.393   6.191   1.465
10218SOL    HW130998   6.346   6.188   1.554
10218SOL    HW230999   6.342   6.136   1.399
10219SOL     OW31000   6.980   6.055   1.674
10219SOL    HW131001   6.960   6.098   1.762
10219SOL    HW231002   7.058   5.993   1.683
10220SOL     OW31003   6.559   6.476   1.572
10220SOL    HW131004   6.605   6.392   1.543
10220SOL    HW231005   6.503   6.510   1.497
10221SOL     OW31006   6.577   5.996   1.242
10221SOL    HW131007   6.500   6.030   1.296
10221SOL    HW231008   6.543   5.945   1.163
10222SOL     OW31009   6.627   6.287   0.429
10222SOL    HW131010   6.653   6.283   0.525
10222SOL    HW231011   6.542   6.236   0.415
10223SOL     OW31012   5.662   6.397   0.789
10223SOL    HW131013   5.761   6.385   0.798
10223SOL    HW231014   5.638   6.492   0.810
10224SOL     OW31015   7.305   6.171   1.831
10224SOL    HW131016   7.279   6.260   1.795
10224SOL    HW231017   7.303   6.103   1.758
10225SOL     OW31018   6.948   6.730   0.545
10225SOL    HW131019   7.031   6.701   0.497
10225SOL    HW231020   6.899   6.797   0.489
10226SOL     OW31021   6.136   5.782   0.885
10226SOL    HW131022   6.131   5.777   0.985
10226SOL    HW231023   6.138   5.878   0.856
10227SOL     OW31024   6.594   7.042   0.477
10227SOL    HW131025   6.548   7.114   0.425
10227SOL    HW231026   6.590   7.062   0.575
10228SOL     OW31027   7.381   6.652   0.873
10228SOL    HW131028   7.319   6.637   0.797
10228SOL    HW231029   7.329   6.663   0.958
10229SOL     OW31030   6.813   7.136   1.506
10229SOL    HW131031   6.819   7.059   1.570
10229SOL    HW231032   6.761   7.110   1.426
10230SOL     OW31033   7.044   6.321   0.728
10230SOL    HW131034   7.039   6.256   0.803
10230SOL    HW231035   7.124   6.380   0.741
10231SOL     OW31036   6.047   6.852   1.727
10231SOL    HW131037   5.997   6.853   1.641
10231SOL    HW231038   5.984   6.834   1.803
10232SOL     OW31039   5.788   5.871   1.498
10232SOL    HW131040   5.708   5.931   1.485
10232SOL    HW231041   5.778   5.822   1.584
10233SOL     OW31042   7.218   6.963   0.081
10233SOL    HW131043   7.186   7.057   0.071
10233SOL    HW231044   7.142   6.900   0.069
10234SOL     OW31045   6.986   5.693   0.426
10234SOL    HW131046   6.962   5.656   0.336
10234SOL    HW231047   7.085   5.709   0.430
10235SOL     OW31048   6.526   7.284   0.904
10235SOL    HW131049   6.606   7.227   0.925
10235SOL    HW231050   6.477   7.244   0.827
10236SOL     OW31051   5.968   6.286   0.480
10236SOL    HW131052   6.013   6.196   0.477
10236SOL    HW231053   5.874   6.275   0.513
10237SOL     OW31054   7.133   5.808   1.729
10237SOL    HW131055   7.128   5.845   1.821
10237SOL    HW231056   7.061   5.739   1.717
10238SOL     OW31057   6.200   5.708   0.117
10238SOL    HW131058   6.298   5.686   0.124
10238SOL    HW231059   6.169   5.691   0.024
10239SOL     OW31060   6.367   5.850   1.749
10239SOL    HW131061   6.434   5.789   1.792
10239SOL    HW231062   6.294   5.869   1.814
10240SOL     OW31063   6.474   7.100   1.195
10240SOL    HW131064   6.451   7.075   1.101
10240SOL    HW231065   6.535   7.031   1.234
10241SOL     OW31066   6.937   6.176   1.433
10241SOL    HW131067   6.965   6.133   1.518
10241SOL    HW231068   6.962   6.272   1.434
10242SOL     OW31069   6.389   6.988   0.924
10242SOL    HW131070   6.479   7.002   0.882
10242SOL    HW231071   6.318   6.990   0.853
10243SOL     OW31072   6.508   6.089   0.899
10243SOL    HW131073   6.483   6.080   0.803
10243SOL    HW231074   6.556   6.007   0.930
10244SOL     OW31075   5.883   5.621   0.171
10244SOL    HW131076   5.932   5.705   0.150
10244SOL    HW231077   5.945   5.556   0.216
10245SOL     OW31078   6.521   5.822   0.480
10245SOL    HW131079   6.473   5.863   0.402
10245SOL    HW231080   6.620   5.820   0.461
10246SOL     OW31081   6.662   6.269   1.464
10246SOL    HW131082   6.582   6.208   1.467
10246SOL    HW231083   6.743   6.216   1.440
10247SOL     OW31084   6.813   7.156   0.793
10247SOL    HW131085   6.834   7.230   0.728
10247SOL    HW231086   6.881   7.156   0.866
10248SOL     OW31087   6.045   6.738   0.741
10248SOL    HW131088   5.974   6.711   0.806
10248SOL    HW231089   6.019   6.710   0.648
10249SOL     OW31090   6.857   7.383   0.591
10249SOL    HW131091   6.901   7.447   0.527
10249SOL    HW231092   6.807   7.435   0.661
10250SOL     OW31093   5.664   6.142   1.386
10250SOL    HW131094   5.756   6.141   1.345
10250SOL    HW231095   5.658   6.216   1.453
10251SOL     OW31096   6.147   5.808   1.147
10251SOL    HW131097   6.185   5.724   1.184
10251SOL    HW231098   6.059   5.827   1.191
10252SOL     OW31099   6.452   6.040   0.642
10252SOL    HW131100   6.420   6.112   0.580
10252SOL    HW231101   6.476   5.959   0.589
10253SOL     OW31102   6.603   5.625   0.753
10253SOL    HW131103   6.531   5.630   0.684
10253SOL    HW231104   6.579   5.556   0.822
10254SOL     OW31105   7.015   6.759   0.867
10254SOL    HW131106   6.960   6.675   0.860
10254SOL    HW231107   7.041   6.788   0.775
10255SOL     OW31108   7.052   6.176   0.992
10255SOL    HW131109   7.022   6.081   0.999
10255SOL    HW231110   7.125   6.192   1.058
10256SOL     OW31111   7.443   6.419   0.377
10256SOL    HW131112   7.485   6.355   0.441
10256SOL    HW231113   7.405   6.368   0.299
10257SOL     OW31114   7.250   6.866   0.657
10257SOL    HW131115   7.349   6.874   0.671
10257SOL    HW231116   7.205   6.950   0.688
10258SOL     OW31117   7.340   6.809   1.588
10258SOL    HW131118   7.431   6.770   1.575
10258SOL    HW231119   7.348   6.905   1.612
10259SOL     OW31120   6.650   6.933   1.340
10259SOL    HW131121   6.570   6.910   1.395
10259SOL    HW231122   6.733   6.907   1.389
10260SOL     OW31123   6.697   6.781   1.100
10260SOL    HW131124   6.657   6.825   1.181
10260SOL    HW231125   6.656   6.818   1.017
10261SOL     OW31126   7.224   6.685   1.079
10261SOL    HW131127   7.229   6.766   1.138
10261SOL    HW231128   7.138   6.687   1.028
10262SOL     OW31129   6.501   5.675   1.402
10262SOL    HW131130   6.526   5.655   1.307
10262SOL    HW231131   6.573   5.731   1.444
10263SOL     OW31132   6.566   6.702   1.719
10263SOL    HW131133   6.467   6.708   1.729
10263SOL    HW231134   6.589   6.622   1.663
10264SOL     OW31135   6.291   6.636   0.368
10264SOL    HW131136   6.277   6.643   0.467
10264SOL    HW231137   6.375   6.585   0.350
10265SOL     OW31138   5.996   6.399   1.251
10265SOL    HW131139   6.082   6.411   1.301
10265SOL    HW231140   5.954   6.312   1.278
10266SOL     OW31141   6.860   5.972   1.262
10266SOL    HW131142   6.881   6.046   1.326
10266SOL    HW231143   6.771   5.989   1.219
10267SOL     OW31144   5.650   7.150   1.331
10267SOL    HW131145   5.604   7.232   1.297
10267SOL    HW231146   5.748   7.169   1.340
10268SOL     OW31147   5.953   6.686   0.501
10268SOL    HW131148   5.946   6.769   0.445
10268SOL    HW231149   5.957   6.606   0.441
10269SOL     OW31150   6.152   6.123   0.865
10269SOL    HW131151   6.164   6.189   0.791
10269SOL    HW231152   6.198   6.157   0.948
10270SOL     OW31153   6.858   7.031   1.142
10270SOL    HW131154   6.905   7.044   1.229
10270SOL    HW231155   6.792   6.957   1.151
10271SOL     OW31156   7.168   6.225   0.472
10271SOL    HW131157   7.137   6.286   0.545
10271SOL    HW231158   7.218   6.277   0.403
10272SOL     OW31159   5.940   7.096   1.329
10272SOL    HW131160   5.919   7.052   1.242
10272SOL    HW231161   6.037   7.122   1.332
10273SOL     OW31162   5.988   6.337   1.598
10273SOL    HW131163   6.056   6.392   1.551
10273SOL    HW231164   6.028   6.249   1.625
10274SOL     OW31165   7.173   6.365   1.670
10274SOL    HW131166   7.081   6.403   1.665
10274SOL    HW231167   7.233   6.412   1.605
10275SOL     OW31168   6.599   5.691   1.770
10275SOL    HW131169   6.605   5.776   1.718
10275SOL    HW231170   6.631   5.615   1.713
10276SOL     OW31171   6.090   5.636   1.740
10276SOL    HW131172   6.048   5.579   1.670
10276SOL    HW231173   6.024   5.705   1.772
10277SOL     OW31174   6.159   6.456   1.029
10277SOL    HW131175   6.203   6.545   1.020
10277SOL    HW231176   6.096   6.456   1.106
10278SOL     OW31177   6.946   6.448   1.045
10278SOL    HW131178   6.871   6.448   0.979
10278SOL    HW231179   6.983   6.356   1.054
10279SOL     OW31180   6.795   6.111   0.275
10279SOL    HW131181   6.808   6.027   0.329
10279SOL    HW231182   6.766   6.185   0.335
10280SOL     OW31183   5.893   5.799   1.231
10280SOL    HW131184   5.870   5.836   1.321
10280SOL    HW231185   5.863   5.704   1.225
10281SOL     OW31186   5.623   6.896   1.282
10281SOL    HW131187   5.676   6.847   1.350
10281SOL    HW231188   5.645   6.994   1.287
10282SOL     OW31189   6.318   6.220   1.064
10282SOL    HW131190   6.377   6.194   0.988
10282SOL    HW231191   6.290   6.316   1.053
10283SOL     OW31192   7.314   6.521   1.854
10283SOL    HW131193   7.268   6.514   1.765
10283SOL    HW231194   7.252   6.565   1.920
10284SOL     OW31195   5.893   5.649   0.618
10284SOL    HW131196   5.882   5.743   0.651
10284SOL    HW231197   5.888   5.586   0.695
10285SOL     OW31198   7.208   5.953   0.374
10285SOL    HW131199   7.210   5.877   0.438
10285SOL    HW231200   7.160   6.030   0.414
10286SOL     OW31201   6.609   6.352   0.966
10286SOL    HW131202   6.624   6.373   1.062
10286SOL    HW231203   6.579   6.257   0.957
10287SOL     OW31204   6.566   7.159   1.700
10287SOL    HW131205   6.546   7.203   1.612
10287SOL    HW231206   6.605   7.068   1.684
10288SOL     OW31207   7.445   7.104   1.605
10288SOL    HW131208   7.459   7.131   1.510
10288SOL    HW231209   7.528   7.126   1.658
10289SOL     OW31210   5.936   6.484   1.804
10289SOL    HW131211   6.012   6.528   1.852
10289SOL    HW231212   5.971   6.437   1.722
10290SOL     OW31213   6.654   6.919   0.849
10290SOL    HW131214   6.661   6.835   0.794
10290SOL    HW231215   6.716   6.988   0.813
10291SOL     OW31216   5.905   6.396   0.949
10291SOL    HW131217   5.998   6.432   0.954
10291SOL    HW231218   5.899   6.311   1.001
10292SOL     OW31219   5.925   6.095   1.006
10292SOL    HW131220   5.873   6.012   0.989
10292SOL    HW231221   6.002   6.100   0.942
10293SOL     OW31222   6.724   5.966   1.678
10293SOL    HW131223   6.679   6.029   1.742
10293SOL    HW231224   6.817   5.997   1.661
10294SOL     OW31225   6.746   5.793   1.477
10294SOL    HW131226   6.746   5.857   1.554
10294SOL    HW231227   6.774   5.841   1.394
10295SOL     OW31228   6.588   6.382   1.238
10295SOL    HW131229   6.629   6.350   1.324
10295SOL    HW231230   6.492   6.355   1.235
10296SOL     OW31231   5.626   6.130   1.114
10296SOL    HW131232   5.711   6.097   1.073
10296SOL    HW231233   5.639   6.145   1.212
10297SOL     OW31234   5.775   6.106   1.722
10297SOL    HW131235   5.834   6.066   1.652
10297SOL    HW231236   5.717   6.177   1.681
10298SOL     OW31237   6.955   6.536   1.660
10298SOL    HW131238   6.994   6.625   1.680
10298SOL    HW231239   6.965   6.516   1.563
10299SOL     OW31240   6.401   6.158   0.325
10299SOL    HW131241   6.408   6.069   0.279
10299SOL    HW231242   6.307   6.192   0.317
10300SOL     OW31243   7.243   6.190   1.206
10300SOL    HW131244   7.205   6.121   1.268
10300SOL    HW231245   7.325   6.154   1.162
10301SOL     OW31246   6.257   6.050   1.269
10301SOL    HW131247   6.223   5.961   1.239
10301SOL    HW231248   6.283   6.104   1.189
10302SOL     OW31249   5.745   6.723   1.466
10302SOL    HW131250   5.767   6.662   1.542
10302SOL    HW231251   5.755   6.674   1.380
10303SOL     OW31252   6.933   6.645   1.234
10303SOL    HW131253   6.957   6.582   1.160
10303SOL    HW231254   6.843   6.685   1.216
10304SOL     OW31255   5.669   6.844   1.022
10304SOL    HW131256   5.664   6.843   1.122
10304SOL    HW231257   5.586   6.803   0.984
10305SOL     OW31258   6.274   7.248   1.716
10305SOL    HW131259   6.218   7.329   1.725
10305SOL    HW231260   6.326   7.252   1.630
10306SOL     OW31261   7.312   5.721   0.523
10306SOL    HW131262   7.385   5.704   0.456
10306SOL    HW231263   7.281   5.634   0.561
10307SOL     OW31264   5.716   7.380   1.851
10307SOL    HW131265   5.675   7.306   1.904
10307SOL    HW231266   5.780   7.431   1.909
10308SOL     OW31267   6.866   6.513   0.672
10308SOL    HW131268   6.926   6.432   0.674
10308SOL    HW231269   6.906   6.582   0.612
10309SOL     OW31270   6.416   6.859   1.422
10309SOL    HW131271   6.411   6.892   1.517
10309SOL    HW231272   6.330   6.878   1.376
10310SOL     OW31273   7.427   5.761   0.963
10310SOL    HW131274   7.466   5.676   0.927
10310SOL    HW231275   7.329   5.763   0.944
10311SOL     OW31276   5.849   5.912   0.720
10311SOL    HW131277   5.770   5.963   0.686
10311SOL    HW231278   5.840   5.897   0.818
10312SOL     OW31279   6.408   6.588   1.372
10312SOL    HW131280   6.448   6.587   1.280
10312SOL    HW231281   6.418   6.680   1.412
10313SOL     OW31282   5.958   6.874   1.490
10313SOL    HW131283   5.945   6.967   1.456
10313SOL    HW231284   5.874   6.822   1.477
10314SOL     OW31285   7.200   6.878   1.289
10314SOL    HW131286   7.260   6.881   1.369
10314SOL    HW231287   7.125   6.942   1.302
10315SOL     OW31288   6.625   6.684   0.696
10315SOL    HW131289   6.555   6.637   0.750
10315SOL    HW231290   6.684   6.616   0.653
10316SOL     OW31291   6.600   5.822   0.971
10316SOL    HW131292   6.592   5.786   0.878
10316SOL    HW231293   6.598   5.746   1.036
10317SOL     OW31294   6.176   7.073   0.491
10317SOL    HW131295   6.218   7.015   0.421
10317SOL    HW231296   6.132   7.152   0.447
10318SOL     OW31297   7.295   5.971   1.381
10318SOL    HW131298   7.368   6.040   1.385
10318SOL    HW231299   7.323   5.896   1.322
10319SOL     OW31300   5.691   6.599   1.726
10319SOL    HW131301   5.614   6.566   1.780
10319SOL    HW231302   5.776   6.569   1.768
10320SOL     OW31303   6.258   5.789   1.489
10320SOL    HW131304   6.348   5.773   1.449
10320SOL    HW231305   6.266   5.794   1.588
10321SOL     OW31306   7.026   6.442   1.398
10321SOL    HW131307   6.969   6.494   1.335
10321SOL    HW231308   7.122   6.454   1.374
10322SOL     OW31309   6.199   6.428   1.431
10322SOL    HW131310   6.255   6.509   1.414
10322SOL    HW231311   6.258   6.348   1.434
10323SOL     OW31312   6.302   6.151   1.708
10323SOL    HW131313   6.321   6.216   1.782
10323SOL    HW231314   6.362   6.071   1.717
10324SOL     OW31315   7.036   6.806   1.633
10324SOL    HW131316   7.027   6.796   1.732
10324SOL    HW231317   7.132   6.799   1.607
10325SOL     OW31318   7.260   6.469   1.254
10325SOL    HW131319   7.233   6.380   1.217
10325SOL    HW231320   7.261   6.537   1.181
10326SOL     OW31321   6.811   5.911   0.449
10326SOL    HW131322   6.876   5.837   0.438
10326SOL    HW231323   6.831   5.961   0.533
10327SOL     OW31324   6.180   6.331   0.652
10327SOL    HW131325   6.230   6.416   0.633
10327SOL    HW231326   6.092   6.333   0.604
10328SOL     OW31327   7.363   5.928   1.642
10328SOL    HW131328   7.346   5.959   1.548
10328SOL    HW231329   7.279   5.891   1.680
10329SOL     OW31330   7.316   6.520   1.517
10329SOL    HW131331   7.354   6.611   1.532
10329SOL    HW231332   7.308   6.503   1.418
10330SOL     OW31333   6.445   6.542   0.861
10330SOL    HW131334   6.499   6.473   0.909
10330SOL    HW231335   6.413   6.611   0.927
10331SOL     OW31336   5.807   6.900   1.844
10331SOL    HW131337   5.742   6.827   1.823
10331SOL    HW231338   5.811   6.914   1.942
10332SOL     OW31339   5.665   6.826   0.653
10332SOL    HW131340   5.664   6.779   0.741
10332SOL    HW231341   5.747   6.798   0.602
10333SOL     OW31342   6.258   6.977   1.624
10333SOL    HW131343   6.180   6.927   1.662
10333SOL    HW231344   6.255   7.072   1.655
10334SOL     OW31345   7.410   5.778   1.227
10334SOL    HW131346   7.406   5.688   1.271
10334SOL    HW231347   7.413   5.767   1.128
10335SOL     OW31348   6.014   6.010   0.520
10335SOL    HW131349   6.044   5.938   0.458
10335SOL    HW231350   5.975   5.970   0.603
10336SOL     OW31351   5.903   6.133   1.280
10336SOL    HW131352   5.941   6.074   1.352
10336SOL    HW231353   5.943   6.107   1.192
10337SOL     OW31354   7.010   5.800   1.112
10337SOL    HW131355   7.062   5.735   1.167
10337SOL    HW231356   6.961   5.863   1.173
10338SOL     OW31357   6.587   5.620   1.154
10338SOL    HW131358   6.524   5.548   1.123
10338SOL    HW231359   6.680   5.584   1.154
10339SOL     OW31360   6.938   5.638   0.168
10339SOL    HW131361   6.973   5.597   0.084
10339SOL    HW231362   6.848   5.600   0.188
10340SOL     OW31363   6.886   6.039   0.691
10340SOL    HW131364   6.827   6.119   0.695
10340SOL    HW231365   6.901   6.004   0.784
10341SOL     OW31366   7.179   5.807   0.882
10341SOL    HW131367   7.095   5.806   0.936
10341SOL    HW231368   7.181   5.890   0.826
10342SOL     OW31369   5.625   6.663   0.300
10342SOL    HW131370   5.724   6.652   0.291
10342SOL    HW231371   5.585   6.577   0.332
10343SOL     OW31372   5.816   6.214   1.975
10343SOL    HW131373   5.723   6.212   2.012
10343SOL    HW231374   5.817   6.175   1.883
10344SOL     OW31375   5.811   5.861   2.858
10344SOL    HW131376   5.846   5.844   2.950
10344SOL    HW231377   5.723   5.816   2.846
10345SOL     OW31378   5.605   5.954   2.509
10345SOL    HW131379   5.523   5.997   2.548
10345SOL    HW231380   5.577   5.881   2.446
10346SOL     OW31381   6.155   6.861   3.027
10346SOL    HW131382   6.062   6.854   2.990
10346SOL    HW231383   6.166   6.950   3.071
10347SOL     OW31384   6.721   6.289   2.579
10347SOL    HW131385   6.778   6.367   2.554
10347SOL    HW231386   6.661   6.315   2.655
10348SOL     OW31387   7.341   6.193   2.093
10348SOL    HW131388   7.329   6.180   1.994
10348SOL    HW231389   7.311   6.112   2.142
10349SOL     OW31390   6.354   6.730   2.885
10349SOL    HW131391   6.276   6.747   2.945
10349SOL    HW231392   6.388   6.817   2.849
10350SOL     OW31393   6.436   6.384   3.685
10350SOL    HW131394   6.432   6.460   3.750
10350SOL    HW231395   6.458   6.420   3.594
10351SOL     OW31396   6.271   6.598   2.527
10351SOL    HW131397   6.340   6.582   2.597
10351SOL    HW231398   6.198   6.655   2.565
10352SOL     OW31399   6.272   6.747   3.665
10352SOL    HW131400   6.332   6.826   3.679
10352SOL    HW231401   6.186   6.778   3.624
10353SOL     OW31402   5.921   7.021   2.923
10353SOL    HW131403   5.843   6.990   2.870
10353SOL    HW231404   5.979   7.079   2.866
10354SOL     OW31405   6.024   5.978   3.361
10354SOL    HW131406   6.106   5.922   3.370
10354SOL    HW231407   5.943   5.920   3.365
10355SOL     OW31408   7.189   6.033   2.599
10355SOL    HW131409   7.115   6.079   2.549
10355SOL    HW231410   7.240   6.101   2.652
10356SOL     OW31411   6.713   6.927   3.552
10356SOL    HW131412   6.760   6.927   3.640
10356SOL    HW231413   6.665   6.840   3.541
10357SOL     OW31414   5.816   7.020   2.400
10357SOL    HW131415   5.790   7.116   2.400
10357SOL    HW231416   5.745   6.966   2.445
10358SOL     OW31417   5.826   6.677   2.748
10358SOL    HW131418   5.840   6.593   2.800
10358SOL    HW231419   5.771   6.741   2.803
10359SOL     OW31420   6.192   6.550   1.985
10359SOL    HW131421   6.199   6.634   1.931
10359SOL    HW231422   6.238   6.563   2.073
10360SOL     OW31423   7.180   5.700   3.342
10360SOL    HW131424   7.162   5.767   3.270
10360SOL    HW231425   7.177   5.746   3.431
10361SOL     OW31426   5.708   6.229   2.425
10361SOL    HW131427   5.663   6.141   2.442
10361SOL    HW231428   5.707   6.283   2.509
10362SOL     OW31429   7.275   6.508   2.474
10362SOL    HW131430   7.370   6.479   2.482
10362SOL    HW231431   7.267   6.573   2.399
10363SOL     OW31432   7.227   6.694   2.294
10363SOL    HW131433   7.313   6.696   2.242
10363SOL    HW231434   7.241   6.741   2.382
10364SOL     OW31435   5.699   6.323   3.459
10364SOL    HW131436   5.787   6.310   3.504
10364SOL    HW231437   5.686   6.420   3.437
10365SOL     OW31438   6.199   6.951   2.588
10365SOL    HW131439   6.150   6.864   2.597
10365SOL    HW231440   6.176   6.994   2.501
10366SOL     OW31441   6.879   6.814   3.285
10366SOL    HW131442   6.916   6.741   3.227
10366SOL    HW231443   6.931   6.819   3.370
10367SOL     OW31444   6.395   5.590   2.364
10367SOL    HW131445   6.435   5.681   2.355
10367SOL    HW231446   6.295   5.598   2.370
10368SOL     OW31447   5.783   6.562   3.126
10368SOL    HW131448   5.872   6.517   3.112
10368SOL    HW231449   5.710   6.497   3.107
10369SOL     OW31450   7.111   6.585   2.052
10369SOL    HW131451   7.048   6.509   2.065
10369SOL    HW231452   7.159   6.603   2.138
10370SOL     OW31453   5.903   5.837   3.663
10370SOL    HW131454   5.974   5.908   3.669
10370SOL    HW231455   5.815   5.876   3.691
10371SOL     OW31456   7.052   7.003   2.815
10371SOL    HW131457   6.993   7.009   2.895
10371SOL    HW231458   7.037   6.915   2.769
10372SOL     OW31459   6.184   6.315   2.132
10372SOL    HW131460   6.208   6.384   2.064
10372SOL    HW231461   6.106   6.348   2.186
10373SOL     OW31462   6.867   5.931   2.806
10373SOL    HW131463   6.781   5.881   2.793
10373SOL    HW231464   6.929   5.877   2.862
10374SOL     OW31465   7.162   7.248   2.169
10374SOL    HW131466   7.251   7.294   2.172
10374SOL    HW231467   7.141   7.224   2.074
10375SOL     OW31468   6.393   6.191   3.327
10375SOL    HW131469   6.346   6.188   3.416
10375SOL    HW231470   6.342   6.136   3.261
10376SOL     OW31471   6.980   6.055   3.536
10376SOL    HW131472   6.960   6.098   3.624
10376SOL    HW231473   7.058   5.993   3.545
10377SOL     OW31474   6.559   6.476   3.434
10377SOL    HW131475   6.605   6.392   3.405
10377SOL    HW231476   6.503   6.510   3.359
10378SOL     OW31477   6.577   5.996   3.104
10378SOL    HW131478   6.500   6.030   3.158
10378SOL    HW231479   6.543   5.945   3.025
10379SOL     OW31480   6.627   6.287   2.291
10379SOL    HW131481   6.653   6.283   2.387
10379SOL    HW231482   6.542   6.236   2.277
10380SOL     OW31483   5.662   6.397   2.651
10380SOL    HW131484   5.761   6.385   2.660
10380SOL    HW231485   5.638   6.492   2.672
10381SOL     OW31486   6.451   5.934   2.057
10381SOL    HW131487   6.510   5.997   2.008
10381SOL    HW231488   6.470   5.840   2.028
10382SOL     OW31489   7.305   6.171   3.693
10382SOL    HW131490   7.279   6.260   3.657
10382SOL    HW231491   7.303   6.103   3.620
10383SOL     OW31492   6.948   6.730   2.407
10383SOL    HW131493   7.031   6.701   2.359
10383SOL    HW231494   6.899   6.797   2.351
10384SOL     OW31495   6.136   5.782   2.747
10384SOL    HW131496   6.131   5.777   2.847
10384SOL    HW231497   6.138   5.878   2.718
10385SOL     OW31498   6.594   7.042   2.339
10385SOL    HW131499   6.548   7.114   2.287
10385SOL    HW231500   6.590   7.062   2.437
10386SOL     OW31501   7.381   6.652   2.735
10386SOL    HW131502   7.319   6.637   2.659
10386SOL    HW231503   7.329   6.663   2.820
10387SOL     OW31504   6.813   7.136   3.368
10387SOL    HW131505   6.819   7.059   3.432
10387SOL    HW231506   6.761   7.110   3.288
10388SOL     OW31507   5.907   6.529   2.104
10388SOL    HW131508   5.989   6.568   2.062
10388SOL    HW231509   5.880   6.447   2.055
10389SOL     OW31510   7.044   6.321   2.590
10389SOL    HW131511   7.039   6.256   2.665
10389SOL    HW231512   7.124   6.380   2.603
10390SOL     OW31513   6.047   6.852   3.589
10390SOL    HW131514   5.997   6.853   3.503
10390SOL    HW231515   5.984   6.834   3.665
10391SOL     OW31516   5.788   5.871   3.360
10391SOL    HW131517   5.708   5.931   3.347
10391SOL    HW231518   5.778   5.822   3.446
10392SOL     OW31519   7.218   6.963   1.943
10392SOL    HW131520   7.186   7.057   1.933
10392SOL    HW231521   7.142   6.900   1.931
10393SOL     OW31522   6.986   5.693   2.288
10393SOL    HW131523   6.962   5.656   2.198
10393SOL    HW231524   7.085   5.709   2.292
10394SOL     OW31525   6.526   7.284   2.766
10394SOL    HW131526   6.606   7.227   2.787
10394SOL    HW231527   6.477   7.244   2.689
10395SOL     OW31528   5.968   6.286   2.342
10395SOL    HW131529   6.013   6.196   2.339
10395SOL    HW231530   5.874   6.275   2.375
10396SOL     OW31531   7.133   5.808   3.591
10396SOL    HW131532   7.128   5.845   3.683
10396SOL    HW231533   7.061   5.739   3.579
10397SOL     OW31534   6.200   5.708   1.979
10397SOL    HW131535   6.298   5.686   1.986
10397SOL    HW231536   6.169   5.691   1.886
10398SOL     OW31537   6.367   5.850   3.611
10398SOL    HW131538   6.434   5.789   3.654
10398SOL    HW231539   6.294   5.869   3.676
10399SOL     OW31540   6.474   7.100   3.057
10399SOL    HW131541   6.451   7.075   2.963
10399SOL    HW231542   6.535   7.031   3.096
10400SOL     OW31543   6.937   6.176   3.295
10400SOL    HW131544   6.965   6.133   3.380
10400SOL    HW231545   6.962   6.272   3.296
10401SOL     OW31546   6.389   6.988   2.786
10401SOL    HW131547   6.479   7.002   2.744
10401SOL    HW231548   6.318   6.990   2.715
10402SOL     OW31549   6.508   6.089   2.761
10402SOL    HW131550   6.483   6.080   2.665
10402SOL    HW231551   6.556   6.007   2.792
10403SOL     OW31552   6.125   5.650   2.374
10403SOL    HW131553   6.044   5.651   2.432
10403SOL    HW231554   6.128   5.733   2.319
10404SOL     OW31555   7.020   6.774   1.903
10404SOL    HW131556   7.052   6.698   1.960
10404SOL    HW231557   6.928   6.801   1.933
10405SOL     OW31558   5.883   5.621   2.033
10405SOL    HW131559   5.932   5.705   2.012
10405SOL    HW231560   5.945   5.556   2.078
10406SOL     OW31561   6.521   5.822   2.342
10406SOL    HW131562   6.473   5.863   2.264
10406SOL    HW231563   6.620   5.820   2.323
10407SOL     OW31564   6.662   6.269   3.326
10407SOL    HW131565   6.582   6.208   3.329
10407SOL    HW231566   6.743   6.216   3.302
10408SOL     OW31567   6.813   7.156   2.655
10408SOL    HW131568   6.834   7.230   2.590
10408SOL    HW231569   6.881   7.156   2.728
10409SOL     OW31570   6.045   6.738   2.603
10409SOL    HW131571   5.974   6.711   2.668
10409SOL    HW231572   6.019   6.710   2.510
10410SOL     OW31573   6.857   7.383   2.453
10410SOL    HW131574   6.901   7.447   2.389
10410SOL    HW231575   6.807   7.435   2.523
10411SOL     OW31576   6.618   6.135   1.878
10411SOL    HW131577   6.577   6.217   1.839
10411SOL    HW231578   6.682   6.161   1.951
10412SOL     OW31579   5.664   6.142   3.248
10412SOL    HW131580   5.756   6.141   3.207
10412SOL    HW231581   5.658   6.216   3.315
10413SOL     OW31582   6.147   5.808   3.009
10413SOL    HW131583   6.185   5.724   3.046
10413SOL    HW231584   6.059   5.827   3.053
10414SOL     OW31585   6.452   6.040   2.504
10414SOL    HW131586   6.420   6.112   2.442
10414SOL    HW231587   6.476   5.959   2.451
10415SOL     OW31588   6.603   5.625   2.615
10415SOL    HW131589   6.531   5.630   2.546
10415SOL    HW231590   6.579   5.556   2.684
10416SOL     OW31591   7.015   6.759   2.729
10416SOL    HW131592   6.960   6.675   2.722
10416SOL    HW231593   7.041   6.788   2.637
10417SOL     OW31594   7.052   6.176   2.854
10417SOL    HW131595   7.022   6.081   2.861
10417SOL    HW231596   7.125   6.192   2.920
10418SOL     OW31597   7.443   6.419   2.239
10418SOL    HW131598   7.485   6.355   2.303
10418SOL    HW231599   7.405   6.368   2.161
10419SOL     OW31600   6.074   6.971   2.036
10419SOL    HW131601   5.987   6.956   2.083
10419SOL    HW231602   6.057   6.997   1.941
10420SOL     OW31603   7.250   6.866   2.519
10420SOL    HW131604   7.349   6.874   2.533
10420SOL    HW231605   7.205   6.950   2.550
10421SOL     OW31606   6.976   6.161   1.940
10421SOL    HW131607   6.922   6.140   2.021
10421SOL    HW231608   7.067   6.120   1.949
10422SOL     OW31609   6.113   5.842   2.190
10422SOL    HW131610   6.140   5.783   2.115
10422SOL    HW231611   6.113   5.937   2.159
10423SOL     OW31612   7.340   6.809   3.450
10423SOL    HW131613   7.431   6.770   3.437
10423SOL    HW231614   7.348   6.905   3.474
10424SOL     OW31615   6.650   6.933   3.202
10424SOL    HW131616   6.570   6.910   3.257
10424SOL    HW231617   6.733   6.907   3.251
10425SOL     OW31618   6.697   6.781   2.962
10425SOL    HW131619   6.657   6.825   3.043
10425SOL    HW231620   6.656   6.818   2.879
10426SOL     OW31621   7.224   6.685   2.941
10426SOL    HW131622   7.229   6.766   3.000
10426SOL    HW231623   7.138   6.687   2.890
10427SOL     OW31624   6.501   5.675   3.264
10427SOL    HW131625   6.526   5.655   3.169
10427SOL    HW231626   6.573   5.731   3.306
10428SOL     OW31627   6.566   6.702   3.581
10428SOL    HW131628   6.467   6.708   3.591
10428SOL    HW231629   6.589   6.622   3.525
10429SOL     OW31630   6.291   6.636   2.230
10429SOL    HW131631   6.277   6.643   2.329
10429SOL    HW231632   6.375   6.585   2.212
10430SOL     OW31633   5.996   6.399   3.113
10430SOL    HW131634   6.082   6.411   3.163
10430SOL    HW231635   5.954   6.312   3.140
10431SOL     OW31636   6.860   5.972   3.124
10431SOL    HW131637   6.881   6.046   3.188
10431SOL    HW231638   6.771   5.989   3.081
10432SOL     OW31639   5.650   7.150   3.193
10432SOL    HW131640   5.604   7.232   3.159
10432SOL    HW231641   5.748   7.169   3.202
10433SOL     OW31642   5.953   6.686   2.363
10433SOL    HW131643   5.946   6.769   2.307
10433SOL    HW231644   5.957   6.606   2.303
10434SOL     OW31645   6.152   6.123   2.727
10434SOL    HW131646   6.164   6.189   2.653
10434SOL    HW231647   6.198   6.157   2.810
10435SOL     OW31648   6.838   6.934   2.250
10435SOL    HW131649   6.888   7.011   2.290
10435SOL    HW231650   6.743   6.936   2.282
10436SOL     OW31651   6.858   7.031   3.004
10436SOL    HW131652   6.905   7.044   3.091
10436SOL    HW231653   6.792   6.957   3.013
10437SOL     OW31654   7.168   6.225   2.334
10437SOL    HW131655   7.137   6.286   2.407
10437SOL    HW231656   7.218   6.277   2.265
10438SOL     OW31657   5.940   7.096   3.191
10438SOL    HW131658   5.919   7.052   3.104
10438SOL    HW231659   6.037   7.122   3.194
10439SOL     OW31660   5.988   6.337   3.460
10439SOL    HW131661   6.056   6.392   3.413
10439SOL    HW231662   6.028   6.249   3.487
10440SOL     OW31663   7.173   6.365   3.532
10440SOL    HW131664   7.081   6.403   3.527
10440SOL    HW231665   7.233   6.412   3.467
10441SOL     OW31666   6.599   5.691   3.632
10441SOL    HW131667   6.605   5.776   3.580
10441SOL    HW231668   6.631   5.615   3.575
10442SOL     OW31669   6.090   5.636   3.602
10442SOL    HW131670   6.048   5.579   3.532
10442SOL    HW231671   6.024   5.705   3.634
10443SOL     OW31672   6.159   6.456   2.891
10443SOL    HW131673   6.203   6.545   2.882
10443SOL    HW231674   6.096   6.456   2.968
10444SOL     OW31675   6.946   6.448   2.907
10444SOL    HW131676   6.871   6.448   2.841
10444SOL    HW231677   6.983   6.356   2.916
10445SOL     OW31678   6.795   6.111   2.137
10445SOL    HW131679   6.808   6.027   2.191
10445SOL    HW231680   6.766   6.185   2.197
10446SOL     OW31681   5.893   5.799   3.093
10446SOL    HW131682   5.870   5.836   3.183
10446SOL    HW231683   5.863   5.704   3.087
10447SOL     OW31684   5.623   6.896   3.144
10447SOL    HW131685   5.676   6.847   3.212
10447SOL    HW231686   5.645   6.994   3.149
10448SOL     OW31687   6.318   6.220   2.926
10448SOL    HW131688   6.377   6.194   2.850
10448SOL    HW231689   6.290   6.316   2.915
10449SOL     OW31690   7.314   6.521   3.716
10449SOL    HW131691   7.268   6.514   3.627
10449SOL    HW231692   7.252   6.565   3.782
10450SOL     OW31693   5.893   5.649   2.480
10450SOL    HW131694   5.882   5.743   2.513
10450SOL    HW231695   5.888   5.586   2.557
10451SOL     OW31696   7.208   5.953   2.236
10451SOL    HW131697   7.210   5.877   2.300
10451SOL    HW231698   7.160   6.030   2.276
10452SOL     OW31699   6.609   6.352   2.828
10452SOL    HW131700   6.624   6.373   2.924
10452SOL    HW231701   6.579   6.257   2.819
10453SOL     OW31702   6.566   7.159   3.562
10453SOL    HW131703   6.546   7.203   3.474
10453SOL    HW231704   6.605   7.068   3.546
10454SOL     OW31705   7.445   7.104   3.467
10454SOL    HW131706   7.459   7.131   3.372
10454SOL    HW231707   7.528   7.126   3.520
10455SOL     OW31708   5.936   6.484   3.666
10455SOL    HW131709   6.012   6.528   3.714
10455SOL    HW231710   5.971   6.437   3.584
10456SOL     OW31711   7.126   5.860   1.987
10456SOL    HW131712   7.065   5.785   2.010
10456SOL    HW231713   7.148   5.912   2.070
10457SOL     OW31714   6.889   6.424   1.904
10457SOL    HW131715   6.923   6.331   1.919
10457SOL    HW231716   6.907   6.451   1.809
10458SOL     OW31717   6.654   6.919   2.711
10458SOL    HW131718   6.661   6.835   2.656
10458SOL    HW231719   6.716   6.988   2.675
10459SOL     OW31720   5.905   6.396   2.811
10459SOL    HW131721   5.998   6.432   2.816
10459SOL    HW231722   5.899   6.311   2.863
10460SOL     OW31723   5.925   6.095   2.868
10460SOL    HW131724   5.873   6.012   2.851
10460SOL    HW231725   6.002   6.100   2.804
10461SOL     OW31726   6.724   5.966   3.540
10461SOL    HW131727   6.679   6.029   3.604
10461SOL    HW231728   6.817   5.997   3.523
10462SOL     OW31729   6.746   5.793   3.339
10462SOL    HW131730   6.746   5.857   3.416
10462SOL    HW231731   6.774   5.841   3.256
10463SOL     OW31732   5.594   6.912   2.062
10463SOL    HW131733   5.501   6.933   2.031
10463SOL    HW231734   5.604   6.813   2.075
10464SOL     OW31735   6.588   6.382   3.100
10464SOL    HW131736   6.629   6.350   3.186
10464SOL    HW231737   6.492   6.355   3.097
10465SOL     OW31738   5.626   6.130   2.976
10465SOL    HW131739   5.711   6.097   2.935
10465SOL    HW231740   5.639   6.145   3.074
10466SOL     OW31741   5.775   6.106   3.584
10466SOL    HW131742   5.834   6.066   3.514
10466SOL    HW231743   5.717   6.177   3.543
10467SOL     OW31744   6.955   6.536   3.522
10467SOL    HW131745   6.994   6.625   3.542
10467SOL    HW231746   6.965   6.516   3.425
10468SOL     OW31747   6.401   6.158   2.187
10468SOL    HW131748   6.408   6.069   2.141
10468SOL    HW231749   6.307   6.192   2.179
10469SOL     OW31750   7.243   6.190   3.068
10469SOL    HW131751   7.205   6.121   3.130
10469SOL    HW231752   7.325   6.154   3.024
10470SOL     OW31753   6.257   6.050   3.131
10470SOL    HW131754   6.223   5.961   3.101
10470SOL    HW231755   6.283   6.104   3.051
10471SOL     OW31756   6.059   6.086   2.053
10471SOL    HW131757   6.120   6.166   2.057
10471SOL    HW231758   5.964   6.117   2.060
10472SOL     OW31759   5.745   6.723   3.328
10472SOL    HW131760   5.767   6.662   3.404
10472SOL    HW231761   5.755   6.674   3.242
10473SOL     OW31762   6.933   6.645   3.096
10473SOL    HW131763   6.957   6.582   3.022
10473SOL    HW231764   6.843   6.685   3.078
10474SOL     OW31765   6.888   6.441   2.171
10474SOL    HW131766   6.802   6.410   2.213
10474SOL    HW231767   6.884   6.427   2.072
10475SOL     OW31768   5.669   6.844   2.884
10475SOL    HW131769   5.664   6.843   2.984
10475SOL    HW231770   5.586   6.803   2.846
10476SOL     OW31771   6.274   7.248   3.578
10476SOL    HW131772   6.218   7.329   3.587
10476SOL    HW231773   6.326   7.252   3.492
10477SOL     OW31774   7.312   5.721   2.385
10477SOL    HW131775   7.385   5.704   2.318
10477SOL    HW231776   7.281   5.634   2.423
10478SOL     OW31777   5.716   7.380   3.713
10478SOL    HW131778   5.675   7.306   3.766
10478SOL    HW231779   5.780   7.431   3.771
10479SOL     OW31780   6.866   6.513   2.534
10479SOL    HW131781   6.926   6.432   2.536
10479SOL    HW231782   6.906   6.582   2.474
10480SOL     OW31783   6.416   6.859   3.284
10480SOL    HW131784   6.411   6.892   3.379
10480SOL    HW231785   6.330   6.878   3.238
10481SOL     OW31786   6.258   7.202   2.016
10481SOL    HW131787   6.267   7.212   1.917
10481SOL    HW231788   6.218   7.113   2.037
10482SOL     OW31789   7.427   5.761   2.825
10482SOL    HW131790   7.466   5.676   2.789
10482SOL    HW231791   7.329   5.763   2.806
10483SOL     OW31792   5.849   5.912   2.582
10483SOL    HW131793   5.770   5.963   2.548
10483SOL    HW231794   5.840   5.897   2.680
10484SOL     OW31795   6.408   6.588   3.234
10484SOL    HW131796   6.448   6.587   3.142
10484SOL    HW231797   6.418   6.680   3.274
10485SOL     OW31798   6.502   6.496   2.153
10485SOL    HW131799   6.565   6.534   2.085
10485SOL    HW231800   6.542   6.413   2.192
10486SOL     OW31801   5.958   6.874   3.352
10486SOL    HW131802   5.945   6.967   3.318
10486SOL    HW231803   5.874   6.822   3.339
10487SOL     OW31804   7.200   6.878   3.151
10487SOL    HW131805   7.260   6.881   3.231
10487SOL    HW231806   7.125   6.942   3.164
10488SOL     OW31807   6.625   6.684   2.558
10488SOL    HW131808   6.555   6.637   2.612
10488SOL    HW231809   6.684   6.616   2.515
10489SOL     OW31810   6.600   5.822   2.833
10489SOL    HW131811   6.592   5.786   2.740
10489SOL    HW231812   6.598   5.746   2.898
10490SOL     OW31813   6.176   7.073   2.353
10490SOL    HW131814   6.218   7.015   2.283
10490SOL    HW231815   6.132   7.152   2.309
10491SOL     OW31816   7.295   5.971   3.243
10491SOL    HW131817   7.368   6.040   3.247
10491SOL    HW231818   7.323   5.896   3.184
10492SOL     OW31819   5.841   6.934   2.152
10492SOL    HW131820   5.745   6.935   2.125
10492SOL    HW231821   5.853   6.987   2.236
10493SOL     OW31822   5.691   6.599   3.588
10493SOL    HW131823   5.614   6.566   3.642
10493SOL    HW231824   5.776   6.569   3.630
10494SOL     OW31825   6.258   5.789   3.351
10494SOL    HW131826   6.348   5.773   3.311
10494SOL    HW231827   6.266   5.794   3.450
10495SOL     OW31828   5.661   5.931   1.895
10495SOL    HW131829   5.569   5.903   1.866
10495SOL    HW231830   5.692   6.008   1.839
10496SOL     OW31831   7.026   6.442   3.260
10496SOL    HW131832   6.969   6.494   3.197
10496SOL    HW231833   7.122   6.454   3.236
10497SOL     OW31834   5.658   5.752   2.180
10497SOL    HW131835   5.641   5.835   2.126
10497SOL    HW231836   5.748   5.715   2.158
10498SOL     OW31837   6.769   6.921   1.981
10498SOL    HW131838   6.670   6.910   1.983
10498SOL    HW231839   6.803   6.936   2.074
10499SOL     OW31840   6.199   6.428   3.293
10499SOL    HW131841   6.255   6.509   3.276
10499SOL    HW231842   6.258   6.348   3.296
10500SOL     OW31843   6.302   6.151   3.570
10500SOL    HW131844   6.321   6.216   3.644
10500SOL    HW231845   6.362   6.071   3.579
10501SOL     OW31846   7.036   6.806   3.495
10501SOL    HW131847   7.027   6.796   3.594
10501SOL    HW231848   7.132   6.799   3.469
10502SOL     OW31849   7.260   6.469   3.116
10502SOL    HW131850   7.233   6.380   3.079
10502SOL    HW231851   7.261   6.537   3.043
10503SOL     OW31852   6.811   5.911   2.311
10503SOL    HW131853   6.876   5.837   2.300
10503SOL    HW231854   6.831   5.961   2.395
10504SOL     OW31855   6.180   6.331   2.514
10504SOL    HW131856   6.230   6.416   2.495
10504SOL    HW231857   6.092   6.333   2.466
10505SOL     OW31858   7.363   5.928   3.504
10505SOL    HW131859   7.346   5.959   3.410
10505SOL    HW231860   7.279   5.891   3.542
10506SOL     OW31861   7.316   6.520   3.379
10506SOL    HW131862   7.354   6.611   3.394
10506SOL    HW231863   7.308   6.503   3.280
10507SOL     OW31864   6.445   6.960   1.878
10507SOL    HW131865   6.399   6.975   1.966
10507SOL    HW231866   6.489   7.045   1.848
10508SOL     OW31867   6.445   6.542   2.723
10508SOL    HW131868   6.499   6.473   2.771
10508SOL    HW231869   6.413   6.611   2.789
10509SOL     OW31870   6.669   6.570   1.949
10509SOL    HW131871   6.646   6.623   1.867
10509SOL    HW231872   6.750   6.514   1.930
10510SOL     OW31873   5.807   6.900   3.706
10510SOL    HW131874   5.742   6.827   3.685
10510SOL    HW231875   5.811   6.914   3.804
10511SOL     OW31876   5.665   6.826   2.515
10511SOL    HW131877   5.664   6.779   2.603
10511SOL    HW231878   5.747   6.798   2.464
10512SOL     OW31879   6.258   6.977   3.486
10512SOL    HW131880   6.180   6.927   3.524
10512SOL    HW231881   6.255   7.072   3.517
10513SOL     OW31882   7.410   5.778   3.089
10513SOL    HW131883   7.406   5.688   3.133
10513SOL    HW231884   7.413   5.767   2.990
10514SOL     OW31885   6.014   6.010   2.382
10514SOL    HW131886   6.044   5.938   2.320
10514SOL    HW231887   5.975   5.970   2.465
10515SOL     OW31888   5.903   6.133   3.142
10515SOL    HW131889   5.941   6.074   3.214
10515SOL    HW231890   5.943   6.107   3.054
10516SOL     OW31891   7.010   5.800   2.974
10516SOL    HW131892   7.062   5.735   3.029
10516SOL    HW231893   6.961   5.863   3.035
10517SOL     OW31894   6.587   5.620   3.016
10517SOL    HW131895   6.524   5.548   2.985
10517SOL    HW231896   6.680   5.584   3.016
10518SOL     OW31897   6.356   6.916   2.163
10518SOL    HW131898   6.310   6.829   2.180
10518SOL    HW231899   6.447   6.913   2.204
10519SOL     OW31900   6.938   5.638   2.030
10519SOL    HW131901   6.973   5.597   1.946
10519SOL    HW231902   6.848   5.600   2.050
10520SOL     OW31903   6.886   6.039   2.553
10520SOL    HW131904   6.827   6.119   2.557
10520SOL    HW231905   6.901   6.004   2.646
10521SOL     OW31906   7.179   5.807   2.744
10521SOL    HW131907   7.095   5.806   2.798
10521SOL    HW231908   7.181   5.890   2.688
10522SOL     OW31909   5.625   6.663   2.162
10522SOL    HW131910   5.724   6.652   2.153
10522SOL    HW231911   5.585   6.577   2.194
10523SOL     OW31912   5.816   6.214   3.837
10523SOL    HW131913   5.723   6.212   3.874
10523SOL    HW231914   5.817   6.175   3.745
10524SOL     OW31915   5.811   5.861   4.720
10524SOL    HW131916   5.846   5.844   4.812
10524SOL    HW231917   5.723   5.816   4.708
10525SOL     OW31918   5.605   5.954   4.371
10525SOL    HW131919   5.523   5.997   4.410
10525SOL    HW231920   5.577   5.881   4.308
10526SOL     OW31921   6.155   6.861   4.889
10526SOL    HW131922   6.062   6.854   4.852
10526SOL    HW231923   6.166   6.950   4.933
10527SOL     OW31924   6.721   6.289   4.441
10527SOL    HW131925   6.778   6.367   4.416
10527SOL    HW231926   6.661   6.315   4.517
10528SOL     OW31927   7.341   6.193   3.955
10528SOL    HW131928   7.329   6.180   3.856
10528SOL    HW231929   7.311   6.112   4.004
10529SOL     OW31930   6.354   6.730   4.747
10529SOL    HW131931   6.276   6.747   4.807
10529SOL    HW231932   6.388   6.817   4.711
10530SOL     OW31933   6.436   6.384   5.547
10530SOL    HW131934   6.432   6.460   5.612
10530SOL    HW231935   6.458   6.420   5.456
10531SOL     OW31936   6.271   6.598   4.389
10531SOL    HW131937   6.340   6.582   4.459
10531SOL    HW231938   6.198   6.655   4.427
10532SOL     OW31939   6.272   6.747   5.527
10532SOL    HW131940   6.332   6.826   5.541
10532SOL    HW231941   6.186   6.778   5.486
10533SOL     OW31942   5.921   7.021   4.785
10533SOL    HW131943   5.843   6.990   4.732
10533SOL    HW231944   5.979   7.079   4.728
10534SOL     OW31945   6.024   5.978   5.223
10534SOL    HW131946   6.106   5.922   5.232
10534SOL    HW231947   5.943   5.920   5.227
10535SOL     OW31948   7.189   6.033   4.461
10535SOL    HW131949   7.115   6.079   4.411
10535SOL    HW231950   7.240   6.101   4.514
10536SOL     OW31951   6.713   6.927   5.414
10536SOL    HW131952   6.760   6.927   5.502
10536SOL    HW231953   6.665   6.840   5.403
10537SOL     OW31954   5.816   7.020   4.262
10537SOL    HW131955   5.790   7.116   4.262
10537SOL    HW231956   5.745   6.966   4.307
10538SOL     OW31957   5.826   6.677   4.610
10538SOL    HW131958   5.840   6.593   4.662
10538SOL    HW231959   5.771   6.741   4.665
10539SOL     OW31960   6.192   6.550   3.847
10539SOL    HW131961   6.199   6.634   3.793
10539SOL    HW231962   6.238   6.563   3.935
10540SOL     OW31963   7.180   5.700   5.204
10540SOL    HW131964   7.162   5.767   5.132
10540SOL    HW231965   7.177   5.746   5.293
10541SOL     OW31966   5.708   6.229   4.287
10541SOL    HW131967   5.663   6.141   4.304
10541SOL    HW231968   5.707   6.283   4.371
10542SOL     OW31969   7.275   6.508   4.336
10542SOL    HW131970   7.370   6.479   4.344
10542SOL    HW231971   7.267   6.573   4.261
10543SOL     OW31972   7.227   6.694   4.156
10543SOL    HW131973   7.313   6.696   4.104
10543SOL    HW231974   7.241   6.741   4.244
10544SOL     OW31975   5.699   6.323   5.321
10544SOL    HW131976   5.787   6.310   5.366
10544SOL    HW231977   5.686   6.420   5.299
10545SOL     OW31978   6.199   6.951   4.450
10545SOL    HW131979   6.150   6.864   4.459
10545SOL    HW231980   6.176   6.994   4.363
10546SOL     OW31981   6.879   6.814   5.147
10546SOL    HW131982   6.916   6.741   5.089
10546SOL    HW231983   6.931   6.819   5.232
10547SOL     OW31984   6.395   5.590   4.226
10547SOL    HW131985   6.435   5.681   4.217
10547SOL    HW231986   6.295   5.598   4.232
10548SOL     OW31987   5.783   6.562   4.988
10548SOL    HW131988   5.872   6.517   4.974
10548SOL    HW231989   5.710   6.497   4.969
10549SOL     OW31990   7.111   6.585   3.914
10549SOL    HW131991   7.048   6.509   3.927
10549SOL    HW231992   7.159   6.603   4.000
10550SOL     OW31993   5.903   5.837   5.525
10550SOL    HW131994   5.974   5.908   5.531
10550SOL    HW231995   5.815   5.876   5.553
10551SOL     OW31996   7.052   7.003   4.677
10551SOL    HW131997   6.993   7.009   4.757
10551SOL    HW231998   7.037   6.915   4.631
10552SOL     OW31999   6.184   6.315   3.994
10552SOL    HW132000   6.208   6.384   3.926
10552SOL    HW232001   6.106   6.348   4.048
10553SOL     OW32002   6.867   5.931   4.668
10553SOL    HW132003   6.781   5.881   4.655
10553SOL    HW232004   6.929   5.877   4.724
10554SOL     OW32005   7.162   7.248   4.031
10554SOL    HW132006   7.251   7.294   4.034
10554SOL    HW232007   7.141   7.224   3.936
10555SOL     OW32008   6.393   6.191   5.189
10555SOL    HW132009   6.346   6.188   5.278
10555SOL    HW232010   6.342   6.136   5.123
10556SOL     OW32011   6.980   6.055   5.398
10556SOL    HW132012   6.960   6.098   5.486
10556SOL    HW232013   7.058   5.993   5.407
10557SOL     OW32014   6.559   6.476   5.296
10557SOL    HW132015   6.605   6.392   5.267
10557SOL    HW232016   6.503   6.510   5.221
10558SOL     OW32017   6.577   5.996   4.966
10558SOL    HW132018   6.500   6.030   5.020
10558SOL    HW232019   6.543   5.945   4.887
10559SOL     OW32020   6.627   6.287   4.153
10559SOL    HW132021   6.653   6.283   4.249
10559SOL    HW232022   6.542   6.236   4.139
10560SOL     OW32023   5.662   6.397   4.513
10560SOL    HW132024   5.761   6.385   4.522
10560SOL    HW232025   5.638   6.492   4.534
10561SOL     OW32026   6.451   5.934   3.919
10561SOL    HW132027   6.510   5.997   3.870
10561SOL    HW232028   6.470   5.840   3.890
10562SOL     OW32029   7.305   6.171   5.555
10562SOL    HW132030   7.279   6.260   5.519
10562SOL    HW232031   7.303   6.103   5.482
10563SOL     OW32032   6.948   6.730   4.269
10563SOL    HW132033   7.031   6.701   4.221
10563SOL    HW232034   6.899   6.797   4.213
10564SOL     OW32035   6.136   5.782   4.609
10564SOL    HW132036   6.131   5.777   4.709
10564SOL    HW232037   6.138   5.878   4.580
10565SOL     OW32038   6.594   7.042   4.201
10565SOL    HW132039   6.548   7.114   4.149
10565SOL    HW232040   6.590   7.062   4.299
10566SOL     OW32041   7.381   6.652   4.597
10566SOL    HW132042   7.319   6.637   4.521
10566SOL    HW232043   7.329   6.663   4.682
10567SOL     OW32044   6.813   7.136   5.230
10567SOL    HW132045   6.819   7.059   5.294
10567SOL    HW232046   6.761   7.110   5.150
10568SOL     OW32047   5.907   6.529   3.966
10568SOL    HW132048   5.989   6.568   3.924
10568SOL    HW232049   5.880   6.447   3.917
10569SOL     OW32050   7.044   6.321   4.452
10569SOL    HW132051   7.039   6.256   4.527
10569SOL    HW232052   7.124   6.380   4.465
10570SOL     OW32053   6.047   6.852   5.451
10570SOL    HW132054   5.997   6.853   5.365
10570SOL    HW232055   5.984   6.834   5.527
10571SOL     OW32056   5.788   5.871   5.222
10571SOL    HW132057   5.708   5.931   5.209
10571SOL    HW232058   5.778   5.822   5.308
10572SOL     OW32059   7.218   6.963   3.805
10572SOL    HW132060   7.186   7.057   3.795
10572SOL    HW232061   7.142   6.900   3.793
10573SOL     OW32062   6.986   5.693   4.150
10573SOL    HW132063   6.962   5.656   4.060
10573SOL    HW232064   7.085   5.709   4.154
10574SOL     OW32065   6.526   7.284   4.628
10574SOL    HW132066   6.606   7.227   4.649
10574SOL    HW232067   6.477   7.244   4.551
10575SOL     OW32068   5.968   6.286   4.204
10575SOL    HW132069   6.013   6.196   4.201
10575SOL    HW232070   5.874   6.275   4.237
10576SOL     OW32071   7.133   5.808   5.453
10576SOL    HW132072   7.128   5.845   5.545
10576SOL    HW232073   7.061   5.739   5.441
10577SOL     OW32074   6.200   5.708   3.841
10577SOL    HW132075   6.298   5.686   3.848
10577SOL    HW232076   6.169   5.691   3.748
10578SOL     OW32077   6.367   5.850   5.473
10578SOL    HW132078   6.434   5.789   5.516
10578SOL    HW232079   6.294   5.869   5.538
10579SOL     OW32080   6.474   7.100   4.919
10579SOL    HW132081   6.451   7.075   4.825
10579SOL    HW232082   6.535   7.031   4.958
10580SOL     OW32083   6.937   6.176   5.157
10580SOL    HW132084   6.965   6.133   5.242
10580SOL    HW232085   6.962   6.272   5.158
10581SOL     OW32086   6.389   6.988   4.648
10581SOL    HW132087   6.479   7.002   4.606
10581SOL    HW232088   6.318   6.990   4.577
10582SOL     OW32089   6.508   6.089   4.623
10582SOL    HW132090   6.483   6.080   4.527
10582SOL    HW232091   6.556   6.007   4.654
10583SOL     OW32092   6.125   5.650   4.236
10583SOL    HW132093   6.044   5.651   4.294
10583SOL    HW232094   6.128   5.733   4.181
10584SOL     OW32095   7.020   6.774   3.765
10584SOL    HW132096   7.052   6.698   3.822
10584SOL    HW232097   6.928   6.801   3.795
10585SOL     OW32098   5.883   5.621   3.895
10585SOL    HW132099   5.932   5.705   3.874
10585SOL    HW232100   5.945   5.556   3.940
10586SOL     OW32101   6.521   5.822   4.204
10586SOL    HW132102   6.473   5.863   4.126
10586SOL    HW232103   6.620   5.820   4.185
10587SOL     OW32104   6.662   6.269   5.188
10587SOL    HW132105   6.582   6.208   5.191
10587SOL    HW232106   6.743   6.216   5.164
10588SOL     OW32107   6.813   7.156   4.517
10588SOL    HW132108   6.834   7.230   4.452
10588SOL    HW232109   6.881   7.156   4.590
10589SOL     OW32110   6.045   6.738   4.465
10589SOL    HW132111   5.974   6.711   4.530
10589SOL    HW232112   6.019   6.710   4.372
10590SOL     OW32113   6.857   7.383   4.315
10590SOL    HW132114   6.901   7.447   4.251
10590SOL    HW232115   6.807   7.435   4.385
10591SOL     OW32116   6.618   6.135   3.740
10591SOL    HW132117   6.577   6.217   3.701
10591SOL    HW232118   6.682   6.161   3.813
10592SOL     OW32119   5.664   6.142   5.110
10592SOL    HW132120   5.756   6.141   5.069
10592SOL    HW232121   5.658   6.216   5.177
10593SOL     OW32122   6.147   5.808   4.871
10593SOL    HW132123   6.185   5.724   4.908
10593SOL    HW232124   6.059   5.827   4.915
10594SOL     OW32125   6.452   6.040   4.366
10594SOL    HW132126   6.420   6.112   4.304
10594SOL    HW232127   6.476   5.959   4.313
10595SOL     OW32128   6.603   5.625   4.477
10595SOL    HW132129   6.531   5.630   4.408
10595SOL    HW232130   6.579   5.556   4.546
10596SOL     OW32131   7.015   6.759   4.591
10596SOL    HW132132   6.960   6.675   4.584
10596SOL    HW232133   7.041   6.788   4.499
10597SOL     OW32134   7.052   6.176   4.716
10597SOL    HW132135   7.022   6.081   4.723
10597SOL    HW232136   7.125   6.192   4.782
10598SOL     OW32137   7.443   6.419   4.101
10598SOL    HW132138   7.485   6.355   4.165
10598SOL    HW232139   7.405   6.368   4.023
10599SOL     OW32140   6.074   6.971   3.898
10599SOL    HW132141   5.987   6.956   3.945
10599SOL    HW232142   6.057   6.997   3.803
10600SOL     OW32143   7.250   6.866   4.381
10600SOL    HW132144   7.349   6.874   4.395
10600SOL    HW232145   7.205   6.950   4.412
10601SOL     OW32146   6.976   6.161   3.802
10601SOL    HW132147   6.922   6.140   3.883
10601SOL    HW232148   7.067   6.120   3.811
10602SOL     OW32149   6.113   5.842   4.052
10602SOL    HW132150   6.140   5.783   3.977
10602SOL    HW232151   6.113   5.937   4.021
10603SOL     OW32152   7.340   6.809   5.312
10603SOL    HW132153   7.431   6.770   5.299
10603SOL    HW232154   7.348   6.905   5.336
10604SOL     OW32155   6.650   6.933   5.064
10604SOL    HW132156   6.570   6.910   5.119
10604SOL    HW232157   6.733   6.907   5.113
10605SOL     OW32158   6.697   6.781   4.824
10605SOL    HW132159   6.657   6.825   4.905
10605SOL    HW232160   6.656   6.818   4.741
10606SOL     OW32161   7.224   6.685   4.803
10606SOL    HW132162   7.229   6.766   4.862
10606SOL    HW232163   7.138   6.687   4.752
10607SOL     OW32164   6.501   5.675   5.126
10607SOL    HW132165   6.526   5.655   5.031
10607SOL    HW232166   6.573   5.731   5.168
10608SOL     OW32167   6.566   6.702   5.443
10608SOL    HW132168   6.467   6.708   5.453
10608SOL    HW232169   6.589   6.622   5.387
10609SOL     OW32170   6.291   6.636   4.092
10609SOL    HW132171   6.277   6.643   4.191
10609SOL    HW232172   6.375   6.585   4.074
10610SOL     OW32173   5.996   6.399   4.975
10610SOL    HW132174   6.082   6.411   5.025
10610SOL    HW232175   5.954   6.312   5.002
10611SOL     OW32176   6.860   5.972   4.986
10611SOL    HW132177   6.881   6.046   5.050
10611SOL    HW232178   6.771   5.989   4.943
10612SOL     OW32179   5.650   7.150   5.055
10612SOL    HW132180   5.604   7.232   5.021
10612SOL    HW232181   5.748   7.169   5.064
10613SOL     OW32182   5.953   6.686   4.225
10613SOL    HW132183   5.946   6.769   4.169
10613SOL    HW232184   5.957   6.606   4.165
10614SOL     OW32185   6.152   6.123   4.589
10614SOL    HW132186   6.164   6.189   4.515
10614SOL    HW232187   6.198   6.157   4.672
10615SOL     OW32188   6.838   6.934   4.112
10615SOL    HW132189   6.888   7.011   4.152
10615SOL    HW232190   6.743   6.936   4.144
10616SOL     OW32191   6.858   7.031   4.866
10616SOL    HW132192   6.905   7.044   4.953
10616SOL    HW232193   6.792   6.957   4.875
10617SOL     OW32194   7.168   6.225   4.196
10617SOL    HW132195   7.137   6.286   4.269
10617SOL    HW232196   7.218   6.277   4.127
10618SOL     OW32197   5.940   7.096   5.053
10618SOL    HW132198   5.919   7.052   4.966
10618SOL    HW232199   6.037   7.122   5.056
10619SOL     OW32200   5.988   6.337   5.322
10619SOL    HW132201   6.056   6.392   5.275
10619SOL    HW232202   6.028   6.249   5.349
10620SOL     OW32203   7.173   6.365   5.394
10620SOL    HW132204   7.081   6.403   5.389
10620SOL    HW232205   7.233   6.412   5.329
10621SOL     OW32206   6.599   5.691   5.494
10621SOL    HW132207   6.605   5.776   5.442
10621SOL    HW232208   6.631   5.615   5.437
10622SOL     OW32209   6.090   5.636   5.464
10622SOL    HW132210   6.048   5.579   5.394
10622SOL    HW232211   6.024   5.705   5.496
10623SOL     OW32212   6.159   6.456   4.753
10623SOL    HW132213   6.203   6.545   4.744
10623SOL    HW232214   6.096   6.456   4.830
10624SOL     OW32215   6.946   6.448   4.769
10624SOL    HW132216   6.871   6.448   4.703
10624SOL    HW232217   6.983   6.356   4.778
10625SOL     OW32218   6.795   6.111   3.999
10625SOL    HW132219   6.808   6.027   4.053
10625SOL    HW232220   6.766   6.185   4.059
10626SOL     OW32221   5.893   5.799   4.955
10626SOL    HW132222   5.870   5.836   5.045
10626SOL    HW232223   5.863   5.704   4.949
10627SOL     OW32224   5.623   6.896   5.006
10627SOL    HW132225   5.676   6.847   5.074
10627SOL    HW232226   5.645   6.994   5.011
10628SOL     OW32227   6.318   6.220   4.788
10628SOL    HW132228   6.377   6.194   4.712
10628SOL    HW232229   6.290   6.316   4.777
10629SOL     OW32230   7.314   6.521   5.578
10629SOL    HW132231   7.268   6.514   5.489
10629SOL    HW232232   7.252   6.565   5.644
10630SOL     OW32233   5.893   5.649   4.342
10630SOL    HW132234   5.882   5.743   4.375
10630SOL    HW232235   5.888   5.586   4.419
10631SOL     OW32236   7.208   5.953   4.098
10631SOL    HW132237   7.210   5.877   4.162
10631SOL    HW232238   7.160   6.030   4.138
10632SOL     OW32239   6.609   6.352   4.690
10632SOL    HW132240   6.624   6.373   4.786
10632SOL    HW232241   6.579   6.257   4.681
10633SOL     OW32242   6.566   7.159   5.424
10633SOL    HW132243   6.546   7.203   5.336
10633SOL    HW232244   6.605   7.068   5.408
10634SOL     OW32245   7.445   7.104   5.329
10634SOL    HW132246   7.459   7.131   5.234
10634SOL    HW232247   7.528   7.126   5.382
10635SOL     OW32248   5.936   6.484   5.528
10635SOL    HW132249   6.012   6.528   5.576
10635SOL    HW232250   5.971   6.437   5.446
10636SOL     OW32251   7.126   5.860   3.849
10636SOL    HW132252   7.065   5.785   3.872
10636SOL    HW232253   7.148   5.912   3.932
10637SOL     OW32254   6.889   6.424   3.766
10637SOL    HW132255   6.923   6.331   3.781
10637SOL    HW232256   6.907   6.451   3.671
10638SOL     OW32257   6.654   6.919   4.573
10638SOL    HW132258   6.661   6.835   4.518
10638SOL    HW232259   6.716   6.988   4.537
10639SOL     OW32260   5.905   6.396   4.673
10639SOL    HW132261   5.998   6.432   4.678
10639SOL    HW232262   5.899   6.311   4.725
10640SOL     OW32263   5.925   6.095   4.730
10640SOL    HW132264   5.873   6.012   4.713
10640SOL    HW232265   6.002   6.100   4.666
10641SOL     OW32266   6.724   5.966   5.402
10641SOL    HW132267   6.679   6.029   5.466
10641SOL    HW232268   6.817   5.997   5.385
10642SOL     OW32269   6.746   5.793   5.201
10642SOL    HW132270   6.746   5.857   5.278
10642SOL    HW232271   6.774   5.841   5.118
10643SOL     OW32272   5.594   6.912   3.924
10643SOL    HW132273   5.501   6.933   3.893
10643SOL    HW232274   5.604   6.813   3.937
10644SOL     OW32275   6.588   6.382   4.962
10644SOL    HW132276   6.629   6.350   5.048
10644SOL    HW232277   6.492   6.355   4.959
10645SOL     OW32278   5.626   6.130   4.838
10645SOL    HW132279   5.711   6.097   4.797
10645SOL    HW232280   5.639   6.145   4.936
10646SOL     OW32281   5.775   6.106   5.446
10646SOL    HW132282   5.834   6.066   5.376
10646SOL    HW232283   5.717   6.177   5.405
10647SOL     OW32284   6.955   6.536   5.384
10647SOL    HW132285   6.994   6.625   5.404
10647SOL    HW232286   6.965   6.516   5.287
10648SOL     OW32287   6.401   6.158   4.049
10648SOL    HW132288   6.408   6.069   4.003
10648SOL    HW232289   6.307   6.192   4.041
10649SOL     OW32290   7.243   6.190   4.930
10649SOL    HW132291   7.205   6.121   4.992
10649SOL    HW232292   7.325   6.154   4.886
10650SOL     OW32293   6.257   6.050   4.993
10650SOL    HW132294   6.223   5.961   4.963
10650SOL    HW232295   6.283   6.104   4.913
10651SOL     OW32296   6.059   6.086   3.915
10651SOL    HW132297   6.120   6.166   3.919
10651SOL    HW232298   5.964   6.117   3.922
10652SOL     OW32299   5.745   6.723   5.190
10652SOL    HW132300   5.767   6.662   5.266
10652SOL    HW232301   5.755   6.674   5.104
10653SOL     OW32302   6.933   6.645   4.958
10653SOL    HW132303   6.957   6.582   4.884
10653SOL    HW232304   6.843   6.685   4.940
10654SOL     OW32305   6.888   6.441   4.033
10654SOL    HW132306   6.802   6.410   4.075
10654SOL    HW232307   6.884   6.427   3.934
10655SOL     OW32308   5.669   6.844   4.746
10655SOL    HW132309   5.664   6.843   4.846
10655SOL    HW232310   5.586   6.803   4.708
10656SOL     OW32311   6.274   7.248   5.440
10656SOL    HW132312   6.218   7.329   5.449
10656SOL    HW232313   6.326   7.252   5.354
10657SOL     OW32314   7.312   5.721   4.247
10657SOL    HW132315   7.385   5.704   4.180
10657SOL    HW232316   7.281   5.634   4.285
10658SOL     OW32317   5.716   7.380   5.575
10658SOL    HW132318   5.675   7.306   5.628
10658SOL    HW232319   5.780   7.431   5.633
10659SOL     OW32320   6.866   6.513   4.396
10659SOL    HW132321   6.926   6.432   4.398
10659SOL    HW232322   6.906   6.582   4.336
10660SOL     OW32323   6.416   6.859   5.146
10660SOL    HW132324   6.411   6.892   5.241
10660SOL    HW232325   6.330   6.878   5.100
10661SOL     OW32326   6.258   7.202   3.878
10661SOL    HW132327   6.267   7.212   3.779
10661SOL    HW232328   6.218   7.113   3.899
10662SOL     OW32329   7.427   5.761   4.687
10662SOL    HW132330   7.466   5.676   4.651
10662SOL    HW232331   7.329   5.763   4.668
10663SOL     OW32332   5.849   5.912   4.444
10663SOL    HW132333   5.770   5.963   4.410
10663SOL    HW232334   5.840   5.897   4.542
10664SOL     OW32335   6.408   6.588   5.096
10664SOL    HW132336   6.448   6.587   5.004
10664SOL    HW232337   6.418   6.680   5.136
10665SOL     OW32338   6.502   6.496   4.015
10665SOL    HW132339   6.565   6.534   3.947
10665SOL    HW232340   6.542   6.413   4.054
10666SOL     OW32341   5.958   6.874   5.214
10666SOL    HW132342   5.945   6.967   5.180
10666SOL    HW232343   5.874   6.822   5.201
10667SOL     OW32344   7.200   6.878   5.013
10667SOL    HW132345   7.260   6.881   5.093
10667SOL    HW232346   7.125   6.942   5.026
10668SOL     OW32347   6.625   6.684   4.420
10668SOL    HW132348   6.555   6.637   4.474
10668SOL    HW232349   6.684   6.616   4.377
10669SOL     OW32350   6.600   5.822   4.695
10669SOL    HW132351   6.592   5.786   4.602
10669SOL    HW232352   6.598   5.746   4.760
10670SOL     OW32353   6.176   7.073   4.215
10670SOL    HW132354   6.218   7.015   4.145
10670SOL    HW232355   6.132   7.152   4.171
10671SOL     OW32356   7.295   5.971   5.105
10671SOL    HW132357   7.368   6.040   5.109
10671SOL    HW232358   7.323   5.896   5.046
10672SOL     OW32359   5.841   6.934   4.014
10672SOL    HW132360   5.745   6.935   3.987
10672SOL    HW232361   5.853   6.987   4.098
10673SOL     OW32362   5.691   6.599   5.450
10673SOL    HW132363   5.614   6.566   5.504
10673SOL    HW232364   5.776   6.569   5.492
10674SOL     OW32365   6.258   5.789   5.213
10674SOL    HW132366   6.348   5.773   5.173
10674SOL    HW232367   6.266   5.794   5.312
10675SOL     OW32368   5.661   5.931   3.757
10675SOL    HW132369   5.569   5.903   3.728
10675SOL    HW232370   5.692   6.008   3.701
10676SOL     OW32371   7.026   6.442   5.122
10676SOL    HW132372   6.969   6.494   5.059
10676SOL    HW232373   7.122   6.454   5.098
10677SOL     OW32374   5.658   5.752   4.042
10677SOL    HW132375   5.641   5.835   3.988
10677SOL    HW232376   5.748   5.715   4.020
10678SOL     OW32377   6.769   6.921   3.843
10678SOL    HW132378   6.670   6.910   3.845
10678SOL    HW232379   6.803   6.936   3.936
10679SOL     OW32380   6.199   6.428   5.155
10679SOL    HW132381   6.255   6.509   5.138
10679SOL    HW232382   6.258   6.348   5.158
10680SOL     OW32383   6.302   6.151   5.432
10680SOL    HW132384   6.321   6.216   5.506
10680SOL    HW232385   6.362   6.071   5.441
10681SOL     OW32386   7.036   6.806   5.357
10681SOL    HW132387   7.027   6.796   5.456
10681SOL    HW232388   7.132   6.799   5.331
10682SOL     OW32389   7.260   6.469   4.978
10682SOL    HW132390   7.233   6.380   4.941
10682SOL    HW232391   7.261   6.537   4.905
10683SOL     OW32392   6.811   5.911   4.173
10683SOL    HW132393   6.876   5.837   4.162
10683SOL    HW232394   6.831   5.961   4.257
10684SOL     OW32395   6.180   6.331   4.376
10684SOL    HW132396   6.230   6.416   4.357
10684SOL    HW232397   6.092   6.333   4.328
10685SOL     OW32398   7.363   5.928   5.366
10685SOL    HW132399   7.346   5.959   5.272
10685SOL    HW232400   7.279   5.891   5.404
10686SOL     OW32401   7.316   6.520   5.241
10686SOL    HW132402   7.354   6.611   5.256
10686SOL    HW232403   7.308   6.503   5.142
10687SOL     OW32404   6.445   6.960   3.740
10687SOL    HW132405   6.399   6.975   3.828
10687SOL    HW232406   6.489   7.045   3.710
10688SOL     OW32407   6.445   6.542   4.585
10688SOL    HW132408   6.499   6.473   4.633
10688SOL    HW232409   6.413   6.611   4.651
10689SOL     OW32410   6.669   6.570   3.811
10689SOL    HW132411   6.646   6.623   3.729
10689SOL    HW232412   6.750   6.514   3.792
10690SOL     OW32413   5.807   6.900   5.568
10690SOL    HW132414   5.742   6.827   5.547
10690SOL    HW232415   5.811   6.914   5.666
10691SOL     OW32416   5.665   6.826   4.377
10691SOL    HW132417   5.664   6.779   4.465
10691SOL    HW232418   5.747   6.798   4.326
10692SOL     OW32419   6.258   6.977   5.348
10692SOL    HW132420   6.180   6.927   5.386
10692SOL    HW232421   6.255   7.072   5.379
10693SOL     OW32422   7.410   5.778   4.951
10693SOL    HW132423   7.406   5.688   4.995
10693SOL    HW232424   7.413   5.767   4.852
10694SOL     OW32425   6.014   6.010   4.244
10694SOL    HW132426   6.044   5.938   4.182
10694SOL    HW232427   5.975   5.970   4.327
10695SOL     OW32428   5.903   6.133   5.004
10695SOL    HW132429   5.941   6.074   5.076
10695SOL    HW232430   5.943   6.107   4.916
10696SOL     OW32431   7.010   5.800   4.836
10696SOL    HW132432   7.062   5.735   4.891
10696SOL    HW232433   6.961   5.863   4.897
10697SOL     OW32434   6.587   5.620   4.878
10697SOL    HW132435   6.524   5.548   4.847
10697SOL    HW232436   6.680   5.584   4.878
10698SOL     OW32437   6.356   6.916   4.025
10698SOL    HW132438   6.310   6.829   4.042
10698SOL    HW232439   6.447   6.913   4.066
10699SOL     OW32440   6.938   5.638   3.892
10699SOL    HW132441   6.973   5.597   3.808
10699SOL    HW232442   6.848   5.600   3.912
10700SOL     OW32443   6.886   6.039   4.415
10700SOL    HW132444   6.827   6.119   4.419
10700SOL    HW232445   6.901   6.004   4.508
10701SOL     OW32446   7.179   5.807   4.606
10701SOL    HW132447   7.095   5.806   4.660
10701SOL    HW232448   7.181   5.890   4.550
10702SOL     OW32449   5.625   6.663   4.024
10702SOL    HW132450   5.724   6.652   4.015
10702SOL    HW232451   5.585   6.577   4.056
10703SOL     OW32452   5.816   6.214   5.699
10703SOL    HW132453   5.723   6.212   5.736
10703SOL    HW232454   5.817   6.175   5.607
10704SOL     OW32455   7.341   6.193   5.817
10704SOL    HW132456   7.329   6.180   5.718
10704SOL    HW232457   7.311   6.112   5.866
10705SOL     OW32458   5.816   7.020   6.124
10705SOL    HW132459   5.790   7.116   6.124
10705SOL    HW232460   5.745   6.966   6.169
10706SOL     OW32461   6.192   6.550   5.709
10706SOL    HW132462   6.199   6.634   5.655
10706SOL    HW232463   6.238   6.563   5.797
10707SOL     OW32464   5.708   6.229   6.149
10707SOL    HW132465   5.663   6.141   6.166
10707SOL    HW232466   5.707   6.283   6.233
10708SOL     OW32467   7.275   6.508   6.198
10708SOL    HW132468   7.370   6.479   6.206
10708SOL    HW232469   7.267   6.573   6.123
10709SOL     OW32470   7.227   6.694   6.018
10709SOL    HW132471   7.313   6.696   5.966
10709SOL    HW232472   7.241   6.741   6.106
10710SOL     OW32473   6.395   5.590   6.088
10710SOL    HW132474   6.435   5.681   6.079
10710SOL    HW232475   6.295   5.598   6.094
10711SOL     OW32476   7.111   6.585   5.776
10711SOL    HW132477   7.048   6.509   5.789
10711SOL    HW232478   7.159   6.603   5.862
10712SOL     OW32479   6.184   6.315   5.856
10712SOL    HW132480   6.208   6.384   5.788
10712SOL    HW232481   6.106   6.348   5.910
10713SOL     OW32482   7.162   7.248   5.893
10713SOL    HW132483   7.251   7.294   5.896
10713SOL    HW232484   7.141   7.224   5.798
10714SOL     OW32485   6.627   6.287   6.015
10714SOL    HW132486   6.653   6.283   6.111
10714SOL    HW232487   6.542   6.236   6.001
10715SOL     OW32488   6.451   5.934   5.781
10715SOL    HW132489   6.510   5.997   5.732
10715SOL    HW232490   6.470   5.840   5.752
10716SOL     OW32491   6.948   6.730   6.131
10716SOL    HW132492   7.031   6.701   6.083
10716SOL    HW232493   6.899   6.797   6.075
10717SOL     OW32494   6.136   5.782   6.471
10717SOL    HW132495   6.131   5.777   6.571
10717SOL    HW232496   6.138   5.878   6.442
10718SOL     OW32497   5.907   6.529   5.828
10718SOL    HW132498   5.989   6.568   5.786
10718SOL    HW232499   5.880   6.447   5.779
10719SOL     OW32500   7.044   6.321   6.314
10719SOL    HW132501   7.039   6.256   6.389
10719SOL    HW232502   7.124   6.380   6.327
10720SOL     OW32503   7.218   6.963   5.667
10720SOL    HW132504   7.186   7.057   5.657
10720SOL    HW232505   7.142   6.900   5.655
10721SOL     OW32506   6.986   5.693   6.012
10721SOL    HW132507   6.962   5.656   5.922
10721SOL    HW232508   7.085   5.709   6.016
10722SOL     OW32509   5.968   6.286   6.066
10722SOL    HW132510   6.013   6.196   6.063
10722SOL    HW232511   5.874   6.275   6.099
10723SOL     OW32512   6.200   5.708   5.703
10723SOL    HW132513   6.298   5.686   5.710
10723SOL    HW232514   6.169   5.691   5.610
10724SOL     OW32515   6.389   6.988   6.510
10724SOL    HW132516   6.479   7.002   6.468
10724SOL    HW232517   6.318   6.990   6.439
10725SOL     OW32518   6.125   5.650   6.098
10725SOL    HW132519   6.044   5.651   6.156
10725SOL    HW232520   6.128   5.733   6.043
10726SOL     OW32521   7.020   6.774   5.627
10726SOL    HW132522   7.052   6.698   5.684
10726SOL    HW232523   6.928   6.801   5.657
10727SOL     OW32524   5.883   5.621   5.757
10727SOL    HW132525   5.932   5.705   5.736
10727SOL    HW232526   5.945   5.556   5.802
10728SOL     OW32527   6.521   5.822   6.066
10728SOL    HW132528   6.473   5.863   5.988
10728SOL    HW232529   6.620   5.820   6.047
10729SOL     OW32530   6.857   7.383   6.177
10729SOL    HW132531   6.901   7.447   6.113
10729SOL    HW232532   6.807   7.435   6.247
10730SOL     OW32533   6.618   6.135   5.602
10730SOL    HW132534   6.577   6.217   5.563
10730SOL    HW232535   6.682   6.161   5.675
10731SOL     OW32536   7.443   6.419   5.963
10731SOL    HW132537   7.485   6.355   6.027
10731SOL    HW232538   7.405   6.368   5.885
10732SOL     OW32539   6.074   6.971   5.760
10732SOL    HW132540   5.987   6.956   5.807
10732SOL    HW232541   6.057   6.997   5.665
10733SOL     OW32542   6.976   6.161   5.664
10733SOL    HW132543   6.922   6.140   5.745
10733SOL    HW232544   7.067   6.120   5.673
10734SOL     OW32545   6.113   5.842   5.914
10734SOL    HW132546   6.140   5.783   5.839
10734SOL    HW232547   6.113   5.937   5.883
10735SOL     OW32548   6.291   6.636   5.954
10735SOL    HW132549   6.277   6.643   6.053
10735SOL    HW232550   6.375   6.585   5.936
10736SOL     OW32551   5.953   6.686   6.087
10736SOL    HW132552   5.946   6.769   6.031
10736SOL    HW232553   5.957   6.606   6.027
10737SOL     OW32554   6.838   6.934   5.974
10737SOL    HW132555   6.888   7.011   6.014
10737SOL    HW232556   6.743   6.936   6.006
10738SOL     OW32557   7.168   6.225   6.058
10738SOL    HW132558   7.137   6.286   6.131
10738SOL    HW232559   7.218   6.277   5.989
10739SOL     OW32560   6.795   6.111   5.861
10739SOL    HW132561   6.808   6.027   5.915
10739SOL    HW232562   6.766   6.185   5.921
10740SOL     OW32563   7.208   5.953   5.960
10740SOL    HW132564   7.210   5.877   6.024
10740SOL    HW232565   7.160   6.030   6.000
10741SOL     OW32566   7.126   5.860   5.711
10741SOL    HW132567   7.065   5.785   5.734
10741SOL    HW232568   7.148   5.912   5.794
10742SOL     OW32569   6.889   6.424   5.628
10742SOL    HW132570   6.923   6.331   5.643
10742SOL    HW232571   6.907   6.451   5.533
10743SOL     OW32572   5.594   6.912   5.786
10743SOL    HW132573   5.501   6.933   5.755
10743SOL    HW232574   5.604   6.813   5.799
10744SOL     OW32575   6.401   6.158   5.911
10744SOL    HW132576   6.408   6.069   5.865
10744SOL    HW232577   6.307   6.192   5.903
10745SOL     OW32578   6.059   6.086   5.777
10745SOL    HW132579   6.120   6.166   5.781
10745SOL    HW232580   5.964   6.117   5.784
10746SOL     OW32581   6.888   6.441   5.895
10746SOL    HW132582   6.802   6.410   5.937
10746SOL    HW232583   6.884   6.427   5.796
10747SOL     OW32584   7.312   5.721   6.109
10747SOL    HW132585   7.385   5.704   6.042
10747SOL    HW232586   7.281   5.634   6.147
10748SOL     OW32587   6.866   6.513   6.258
10748SOL    HW132588   6.926   6.432   6.260
10748SOL    HW232589   6.906   6.582   6.198
10749SOL     OW32590   6.258   7.202   5.740
10749SOL    HW132591   6.267   7.212   5.641
10749SOL    HW232592   6.218   7.113   5.761
10750SOL     OW32593   6.502   6.496   5.877
10750SOL    HW132594   6.565   6.534   5.809
10750SOL    HW232595   6.542   6.413   5.916
10751SOL     OW32596   5.841   6.934   5.876
10751SOL    HW132597   5.745   6.935   5.849
10751SOL    HW232598   5.853   6.987   5.960
10752SOL     OW32599   5.661   5.931   5.619
10752SOL    HW132600   5.569   5.903   5.590
10752SOL    HW232601   5.692   6.008   5.563
10753SOL     OW32602   5.658   5.752   5.904
10753SOL    HW132603   5.641   5.835   5.850
10753SOL    HW232604   5.748   5.715   5.882
10754SOL     OW32605   6.769   6.921   5.705
10754SOL    HW132606   6.670   6.910   5.707
10754SOL    HW232607   6.803   6.936   5.798
10755SOL     OW32608   6.811   5.911   6.035
10755SOL    HW132609   6.876   5.837   6.024
10755SOL    HW232610   6.831   5.961   6.119
10756SOL     OW32611   6.445   6.960   5.602
10756SOL    HW132612   6.399   6.975   5.690
10756SOL    HW232613   6.489   7.045   5.572
10757SOL     OW32614   6.669   6.570   5.673
10757SOL    HW132615   6.646   6.623   5.591
10757SOL    HW232616   6.750   6.514   5.654
10758SOL     OW32617   6.356   6.916   5.887
10758SOL    HW132618   6.310   6.829   5.904
10758SOL    HW232619   6.447   6.913   5.928
10759SOL     OW32620   6.938   5.638   5.754
10759SOL    HW132621   6.973   5.597   5.670
10759SOL    HW232622   6.848   5.600   5.774
10760SOL     OW32623   7.179   5.807   6.468
10760SOL    HW132624   7.095   5.806   6.522
10760SOL    HW232625   7.181   5.890   6.412
10761SOL     OW32626   5.625   6.663   5.886
10761SOL    HW132627   5.724   6.652   5.877
10761SOL    HW232628   5.585   6.577   5.918
   7.60963   7.17443   6.21324   0.00000   0.00000   2.53654   0.00000  -2.53654   3.58722
