GROningen Mixture of Alchemy and Childrens' Stories
  417
    1ASP      N    1   4.927   5.164   1.351
    1ASP     H1    2   4.961   5.211   1.269
    1ASP     H2    3   4.986   5.188   1.429
    1ASP     H3    4   4.929   5.065   1.336
    1ASP     CA    5   4.788   5.207   1.379
    1ASP     HA    6   4.797   5.304   1.402
    1ASP     CB    7   4.704   5.188   1.253
    1ASP    HB1    8   4.670   5.095   1.249
    1ASP    HB2    9   4.760   5.207   1.172
    1ASP     CG   10   4.586   5.285   1.257
    1ASP    OD1   11   4.611   5.397   1.305
    1ASP    OD2   12   4.475   5.241   1.222
    1ASP      C   13   4.723   5.143   1.504
    1ASP      O   14   4.633   5.199   1.563
    2SER      N   15   4.771   5.028   1.552
    2SER     HN   16   4.855   4.991   1.513
    2SER     CA   17   4.705   4.953   1.662
    2SER     HA   18   4.608   4.973   1.646
    2SER     CB   19   4.738   4.804   1.647
    2SER    HB1   20   4.673   4.748   1.697
    2SER    HB2   21   4.831   4.784   1.680
    2SER     OG   22   4.732   4.767   1.511
    2SER    HG1   23   4.754   4.670   1.501
    2SER      C   24   4.734   5.002   1.805
    2SER      O   25   4.680   4.945   1.900
    3HIS      N   26   4.816   5.106   1.824
    3HIS     HN   27   4.855   5.151   1.745
    3HIS     CA   28   4.851   5.156   1.959
    3HIS     HA   29   4.848   5.075   2.018
    3HIS     CB   30   4.994   5.212   1.958
    3HIS    HB1   31   4.991   5.306   1.922
    3HIS    HB2   32   5.051   5.156   1.899
    3HIS    ND1   33   5.065   5.111   2.184
    3HIS     CG   34   5.056   5.216   2.095
    3HIS    CE1   35   5.129   5.153   2.294
    3HIS    HE1   36   5.149   5.097   2.374
    3HIS    NE2   37   5.162   5.282   2.281
    3HIS    HE2   38   5.209   5.338   2.349
    3HIS    CD2   39   5.118   5.323   2.155
    3HIS    HD2   40   5.130   5.414   2.115
    3HIS      C   41   4.746   5.254   2.015
    3HIS      O   42   4.714   5.249   2.133
    4ALA      N   43   4.682   5.335   1.929
    4ALA     HN   44   4.708   5.330   1.832
    4ALA     CA   45   4.578   5.430   1.969
    4ALA     HA   46   4.613   5.478   2.049
    4ALA     CB   47   4.555   5.527   1.851
    4ALA    HB1   48   4.642   5.569   1.826
    4ALA    HB2   49   4.519   5.476   1.773
    4ALA    HB3   50   4.490   5.597   1.879
    4ALA      C   51   4.447   5.361   2.012
    4ALA      O   52   4.382   5.402   2.108
    5LYS      N   53   4.411   5.248   1.948
    5LYS     HN   54   4.470   5.215   1.874
    5LYS     CA   55   4.290   5.170   1.982
    5LYS     HA   56   4.216   5.237   1.984
    5LYS     CB   57   4.263   5.066   1.872
    5LYS    HB1   58   4.193   5.002   1.905
    5LYS    HB2   59   4.347   5.015   1.854
    5LYS     CG   60   4.215   5.132   1.742
    5LYS    HG1   61   4.285   5.196   1.711
    5LYS    HG2   62   4.130   5.182   1.761
    5LYS     CD   63   4.187   5.030   1.630
    5LYS    HD1   64   4.271   4.980   1.610
    5LYS    HD2   65   4.116   4.966   1.660
    5LYS     CE   66   4.140   5.105   1.505
    5LYS    HE1   67   4.205   5.178   1.483
    5LYS    HE2   68   4.050   5.146   1.523
    5LYS     NZ   69   4.127   5.018   1.386
    5LYS    HZ1   70   4.096   5.072   1.308
    5LYS    HZ2   71   4.216   4.977   1.365
    5LYS    HZ3   72   4.061   4.945   1.404
    5LYS      C   73   4.298   5.106   2.120
    5LYS      O   74   4.200   5.106   2.194
    6ARG      N   75   4.417   5.059   2.160
    6ARG     HN   76   4.493   5.060   2.095
    6ARG     CA   77   4.440   5.007   2.295
    6ARG     HA   78   4.365   4.943   2.316
    6ARG     CB   79   4.573   4.929   2.297
    6ARG    HB1   80   4.648   4.995   2.292
    6ARG    HB2   81   4.576   4.870   2.217
    6ARG     CG   82   4.591   4.843   2.423
    6ARG    HG1   83   4.507   4.793   2.442
    6ARG    HG2   84   4.613   4.902   2.501
    6ARG     CD   85   4.706   4.743   2.402
    6ARG    HD1   86   4.787   4.791   2.370
    6ARG    HD2   87   4.679   4.675   2.334
    6ARG     NE   88   4.740   4.671   2.527
    6ARG     HE   89   4.728   4.722   2.612
    6ARG     CZ   90   4.786   4.547   2.538
    6ARG    NH1   91   4.796   4.467   2.436
    6ARG   HH11   92   4.770   4.498   2.345
    6ARG   HH12   93   4.831   4.374   2.449
    6ARG    NH2   94   4.822   4.501   2.654
    6ARG   HH21   95   4.816   4.559   2.735
    6ARG   HH22   96   4.856   4.407   2.663
    6ARG      C   97   4.432   5.117   2.401
    6ARG      O   98   4.402   5.086   2.516
    7HIS      N   99   4.452   5.243   2.362
    7HIS     HN  100   4.467   5.260   2.265
    7HIS     CA  101   4.451   5.357   2.452
    7HIS     HA  102   4.486   5.320   2.539
    7HIS     CB  103   4.550   5.465   2.401
    7HIS    HB1  104   4.498   5.535   2.352
    7HIS    HB2  105   4.615   5.421   2.339
    7HIS    ND1  106   4.719   5.476   2.598
    7HIS     CG  107   4.630   5.535   2.509
    7HIS    CE1  108   4.768   5.572   2.679
    7HIS    HE1  109   4.837   5.557   2.749
    7HIS    NE2  110   4.710   5.690   2.650
    7HIS    HE2  111   4.724   5.776   2.699
    7HIS    CD2  112   4.627   5.668   2.540
    7HIS    HD2  113   4.575   5.738   2.491
    7HIS      C  114   4.309   5.411   2.484
    7HIS      O  115   4.283   5.466   2.591
    8HIS      N  116   4.211   5.391   2.396
    8HIS     HN  117   4.232   5.347   2.308
    8HIS     CA  118   4.072   5.430   2.425
    8HIS     HA  119   4.080   5.511   2.483
    8HIS     CB  120   4.001   5.468   2.295
    8HIS    HB1  121   3.902   5.460   2.308
    8HIS    HB2  122   4.030   5.405   2.222
    8HIS    ND1  123   3.984   5.723   2.311
    8HIS     CG  124   4.035   5.609   2.254
    8HIS    CE1  125   4.040   5.829   2.250
    8HIS    HE1  126   4.019   5.924   2.271
    8HIS    NE2  127   4.127   5.788   2.157
    8HIS    HE2  128   4.183   5.846   2.098
    8HIS    CD2  129   4.124   5.648   2.158
    8HIS    HD2  130   4.178   5.588   2.099
    8HIS      C  131   3.995   5.327   2.509
    8HIS      O  132   3.909   5.364   2.588
    9GLY      N  133   4.030   5.198   2.499
    9GLY     HN  134   4.105   5.173   2.438
    9GLY     CA  135   3.962   5.091   2.574
    9GLY    HA1  136   3.864   5.101   2.557
    9GLY    HA2  137   3.993   5.004   2.537
    9GLY      C  138   3.987   5.095   2.725
    9GLY      O  139   3.895   5.073   2.804
   10TYR      N  140   4.110   5.126   2.768
   10TYR     HN  141   4.180   5.149   2.701
   10TYR     CA  142   4.145   5.128   2.911
   10TYR     HA  143   4.095   5.051   2.950
   10TYR     CB  144   4.296   5.105   2.931
   10TYR    HB1  145   4.328   5.039   2.862
   10TYR    HB2  146   4.311   5.068   3.022
   10TYR     CG  147   4.379   5.230   2.917
   10TYR    CD1  148   4.415   5.276   2.790
   10TYR    HD1  149   4.394   5.222   2.708
   10TYR    CE1  150   4.481   5.399   2.778
   10TYR    HE1  151   4.505   5.433   2.687
   10TYR     CZ  152   4.515   5.476   2.889
   10TYR     OH  153   4.570   5.599   2.873
   10TYR     HH  154   4.588   5.639   2.963
   10TYR    CD2  155   4.411   5.308   3.030
   10TYR    HD2  156   4.384   5.276   3.121
   10TYR    CE2  157   4.479   5.430   3.016
   10TYR    HE2  158   4.502   5.484   3.097
   10TYR      C  159   4.096   5.255   2.983
   10TYR      O  160   4.050   5.246   3.097
   11LYS      N  161   4.098   5.371   2.916
   11LYS     HN  162   4.139   5.373   2.824
   11LYS     CA  163   4.044   5.497   2.970
   11LYS     HA  164   4.087   5.507   3.060
   11LYS     CB  165   4.080   5.616   2.880
   11LYS    HB1  166   4.013   5.689   2.893
   11LYS    HB2  167   4.078   5.587   2.784
   11LYS     CG  168   4.220   5.670   2.913
   11LYS    HG1  169   4.286   5.597   2.899
   11LYS    HG2  170   4.221   5.699   3.009
   11LYS     CD  171   4.260   5.790   2.826
   11LYS    HD1  172   4.281   5.758   2.734
   11LYS    HD2  173   4.185   5.856   2.822
   11LYS     CE  174   4.384   5.859   2.885
   11LYS    HE1  175   4.457   5.791   2.898
   11LYS    HE2  176   4.361   5.899   2.974
   11LYS     NZ  177   4.437   5.968   2.799
   11LYS    HZ1  178   4.517   6.009   2.842
   11LYS    HZ2  179   4.463   5.930   2.710
   11LYS    HZ3  180   4.367   6.037   2.786
   11LYS      C  181   3.893   5.489   2.992
   11LYS      O  182   3.845   5.539   3.093
   12ARG      N  183   3.820   5.421   2.903
   12ARG     HN  184   3.866   5.383   2.823
   12ARG     CA  185   3.675   5.400   2.916
   12ARG     HA  186   3.635   5.490   2.934
   12ARG     CB  187   3.617   5.343   2.785
   12ARG    HB1  188   3.643   5.247   2.777
   12ARG    HB2  189   3.654   5.395   2.708
   12ARG     CG  190   3.464   5.354   2.784
   12ARG    HG1  191   3.439   5.450   2.801
   12ARG    HG2  192   3.427   5.297   2.857
   12ARG     CD  193   3.402   5.310   2.651
   12ARG    HD1  194   3.454   5.350   2.575
   12ARG    HD2  195   3.307   5.340   2.646
   12ARG     NE  196   3.404   5.163   2.635
   12ARG     HE  197   3.478   5.113   2.681
   12ARG     CZ  198   3.317   5.092   2.566
   12ARG    NH1  199   3.223   5.147   2.495
   12ARG   HH11  200   3.215   5.246   2.491
   12ARG   HH12  201   3.159   5.089   2.444
   12ARG    NH2  202   3.322   4.961   2.568
   12ARG   HH21  203   3.392   4.915   2.622
   12ARG   HH22  204   3.256   4.908   2.515
   12ARG      C  205   3.641   5.312   3.037
   12ARG      O  206   3.557   5.351   3.117
   13LYS      N  207   3.713   5.201   3.056
   13LYS     HN  208   3.783   5.177   2.988
   13LYS     CA  209   3.695   5.112   3.173
   13LYS     HA  210   3.598   5.092   3.178
   13LYS     CB  211   3.776   4.984   3.151
   13LYS    HB1  212   3.874   5.005   3.159
   13LYS    HB2  213   3.757   4.949   3.059
   13LYS     CG  214   3.740   4.875   3.253
   13LYS    HG1  215   3.641   4.860   3.250
   13LYS    HG2  216   3.766   4.906   3.344
   13LYS     CD  217   3.811   4.742   3.223
   13LYS    HD1  218   3.789   4.713   3.130
   13LYS    HD2  219   3.909   4.754   3.231
   13LYS     CE  220   3.763   4.636   3.323
   13LYS    HE1  221   3.664   4.626   3.316
   13LYS    HE2  222   3.788   4.664   3.415
   13LYS     NZ  223   3.825   4.503   3.297
   13LYS    HZ1  224   3.791   4.437   3.364
   13LYS    HZ2  225   3.800   4.472   3.205
   13LYS    HZ3  226   3.924   4.510   3.305
   13LYS      C  227   3.732   5.181   3.305
   13LYS      O  228   3.671   5.152   3.408
   14PHE      N  229   3.830   5.272   3.304
   14PHE     HN  230   3.881   5.285   3.219
   14PHE     CA  231   3.865   5.353   3.420
   14PHE     HA  232   3.872   5.290   3.498
   14PHE     CB  233   4.002   5.418   3.397
   14PHE    HB1  234   3.994   5.481   3.320
   14PHE    HB2  235   4.068   5.347   3.375
   14PHE     CG  236   4.055   5.496   3.516
   14PHE    CD1  237   4.048   5.637   3.517
   14PHE    HD1  238   4.008   5.685   3.440
   14PHE    CE1  239   4.097   5.709   3.627
   14PHE    HE1  240   4.092   5.809   3.628
   14PHE     CZ  241   4.154   5.641   3.736
   14PHE     HZ  242   4.189   5.692   3.815
   14PHE    CD2  243   4.111   5.428   3.625
   14PHE    HD2  244   4.116   5.328   3.625
   14PHE    CE2  245   4.161   5.500   3.735
   14PHE    HE2  246   4.202   5.452   3.813
   14PHE      C  247   3.754   5.454   3.453
   14PHE      O  248   3.704   5.451   3.565
   15HIS      N  249   3.708   5.535   3.357
   15HIS     HN  250   3.749   5.529   3.266
   15HIS     CA  251   3.600   5.631   3.380
   15HIS     HA  252   3.632   5.689   3.455
   15HIS     CB  253   3.577   5.716   3.254
   15HIS    HB1  254   3.481   5.709   3.226
   15HIS    HB2  255   3.635   5.681   3.180
   15HIS    ND1  256   3.734   5.915   3.294
   15HIS     CG  257   3.609   5.862   3.273
   15HIS    CE1  258   3.720   6.048   3.309
   15HIS    HE1  259   3.796   6.112   3.326
   15HIS    NE2  260   3.592   6.083   3.297
   15HIS    HE2  261   3.555   6.176   3.303
   15HIS    CD2  262   3.520   5.965   3.276
   15HIS    HD2  263   3.421   5.958   3.265
   15HIS      C  264   3.469   5.564   3.426
   15HIS      O  265   3.405   5.611   3.520
   16GLU      N  266   3.432   5.451   3.366
   16GLU     HN  267   3.491   5.414   3.294
   16GLU     CA  268   3.310   5.376   3.400
   16GLU     HA  269   3.233   5.440   3.393
   16GLU     CB  270   3.297   5.263   3.296
   16GLU    HB1  271   3.367   5.194   3.317
   16GLU    HB2  272   3.315   5.302   3.206
   16GLU     CG  273   3.161   5.193   3.292
   16GLU    HG1  274   3.089   5.261   3.285
   16GLU    HG2  275   3.149   5.140   3.376
   16GLU     CD  276   3.158   5.100   3.170
   16GLU    OE1  277   3.195   4.981   3.186
   16GLU    OE2  278   3.133   5.150   3.058
   16GLU      C  279   3.310   5.324   3.545
   16GLU      O  280   3.208   5.333   3.613
   17LYS      N  281   3.426   5.282   3.597
   17LYS     HN  282   3.506   5.280   3.538
   17LYS     CA  283   3.442   5.237   3.737
   17LYS     HA  284   3.365   5.176   3.755
   17LYS     CB  285   3.576   5.163   3.749
   17LYS    HB1  286   3.650   5.229   3.736
   17LYS    HB2  287   3.581   5.093   3.678
   17LYS     CG  288   3.594   5.095   3.886
   17LYS    HG1  289   3.517   5.033   3.901
   17LYS    HG2  290   3.595   5.165   3.957
   17LYS     CD  291   3.724   5.014   3.895
   17LYS    HD1  292   3.724   4.942   3.826
   17LYS    HD2  293   3.802   5.074   3.880
   17LYS     CE  294   3.732   4.952   4.035
   17LYS    HE1  295   3.656   4.888   4.047
   17LYS    HE2  296   3.724   5.025   4.104
   17LYS     NZ  297   3.859   4.879   4.058
   17LYS    HZ1  298   3.859   4.841   4.151
   17LYS    HZ2  299   3.867   4.805   3.992
   17LYS    HZ3  300   3.936   4.942   4.048
   17LYS      C  301   3.429   5.351   3.839
   17LYS      O  302   3.398   5.325   3.955
   18HIS      N  303   3.453   5.476   3.799
   18HIS     HN  304   3.474   5.491   3.703
   18HIS     CA  305   3.451   5.592   3.889
   18HIS     HA  306   3.462   5.554   3.981
   18HIS     CB  307   3.569   5.684   3.855
   18HIS    HB1  308   3.554   5.774   3.897
   18HIS    HB2  309   3.576   5.695   3.756
   18HIS    ND1  310   3.741   5.627   4.037
   18HIS     CG  311   3.700   5.629   3.906
   18HIS    CE1  312   3.862   5.569   4.043
   18HIS    HE1  313   3.914   5.555   4.127
   18HIS    NE2  314   3.902   5.531   3.921
   18HIS    HE2  315   3.986   5.483   3.898
   18HIS    CD2  316   3.802   5.573   3.833
   18HIS    HD2  317   3.804   5.563   3.733
   18HIS      C  318   3.316   5.666   3.891
   18HIS      O  319   3.292   5.745   3.983
   19HIS      N  320   3.226   5.640   3.796
   19HIS     HN  321   3.252   5.577   3.722
   19HIS     CA  322   3.092   5.698   3.795
   19HIS     HA  323   3.101   5.784   3.845
   19HIS     CB  324   3.049   5.725   3.650
   19HIS    HB1  325   2.951   5.744   3.648
   19HIS    HB2  326   3.069   5.645   3.594
   19HIS    ND1  327   3.112   5.974   3.634
   19HIS     CG  328   3.122   5.843   3.591
   19HIS    CE1  329   3.193   6.049   3.557
   19HIS    HE1  330   3.205   6.148   3.567
   19HIS    NE2  331   3.253   5.973   3.465
   19HIS    HE2  332   3.318   6.004   3.395
   19HIS    CD2  333   3.208   5.842   3.485
   19HIS    HD2  334   3.235   5.762   3.432
   19HIS      C  335   2.987   5.616   3.872
   19HIS      O  336   2.883   5.670   3.909
   20SER      N  337   3.015   5.489   3.903
   20SER     HN  338   3.104   5.453   3.877
   20SER     CA  339   2.922   5.400   3.973
   20SER     HA  340   2.831   5.429   3.941
   20SER     CB  341   2.951   5.255   3.933
   20SER    HB1  342   2.943   5.243   3.834
   20SER    HB2  343   2.888   5.192   3.979
   20SER     OG  344   3.083   5.219   3.970
   20SER    HG1  345   3.100   5.124   3.943
   20SER      C  346   2.918   5.417   4.126
   20SER      O  347   2.864   5.332   4.195
   21HIS      N  348   2.977   5.524   4.181
   21HIS     HN  349   3.016   5.594   4.120
   21HIS     CA  350   2.989   5.543   4.326
   21HIS     HA  351   2.923   5.480   4.366
   21HIS     CB  352   3.132   5.507   4.372
   21HIS    HB1  353   3.188   5.590   4.373
   21HIS    HB2  354   3.171   5.441   4.308
   21HIS    ND1  355   3.065   5.334   4.550
   21HIS     CG  356   3.135   5.446   4.510
   21HIS    CE1  357   3.095   5.310   4.678
   21HIS    HE1  358   3.057   5.236   4.733
   21HIS    NE2  359   3.184   5.400   4.723
   21HIS    HE2  360   3.225   5.404   4.814
   21HIS    CD2  361   3.208   5.489   4.618
   21HIS    HD2  362   3.267   5.569   4.621
   21HIS      C  363   2.944   5.682   4.375
   21HIS      O  364   2.985   5.726   4.482
   22ARG      N  365   2.861   5.753   4.297
   22ARG     HN  366   2.830   5.712   4.211
   22ARG     CA  367   2.815   5.889   4.331
   22ARG     HA  368   2.851   5.908   4.422
   22ARG     CB  369   2.877   5.990   4.232
   22ARG    HB1  370   2.814   6.002   4.155
   22ARG    HB2  371   2.964   5.955   4.200
   22ARG     CG  372   2.899   6.126   4.300
   22ARG    HG1  373   2.956   6.113   4.382
   22ARG    HG2  374   2.810   6.164   4.327
   22ARG     CD  375   2.969   6.223   4.205
   22ARG    HD1  376   2.919   6.227   4.118
   22ARG    HD2  377   3.063   6.193   4.189
   22ARG     NE  378   2.973   6.358   4.263
   22ARG     HE  379   2.929   6.370   4.352
   22ARG     CZ  380   3.029   6.465   4.209
   22ARG    NH1  381   3.095   6.459   4.097
   22ARG   HH11  382   3.104   6.372   4.049
   22ARG   HH12  383   3.136   6.542   4.058
   22ARG    NH2  384   3.019   6.581   4.268
   22ARG   HH21  385   2.969   6.589   4.354
   22ARG   HH22  386   3.062   6.662   4.227
   22ARG      C  387   2.664   5.901   4.349
   22ARG      O  388   2.607   6.006   4.324
   23GLY      N  389   2.600   5.793   4.394
   23GLY     HN  390   2.652   5.709   4.409
   23GLY     CA  391   2.456   5.792   4.423
   23GLY    HA1  392   2.431   5.884   4.456
   23GLY    HA2  393   2.408   5.773   4.338
   23GLY      C  394   2.420   5.689   4.528
   23GLY      O  395   2.363   5.587   4.491
   24TYR      N  396   2.458   5.714   4.653
   24TYR     HN  397   2.543   5.766   4.664
   24TYR     CA  398   2.391   5.675   4.778
   24TYR     HA  399   2.293   5.685   4.760
   24TYR     CB  400   2.414   5.528   4.817
   24TYR    HB1  401   2.411   5.520   4.917
   24TYR    HB2  402   2.504   5.500   4.784
   24TYR     CG  403   2.311   5.434   4.758
   24TYR    CD1  404   2.180   5.431   4.811
   24TYR    HD1  405   2.158   5.487   4.891
   24TYR    CE1  406   2.082   5.349   4.752
   24TYR    HE1  407   1.989   5.347   4.790
   24TYR     CZ  408   2.114   5.271   4.639
   24TYR     OH  409   2.019   5.195   4.579
   24TYR     HH  410   2.059   5.147   4.501
   24TYR    CD2  411   2.343   5.352   4.648
   24TYR    HD2  412   2.437   5.352   4.613
   24TYR    CE2  413   2.245   5.273   4.587
   24TYR    HE2  414   2.268   5.217   4.507
   24TYR      C  415   2.438   5.769   4.889
   24TYR    OT1  416   2.528   5.865   4.854
   24TYR    OT2  417   2.386   5.750   5.013
   7.60963   7.17443   6.21324   0.00000   0.00000   2.53654   0.00000  -2.53654   3.58722
